PSF EXT CMAP XPLOR

         2 !NTITLE
* GENERATED BY CHARMM-GUI FF-Converter
* DATE:   02/18/25   12:11:50

     81404 !NATOM
         1 MEMB     1        CHL1     C3       CRL1     0.140000       12.0110           0
         2 MEMB     1        CHL1     H3       HGA1     0.900000E-01   1.00800           0
         3 MEMB     1        CHL1     O3       OHL     -0.660000       15.9994           0
         4 MEMB     1        CHL1     H3'      HOL      0.430000       1.00800           0
         5 MEMB     1        CHL1     C4       CRL2    -0.180000       12.0110           0
         6 MEMB     1        CHL1     H4A      HGA2     0.900000E-01   1.00800           0
         7 MEMB     1        CHL1     H4B      HGA2     0.900000E-01   1.00800           0
         8 MEMB     1        CHL1     C5       CEL1     0.000000       12.0110           0
         9 MEMB     1        CHL1     C6       CEL1    -0.150000       12.0110           0
        10 MEMB     1        CHL1     H6       HEL1     0.150000       1.00800           0
        11 MEMB     1        CHL1     C7       CRL2    -0.180000       12.0110           0
        12 MEMB     1        CHL1     H7A      HGA2     0.900000E-01   1.00800           0
        13 MEMB     1        CHL1     H7B      HGA2     0.900000E-01   1.00800           0
        14 MEMB     1        CHL1     C8       CRL1    -0.900000E-01   12.0110           0
        15 MEMB     1        CHL1     H8       HGA1     0.900000E-01   1.00800           0
        16 MEMB     1        CHL1     C14      CRL1    -0.900000E-01   12.0110           0
        17 MEMB     1        CHL1     H14      HGA1     0.900000E-01   1.00800           0
        18 MEMB     1        CHL1     C15      CRL2    -0.180000       12.0110           0
        19 MEMB     1        CHL1     H15A     HGA2     0.900000E-01   1.00800           0
        20 MEMB     1        CHL1     H15B     HGA2     0.900000E-01   1.00800           0
        21 MEMB     1        CHL1     C16      CRL2    -0.180000       12.0110           0
        22 MEMB     1        CHL1     H16A     HGA2     0.900000E-01   1.00800           0
        23 MEMB     1        CHL1     H16B     HGA2     0.900000E-01   1.00800           0
        24 MEMB     1        CHL1     C17      CRL1    -0.900000E-01   12.0110           0
        25 MEMB     1        CHL1     H17      HGA1     0.900000E-01   1.00800           0
        26 MEMB     1        CHL1     C13      CRL1     0.000000       12.0110           0
        27 MEMB     1        CHL1     C18      CTL3    -0.270000       12.0110           0
        28 MEMB     1        CHL1     H18A     HAL3     0.900000E-01   1.00800           0
        29 MEMB     1        CHL1     H18B     HAL3     0.900000E-01   1.00800           0
        30 MEMB     1        CHL1     H18C     HAL3     0.900000E-01   1.00800           0
        31 MEMB     1        CHL1     C12      CRL2    -0.180000       12.0110           0
        32 MEMB     1        CHL1     H12A     HGA2     0.900000E-01   1.00800           0
        33 MEMB     1        CHL1     H12B     HGA2     0.900000E-01   1.00800           0
        34 MEMB     1        CHL1     C11      CRL2    -0.180000       12.0110           0
        35 MEMB     1        CHL1     H11A     HGA2     0.900000E-01   1.00800           0
        36 MEMB     1        CHL1     H11B     HGA2     0.900000E-01   1.00800           0
        37 MEMB     1        CHL1     C9       CRL1    -0.900000E-01   12.0110           0
        38 MEMB     1        CHL1     H9       HGA1     0.900000E-01   1.00800           0
        39 MEMB     1        CHL1     C10      CRL1     0.000000       12.0110           0
        40 MEMB     1        CHL1     C19      CTL3    -0.270000       12.0110           0
        41 MEMB     1        CHL1     H19A     HAL3     0.900000E-01   1.00800           0
        42 MEMB     1        CHL1     H19B     HAL3     0.900000E-01   1.00800           0
        43 MEMB     1        CHL1     H19C     HAL3     0.900000E-01   1.00800           0
        44 MEMB     1        CHL1     C1       CRL2    -0.180000       12.0110           0
        45 MEMB     1        CHL1     H1A      HGA2     0.900000E-01   1.00800           0
        46 MEMB     1        CHL1     H1B      HGA2     0.900000E-01   1.00800           0
        47 MEMB     1        CHL1     C2       CRL2    -0.180000       12.0110           0
        48 MEMB     1        CHL1     H2A      HGA2     0.900000E-01   1.00800           0
        49 MEMB     1        CHL1     H2B      HGA2     0.900000E-01   1.00800           0
        50 MEMB     1        CHL1     C20      CTL1    -0.900000E-01   12.0110           0
        51 MEMB     1        CHL1     H20      HAL1     0.900000E-01   1.00800           0
        52 MEMB     1        CHL1     C21      CTL3    -0.270000       12.0110           0
        53 MEMB     1        CHL1     H21A     HAL3     0.900000E-01   1.00800           0
        54 MEMB     1        CHL1     H21B     HAL3     0.900000E-01   1.00800           0
        55 MEMB     1        CHL1     H21C     HAL3     0.900000E-01   1.00800           0
        56 MEMB     1        CHL1     C22      CTL2    -0.180000       12.0110           0
        57 MEMB     1        CHL1     H22A     HAL2     0.900000E-01   1.00800           0
        58 MEMB     1        CHL1     H22B     HAL2     0.900000E-01   1.00800           0
        59 MEMB     1        CHL1     C23      CTL2    -0.180000       12.0110           0
        60 MEMB     1        CHL1     H23A     HAL2     0.900000E-01   1.00800           0
        61 MEMB     1        CHL1     H23B     HAL2     0.900000E-01   1.00800           0
        62 MEMB     1        CHL1     C24      CTL2    -0.180000       12.0110           0
        63 MEMB     1        CHL1     H24A     HAL2     0.900000E-01   1.00800           0
        64 MEMB     1        CHL1     H24B     HAL2     0.900000E-01   1.00800           0
        65 MEMB     1        CHL1     C25      CTL1    -0.900000E-01   12.0110           0
        66 MEMB     1        CHL1     H25      HAL1     0.900000E-01   1.00800           0
        67 MEMB     1        CHL1     C26      CTL3    -0.270000       12.0110           0
        68 MEMB     1        CHL1     H26A     HAL3     0.900000E-01   1.00800           0
        69 MEMB     1        CHL1     H26B     HAL3     0.900000E-01   1.00800           0
        70 MEMB     1        CHL1     H26C     HAL3     0.900000E-01   1.00800           0
        71 MEMB     1        CHL1     C27      CTL3    -0.270000       12.0110           0
        72 MEMB     1        CHL1     H27A     HAL3     0.900000E-01   1.00800           0
        73 MEMB     1        CHL1     H27B     HAL3     0.900000E-01   1.00800           0
        74 MEMB     1        CHL1     H27C     HAL3     0.900000E-01   1.00800           0
        75 MEMB     6        CHL1     C3       CRL1     0.140000       12.0110           0
        76 MEMB     6        CHL1     H3       HGA1     0.900000E-01   1.00800           0
        77 MEMB     6        CHL1     O3       OHL     -0.660000       15.9994           0
        78 MEMB     6        CHL1     H3'      HOL      0.430000       1.00800           0
        79 MEMB     6        CHL1     C4       CRL2    -0.180000       12.0110           0
        80 MEMB     6        CHL1     H4A      HGA2     0.900000E-01   1.00800           0
        81 MEMB     6        CHL1     H4B      HGA2     0.900000E-01   1.00800           0
        82 MEMB     6        CHL1     C5       CEL1     0.000000       12.0110           0
        83 MEMB     6        CHL1     C6       CEL1    -0.150000       12.0110           0
        84 MEMB     6        CHL1     H6       HEL1     0.150000       1.00800           0
        85 MEMB     6        CHL1     C7       CRL2    -0.180000       12.0110           0
        86 MEMB     6        CHL1     H7A      HGA2     0.900000E-01   1.00800           0
        87 MEMB     6        CHL1     H7B      HGA2     0.900000E-01   1.00800           0
        88 MEMB     6        CHL1     C8       CRL1    -0.900000E-01   12.0110           0
        89 MEMB     6        CHL1     H8       HGA1     0.900000E-01   1.00800           0
        90 MEMB     6        CHL1     C14      CRL1    -0.900000E-01   12.0110           0
        91 MEMB     6        CHL1     H14      HGA1     0.900000E-01   1.00800           0
        92 MEMB     6        CHL1     C15      CRL2    -0.180000       12.0110           0
        93 MEMB     6        CHL1     H15A     HGA2     0.900000E-01   1.00800           0
        94 MEMB     6        CHL1     H15B     HGA2     0.900000E-01   1.00800           0
        95 MEMB     6        CHL1     C16      CRL2    -0.180000       12.0110           0
        96 MEMB     6        CHL1     H16A     HGA2     0.900000E-01   1.00800           0
        97 MEMB     6        CHL1     H16B     HGA2     0.900000E-01   1.00800           0
        98 MEMB     6        CHL1     C17      CRL1    -0.900000E-01   12.0110           0
        99 MEMB     6        CHL1     H17      HGA1     0.900000E-01   1.00800           0
       100 MEMB     6        CHL1     C13      CRL1     0.000000       12.0110           0
       101 MEMB     6        CHL1     C18      CTL3    -0.270000       12.0110           0
       102 MEMB     6        CHL1     H18A     HAL3     0.900000E-01   1.00800           0
       103 MEMB     6        CHL1     H18B     HAL3     0.900000E-01   1.00800           0
       104 MEMB     6        CHL1     H18C     HAL3     0.900000E-01   1.00800           0
       105 MEMB     6        CHL1     C12      CRL2    -0.180000       12.0110           0
       106 MEMB     6        CHL1     H12A     HGA2     0.900000E-01   1.00800           0
       107 MEMB     6        CHL1     H12B     HGA2     0.900000E-01   1.00800           0
       108 MEMB     6        CHL1     C11      CRL2    -0.180000       12.0110           0
       109 MEMB     6        CHL1     H11A     HGA2     0.900000E-01   1.00800           0
       110 MEMB     6        CHL1     H11B     HGA2     0.900000E-01   1.00800           0
       111 MEMB     6        CHL1     C9       CRL1    -0.900000E-01   12.0110           0
       112 MEMB     6        CHL1     H9       HGA1     0.900000E-01   1.00800           0
       113 MEMB     6        CHL1     C10      CRL1     0.000000       12.0110           0
       114 MEMB     6        CHL1     C19      CTL3    -0.270000       12.0110           0
       115 MEMB     6        CHL1     H19A     HAL3     0.900000E-01   1.00800           0
       116 MEMB     6        CHL1     H19B     HAL3     0.900000E-01   1.00800           0
       117 MEMB     6        CHL1     H19C     HAL3     0.900000E-01   1.00800           0
       118 MEMB     6        CHL1     C1       CRL2    -0.180000       12.0110           0
       119 MEMB     6        CHL1     H1A      HGA2     0.900000E-01   1.00800           0
       120 MEMB     6        CHL1     H1B      HGA2     0.900000E-01   1.00800           0
       121 MEMB     6        CHL1     C2       CRL2    -0.180000       12.0110           0
       122 MEMB     6        CHL1     H2A      HGA2     0.900000E-01   1.00800           0
       123 MEMB     6        CHL1     H2B      HGA2     0.900000E-01   1.00800           0
       124 MEMB     6        CHL1     C20      CTL1    -0.900000E-01   12.0110           0
       125 MEMB     6        CHL1     H20      HAL1     0.900000E-01   1.00800           0
       126 MEMB     6        CHL1     C21      CTL3    -0.270000       12.0110           0
       127 MEMB     6        CHL1     H21A     HAL3     0.900000E-01   1.00800           0
       128 MEMB     6        CHL1     H21B     HAL3     0.900000E-01   1.00800           0
       129 MEMB     6        CHL1     H21C     HAL3     0.900000E-01   1.00800           0
       130 MEMB     6        CHL1     C22      CTL2    -0.180000       12.0110           0
       131 MEMB     6        CHL1     H22A     HAL2     0.900000E-01   1.00800           0
       132 MEMB     6        CHL1     H22B     HAL2     0.900000E-01   1.00800           0
       133 MEMB     6        CHL1     C23      CTL2    -0.180000       12.0110           0
       134 MEMB     6        CHL1     H23A     HAL2     0.900000E-01   1.00800           0
       135 MEMB     6        CHL1     H23B     HAL2     0.900000E-01   1.00800           0
       136 MEMB     6        CHL1     C24      CTL2    -0.180000       12.0110           0
       137 MEMB     6        CHL1     H24A     HAL2     0.900000E-01   1.00800           0
       138 MEMB     6        CHL1     H24B     HAL2     0.900000E-01   1.00800           0
       139 MEMB     6        CHL1     C25      CTL1    -0.900000E-01   12.0110           0
       140 MEMB     6        CHL1     H25      HAL1     0.900000E-01   1.00800           0
       141 MEMB     6        CHL1     C26      CTL3    -0.270000       12.0110           0
       142 MEMB     6        CHL1     H26A     HAL3     0.900000E-01   1.00800           0
       143 MEMB     6        CHL1     H26B     HAL3     0.900000E-01   1.00800           0
       144 MEMB     6        CHL1     H26C     HAL3     0.900000E-01   1.00800           0
       145 MEMB     6        CHL1     C27      CTL3    -0.270000       12.0110           0
       146 MEMB     6        CHL1     H27A     HAL3     0.900000E-01   1.00800           0
       147 MEMB     6        CHL1     H27B     HAL3     0.900000E-01   1.00800           0
       148 MEMB     6        CHL1     H27C     HAL3     0.900000E-01   1.00800           0
       149 MEMB     17       CHL1     C3       CRL1     0.140000       12.0110           0
       150 MEMB     17       CHL1     H3       HGA1     0.900000E-01   1.00800           0
       151 MEMB     17       CHL1     O3       OHL     -0.660000       15.9994           0
       152 MEMB     17       CHL1     H3'      HOL      0.430000       1.00800           0
       153 MEMB     17       CHL1     C4       CRL2    -0.180000       12.0110           0
       154 MEMB     17       CHL1     H4A      HGA2     0.900000E-01   1.00800           0
       155 MEMB     17       CHL1     H4B      HGA2     0.900000E-01   1.00800           0
       156 MEMB     17       CHL1     C5       CEL1     0.000000       12.0110           0
       157 MEMB     17       CHL1     C6       CEL1    -0.150000       12.0110           0
       158 MEMB     17       CHL1     H6       HEL1     0.150000       1.00800           0
       159 MEMB     17       CHL1     C7       CRL2    -0.180000       12.0110           0
       160 MEMB     17       CHL1     H7A      HGA2     0.900000E-01   1.00800           0
       161 MEMB     17       CHL1     H7B      HGA2     0.900000E-01   1.00800           0
       162 MEMB     17       CHL1     C8       CRL1    -0.900000E-01   12.0110           0
       163 MEMB     17       CHL1     H8       HGA1     0.900000E-01   1.00800           0
       164 MEMB     17       CHL1     C14      CRL1    -0.900000E-01   12.0110           0
       165 MEMB     17       CHL1     H14      HGA1     0.900000E-01   1.00800           0
       166 MEMB     17       CHL1     C15      CRL2    -0.180000       12.0110           0
       167 MEMB     17       CHL1     H15A     HGA2     0.900000E-01   1.00800           0
       168 MEMB     17       CHL1     H15B     HGA2     0.900000E-01   1.00800           0
       169 MEMB     17       CHL1     C16      CRL2    -0.180000       12.0110           0
       170 MEMB     17       CHL1     H16A     HGA2     0.900000E-01   1.00800           0
       171 MEMB     17       CHL1     H16B     HGA2     0.900000E-01   1.00800           0
       172 MEMB     17       CHL1     C17      CRL1    -0.900000E-01   12.0110           0
       173 MEMB     17       CHL1     H17      HGA1     0.900000E-01   1.00800           0
       174 MEMB     17       CHL1     C13      CRL1     0.000000       12.0110           0
       175 MEMB     17       CHL1     C18      CTL3    -0.270000       12.0110           0
       176 MEMB     17       CHL1     H18A     HAL3     0.900000E-01   1.00800           0
       177 MEMB     17       CHL1     H18B     HAL3     0.900000E-01   1.00800           0
       178 MEMB     17       CHL1     H18C     HAL3     0.900000E-01   1.00800           0
       179 MEMB     17       CHL1     C12      CRL2    -0.180000       12.0110           0
       180 MEMB     17       CHL1     H12A     HGA2     0.900000E-01   1.00800           0
       181 MEMB     17       CHL1     H12B     HGA2     0.900000E-01   1.00800           0
       182 MEMB     17       CHL1     C11      CRL2    -0.180000       12.0110           0
       183 MEMB     17       CHL1     H11A     HGA2     0.900000E-01   1.00800           0
       184 MEMB     17       CHL1     H11B     HGA2     0.900000E-01   1.00800           0
       185 MEMB     17       CHL1     C9       CRL1    -0.900000E-01   12.0110           0
       186 MEMB     17       CHL1     H9       HGA1     0.900000E-01   1.00800           0
       187 MEMB     17       CHL1     C10      CRL1     0.000000       12.0110           0
       188 MEMB     17       CHL1     C19      CTL3    -0.270000       12.0110           0
       189 MEMB     17       CHL1     H19A     HAL3     0.900000E-01   1.00800           0
       190 MEMB     17       CHL1     H19B     HAL3     0.900000E-01   1.00800           0
       191 MEMB     17       CHL1     H19C     HAL3     0.900000E-01   1.00800           0
       192 MEMB     17       CHL1     C1       CRL2    -0.180000       12.0110           0
       193 MEMB     17       CHL1     H1A      HGA2     0.900000E-01   1.00800           0
       194 MEMB     17       CHL1     H1B      HGA2     0.900000E-01   1.00800           0
       195 MEMB     17       CHL1     C2       CRL2    -0.180000       12.0110           0
       196 MEMB     17       CHL1     H2A      HGA2     0.900000E-01   1.00800           0
       197 MEMB     17       CHL1     H2B      HGA2     0.900000E-01   1.00800           0
       198 MEMB     17       CHL1     C20      CTL1    -0.900000E-01   12.0110           0
       199 MEMB     17       CHL1     H20      HAL1     0.900000E-01   1.00800           0
       200 MEMB     17       CHL1     C21      CTL3    -0.270000       12.0110           0
       201 MEMB     17       CHL1     H21A     HAL3     0.900000E-01   1.00800           0
       202 MEMB     17       CHL1     H21B     HAL3     0.900000E-01   1.00800           0
       203 MEMB     17       CHL1     H21C     HAL3     0.900000E-01   1.00800           0
       204 MEMB     17       CHL1     C22      CTL2    -0.180000       12.0110           0
       205 MEMB     17       CHL1     H22A     HAL2     0.900000E-01   1.00800           0
       206 MEMB     17       CHL1     H22B     HAL2     0.900000E-01   1.00800           0
       207 MEMB     17       CHL1     C23      CTL2    -0.180000       12.0110           0
       208 MEMB     17       CHL1     H23A     HAL2     0.900000E-01   1.00800           0
       209 MEMB     17       CHL1     H23B     HAL2     0.900000E-01   1.00800           0
       210 MEMB     17       CHL1     C24      CTL2    -0.180000       12.0110           0
       211 MEMB     17       CHL1     H24A     HAL2     0.900000E-01   1.00800           0
       212 MEMB     17       CHL1     H24B     HAL2     0.900000E-01   1.00800           0
       213 MEMB     17       CHL1     C25      CTL1    -0.900000E-01   12.0110           0
       214 MEMB     17       CHL1     H25      HAL1     0.900000E-01   1.00800           0
       215 MEMB     17       CHL1     C26      CTL3    -0.270000       12.0110           0
       216 MEMB     17       CHL1     H26A     HAL3     0.900000E-01   1.00800           0
       217 MEMB     17       CHL1     H26B     HAL3     0.900000E-01   1.00800           0
       218 MEMB     17       CHL1     H26C     HAL3     0.900000E-01   1.00800           0
       219 MEMB     17       CHL1     C27      CTL3    -0.270000       12.0110           0
       220 MEMB     17       CHL1     H27A     HAL3     0.900000E-01   1.00800           0
       221 MEMB     17       CHL1     H27B     HAL3     0.900000E-01   1.00800           0
       222 MEMB     17       CHL1     H27C     HAL3     0.900000E-01   1.00800           0
       223 MEMB     20       CHL1     C3       CRL1     0.140000       12.0110           0
       224 MEMB     20       CHL1     H3       HGA1     0.900000E-01   1.00800           0
       225 MEMB     20       CHL1     O3       OHL     -0.660000       15.9994           0
       226 MEMB     20       CHL1     H3'      HOL      0.430000       1.00800           0
       227 MEMB     20       CHL1     C4       CRL2    -0.180000       12.0110           0
       228 MEMB     20       CHL1     H4A      HGA2     0.900000E-01   1.00800           0
       229 MEMB     20       CHL1     H4B      HGA2     0.900000E-01   1.00800           0
       230 MEMB     20       CHL1     C5       CEL1     0.000000       12.0110           0
       231 MEMB     20       CHL1     C6       CEL1    -0.150000       12.0110           0
       232 MEMB     20       CHL1     H6       HEL1     0.150000       1.00800           0
       233 MEMB     20       CHL1     C7       CRL2    -0.180000       12.0110           0
       234 MEMB     20       CHL1     H7A      HGA2     0.900000E-01   1.00800           0
       235 MEMB     20       CHL1     H7B      HGA2     0.900000E-01   1.00800           0
       236 MEMB     20       CHL1     C8       CRL1    -0.900000E-01   12.0110           0
       237 MEMB     20       CHL1     H8       HGA1     0.900000E-01   1.00800           0
       238 MEMB     20       CHL1     C14      CRL1    -0.900000E-01   12.0110           0
       239 MEMB     20       CHL1     H14      HGA1     0.900000E-01   1.00800           0
       240 MEMB     20       CHL1     C15      CRL2    -0.180000       12.0110           0
       241 MEMB     20       CHL1     H15A     HGA2     0.900000E-01   1.00800           0
       242 MEMB     20       CHL1     H15B     HGA2     0.900000E-01   1.00800           0
       243 MEMB     20       CHL1     C16      CRL2    -0.180000       12.0110           0
       244 MEMB     20       CHL1     H16A     HGA2     0.900000E-01   1.00800           0
       245 MEMB     20       CHL1     H16B     HGA2     0.900000E-01   1.00800           0
       246 MEMB     20       CHL1     C17      CRL1    -0.900000E-01   12.0110           0
       247 MEMB     20       CHL1     H17      HGA1     0.900000E-01   1.00800           0
       248 MEMB     20       CHL1     C13      CRL1     0.000000       12.0110           0
       249 MEMB     20       CHL1     C18      CTL3    -0.270000       12.0110           0
       250 MEMB     20       CHL1     H18A     HAL3     0.900000E-01   1.00800           0
       251 MEMB     20       CHL1     H18B     HAL3     0.900000E-01   1.00800           0
       252 MEMB     20       CHL1     H18C     HAL3     0.900000E-01   1.00800           0
       253 MEMB     20       CHL1     C12      CRL2    -0.180000       12.0110           0
       254 MEMB     20       CHL1     H12A     HGA2     0.900000E-01   1.00800           0
       255 MEMB     20       CHL1     H12B     HGA2     0.900000E-01   1.00800           0
       256 MEMB     20       CHL1     C11      CRL2    -0.180000       12.0110           0
       257 MEMB     20       CHL1     H11A     HGA2     0.900000E-01   1.00800           0
       258 MEMB     20       CHL1     H11B     HGA2     0.900000E-01   1.00800           0
       259 MEMB     20       CHL1     C9       CRL1    -0.900000E-01   12.0110           0
       260 MEMB     20       CHL1     H9       HGA1     0.900000E-01   1.00800           0
       261 MEMB     20       CHL1     C10      CRL1     0.000000       12.0110           0
       262 MEMB     20       CHL1     C19      CTL3    -0.270000       12.0110           0
       263 MEMB     20       CHL1     H19A     HAL3     0.900000E-01   1.00800           0
       264 MEMB     20       CHL1     H19B     HAL3     0.900000E-01   1.00800           0
       265 MEMB     20       CHL1     H19C     HAL3     0.900000E-01   1.00800           0
       266 MEMB     20       CHL1     C1       CRL2    -0.180000       12.0110           0
       267 MEMB     20       CHL1     H1A      HGA2     0.900000E-01   1.00800           0
       268 MEMB     20       CHL1     H1B      HGA2     0.900000E-01   1.00800           0
       269 MEMB     20       CHL1     C2       CRL2    -0.180000       12.0110           0
       270 MEMB     20       CHL1     H2A      HGA2     0.900000E-01   1.00800           0
       271 MEMB     20       CHL1     H2B      HGA2     0.900000E-01   1.00800           0
       272 MEMB     20       CHL1     C20      CTL1    -0.900000E-01   12.0110           0
       273 MEMB     20       CHL1     H20      HAL1     0.900000E-01   1.00800           0
       274 MEMB     20       CHL1     C21      CTL3    -0.270000       12.0110           0
       275 MEMB     20       CHL1     H21A     HAL3     0.900000E-01   1.00800           0
       276 MEMB     20       CHL1     H21B     HAL3     0.900000E-01   1.00800           0
       277 MEMB     20       CHL1     H21C     HAL3     0.900000E-01   1.00800           0
       278 MEMB     20       CHL1     C22      CTL2    -0.180000       12.0110           0
       279 MEMB     20       CHL1     H22A     HAL2     0.900000E-01   1.00800           0
       280 MEMB     20       CHL1     H22B     HAL2     0.900000E-01   1.00800           0
       281 MEMB     20       CHL1     C23      CTL2    -0.180000       12.0110           0
       282 MEMB     20       CHL1     H23A     HAL2     0.900000E-01   1.00800           0
       283 MEMB     20       CHL1     H23B     HAL2     0.900000E-01   1.00800           0
       284 MEMB     20       CHL1     C24      CTL2    -0.180000       12.0110           0
       285 MEMB     20       CHL1     H24A     HAL2     0.900000E-01   1.00800           0
       286 MEMB     20       CHL1     H24B     HAL2     0.900000E-01   1.00800           0
       287 MEMB     20       CHL1     C25      CTL1    -0.900000E-01   12.0110           0
       288 MEMB     20       CHL1     H25      HAL1     0.900000E-01   1.00800           0
       289 MEMB     20       CHL1     C26      CTL3    -0.270000       12.0110           0
       290 MEMB     20       CHL1     H26A     HAL3     0.900000E-01   1.00800           0
       291 MEMB     20       CHL1     H26B     HAL3     0.900000E-01   1.00800           0
       292 MEMB     20       CHL1     H26C     HAL3     0.900000E-01   1.00800           0
       293 MEMB     20       CHL1     C27      CTL3    -0.270000       12.0110           0
       294 MEMB     20       CHL1     H27A     HAL3     0.900000E-01   1.00800           0
       295 MEMB     20       CHL1     H27B     HAL3     0.900000E-01   1.00800           0
       296 MEMB     20       CHL1     H27C     HAL3     0.900000E-01   1.00800           0
       297 MEMB     21       CHL1     C3       CRL1     0.140000       12.0110           0
       298 MEMB     21       CHL1     H3       HGA1     0.900000E-01   1.00800           0
       299 MEMB     21       CHL1     O3       OHL     -0.660000       15.9994           0
       300 MEMB     21       CHL1     H3'      HOL      0.430000       1.00800           0
       301 MEMB     21       CHL1     C4       CRL2    -0.180000       12.0110           0
       302 MEMB     21       CHL1     H4A      HGA2     0.900000E-01   1.00800           0
       303 MEMB     21       CHL1     H4B      HGA2     0.900000E-01   1.00800           0
       304 MEMB     21       CHL1     C5       CEL1     0.000000       12.0110           0
       305 MEMB     21       CHL1     C6       CEL1    -0.150000       12.0110           0
       306 MEMB     21       CHL1     H6       HEL1     0.150000       1.00800           0
       307 MEMB     21       CHL1     C7       CRL2    -0.180000       12.0110           0
       308 MEMB     21       CHL1     H7A      HGA2     0.900000E-01   1.00800           0
       309 MEMB     21       CHL1     H7B      HGA2     0.900000E-01   1.00800           0
       310 MEMB     21       CHL1     C8       CRL1    -0.900000E-01   12.0110           0
       311 MEMB     21       CHL1     H8       HGA1     0.900000E-01   1.00800           0
       312 MEMB     21       CHL1     C14      CRL1    -0.900000E-01   12.0110           0
       313 MEMB     21       CHL1     H14      HGA1     0.900000E-01   1.00800           0
       314 MEMB     21       CHL1     C15      CRL2    -0.180000       12.0110           0
       315 MEMB     21       CHL1     H15A     HGA2     0.900000E-01   1.00800           0
       316 MEMB     21       CHL1     H15B     HGA2     0.900000E-01   1.00800           0
       317 MEMB     21       CHL1     C16      CRL2    -0.180000       12.0110           0
       318 MEMB     21       CHL1     H16A     HGA2     0.900000E-01   1.00800           0
       319 MEMB     21       CHL1     H16B     HGA2     0.900000E-01   1.00800           0
       320 MEMB     21       CHL1     C17      CRL1    -0.900000E-01   12.0110           0
       321 MEMB     21       CHL1     H17      HGA1     0.900000E-01   1.00800           0
       322 MEMB     21       CHL1     C13      CRL1     0.000000       12.0110           0
       323 MEMB     21       CHL1     C18      CTL3    -0.270000       12.0110           0
       324 MEMB     21       CHL1     H18A     HAL3     0.900000E-01   1.00800           0
       325 MEMB     21       CHL1     H18B     HAL3     0.900000E-01   1.00800           0
       326 MEMB     21       CHL1     H18C     HAL3     0.900000E-01   1.00800           0
       327 MEMB     21       CHL1     C12      CRL2    -0.180000       12.0110           0
       328 MEMB     21       CHL1     H12A     HGA2     0.900000E-01   1.00800           0
       329 MEMB     21       CHL1     H12B     HGA2     0.900000E-01   1.00800           0
       330 MEMB     21       CHL1     C11      CRL2    -0.180000       12.0110           0
       331 MEMB     21       CHL1     H11A     HGA2     0.900000E-01   1.00800           0
       332 MEMB     21       CHL1     H11B     HGA2     0.900000E-01   1.00800           0
       333 MEMB     21       CHL1     C9       CRL1    -0.900000E-01   12.0110           0
       334 MEMB     21       CHL1     H9       HGA1     0.900000E-01   1.00800           0
       335 MEMB     21       CHL1     C10      CRL1     0.000000       12.0110           0
       336 MEMB     21       CHL1     C19      CTL3    -0.270000       12.0110           0
       337 MEMB     21       CHL1     H19A     HAL3     0.900000E-01   1.00800           0
       338 MEMB     21       CHL1     H19B     HAL3     0.900000E-01   1.00800           0
       339 MEMB     21       CHL1     H19C     HAL3     0.900000E-01   1.00800           0
       340 MEMB     21       CHL1     C1       CRL2    -0.180000       12.0110           0
       341 MEMB     21       CHL1     H1A      HGA2     0.900000E-01   1.00800           0
       342 MEMB     21       CHL1     H1B      HGA2     0.900000E-01   1.00800           0
       343 MEMB     21       CHL1     C2       CRL2    -0.180000       12.0110           0
       344 MEMB     21       CHL1     H2A      HGA2     0.900000E-01   1.00800           0
       345 MEMB     21       CHL1     H2B      HGA2     0.900000E-01   1.00800           0
       346 MEMB     21       CHL1     C20      CTL1    -0.900000E-01   12.0110           0
       347 MEMB     21       CHL1     H20      HAL1     0.900000E-01   1.00800           0
       348 MEMB     21       CHL1     C21      CTL3    -0.270000       12.0110           0
       349 MEMB     21       CHL1     H21A     HAL3     0.900000E-01   1.00800           0
       350 MEMB     21       CHL1     H21B     HAL3     0.900000E-01   1.00800           0
       351 MEMB     21       CHL1     H21C     HAL3     0.900000E-01   1.00800           0
       352 MEMB     21       CHL1     C22      CTL2    -0.180000       12.0110           0
       353 MEMB     21       CHL1     H22A     HAL2     0.900000E-01   1.00800           0
       354 MEMB     21       CHL1     H22B     HAL2     0.900000E-01   1.00800           0
       355 MEMB     21       CHL1     C23      CTL2    -0.180000       12.0110           0
       356 MEMB     21       CHL1     H23A     HAL2     0.900000E-01   1.00800           0
       357 MEMB     21       CHL1     H23B     HAL2     0.900000E-01   1.00800           0
       358 MEMB     21       CHL1     C24      CTL2    -0.180000       12.0110           0
       359 MEMB     21       CHL1     H24A     HAL2     0.900000E-01   1.00800           0
       360 MEMB     21       CHL1     H24B     HAL2     0.900000E-01   1.00800           0
       361 MEMB     21       CHL1     C25      CTL1    -0.900000E-01   12.0110           0
       362 MEMB     21       CHL1     H25      HAL1     0.900000E-01   1.00800           0
       363 MEMB     21       CHL1     C26      CTL3    -0.270000       12.0110           0
       364 MEMB     21       CHL1     H26A     HAL3     0.900000E-01   1.00800           0
       365 MEMB     21       CHL1     H26B     HAL3     0.900000E-01   1.00800           0
       366 MEMB     21       CHL1     H26C     HAL3     0.900000E-01   1.00800           0
       367 MEMB     21       CHL1     C27      CTL3    -0.270000       12.0110           0
       368 MEMB     21       CHL1     H27A     HAL3     0.900000E-01   1.00800           0
       369 MEMB     21       CHL1     H27B     HAL3     0.900000E-01   1.00800           0
       370 MEMB     21       CHL1     H27C     HAL3     0.900000E-01   1.00800           0
       371 MEMB     24       CHL1     C3       CRL1     0.140000       12.0110           0
       372 MEMB     24       CHL1     H3       HGA1     0.900000E-01   1.00800           0
       373 MEMB     24       CHL1     O3       OHL     -0.660000       15.9994           0
       374 MEMB     24       CHL1     H3'      HOL      0.430000       1.00800           0
       375 MEMB     24       CHL1     C4       CRL2    -0.180000       12.0110           0
       376 MEMB     24       CHL1     H4A      HGA2     0.900000E-01   1.00800           0
       377 MEMB     24       CHL1     H4B      HGA2     0.900000E-01   1.00800           0
       378 MEMB     24       CHL1     C5       CEL1     0.000000       12.0110           0
       379 MEMB     24       CHL1     C6       CEL1    -0.150000       12.0110           0
       380 MEMB     24       CHL1     H6       HEL1     0.150000       1.00800           0
       381 MEMB     24       CHL1     C7       CRL2    -0.180000       12.0110           0
       382 MEMB     24       CHL1     H7A      HGA2     0.900000E-01   1.00800           0
       383 MEMB     24       CHL1     H7B      HGA2     0.900000E-01   1.00800           0
       384 MEMB     24       CHL1     C8       CRL1    -0.900000E-01   12.0110           0
       385 MEMB     24       CHL1     H8       HGA1     0.900000E-01   1.00800           0
       386 MEMB     24       CHL1     C14      CRL1    -0.900000E-01   12.0110           0
       387 MEMB     24       CHL1     H14      HGA1     0.900000E-01   1.00800           0
       388 MEMB     24       CHL1     C15      CRL2    -0.180000       12.0110           0
       389 MEMB     24       CHL1     H15A     HGA2     0.900000E-01   1.00800           0
       390 MEMB     24       CHL1     H15B     HGA2     0.900000E-01   1.00800           0
       391 MEMB     24       CHL1     C16      CRL2    -0.180000       12.0110           0
       392 MEMB     24       CHL1     H16A     HGA2     0.900000E-01   1.00800           0
       393 MEMB     24       CHL1     H16B     HGA2     0.900000E-01   1.00800           0
       394 MEMB     24       CHL1     C17      CRL1    -0.900000E-01   12.0110           0
       395 MEMB     24       CHL1     H17      HGA1     0.900000E-01   1.00800           0
       396 MEMB     24       CHL1     C13      CRL1     0.000000       12.0110           0
       397 MEMB     24       CHL1     C18      CTL3    -0.270000       12.0110           0
       398 MEMB     24       CHL1     H18A     HAL3     0.900000E-01   1.00800           0
       399 MEMB     24       CHL1     H18B     HAL3     0.900000E-01   1.00800           0
       400 MEMB     24       CHL1     H18C     HAL3     0.900000E-01   1.00800           0
       401 MEMB     24       CHL1     C12      CRL2    -0.180000       12.0110           0
       402 MEMB     24       CHL1     H12A     HGA2     0.900000E-01   1.00800           0
       403 MEMB     24       CHL1     H12B     HGA2     0.900000E-01   1.00800           0
       404 MEMB     24       CHL1     C11      CRL2    -0.180000       12.0110           0
       405 MEMB     24       CHL1     H11A     HGA2     0.900000E-01   1.00800           0
       406 MEMB     24       CHL1     H11B     HGA2     0.900000E-01   1.00800           0
       407 MEMB     24       CHL1     C9       CRL1    -0.900000E-01   12.0110           0
       408 MEMB     24       CHL1     H9       HGA1     0.900000E-01   1.00800           0
       409 MEMB     24       CHL1     C10      CRL1     0.000000       12.0110           0
       410 MEMB     24       CHL1     C19      CTL3    -0.270000       12.0110           0
       411 MEMB     24       CHL1     H19A     HAL3     0.900000E-01   1.00800           0
       412 MEMB     24       CHL1     H19B     HAL3     0.900000E-01   1.00800           0
       413 MEMB     24       CHL1     H19C     HAL3     0.900000E-01   1.00800           0
       414 MEMB     24       CHL1     C1       CRL2    -0.180000       12.0110           0
       415 MEMB     24       CHL1     H1A      HGA2     0.900000E-01   1.00800           0
       416 MEMB     24       CHL1     H1B      HGA2     0.900000E-01   1.00800           0
       417 MEMB     24       CHL1     C2       CRL2    -0.180000       12.0110           0
       418 MEMB     24       CHL1     H2A      HGA2     0.900000E-01   1.00800           0
       419 MEMB     24       CHL1     H2B      HGA2     0.900000E-01   1.00800           0
       420 MEMB     24       CHL1     C20      CTL1    -0.900000E-01   12.0110           0
       421 MEMB     24       CHL1     H20      HAL1     0.900000E-01   1.00800           0
       422 MEMB     24       CHL1     C21      CTL3    -0.270000       12.0110           0
       423 MEMB     24       CHL1     H21A     HAL3     0.900000E-01   1.00800           0
       424 MEMB     24       CHL1     H21B     HAL3     0.900000E-01   1.00800           0
       425 MEMB     24       CHL1     H21C     HAL3     0.900000E-01   1.00800           0
       426 MEMB     24       CHL1     C22      CTL2    -0.180000       12.0110           0
       427 MEMB     24       CHL1     H22A     HAL2     0.900000E-01   1.00800           0
       428 MEMB     24       CHL1     H22B     HAL2     0.900000E-01   1.00800           0
       429 MEMB     24       CHL1     C23      CTL2    -0.180000       12.0110           0
       430 MEMB     24       CHL1     H23A     HAL2     0.900000E-01   1.00800           0
       431 MEMB     24       CHL1     H23B     HAL2     0.900000E-01   1.00800           0
       432 MEMB     24       CHL1     C24      CTL2    -0.180000       12.0110           0
       433 MEMB     24       CHL1     H24A     HAL2     0.900000E-01   1.00800           0
       434 MEMB     24       CHL1     H24B     HAL2     0.900000E-01   1.00800           0
       435 MEMB     24       CHL1     C25      CTL1    -0.900000E-01   12.0110           0
       436 MEMB     24       CHL1     H25      HAL1     0.900000E-01   1.00800           0
       437 MEMB     24       CHL1     C26      CTL3    -0.270000       12.0110           0
       438 MEMB     24       CHL1     H26A     HAL3     0.900000E-01   1.00800           0
       439 MEMB     24       CHL1     H26B     HAL3     0.900000E-01   1.00800           0
       440 MEMB     24       CHL1     H26C     HAL3     0.900000E-01   1.00800           0
       441 MEMB     24       CHL1     C27      CTL3    -0.270000       12.0110           0
       442 MEMB     24       CHL1     H27A     HAL3     0.900000E-01   1.00800           0
       443 MEMB     24       CHL1     H27B     HAL3     0.900000E-01   1.00800           0
       444 MEMB     24       CHL1     H27C     HAL3     0.900000E-01   1.00800           0
       445 MEMB     34       CHL1     C3       CRL1     0.140000       12.0110           0
       446 MEMB     34       CHL1     H3       HGA1     0.900000E-01   1.00800           0
       447 MEMB     34       CHL1     O3       OHL     -0.660000       15.9994           0
       448 MEMB     34       CHL1     H3'      HOL      0.430000       1.00800           0
       449 MEMB     34       CHL1     C4       CRL2    -0.180000       12.0110           0
       450 MEMB     34       CHL1     H4A      HGA2     0.900000E-01   1.00800           0
       451 MEMB     34       CHL1     H4B      HGA2     0.900000E-01   1.00800           0
       452 MEMB     34       CHL1     C5       CEL1     0.000000       12.0110           0
       453 MEMB     34       CHL1     C6       CEL1    -0.150000       12.0110           0
       454 MEMB     34       CHL1     H6       HEL1     0.150000       1.00800           0
       455 MEMB     34       CHL1     C7       CRL2    -0.180000       12.0110           0
       456 MEMB     34       CHL1     H7A      HGA2     0.900000E-01   1.00800           0
       457 MEMB     34       CHL1     H7B      HGA2     0.900000E-01   1.00800           0
       458 MEMB     34       CHL1     C8       CRL1    -0.900000E-01   12.0110           0
       459 MEMB     34       CHL1     H8       HGA1     0.900000E-01   1.00800           0
       460 MEMB     34       CHL1     C14      CRL1    -0.900000E-01   12.0110           0
       461 MEMB     34       CHL1     H14      HGA1     0.900000E-01   1.00800           0
       462 MEMB     34       CHL1     C15      CRL2    -0.180000       12.0110           0
       463 MEMB     34       CHL1     H15A     HGA2     0.900000E-01   1.00800           0
       464 MEMB     34       CHL1     H15B     HGA2     0.900000E-01   1.00800           0
       465 MEMB     34       CHL1     C16      CRL2    -0.180000       12.0110           0
       466 MEMB     34       CHL1     H16A     HGA2     0.900000E-01   1.00800           0
       467 MEMB     34       CHL1     H16B     HGA2     0.900000E-01   1.00800           0
       468 MEMB     34       CHL1     C17      CRL1    -0.900000E-01   12.0110           0
       469 MEMB     34       CHL1     H17      HGA1     0.900000E-01   1.00800           0
       470 MEMB     34       CHL1     C13      CRL1     0.000000       12.0110           0
       471 MEMB     34       CHL1     C18      CTL3    -0.270000       12.0110           0
       472 MEMB     34       CHL1     H18A     HAL3     0.900000E-01   1.00800           0
       473 MEMB     34       CHL1     H18B     HAL3     0.900000E-01   1.00800           0
       474 MEMB     34       CHL1     H18C     HAL3     0.900000E-01   1.00800           0
       475 MEMB     34       CHL1     C12      CRL2    -0.180000       12.0110           0
       476 MEMB     34       CHL1     H12A     HGA2     0.900000E-01   1.00800           0
       477 MEMB     34       CHL1     H12B     HGA2     0.900000E-01   1.00800           0
       478 MEMB     34       CHL1     C11      CRL2    -0.180000       12.0110           0
       479 MEMB     34       CHL1     H11A     HGA2     0.900000E-01   1.00800           0
       480 MEMB     34       CHL1     H11B     HGA2     0.900000E-01   1.00800           0
       481 MEMB     34       CHL1     C9       CRL1    -0.900000E-01   12.0110           0
       482 MEMB     34       CHL1     H9       HGA1     0.900000E-01   1.00800           0
       483 MEMB     34       CHL1     C10      CRL1     0.000000       12.0110           0
       484 MEMB     34       CHL1     C19      CTL3    -0.270000       12.0110           0
       485 MEMB     34       CHL1     H19A     HAL3     0.900000E-01   1.00800           0
       486 MEMB     34       CHL1     H19B     HAL3     0.900000E-01   1.00800           0
       487 MEMB     34       CHL1     H19C     HAL3     0.900000E-01   1.00800           0
       488 MEMB     34       CHL1     C1       CRL2    -0.180000       12.0110           0
       489 MEMB     34       CHL1     H1A      HGA2     0.900000E-01   1.00800           0
       490 MEMB     34       CHL1     H1B      HGA2     0.900000E-01   1.00800           0
       491 MEMB     34       CHL1     C2       CRL2    -0.180000       12.0110           0
       492 MEMB     34       CHL1     H2A      HGA2     0.900000E-01   1.00800           0
       493 MEMB     34       CHL1     H2B      HGA2     0.900000E-01   1.00800           0
       494 MEMB     34       CHL1     C20      CTL1    -0.900000E-01   12.0110           0
       495 MEMB     34       CHL1     H20      HAL1     0.900000E-01   1.00800           0
       496 MEMB     34       CHL1     C21      CTL3    -0.270000       12.0110           0
       497 MEMB     34       CHL1     H21A     HAL3     0.900000E-01   1.00800           0
       498 MEMB     34       CHL1     H21B     HAL3     0.900000E-01   1.00800           0
       499 MEMB     34       CHL1     H21C     HAL3     0.900000E-01   1.00800           0
       500 MEMB     34       CHL1     C22      CTL2    -0.180000       12.0110           0
       501 MEMB     34       CHL1     H22A     HAL2     0.900000E-01   1.00800           0
       502 MEMB     34       CHL1     H22B     HAL2     0.900000E-01   1.00800           0
       503 MEMB     34       CHL1     C23      CTL2    -0.180000       12.0110           0
       504 MEMB     34       CHL1     H23A     HAL2     0.900000E-01   1.00800           0
       505 MEMB     34       CHL1     H23B     HAL2     0.900000E-01   1.00800           0
       506 MEMB     34       CHL1     C24      CTL2    -0.180000       12.0110           0
       507 MEMB     34       CHL1     H24A     HAL2     0.900000E-01   1.00800           0
       508 MEMB     34       CHL1     H24B     HAL2     0.900000E-01   1.00800           0
       509 MEMB     34       CHL1     C25      CTL1    -0.900000E-01   12.0110           0
       510 MEMB     34       CHL1     H25      HAL1     0.900000E-01   1.00800           0
       511 MEMB     34       CHL1     C26      CTL3    -0.270000       12.0110           0
       512 MEMB     34       CHL1     H26A     HAL3     0.900000E-01   1.00800           0
       513 MEMB     34       CHL1     H26B     HAL3     0.900000E-01   1.00800           0
       514 MEMB     34       CHL1     H26C     HAL3     0.900000E-01   1.00800           0
       515 MEMB     34       CHL1     C27      CTL3    -0.270000       12.0110           0
       516 MEMB     34       CHL1     H27A     HAL3     0.900000E-01   1.00800           0
       517 MEMB     34       CHL1     H27B     HAL3     0.900000E-01   1.00800           0
       518 MEMB     34       CHL1     H27C     HAL3     0.900000E-01   1.00800           0
       519 MEMB     39       CHL1     C3       CRL1     0.140000       12.0110           0
       520 MEMB     39       CHL1     H3       HGA1     0.900000E-01   1.00800           0
       521 MEMB     39       CHL1     O3       OHL     -0.660000       15.9994           0
       522 MEMB     39       CHL1     H3'      HOL      0.430000       1.00800           0
       523 MEMB     39       CHL1     C4       CRL2    -0.180000       12.0110           0
       524 MEMB     39       CHL1     H4A      HGA2     0.900000E-01   1.00800           0
       525 MEMB     39       CHL1     H4B      HGA2     0.900000E-01   1.00800           0
       526 MEMB     39       CHL1     C5       CEL1     0.000000       12.0110           0
       527 MEMB     39       CHL1     C6       CEL1    -0.150000       12.0110           0
       528 MEMB     39       CHL1     H6       HEL1     0.150000       1.00800           0
       529 MEMB     39       CHL1     C7       CRL2    -0.180000       12.0110           0
       530 MEMB     39       CHL1     H7A      HGA2     0.900000E-01   1.00800           0
       531 MEMB     39       CHL1     H7B      HGA2     0.900000E-01   1.00800           0
       532 MEMB     39       CHL1     C8       CRL1    -0.900000E-01   12.0110           0
       533 MEMB     39       CHL1     H8       HGA1     0.900000E-01   1.00800           0
       534 MEMB     39       CHL1     C14      CRL1    -0.900000E-01   12.0110           0
       535 MEMB     39       CHL1     H14      HGA1     0.900000E-01   1.00800           0
       536 MEMB     39       CHL1     C15      CRL2    -0.180000       12.0110           0
       537 MEMB     39       CHL1     H15A     HGA2     0.900000E-01   1.00800           0
       538 MEMB     39       CHL1     H15B     HGA2     0.900000E-01   1.00800           0
       539 MEMB     39       CHL1     C16      CRL2    -0.180000       12.0110           0
       540 MEMB     39       CHL1     H16A     HGA2     0.900000E-01   1.00800           0
       541 MEMB     39       CHL1     H16B     HGA2     0.900000E-01   1.00800           0
       542 MEMB     39       CHL1     C17      CRL1    -0.900000E-01   12.0110           0
       543 MEMB     39       CHL1     H17      HGA1     0.900000E-01   1.00800           0
       544 MEMB     39       CHL1     C13      CRL1     0.000000       12.0110           0
       545 MEMB     39       CHL1     C18      CTL3    -0.270000       12.0110           0
       546 MEMB     39       CHL1     H18A     HAL3     0.900000E-01   1.00800           0
       547 MEMB     39       CHL1     H18B     HAL3     0.900000E-01   1.00800           0
       548 MEMB     39       CHL1     H18C     HAL3     0.900000E-01   1.00800           0
       549 MEMB     39       CHL1     C12      CRL2    -0.180000       12.0110           0
       550 MEMB     39       CHL1     H12A     HGA2     0.900000E-01   1.00800           0
       551 MEMB     39       CHL1     H12B     HGA2     0.900000E-01   1.00800           0
       552 MEMB     39       CHL1     C11      CRL2    -0.180000       12.0110           0
       553 MEMB     39       CHL1     H11A     HGA2     0.900000E-01   1.00800           0
       554 MEMB     39       CHL1     H11B     HGA2     0.900000E-01   1.00800           0
       555 MEMB     39       CHL1     C9       CRL1    -0.900000E-01   12.0110           0
       556 MEMB     39       CHL1     H9       HGA1     0.900000E-01   1.00800           0
       557 MEMB     39       CHL1     C10      CRL1     0.000000       12.0110           0
       558 MEMB     39       CHL1     C19      CTL3    -0.270000       12.0110           0
       559 MEMB     39       CHL1     H19A     HAL3     0.900000E-01   1.00800           0
       560 MEMB     39       CHL1     H19B     HAL3     0.900000E-01   1.00800           0
       561 MEMB     39       CHL1     H19C     HAL3     0.900000E-01   1.00800           0
       562 MEMB     39       CHL1     C1       CRL2    -0.180000       12.0110           0
       563 MEMB     39       CHL1     H1A      HGA2     0.900000E-01   1.00800           0
       564 MEMB     39       CHL1     H1B      HGA2     0.900000E-01   1.00800           0
       565 MEMB     39       CHL1     C2       CRL2    -0.180000       12.0110           0
       566 MEMB     39       CHL1     H2A      HGA2     0.900000E-01   1.00800           0
       567 MEMB     39       CHL1     H2B      HGA2     0.900000E-01   1.00800           0
       568 MEMB     39       CHL1     C20      CTL1    -0.900000E-01   12.0110           0
       569 MEMB     39       CHL1     H20      HAL1     0.900000E-01   1.00800           0
       570 MEMB     39       CHL1     C21      CTL3    -0.270000       12.0110           0
       571 MEMB     39       CHL1     H21A     HAL3     0.900000E-01   1.00800           0
       572 MEMB     39       CHL1     H21B     HAL3     0.900000E-01   1.00800           0
       573 MEMB     39       CHL1     H21C     HAL3     0.900000E-01   1.00800           0
       574 MEMB     39       CHL1     C22      CTL2    -0.180000       12.0110           0
       575 MEMB     39       CHL1     H22A     HAL2     0.900000E-01   1.00800           0
       576 MEMB     39       CHL1     H22B     HAL2     0.900000E-01   1.00800           0
       577 MEMB     39       CHL1     C23      CTL2    -0.180000       12.0110           0
       578 MEMB     39       CHL1     H23A     HAL2     0.900000E-01   1.00800           0
       579 MEMB     39       CHL1     H23B     HAL2     0.900000E-01   1.00800           0
       580 MEMB     39       CHL1     C24      CTL2    -0.180000       12.0110           0
       581 MEMB     39       CHL1     H24A     HAL2     0.900000E-01   1.00800           0
       582 MEMB     39       CHL1     H24B     HAL2     0.900000E-01   1.00800           0
       583 MEMB     39       CHL1     C25      CTL1    -0.900000E-01   12.0110           0
       584 MEMB     39       CHL1     H25      HAL1     0.900000E-01   1.00800           0
       585 MEMB     39       CHL1     C26      CTL3    -0.270000       12.0110           0
       586 MEMB     39       CHL1     H26A     HAL3     0.900000E-01   1.00800           0
       587 MEMB     39       CHL1     H26B     HAL3     0.900000E-01   1.00800           0
       588 MEMB     39       CHL1     H26C     HAL3     0.900000E-01   1.00800           0
       589 MEMB     39       CHL1     C27      CTL3    -0.270000       12.0110           0
       590 MEMB     39       CHL1     H27A     HAL3     0.900000E-01   1.00800           0
       591 MEMB     39       CHL1     H27B     HAL3     0.900000E-01   1.00800           0
       592 MEMB     39       CHL1     H27C     HAL3     0.900000E-01   1.00800           0
       593 MEMB     43       CHL1     C3       CRL1     0.140000       12.0110           0
       594 MEMB     43       CHL1     H3       HGA1     0.900000E-01   1.00800           0
       595 MEMB     43       CHL1     O3       OHL     -0.660000       15.9994           0
       596 MEMB     43       CHL1     H3'      HOL      0.430000       1.00800           0
       597 MEMB     43       CHL1     C4       CRL2    -0.180000       12.0110           0
       598 MEMB     43       CHL1     H4A      HGA2     0.900000E-01   1.00800           0
       599 MEMB     43       CHL1     H4B      HGA2     0.900000E-01   1.00800           0
       600 MEMB     43       CHL1     C5       CEL1     0.000000       12.0110           0
       601 MEMB     43       CHL1     C6       CEL1    -0.150000       12.0110           0
       602 MEMB     43       CHL1     H6       HEL1     0.150000       1.00800           0
       603 MEMB     43       CHL1     C7       CRL2    -0.180000       12.0110           0
       604 MEMB     43       CHL1     H7A      HGA2     0.900000E-01   1.00800           0
       605 MEMB     43       CHL1     H7B      HGA2     0.900000E-01   1.00800           0
       606 MEMB     43       CHL1     C8       CRL1    -0.900000E-01   12.0110           0
       607 MEMB     43       CHL1     H8       HGA1     0.900000E-01   1.00800           0
       608 MEMB     43       CHL1     C14      CRL1    -0.900000E-01   12.0110           0
       609 MEMB     43       CHL1     H14      HGA1     0.900000E-01   1.00800           0
       610 MEMB     43       CHL1     C15      CRL2    -0.180000       12.0110           0
       611 MEMB     43       CHL1     H15A     HGA2     0.900000E-01   1.00800           0
       612 MEMB     43       CHL1     H15B     HGA2     0.900000E-01   1.00800           0
       613 MEMB     43       CHL1     C16      CRL2    -0.180000       12.0110           0
       614 MEMB     43       CHL1     H16A     HGA2     0.900000E-01   1.00800           0
       615 MEMB     43       CHL1     H16B     HGA2     0.900000E-01   1.00800           0
       616 MEMB     43       CHL1     C17      CRL1    -0.900000E-01   12.0110           0
       617 MEMB     43       CHL1     H17      HGA1     0.900000E-01   1.00800           0
       618 MEMB     43       CHL1     C13      CRL1     0.000000       12.0110           0
       619 MEMB     43       CHL1     C18      CTL3    -0.270000       12.0110           0
       620 MEMB     43       CHL1     H18A     HAL3     0.900000E-01   1.00800           0
       621 MEMB     43       CHL1     H18B     HAL3     0.900000E-01   1.00800           0
       622 MEMB     43       CHL1     H18C     HAL3     0.900000E-01   1.00800           0
       623 MEMB     43       CHL1     C12      CRL2    -0.180000       12.0110           0
       624 MEMB     43       CHL1     H12A     HGA2     0.900000E-01   1.00800           0
       625 MEMB     43       CHL1     H12B     HGA2     0.900000E-01   1.00800           0
       626 MEMB     43       CHL1     C11      CRL2    -0.180000       12.0110           0
       627 MEMB     43       CHL1     H11A     HGA2     0.900000E-01   1.00800           0
       628 MEMB     43       CHL1     H11B     HGA2     0.900000E-01   1.00800           0
       629 MEMB     43       CHL1     C9       CRL1    -0.900000E-01   12.0110           0
       630 MEMB     43       CHL1     H9       HGA1     0.900000E-01   1.00800           0
       631 MEMB     43       CHL1     C10      CRL1     0.000000       12.0110           0
       632 MEMB     43       CHL1     C19      CTL3    -0.270000       12.0110           0
       633 MEMB     43       CHL1     H19A     HAL3     0.900000E-01   1.00800           0
       634 MEMB     43       CHL1     H19B     HAL3     0.900000E-01   1.00800           0
       635 MEMB     43       CHL1     H19C     HAL3     0.900000E-01   1.00800           0
       636 MEMB     43       CHL1     C1       CRL2    -0.180000       12.0110           0
       637 MEMB     43       CHL1     H1A      HGA2     0.900000E-01   1.00800           0
       638 MEMB     43       CHL1     H1B      HGA2     0.900000E-01   1.00800           0
       639 MEMB     43       CHL1     C2       CRL2    -0.180000       12.0110           0
       640 MEMB     43       CHL1     H2A      HGA2     0.900000E-01   1.00800           0
       641 MEMB     43       CHL1     H2B      HGA2     0.900000E-01   1.00800           0
       642 MEMB     43       CHL1     C20      CTL1    -0.900000E-01   12.0110           0
       643 MEMB     43       CHL1     H20      HAL1     0.900000E-01   1.00800           0
       644 MEMB     43       CHL1     C21      CTL3    -0.270000       12.0110           0
       645 MEMB     43       CHL1     H21A     HAL3     0.900000E-01   1.00800           0
       646 MEMB     43       CHL1     H21B     HAL3     0.900000E-01   1.00800           0
       647 MEMB     43       CHL1     H21C     HAL3     0.900000E-01   1.00800           0
       648 MEMB     43       CHL1     C22      CTL2    -0.180000       12.0110           0
       649 MEMB     43       CHL1     H22A     HAL2     0.900000E-01   1.00800           0
       650 MEMB     43       CHL1     H22B     HAL2     0.900000E-01   1.00800           0
       651 MEMB     43       CHL1     C23      CTL2    -0.180000       12.0110           0
       652 MEMB     43       CHL1     H23A     HAL2     0.900000E-01   1.00800           0
       653 MEMB     43       CHL1     H23B     HAL2     0.900000E-01   1.00800           0
       654 MEMB     43       CHL1     C24      CTL2    -0.180000       12.0110           0
       655 MEMB     43       CHL1     H24A     HAL2     0.900000E-01   1.00800           0
       656 MEMB     43       CHL1     H24B     HAL2     0.900000E-01   1.00800           0
       657 MEMB     43       CHL1     C25      CTL1    -0.900000E-01   12.0110           0
       658 MEMB     43       CHL1     H25      HAL1     0.900000E-01   1.00800           0
       659 MEMB     43       CHL1     C26      CTL3    -0.270000       12.0110           0
       660 MEMB     43       CHL1     H26A     HAL3     0.900000E-01   1.00800           0
       661 MEMB     43       CHL1     H26B     HAL3     0.900000E-01   1.00800           0
       662 MEMB     43       CHL1     H26C     HAL3     0.900000E-01   1.00800           0
       663 MEMB     43       CHL1     C27      CTL3    -0.270000       12.0110           0
       664 MEMB     43       CHL1     H27A     HAL3     0.900000E-01   1.00800           0
       665 MEMB     43       CHL1     H27B     HAL3     0.900000E-01   1.00800           0
       666 MEMB     43       CHL1     H27C     HAL3     0.900000E-01   1.00800           0
       667 MEMB     44       CHL1     C3       CRL1     0.140000       12.0110           0
       668 MEMB     44       CHL1     H3       HGA1     0.900000E-01   1.00800           0
       669 MEMB     44       CHL1     O3       OHL     -0.660000       15.9994           0
       670 MEMB     44       CHL1     H3'      HOL      0.430000       1.00800           0
       671 MEMB     44       CHL1     C4       CRL2    -0.180000       12.0110           0
       672 MEMB     44       CHL1     H4A      HGA2     0.900000E-01   1.00800           0
       673 MEMB     44       CHL1     H4B      HGA2     0.900000E-01   1.00800           0
       674 MEMB     44       CHL1     C5       CEL1     0.000000       12.0110           0
       675 MEMB     44       CHL1     C6       CEL1    -0.150000       12.0110           0
       676 MEMB     44       CHL1     H6       HEL1     0.150000       1.00800           0
       677 MEMB     44       CHL1     C7       CRL2    -0.180000       12.0110           0
       678 MEMB     44       CHL1     H7A      HGA2     0.900000E-01   1.00800           0
       679 MEMB     44       CHL1     H7B      HGA2     0.900000E-01   1.00800           0
       680 MEMB     44       CHL1     C8       CRL1    -0.900000E-01   12.0110           0
       681 MEMB     44       CHL1     H8       HGA1     0.900000E-01   1.00800           0
       682 MEMB     44       CHL1     C14      CRL1    -0.900000E-01   12.0110           0
       683 MEMB     44       CHL1     H14      HGA1     0.900000E-01   1.00800           0
       684 MEMB     44       CHL1     C15      CRL2    -0.180000       12.0110           0
       685 MEMB     44       CHL1     H15A     HGA2     0.900000E-01   1.00800           0
       686 MEMB     44       CHL1     H15B     HGA2     0.900000E-01   1.00800           0
       687 MEMB     44       CHL1     C16      CRL2    -0.180000       12.0110           0
       688 MEMB     44       CHL1     H16A     HGA2     0.900000E-01   1.00800           0
       689 MEMB     44       CHL1     H16B     HGA2     0.900000E-01   1.00800           0
       690 MEMB     44       CHL1     C17      CRL1    -0.900000E-01   12.0110           0
       691 MEMB     44       CHL1     H17      HGA1     0.900000E-01   1.00800           0
       692 MEMB     44       CHL1     C13      CRL1     0.000000       12.0110           0
       693 MEMB     44       CHL1     C18      CTL3    -0.270000       12.0110           0
       694 MEMB     44       CHL1     H18A     HAL3     0.900000E-01   1.00800           0
       695 MEMB     44       CHL1     H18B     HAL3     0.900000E-01   1.00800           0
       696 MEMB     44       CHL1     H18C     HAL3     0.900000E-01   1.00800           0
       697 MEMB     44       CHL1     C12      CRL2    -0.180000       12.0110           0
       698 MEMB     44       CHL1     H12A     HGA2     0.900000E-01   1.00800           0
       699 MEMB     44       CHL1     H12B     HGA2     0.900000E-01   1.00800           0
       700 MEMB     44       CHL1     C11      CRL2    -0.180000       12.0110           0
       701 MEMB     44       CHL1     H11A     HGA2     0.900000E-01   1.00800           0
       702 MEMB     44       CHL1     H11B     HGA2     0.900000E-01   1.00800           0
       703 MEMB     44       CHL1     C9       CRL1    -0.900000E-01   12.0110           0
       704 MEMB     44       CHL1     H9       HGA1     0.900000E-01   1.00800           0
       705 MEMB     44       CHL1     C10      CRL1     0.000000       12.0110           0
       706 MEMB     44       CHL1     C19      CTL3    -0.270000       12.0110           0
       707 MEMB     44       CHL1     H19A     HAL3     0.900000E-01   1.00800           0
       708 MEMB     44       CHL1     H19B     HAL3     0.900000E-01   1.00800           0
       709 MEMB     44       CHL1     H19C     HAL3     0.900000E-01   1.00800           0
       710 MEMB     44       CHL1     C1       CRL2    -0.180000       12.0110           0
       711 MEMB     44       CHL1     H1A      HGA2     0.900000E-01   1.00800           0
       712 MEMB     44       CHL1     H1B      HGA2     0.900000E-01   1.00800           0
       713 MEMB     44       CHL1     C2       CRL2    -0.180000       12.0110           0
       714 MEMB     44       CHL1     H2A      HGA2     0.900000E-01   1.00800           0
       715 MEMB     44       CHL1     H2B      HGA2     0.900000E-01   1.00800           0
       716 MEMB     44       CHL1     C20      CTL1    -0.900000E-01   12.0110           0
       717 MEMB     44       CHL1     H20      HAL1     0.900000E-01   1.00800           0
       718 MEMB     44       CHL1     C21      CTL3    -0.270000       12.0110           0
       719 MEMB     44       CHL1     H21A     HAL3     0.900000E-01   1.00800           0
       720 MEMB     44       CHL1     H21B     HAL3     0.900000E-01   1.00800           0
       721 MEMB     44       CHL1     H21C     HAL3     0.900000E-01   1.00800           0
       722 MEMB     44       CHL1     C22      CTL2    -0.180000       12.0110           0
       723 MEMB     44       CHL1     H22A     HAL2     0.900000E-01   1.00800           0
       724 MEMB     44       CHL1     H22B     HAL2     0.900000E-01   1.00800           0
       725 MEMB     44       CHL1     C23      CTL2    -0.180000       12.0110           0
       726 MEMB     44       CHL1     H23A     HAL2     0.900000E-01   1.00800           0
       727 MEMB     44       CHL1     H23B     HAL2     0.900000E-01   1.00800           0
       728 MEMB     44       CHL1     C24      CTL2    -0.180000       12.0110           0
       729 MEMB     44       CHL1     H24A     HAL2     0.900000E-01   1.00800           0
       730 MEMB     44       CHL1     H24B     HAL2     0.900000E-01   1.00800           0
       731 MEMB     44       CHL1     C25      CTL1    -0.900000E-01   12.0110           0
       732 MEMB     44       CHL1     H25      HAL1     0.900000E-01   1.00800           0
       733 MEMB     44       CHL1     C26      CTL3    -0.270000       12.0110           0
       734 MEMB     44       CHL1     H26A     HAL3     0.900000E-01   1.00800           0
       735 MEMB     44       CHL1     H26B     HAL3     0.900000E-01   1.00800           0
       736 MEMB     44       CHL1     H26C     HAL3     0.900000E-01   1.00800           0
       737 MEMB     44       CHL1     C27      CTL3    -0.270000       12.0110           0
       738 MEMB     44       CHL1     H27A     HAL3     0.900000E-01   1.00800           0
       739 MEMB     44       CHL1     H27B     HAL3     0.900000E-01   1.00800           0
       740 MEMB     44       CHL1     H27C     HAL3     0.900000E-01   1.00800           0
       741 MEMB     46       CHL1     C3       CRL1     0.140000       12.0110           0
       742 MEMB     46       CHL1     H3       HGA1     0.900000E-01   1.00800           0
       743 MEMB     46       CHL1     O3       OHL     -0.660000       15.9994           0
       744 MEMB     46       CHL1     H3'      HOL      0.430000       1.00800           0
       745 MEMB     46       CHL1     C4       CRL2    -0.180000       12.0110           0
       746 MEMB     46       CHL1     H4A      HGA2     0.900000E-01   1.00800           0
       747 MEMB     46       CHL1     H4B      HGA2     0.900000E-01   1.00800           0
       748 MEMB     46       CHL1     C5       CEL1     0.000000       12.0110           0
       749 MEMB     46       CHL1     C6       CEL1    -0.150000       12.0110           0
       750 MEMB     46       CHL1     H6       HEL1     0.150000       1.00800           0
       751 MEMB     46       CHL1     C7       CRL2    -0.180000       12.0110           0
       752 MEMB     46       CHL1     H7A      HGA2     0.900000E-01   1.00800           0
       753 MEMB     46       CHL1     H7B      HGA2     0.900000E-01   1.00800           0
       754 MEMB     46       CHL1     C8       CRL1    -0.900000E-01   12.0110           0
       755 MEMB     46       CHL1     H8       HGA1     0.900000E-01   1.00800           0
       756 MEMB     46       CHL1     C14      CRL1    -0.900000E-01   12.0110           0
       757 MEMB     46       CHL1     H14      HGA1     0.900000E-01   1.00800           0
       758 MEMB     46       CHL1     C15      CRL2    -0.180000       12.0110           0
       759 MEMB     46       CHL1     H15A     HGA2     0.900000E-01   1.00800           0
       760 MEMB     46       CHL1     H15B     HGA2     0.900000E-01   1.00800           0
       761 MEMB     46       CHL1     C16      CRL2    -0.180000       12.0110           0
       762 MEMB     46       CHL1     H16A     HGA2     0.900000E-01   1.00800           0
       763 MEMB     46       CHL1     H16B     HGA2     0.900000E-01   1.00800           0
       764 MEMB     46       CHL1     C17      CRL1    -0.900000E-01   12.0110           0
       765 MEMB     46       CHL1     H17      HGA1     0.900000E-01   1.00800           0
       766 MEMB     46       CHL1     C13      CRL1     0.000000       12.0110           0
       767 MEMB     46       CHL1     C18      CTL3    -0.270000       12.0110           0
       768 MEMB     46       CHL1     H18A     HAL3     0.900000E-01   1.00800           0
       769 MEMB     46       CHL1     H18B     HAL3     0.900000E-01   1.00800           0
       770 MEMB     46       CHL1     H18C     HAL3     0.900000E-01   1.00800           0
       771 MEMB     46       CHL1     C12      CRL2    -0.180000       12.0110           0
       772 MEMB     46       CHL1     H12A     HGA2     0.900000E-01   1.00800           0
       773 MEMB     46       CHL1     H12B     HGA2     0.900000E-01   1.00800           0
       774 MEMB     46       CHL1     C11      CRL2    -0.180000       12.0110           0
       775 MEMB     46       CHL1     H11A     HGA2     0.900000E-01   1.00800           0
       776 MEMB     46       CHL1     H11B     HGA2     0.900000E-01   1.00800           0
       777 MEMB     46       CHL1     C9       CRL1    -0.900000E-01   12.0110           0
       778 MEMB     46       CHL1     H9       HGA1     0.900000E-01   1.00800           0
       779 MEMB     46       CHL1     C10      CRL1     0.000000       12.0110           0
       780 MEMB     46       CHL1     C19      CTL3    -0.270000       12.0110           0
       781 MEMB     46       CHL1     H19A     HAL3     0.900000E-01   1.00800           0
       782 MEMB     46       CHL1     H19B     HAL3     0.900000E-01   1.00800           0
       783 MEMB     46       CHL1     H19C     HAL3     0.900000E-01   1.00800           0
       784 MEMB     46       CHL1     C1       CRL2    -0.180000       12.0110           0
       785 MEMB     46       CHL1     H1A      HGA2     0.900000E-01   1.00800           0
       786 MEMB     46       CHL1     H1B      HGA2     0.900000E-01   1.00800           0
       787 MEMB     46       CHL1     C2       CRL2    -0.180000       12.0110           0
       788 MEMB     46       CHL1     H2A      HGA2     0.900000E-01   1.00800           0
       789 MEMB     46       CHL1     H2B      HGA2     0.900000E-01   1.00800           0
       790 MEMB     46       CHL1     C20      CTL1    -0.900000E-01   12.0110           0
       791 MEMB     46       CHL1     H20      HAL1     0.900000E-01   1.00800           0
       792 MEMB     46       CHL1     C21      CTL3    -0.270000       12.0110           0
       793 MEMB     46       CHL1     H21A     HAL3     0.900000E-01   1.00800           0
       794 MEMB     46       CHL1     H21B     HAL3     0.900000E-01   1.00800           0
       795 MEMB     46       CHL1     H21C     HAL3     0.900000E-01   1.00800           0
       796 MEMB     46       CHL1     C22      CTL2    -0.180000       12.0110           0
       797 MEMB     46       CHL1     H22A     HAL2     0.900000E-01   1.00800           0
       798 MEMB     46       CHL1     H22B     HAL2     0.900000E-01   1.00800           0
       799 MEMB     46       CHL1     C23      CTL2    -0.180000       12.0110           0
       800 MEMB     46       CHL1     H23A     HAL2     0.900000E-01   1.00800           0
       801 MEMB     46       CHL1     H23B     HAL2     0.900000E-01   1.00800           0
       802 MEMB     46       CHL1     C24      CTL2    -0.180000       12.0110           0
       803 MEMB     46       CHL1     H24A     HAL2     0.900000E-01   1.00800           0
       804 MEMB     46       CHL1     H24B     HAL2     0.900000E-01   1.00800           0
       805 MEMB     46       CHL1     C25      CTL1    -0.900000E-01   12.0110           0
       806 MEMB     46       CHL1     H25      HAL1     0.900000E-01   1.00800           0
       807 MEMB     46       CHL1     C26      CTL3    -0.270000       12.0110           0
       808 MEMB     46       CHL1     H26A     HAL3     0.900000E-01   1.00800           0
       809 MEMB     46       CHL1     H26B     HAL3     0.900000E-01   1.00800           0
       810 MEMB     46       CHL1     H26C     HAL3     0.900000E-01   1.00800           0
       811 MEMB     46       CHL1     C27      CTL3    -0.270000       12.0110           0
       812 MEMB     46       CHL1     H27A     HAL3     0.900000E-01   1.00800           0
       813 MEMB     46       CHL1     H27B     HAL3     0.900000E-01   1.00800           0
       814 MEMB     46       CHL1     H27C     HAL3     0.900000E-01   1.00800           0
       815 MEMB     51       CHL1     C3       CRL1     0.140000       12.0110           0
       816 MEMB     51       CHL1     H3       HGA1     0.900000E-01   1.00800           0
       817 MEMB     51       CHL1     O3       OHL     -0.660000       15.9994           0
       818 MEMB     51       CHL1     H3'      HOL      0.430000       1.00800           0
       819 MEMB     51       CHL1     C4       CRL2    -0.180000       12.0110           0
       820 MEMB     51       CHL1     H4A      HGA2     0.900000E-01   1.00800           0
       821 MEMB     51       CHL1     H4B      HGA2     0.900000E-01   1.00800           0
       822 MEMB     51       CHL1     C5       CEL1     0.000000       12.0110           0
       823 MEMB     51       CHL1     C6       CEL1    -0.150000       12.0110           0
       824 MEMB     51       CHL1     H6       HEL1     0.150000       1.00800           0
       825 MEMB     51       CHL1     C7       CRL2    -0.180000       12.0110           0
       826 MEMB     51       CHL1     H7A      HGA2     0.900000E-01   1.00800           0
       827 MEMB     51       CHL1     H7B      HGA2     0.900000E-01   1.00800           0
       828 MEMB     51       CHL1     C8       CRL1    -0.900000E-01   12.0110           0
       829 MEMB     51       CHL1     H8       HGA1     0.900000E-01   1.00800           0
       830 MEMB     51       CHL1     C14      CRL1    -0.900000E-01   12.0110           0
       831 MEMB     51       CHL1     H14      HGA1     0.900000E-01   1.00800           0
       832 MEMB     51       CHL1     C15      CRL2    -0.180000       12.0110           0
       833 MEMB     51       CHL1     H15A     HGA2     0.900000E-01   1.00800           0
       834 MEMB     51       CHL1     H15B     HGA2     0.900000E-01   1.00800           0
       835 MEMB     51       CHL1     C16      CRL2    -0.180000       12.0110           0
       836 MEMB     51       CHL1     H16A     HGA2     0.900000E-01   1.00800           0
       837 MEMB     51       CHL1     H16B     HGA2     0.900000E-01   1.00800           0
       838 MEMB     51       CHL1     C17      CRL1    -0.900000E-01   12.0110           0
       839 MEMB     51       CHL1     H17      HGA1     0.900000E-01   1.00800           0
       840 MEMB     51       CHL1     C13      CRL1     0.000000       12.0110           0
       841 MEMB     51       CHL1     C18      CTL3    -0.270000       12.0110           0
       842 MEMB     51       CHL1     H18A     HAL3     0.900000E-01   1.00800           0
       843 MEMB     51       CHL1     H18B     HAL3     0.900000E-01   1.00800           0
       844 MEMB     51       CHL1     H18C     HAL3     0.900000E-01   1.00800           0
       845 MEMB     51       CHL1     C12      CRL2    -0.180000       12.0110           0
       846 MEMB     51       CHL1     H12A     HGA2     0.900000E-01   1.00800           0
       847 MEMB     51       CHL1     H12B     HGA2     0.900000E-01   1.00800           0
       848 MEMB     51       CHL1     C11      CRL2    -0.180000       12.0110           0
       849 MEMB     51       CHL1     H11A     HGA2     0.900000E-01   1.00800           0
       850 MEMB     51       CHL1     H11B     HGA2     0.900000E-01   1.00800           0
       851 MEMB     51       CHL1     C9       CRL1    -0.900000E-01   12.0110           0
       852 MEMB     51       CHL1     H9       HGA1     0.900000E-01   1.00800           0
       853 MEMB     51       CHL1     C10      CRL1     0.000000       12.0110           0
       854 MEMB     51       CHL1     C19      CTL3    -0.270000       12.0110           0
       855 MEMB     51       CHL1     H19A     HAL3     0.900000E-01   1.00800           0
       856 MEMB     51       CHL1     H19B     HAL3     0.900000E-01   1.00800           0
       857 MEMB     51       CHL1     H19C     HAL3     0.900000E-01   1.00800           0
       858 MEMB     51       CHL1     C1       CRL2    -0.180000       12.0110           0
       859 MEMB     51       CHL1     H1A      HGA2     0.900000E-01   1.00800           0
       860 MEMB     51       CHL1     H1B      HGA2     0.900000E-01   1.00800           0
       861 MEMB     51       CHL1     C2       CRL2    -0.180000       12.0110           0
       862 MEMB     51       CHL1     H2A      HGA2     0.900000E-01   1.00800           0
       863 MEMB     51       CHL1     H2B      HGA2     0.900000E-01   1.00800           0
       864 MEMB     51       CHL1     C20      CTL1    -0.900000E-01   12.0110           0
       865 MEMB     51       CHL1     H20      HAL1     0.900000E-01   1.00800           0
       866 MEMB     51       CHL1     C21      CTL3    -0.270000       12.0110           0
       867 MEMB     51       CHL1     H21A     HAL3     0.900000E-01   1.00800           0
       868 MEMB     51       CHL1     H21B     HAL3     0.900000E-01   1.00800           0
       869 MEMB     51       CHL1     H21C     HAL3     0.900000E-01   1.00800           0
       870 MEMB     51       CHL1     C22      CTL2    -0.180000       12.0110           0
       871 MEMB     51       CHL1     H22A     HAL2     0.900000E-01   1.00800           0
       872 MEMB     51       CHL1     H22B     HAL2     0.900000E-01   1.00800           0
       873 MEMB     51       CHL1     C23      CTL2    -0.180000       12.0110           0
       874 MEMB     51       CHL1     H23A     HAL2     0.900000E-01   1.00800           0
       875 MEMB     51       CHL1     H23B     HAL2     0.900000E-01   1.00800           0
       876 MEMB     51       CHL1     C24      CTL2    -0.180000       12.0110           0
       877 MEMB     51       CHL1     H24A     HAL2     0.900000E-01   1.00800           0
       878 MEMB     51       CHL1     H24B     HAL2     0.900000E-01   1.00800           0
       879 MEMB     51       CHL1     C25      CTL1    -0.900000E-01   12.0110           0
       880 MEMB     51       CHL1     H25      HAL1     0.900000E-01   1.00800           0
       881 MEMB     51       CHL1     C26      CTL3    -0.270000       12.0110           0
       882 MEMB     51       CHL1     H26A     HAL3     0.900000E-01   1.00800           0
       883 MEMB     51       CHL1     H26B     HAL3     0.900000E-01   1.00800           0
       884 MEMB     51       CHL1     H26C     HAL3     0.900000E-01   1.00800           0
       885 MEMB     51       CHL1     C27      CTL3    -0.270000       12.0110           0
       886 MEMB     51       CHL1     H27A     HAL3     0.900000E-01   1.00800           0
       887 MEMB     51       CHL1     H27B     HAL3     0.900000E-01   1.00800           0
       888 MEMB     51       CHL1     H27C     HAL3     0.900000E-01   1.00800           0
       889 MEMB     52       CHL1     C3       CRL1     0.140000       12.0110           0
       890 MEMB     52       CHL1     H3       HGA1     0.900000E-01   1.00800           0
       891 MEMB     52       CHL1     O3       OHL     -0.660000       15.9994           0
       892 MEMB     52       CHL1     H3'      HOL      0.430000       1.00800           0
       893 MEMB     52       CHL1     C4       CRL2    -0.180000       12.0110           0
       894 MEMB     52       CHL1     H4A      HGA2     0.900000E-01   1.00800           0
       895 MEMB     52       CHL1     H4B      HGA2     0.900000E-01   1.00800           0
       896 MEMB     52       CHL1     C5       CEL1     0.000000       12.0110           0
       897 MEMB     52       CHL1     C6       CEL1    -0.150000       12.0110           0
       898 MEMB     52       CHL1     H6       HEL1     0.150000       1.00800           0
       899 MEMB     52       CHL1     C7       CRL2    -0.180000       12.0110           0
       900 MEMB     52       CHL1     H7A      HGA2     0.900000E-01   1.00800           0
       901 MEMB     52       CHL1     H7B      HGA2     0.900000E-01   1.00800           0
       902 MEMB     52       CHL1     C8       CRL1    -0.900000E-01   12.0110           0
       903 MEMB     52       CHL1     H8       HGA1     0.900000E-01   1.00800           0
       904 MEMB     52       CHL1     C14      CRL1    -0.900000E-01   12.0110           0
       905 MEMB     52       CHL1     H14      HGA1     0.900000E-01   1.00800           0
       906 MEMB     52       CHL1     C15      CRL2    -0.180000       12.0110           0
       907 MEMB     52       CHL1     H15A     HGA2     0.900000E-01   1.00800           0
       908 MEMB     52       CHL1     H15B     HGA2     0.900000E-01   1.00800           0
       909 MEMB     52       CHL1     C16      CRL2    -0.180000       12.0110           0
       910 MEMB     52       CHL1     H16A     HGA2     0.900000E-01   1.00800           0
       911 MEMB     52       CHL1     H16B     HGA2     0.900000E-01   1.00800           0
       912 MEMB     52       CHL1     C17      CRL1    -0.900000E-01   12.0110           0
       913 MEMB     52       CHL1     H17      HGA1     0.900000E-01   1.00800           0
       914 MEMB     52       CHL1     C13      CRL1     0.000000       12.0110           0
       915 MEMB     52       CHL1     C18      CTL3    -0.270000       12.0110           0
       916 MEMB     52       CHL1     H18A     HAL3     0.900000E-01   1.00800           0
       917 MEMB     52       CHL1     H18B     HAL3     0.900000E-01   1.00800           0
       918 MEMB     52       CHL1     H18C     HAL3     0.900000E-01   1.00800           0
       919 MEMB     52       CHL1     C12      CRL2    -0.180000       12.0110           0
       920 MEMB     52       CHL1     H12A     HGA2     0.900000E-01   1.00800           0
       921 MEMB     52       CHL1     H12B     HGA2     0.900000E-01   1.00800           0
       922 MEMB     52       CHL1     C11      CRL2    -0.180000       12.0110           0
       923 MEMB     52       CHL1     H11A     HGA2     0.900000E-01   1.00800           0
       924 MEMB     52       CHL1     H11B     HGA2     0.900000E-01   1.00800           0
       925 MEMB     52       CHL1     C9       CRL1    -0.900000E-01   12.0110           0
       926 MEMB     52       CHL1     H9       HGA1     0.900000E-01   1.00800           0
       927 MEMB     52       CHL1     C10      CRL1     0.000000       12.0110           0
       928 MEMB     52       CHL1     C19      CTL3    -0.270000       12.0110           0
       929 MEMB     52       CHL1     H19A     HAL3     0.900000E-01   1.00800           0
       930 MEMB     52       CHL1     H19B     HAL3     0.900000E-01   1.00800           0
       931 MEMB     52       CHL1     H19C     HAL3     0.900000E-01   1.00800           0
       932 MEMB     52       CHL1     C1       CRL2    -0.180000       12.0110           0
       933 MEMB     52       CHL1     H1A      HGA2     0.900000E-01   1.00800           0
       934 MEMB     52       CHL1     H1B      HGA2     0.900000E-01   1.00800           0
       935 MEMB     52       CHL1     C2       CRL2    -0.180000       12.0110           0
       936 MEMB     52       CHL1     H2A      HGA2     0.900000E-01   1.00800           0
       937 MEMB     52       CHL1     H2B      HGA2     0.900000E-01   1.00800           0
       938 MEMB     52       CHL1     C20      CTL1    -0.900000E-01   12.0110           0
       939 MEMB     52       CHL1     H20      HAL1     0.900000E-01   1.00800           0
       940 MEMB     52       CHL1     C21      CTL3    -0.270000       12.0110           0
       941 MEMB     52       CHL1     H21A     HAL3     0.900000E-01   1.00800           0
       942 MEMB     52       CHL1     H21B     HAL3     0.900000E-01   1.00800           0
       943 MEMB     52       CHL1     H21C     HAL3     0.900000E-01   1.00800           0
       944 MEMB     52       CHL1     C22      CTL2    -0.180000       12.0110           0
       945 MEMB     52       CHL1     H22A     HAL2     0.900000E-01   1.00800           0
       946 MEMB     52       CHL1     H22B     HAL2     0.900000E-01   1.00800           0
       947 MEMB     52       CHL1     C23      CTL2    -0.180000       12.0110           0
       948 MEMB     52       CHL1     H23A     HAL2     0.900000E-01   1.00800           0
       949 MEMB     52       CHL1     H23B     HAL2     0.900000E-01   1.00800           0
       950 MEMB     52       CHL1     C24      CTL2    -0.180000       12.0110           0
       951 MEMB     52       CHL1     H24A     HAL2     0.900000E-01   1.00800           0
       952 MEMB     52       CHL1     H24B     HAL2     0.900000E-01   1.00800           0
       953 MEMB     52       CHL1     C25      CTL1    -0.900000E-01   12.0110           0
       954 MEMB     52       CHL1     H25      HAL1     0.900000E-01   1.00800           0
       955 MEMB     52       CHL1     C26      CTL3    -0.270000       12.0110           0
       956 MEMB     52       CHL1     H26A     HAL3     0.900000E-01   1.00800           0
       957 MEMB     52       CHL1     H26B     HAL3     0.900000E-01   1.00800           0
       958 MEMB     52       CHL1     H26C     HAL3     0.900000E-01   1.00800           0
       959 MEMB     52       CHL1     C27      CTL3    -0.270000       12.0110           0
       960 MEMB     52       CHL1     H27A     HAL3     0.900000E-01   1.00800           0
       961 MEMB     52       CHL1     H27B     HAL3     0.900000E-01   1.00800           0
       962 MEMB     52       CHL1     H27C     HAL3     0.900000E-01   1.00800           0
       963 MEMB     53       CHL1     C3       CRL1     0.140000       12.0110           0
       964 MEMB     53       CHL1     H3       HGA1     0.900000E-01   1.00800           0
       965 MEMB     53       CHL1     O3       OHL     -0.660000       15.9994           0
       966 MEMB     53       CHL1     H3'      HOL      0.430000       1.00800           0
       967 MEMB     53       CHL1     C4       CRL2    -0.180000       12.0110           0
       968 MEMB     53       CHL1     H4A      HGA2     0.900000E-01   1.00800           0
       969 MEMB     53       CHL1     H4B      HGA2     0.900000E-01   1.00800           0
       970 MEMB     53       CHL1     C5       CEL1     0.000000       12.0110           0
       971 MEMB     53       CHL1     C6       CEL1    -0.150000       12.0110           0
       972 MEMB     53       CHL1     H6       HEL1     0.150000       1.00800           0
       973 MEMB     53       CHL1     C7       CRL2    -0.180000       12.0110           0
       974 MEMB     53       CHL1     H7A      HGA2     0.900000E-01   1.00800           0
       975 MEMB     53       CHL1     H7B      HGA2     0.900000E-01   1.00800           0
       976 MEMB     53       CHL1     C8       CRL1    -0.900000E-01   12.0110           0
       977 MEMB     53       CHL1     H8       HGA1     0.900000E-01   1.00800           0
       978 MEMB     53       CHL1     C14      CRL1    -0.900000E-01   12.0110           0
       979 MEMB     53       CHL1     H14      HGA1     0.900000E-01   1.00800           0
       980 MEMB     53       CHL1     C15      CRL2    -0.180000       12.0110           0
       981 MEMB     53       CHL1     H15A     HGA2     0.900000E-01   1.00800           0
       982 MEMB     53       CHL1     H15B     HGA2     0.900000E-01   1.00800           0
       983 MEMB     53       CHL1     C16      CRL2    -0.180000       12.0110           0
       984 MEMB     53       CHL1     H16A     HGA2     0.900000E-01   1.00800           0
       985 MEMB     53       CHL1     H16B     HGA2     0.900000E-01   1.00800           0
       986 MEMB     53       CHL1     C17      CRL1    -0.900000E-01   12.0110           0
       987 MEMB     53       CHL1     H17      HGA1     0.900000E-01   1.00800           0
       988 MEMB     53       CHL1     C13      CRL1     0.000000       12.0110           0
       989 MEMB     53       CHL1     C18      CTL3    -0.270000       12.0110           0
       990 MEMB     53       CHL1     H18A     HAL3     0.900000E-01   1.00800           0
       991 MEMB     53       CHL1     H18B     HAL3     0.900000E-01   1.00800           0
       992 MEMB     53       CHL1     H18C     HAL3     0.900000E-01   1.00800           0
       993 MEMB     53       CHL1     C12      CRL2    -0.180000       12.0110           0
       994 MEMB     53       CHL1     H12A     HGA2     0.900000E-01   1.00800           0
       995 MEMB     53       CHL1     H12B     HGA2     0.900000E-01   1.00800           0
       996 MEMB     53       CHL1     C11      CRL2    -0.180000       12.0110           0
       997 MEMB     53       CHL1     H11A     HGA2     0.900000E-01   1.00800           0
       998 MEMB     53       CHL1     H11B     HGA2     0.900000E-01   1.00800           0
       999 MEMB     53       CHL1     C9       CRL1    -0.900000E-01   12.0110           0
      1000 MEMB     53       CHL1     H9       HGA1     0.900000E-01   1.00800           0
      1001 MEMB     53       CHL1     C10      CRL1     0.000000       12.0110           0
      1002 MEMB     53       CHL1     C19      CTL3    -0.270000       12.0110           0
      1003 MEMB     53       CHL1     H19A     HAL3     0.900000E-01   1.00800           0
      1004 MEMB     53       CHL1     H19B     HAL3     0.900000E-01   1.00800           0
      1005 MEMB     53       CHL1     H19C     HAL3     0.900000E-01   1.00800           0
      1006 MEMB     53       CHL1     C1       CRL2    -0.180000       12.0110           0
      1007 MEMB     53       CHL1     H1A      HGA2     0.900000E-01   1.00800           0
      1008 MEMB     53       CHL1     H1B      HGA2     0.900000E-01   1.00800           0
      1009 MEMB     53       CHL1     C2       CRL2    -0.180000       12.0110           0
      1010 MEMB     53       CHL1     H2A      HGA2     0.900000E-01   1.00800           0
      1011 MEMB     53       CHL1     H2B      HGA2     0.900000E-01   1.00800           0
      1012 MEMB     53       CHL1     C20      CTL1    -0.900000E-01   12.0110           0
      1013 MEMB     53       CHL1     H20      HAL1     0.900000E-01   1.00800           0
      1014 MEMB     53       CHL1     C21      CTL3    -0.270000       12.0110           0
      1015 MEMB     53       CHL1     H21A     HAL3     0.900000E-01   1.00800           0
      1016 MEMB     53       CHL1     H21B     HAL3     0.900000E-01   1.00800           0
      1017 MEMB     53       CHL1     H21C     HAL3     0.900000E-01   1.00800           0
      1018 MEMB     53       CHL1     C22      CTL2    -0.180000       12.0110           0
      1019 MEMB     53       CHL1     H22A     HAL2     0.900000E-01   1.00800           0
      1020 MEMB     53       CHL1     H22B     HAL2     0.900000E-01   1.00800           0
      1021 MEMB     53       CHL1     C23      CTL2    -0.180000       12.0110           0
      1022 MEMB     53       CHL1     H23A     HAL2     0.900000E-01   1.00800           0
      1023 MEMB     53       CHL1     H23B     HAL2     0.900000E-01   1.00800           0
      1024 MEMB     53       CHL1     C24      CTL2    -0.180000       12.0110           0
      1025 MEMB     53       CHL1     H24A     HAL2     0.900000E-01   1.00800           0
      1026 MEMB     53       CHL1     H24B     HAL2     0.900000E-01   1.00800           0
      1027 MEMB     53       CHL1     C25      CTL1    -0.900000E-01   12.0110           0
      1028 MEMB     53       CHL1     H25      HAL1     0.900000E-01   1.00800           0
      1029 MEMB     53       CHL1     C26      CTL3    -0.270000       12.0110           0
      1030 MEMB     53       CHL1     H26A     HAL3     0.900000E-01   1.00800           0
      1031 MEMB     53       CHL1     H26B     HAL3     0.900000E-01   1.00800           0
      1032 MEMB     53       CHL1     H26C     HAL3     0.900000E-01   1.00800           0
      1033 MEMB     53       CHL1     C27      CTL3    -0.270000       12.0110           0
      1034 MEMB     53       CHL1     H27A     HAL3     0.900000E-01   1.00800           0
      1035 MEMB     53       CHL1     H27B     HAL3     0.900000E-01   1.00800           0
      1036 MEMB     53       CHL1     H27C     HAL3     0.900000E-01   1.00800           0
      1037 MEMB     55       CHL1     C3       CRL1     0.140000       12.0110           0
      1038 MEMB     55       CHL1     H3       HGA1     0.900000E-01   1.00800           0
      1039 MEMB     55       CHL1     O3       OHL     -0.660000       15.9994           0
      1040 MEMB     55       CHL1     H3'      HOL      0.430000       1.00800           0
      1041 MEMB     55       CHL1     C4       CRL2    -0.180000       12.0110           0
      1042 MEMB     55       CHL1     H4A      HGA2     0.900000E-01   1.00800           0
      1043 MEMB     55       CHL1     H4B      HGA2     0.900000E-01   1.00800           0
      1044 MEMB     55       CHL1     C5       CEL1     0.000000       12.0110           0
      1045 MEMB     55       CHL1     C6       CEL1    -0.150000       12.0110           0
      1046 MEMB     55       CHL1     H6       HEL1     0.150000       1.00800           0
      1047 MEMB     55       CHL1     C7       CRL2    -0.180000       12.0110           0
      1048 MEMB     55       CHL1     H7A      HGA2     0.900000E-01   1.00800           0
      1049 MEMB     55       CHL1     H7B      HGA2     0.900000E-01   1.00800           0
      1050 MEMB     55       CHL1     C8       CRL1    -0.900000E-01   12.0110           0
      1051 MEMB     55       CHL1     H8       HGA1     0.900000E-01   1.00800           0
      1052 MEMB     55       CHL1     C14      CRL1    -0.900000E-01   12.0110           0
      1053 MEMB     55       CHL1     H14      HGA1     0.900000E-01   1.00800           0
      1054 MEMB     55       CHL1     C15      CRL2    -0.180000       12.0110           0
      1055 MEMB     55       CHL1     H15A     HGA2     0.900000E-01   1.00800           0
      1056 MEMB     55       CHL1     H15B     HGA2     0.900000E-01   1.00800           0
      1057 MEMB     55       CHL1     C16      CRL2    -0.180000       12.0110           0
      1058 MEMB     55       CHL1     H16A     HGA2     0.900000E-01   1.00800           0
      1059 MEMB     55       CHL1     H16B     HGA2     0.900000E-01   1.00800           0
      1060 MEMB     55       CHL1     C17      CRL1    -0.900000E-01   12.0110           0
      1061 MEMB     55       CHL1     H17      HGA1     0.900000E-01   1.00800           0
      1062 MEMB     55       CHL1     C13      CRL1     0.000000       12.0110           0
      1063 MEMB     55       CHL1     C18      CTL3    -0.270000       12.0110           0
      1064 MEMB     55       CHL1     H18A     HAL3     0.900000E-01   1.00800           0
      1065 MEMB     55       CHL1     H18B     HAL3     0.900000E-01   1.00800           0
      1066 MEMB     55       CHL1     H18C     HAL3     0.900000E-01   1.00800           0
      1067 MEMB     55       CHL1     C12      CRL2    -0.180000       12.0110           0
      1068 MEMB     55       CHL1     H12A     HGA2     0.900000E-01   1.00800           0
      1069 MEMB     55       CHL1     H12B     HGA2     0.900000E-01   1.00800           0
      1070 MEMB     55       CHL1     C11      CRL2    -0.180000       12.0110           0
      1071 MEMB     55       CHL1     H11A     HGA2     0.900000E-01   1.00800           0
      1072 MEMB     55       CHL1     H11B     HGA2     0.900000E-01   1.00800           0
      1073 MEMB     55       CHL1     C9       CRL1    -0.900000E-01   12.0110           0
      1074 MEMB     55       CHL1     H9       HGA1     0.900000E-01   1.00800           0
      1075 MEMB     55       CHL1     C10      CRL1     0.000000       12.0110           0
      1076 MEMB     55       CHL1     C19      CTL3    -0.270000       12.0110           0
      1077 MEMB     55       CHL1     H19A     HAL3     0.900000E-01   1.00800           0
      1078 MEMB     55       CHL1     H19B     HAL3     0.900000E-01   1.00800           0
      1079 MEMB     55       CHL1     H19C     HAL3     0.900000E-01   1.00800           0
      1080 MEMB     55       CHL1     C1       CRL2    -0.180000       12.0110           0
      1081 MEMB     55       CHL1     H1A      HGA2     0.900000E-01   1.00800           0
      1082 MEMB     55       CHL1     H1B      HGA2     0.900000E-01   1.00800           0
      1083 MEMB     55       CHL1     C2       CRL2    -0.180000       12.0110           0
      1084 MEMB     55       CHL1     H2A      HGA2     0.900000E-01   1.00800           0
      1085 MEMB     55       CHL1     H2B      HGA2     0.900000E-01   1.00800           0
      1086 MEMB     55       CHL1     C20      CTL1    -0.900000E-01   12.0110           0
      1087 MEMB     55       CHL1     H20      HAL1     0.900000E-01   1.00800           0
      1088 MEMB     55       CHL1     C21      CTL3    -0.270000       12.0110           0
      1089 MEMB     55       CHL1     H21A     HAL3     0.900000E-01   1.00800           0
      1090 MEMB     55       CHL1     H21B     HAL3     0.900000E-01   1.00800           0
      1091 MEMB     55       CHL1     H21C     HAL3     0.900000E-01   1.00800           0
      1092 MEMB     55       CHL1     C22      CTL2    -0.180000       12.0110           0
      1093 MEMB     55       CHL1     H22A     HAL2     0.900000E-01   1.00800           0
      1094 MEMB     55       CHL1     H22B     HAL2     0.900000E-01   1.00800           0
      1095 MEMB     55       CHL1     C23      CTL2    -0.180000       12.0110           0
      1096 MEMB     55       CHL1     H23A     HAL2     0.900000E-01   1.00800           0
      1097 MEMB     55       CHL1     H23B     HAL2     0.900000E-01   1.00800           0
      1098 MEMB     55       CHL1     C24      CTL2    -0.180000       12.0110           0
      1099 MEMB     55       CHL1     H24A     HAL2     0.900000E-01   1.00800           0
      1100 MEMB     55       CHL1     H24B     HAL2     0.900000E-01   1.00800           0
      1101 MEMB     55       CHL1     C25      CTL1    -0.900000E-01   12.0110           0
      1102 MEMB     55       CHL1     H25      HAL1     0.900000E-01   1.00800           0
      1103 MEMB     55       CHL1     C26      CTL3    -0.270000       12.0110           0
      1104 MEMB     55       CHL1     H26A     HAL3     0.900000E-01   1.00800           0
      1105 MEMB     55       CHL1     H26B     HAL3     0.900000E-01   1.00800           0
      1106 MEMB     55       CHL1     H26C     HAL3     0.900000E-01   1.00800           0
      1107 MEMB     55       CHL1     C27      CTL3    -0.270000       12.0110           0
      1108 MEMB     55       CHL1     H27A     HAL3     0.900000E-01   1.00800           0
      1109 MEMB     55       CHL1     H27B     HAL3     0.900000E-01   1.00800           0
      1110 MEMB     55       CHL1     H27C     HAL3     0.900000E-01   1.00800           0
      1111 MEMB     58       CHL1     C3       CRL1     0.140000       12.0110           0
      1112 MEMB     58       CHL1     H3       HGA1     0.900000E-01   1.00800           0
      1113 MEMB     58       CHL1     O3       OHL     -0.660000       15.9994           0
      1114 MEMB     58       CHL1     H3'      HOL      0.430000       1.00800           0
      1115 MEMB     58       CHL1     C4       CRL2    -0.180000       12.0110           0
      1116 MEMB     58       CHL1     H4A      HGA2     0.900000E-01   1.00800           0
      1117 MEMB     58       CHL1     H4B      HGA2     0.900000E-01   1.00800           0
      1118 MEMB     58       CHL1     C5       CEL1     0.000000       12.0110           0
      1119 MEMB     58       CHL1     C6       CEL1    -0.150000       12.0110           0
      1120 MEMB     58       CHL1     H6       HEL1     0.150000       1.00800           0
      1121 MEMB     58       CHL1     C7       CRL2    -0.180000       12.0110           0
      1122 MEMB     58       CHL1     H7A      HGA2     0.900000E-01   1.00800           0
      1123 MEMB     58       CHL1     H7B      HGA2     0.900000E-01   1.00800           0
      1124 MEMB     58       CHL1     C8       CRL1    -0.900000E-01   12.0110           0
      1125 MEMB     58       CHL1     H8       HGA1     0.900000E-01   1.00800           0
      1126 MEMB     58       CHL1     C14      CRL1    -0.900000E-01   12.0110           0
      1127 MEMB     58       CHL1     H14      HGA1     0.900000E-01   1.00800           0
      1128 MEMB     58       CHL1     C15      CRL2    -0.180000       12.0110           0
      1129 MEMB     58       CHL1     H15A     HGA2     0.900000E-01   1.00800           0
      1130 MEMB     58       CHL1     H15B     HGA2     0.900000E-01   1.00800           0
      1131 MEMB     58       CHL1     C16      CRL2    -0.180000       12.0110           0
      1132 MEMB     58       CHL1     H16A     HGA2     0.900000E-01   1.00800           0
      1133 MEMB     58       CHL1     H16B     HGA2     0.900000E-01   1.00800           0
      1134 MEMB     58       CHL1     C17      CRL1    -0.900000E-01   12.0110           0
      1135 MEMB     58       CHL1     H17      HGA1     0.900000E-01   1.00800           0
      1136 MEMB     58       CHL1     C13      CRL1     0.000000       12.0110           0
      1137 MEMB     58       CHL1     C18      CTL3    -0.270000       12.0110           0
      1138 MEMB     58       CHL1     H18A     HAL3     0.900000E-01   1.00800           0
      1139 MEMB     58       CHL1     H18B     HAL3     0.900000E-01   1.00800           0
      1140 MEMB     58       CHL1     H18C     HAL3     0.900000E-01   1.00800           0
      1141 MEMB     58       CHL1     C12      CRL2    -0.180000       12.0110           0
      1142 MEMB     58       CHL1     H12A     HGA2     0.900000E-01   1.00800           0
      1143 MEMB     58       CHL1     H12B     HGA2     0.900000E-01   1.00800           0
      1144 MEMB     58       CHL1     C11      CRL2    -0.180000       12.0110           0
      1145 MEMB     58       CHL1     H11A     HGA2     0.900000E-01   1.00800           0
      1146 MEMB     58       CHL1     H11B     HGA2     0.900000E-01   1.00800           0
      1147 MEMB     58       CHL1     C9       CRL1    -0.900000E-01   12.0110           0
      1148 MEMB     58       CHL1     H9       HGA1     0.900000E-01   1.00800           0
      1149 MEMB     58       CHL1     C10      CRL1     0.000000       12.0110           0
      1150 MEMB     58       CHL1     C19      CTL3    -0.270000       12.0110           0
      1151 MEMB     58       CHL1     H19A     HAL3     0.900000E-01   1.00800           0
      1152 MEMB     58       CHL1     H19B     HAL3     0.900000E-01   1.00800           0
      1153 MEMB     58       CHL1     H19C     HAL3     0.900000E-01   1.00800           0
      1154 MEMB     58       CHL1     C1       CRL2    -0.180000       12.0110           0
      1155 MEMB     58       CHL1     H1A      HGA2     0.900000E-01   1.00800           0
      1156 MEMB     58       CHL1     H1B      HGA2     0.900000E-01   1.00800           0
      1157 MEMB     58       CHL1     C2       CRL2    -0.180000       12.0110           0
      1158 MEMB     58       CHL1     H2A      HGA2     0.900000E-01   1.00800           0
      1159 MEMB     58       CHL1     H2B      HGA2     0.900000E-01   1.00800           0
      1160 MEMB     58       CHL1     C20      CTL1    -0.900000E-01   12.0110           0
      1161 MEMB     58       CHL1     H20      HAL1     0.900000E-01   1.00800           0
      1162 MEMB     58       CHL1     C21      CTL3    -0.270000       12.0110           0
      1163 MEMB     58       CHL1     H21A     HAL3     0.900000E-01   1.00800           0
      1164 MEMB     58       CHL1     H21B     HAL3     0.900000E-01   1.00800           0
      1165 MEMB     58       CHL1     H21C     HAL3     0.900000E-01   1.00800           0
      1166 MEMB     58       CHL1     C22      CTL2    -0.180000       12.0110           0
      1167 MEMB     58       CHL1     H22A     HAL2     0.900000E-01   1.00800           0
      1168 MEMB     58       CHL1     H22B     HAL2     0.900000E-01   1.00800           0
      1169 MEMB     58       CHL1     C23      CTL2    -0.180000       12.0110           0
      1170 MEMB     58       CHL1     H23A     HAL2     0.900000E-01   1.00800           0
      1171 MEMB     58       CHL1     H23B     HAL2     0.900000E-01   1.00800           0
      1172 MEMB     58       CHL1     C24      CTL2    -0.180000       12.0110           0
      1173 MEMB     58       CHL1     H24A     HAL2     0.900000E-01   1.00800           0
      1174 MEMB     58       CHL1     H24B     HAL2     0.900000E-01   1.00800           0
      1175 MEMB     58       CHL1     C25      CTL1    -0.900000E-01   12.0110           0
      1176 MEMB     58       CHL1     H25      HAL1     0.900000E-01   1.00800           0
      1177 MEMB     58       CHL1     C26      CTL3    -0.270000       12.0110           0
      1178 MEMB     58       CHL1     H26A     HAL3     0.900000E-01   1.00800           0
      1179 MEMB     58       CHL1     H26B     HAL3     0.900000E-01   1.00800           0
      1180 MEMB     58       CHL1     H26C     HAL3     0.900000E-01   1.00800           0
      1181 MEMB     58       CHL1     C27      CTL3    -0.270000       12.0110           0
      1182 MEMB     58       CHL1     H27A     HAL3     0.900000E-01   1.00800           0
      1183 MEMB     58       CHL1     H27B     HAL3     0.900000E-01   1.00800           0
      1184 MEMB     58       CHL1     H27C     HAL3     0.900000E-01   1.00800           0
      1185 MEMB     59       CHL1     C3       CRL1     0.140000       12.0110           0
      1186 MEMB     59       CHL1     H3       HGA1     0.900000E-01   1.00800           0
      1187 MEMB     59       CHL1     O3       OHL     -0.660000       15.9994           0
      1188 MEMB     59       CHL1     H3'      HOL      0.430000       1.00800           0
      1189 MEMB     59       CHL1     C4       CRL2    -0.180000       12.0110           0
      1190 MEMB     59       CHL1     H4A      HGA2     0.900000E-01   1.00800           0
      1191 MEMB     59       CHL1     H4B      HGA2     0.900000E-01   1.00800           0
      1192 MEMB     59       CHL1     C5       CEL1     0.000000       12.0110           0
      1193 MEMB     59       CHL1     C6       CEL1    -0.150000       12.0110           0
      1194 MEMB     59       CHL1     H6       HEL1     0.150000       1.00800           0
      1195 MEMB     59       CHL1     C7       CRL2    -0.180000       12.0110           0
      1196 MEMB     59       CHL1     H7A      HGA2     0.900000E-01   1.00800           0
      1197 MEMB     59       CHL1     H7B      HGA2     0.900000E-01   1.00800           0
      1198 MEMB     59       CHL1     C8       CRL1    -0.900000E-01   12.0110           0
      1199 MEMB     59       CHL1     H8       HGA1     0.900000E-01   1.00800           0
      1200 MEMB     59       CHL1     C14      CRL1    -0.900000E-01   12.0110           0
      1201 MEMB     59       CHL1     H14      HGA1     0.900000E-01   1.00800           0
      1202 MEMB     59       CHL1     C15      CRL2    -0.180000       12.0110           0
      1203 MEMB     59       CHL1     H15A     HGA2     0.900000E-01   1.00800           0
      1204 MEMB     59       CHL1     H15B     HGA2     0.900000E-01   1.00800           0
      1205 MEMB     59       CHL1     C16      CRL2    -0.180000       12.0110           0
      1206 MEMB     59       CHL1     H16A     HGA2     0.900000E-01   1.00800           0
      1207 MEMB     59       CHL1     H16B     HGA2     0.900000E-01   1.00800           0
      1208 MEMB     59       CHL1     C17      CRL1    -0.900000E-01   12.0110           0
      1209 MEMB     59       CHL1     H17      HGA1     0.900000E-01   1.00800           0
      1210 MEMB     59       CHL1     C13      CRL1     0.000000       12.0110           0
      1211 MEMB     59       CHL1     C18      CTL3    -0.270000       12.0110           0
      1212 MEMB     59       CHL1     H18A     HAL3     0.900000E-01   1.00800           0
      1213 MEMB     59       CHL1     H18B     HAL3     0.900000E-01   1.00800           0
      1214 MEMB     59       CHL1     H18C     HAL3     0.900000E-01   1.00800           0
      1215 MEMB     59       CHL1     C12      CRL2    -0.180000       12.0110           0
      1216 MEMB     59       CHL1     H12A     HGA2     0.900000E-01   1.00800           0
      1217 MEMB     59       CHL1     H12B     HGA2     0.900000E-01   1.00800           0
      1218 MEMB     59       CHL1     C11      CRL2    -0.180000       12.0110           0
      1219 MEMB     59       CHL1     H11A     HGA2     0.900000E-01   1.00800           0
      1220 MEMB     59       CHL1     H11B     HGA2     0.900000E-01   1.00800           0
      1221 MEMB     59       CHL1     C9       CRL1    -0.900000E-01   12.0110           0
      1222 MEMB     59       CHL1     H9       HGA1     0.900000E-01   1.00800           0
      1223 MEMB     59       CHL1     C10      CRL1     0.000000       12.0110           0
      1224 MEMB     59       CHL1     C19      CTL3    -0.270000       12.0110           0
      1225 MEMB     59       CHL1     H19A     HAL3     0.900000E-01   1.00800           0
      1226 MEMB     59       CHL1     H19B     HAL3     0.900000E-01   1.00800           0
      1227 MEMB     59       CHL1     H19C     HAL3     0.900000E-01   1.00800           0
      1228 MEMB     59       CHL1     C1       CRL2    -0.180000       12.0110           0
      1229 MEMB     59       CHL1     H1A      HGA2     0.900000E-01   1.00800           0
      1230 MEMB     59       CHL1     H1B      HGA2     0.900000E-01   1.00800           0
      1231 MEMB     59       CHL1     C2       CRL2    -0.180000       12.0110           0
      1232 MEMB     59       CHL1     H2A      HGA2     0.900000E-01   1.00800           0
      1233 MEMB     59       CHL1     H2B      HGA2     0.900000E-01   1.00800           0
      1234 MEMB     59       CHL1     C20      CTL1    -0.900000E-01   12.0110           0
      1235 MEMB     59       CHL1     H20      HAL1     0.900000E-01   1.00800           0
      1236 MEMB     59       CHL1     C21      CTL3    -0.270000       12.0110           0
      1237 MEMB     59       CHL1     H21A     HAL3     0.900000E-01   1.00800           0
      1238 MEMB     59       CHL1     H21B     HAL3     0.900000E-01   1.00800           0
      1239 MEMB     59       CHL1     H21C     HAL3     0.900000E-01   1.00800           0
      1240 MEMB     59       CHL1     C22      CTL2    -0.180000       12.0110           0
      1241 MEMB     59       CHL1     H22A     HAL2     0.900000E-01   1.00800           0
      1242 MEMB     59       CHL1     H22B     HAL2     0.900000E-01   1.00800           0
      1243 MEMB     59       CHL1     C23      CTL2    -0.180000       12.0110           0
      1244 MEMB     59       CHL1     H23A     HAL2     0.900000E-01   1.00800           0
      1245 MEMB     59       CHL1     H23B     HAL2     0.900000E-01   1.00800           0
      1246 MEMB     59       CHL1     C24      CTL2    -0.180000       12.0110           0
      1247 MEMB     59       CHL1     H24A     HAL2     0.900000E-01   1.00800           0
      1248 MEMB     59       CHL1     H24B     HAL2     0.900000E-01   1.00800           0
      1249 MEMB     59       CHL1     C25      CTL1    -0.900000E-01   12.0110           0
      1250 MEMB     59       CHL1     H25      HAL1     0.900000E-01   1.00800           0
      1251 MEMB     59       CHL1     C26      CTL3    -0.270000       12.0110           0
      1252 MEMB     59       CHL1     H26A     HAL3     0.900000E-01   1.00800           0
      1253 MEMB     59       CHL1     H26B     HAL3     0.900000E-01   1.00800           0
      1254 MEMB     59       CHL1     H26C     HAL3     0.900000E-01   1.00800           0
      1255 MEMB     59       CHL1     C27      CTL3    -0.270000       12.0110           0
      1256 MEMB     59       CHL1     H27A     HAL3     0.900000E-01   1.00800           0
      1257 MEMB     59       CHL1     H27B     HAL3     0.900000E-01   1.00800           0
      1258 MEMB     59       CHL1     H27C     HAL3     0.900000E-01   1.00800           0
      1259 MEMB     60       CHL1     C3       CRL1     0.140000       12.0110           0
      1260 MEMB     60       CHL1     H3       HGA1     0.900000E-01   1.00800           0
      1261 MEMB     60       CHL1     O3       OHL     -0.660000       15.9994           0
      1262 MEMB     60       CHL1     H3'      HOL      0.430000       1.00800           0
      1263 MEMB     60       CHL1     C4       CRL2    -0.180000       12.0110           0
      1264 MEMB     60       CHL1     H4A      HGA2     0.900000E-01   1.00800           0
      1265 MEMB     60       CHL1     H4B      HGA2     0.900000E-01   1.00800           0
      1266 MEMB     60       CHL1     C5       CEL1     0.000000       12.0110           0
      1267 MEMB     60       CHL1     C6       CEL1    -0.150000       12.0110           0
      1268 MEMB     60       CHL1     H6       HEL1     0.150000       1.00800           0
      1269 MEMB     60       CHL1     C7       CRL2    -0.180000       12.0110           0
      1270 MEMB     60       CHL1     H7A      HGA2     0.900000E-01   1.00800           0
      1271 MEMB     60       CHL1     H7B      HGA2     0.900000E-01   1.00800           0
      1272 MEMB     60       CHL1     C8       CRL1    -0.900000E-01   12.0110           0
      1273 MEMB     60       CHL1     H8       HGA1     0.900000E-01   1.00800           0
      1274 MEMB     60       CHL1     C14      CRL1    -0.900000E-01   12.0110           0
      1275 MEMB     60       CHL1     H14      HGA1     0.900000E-01   1.00800           0
      1276 MEMB     60       CHL1     C15      CRL2    -0.180000       12.0110           0
      1277 MEMB     60       CHL1     H15A     HGA2     0.900000E-01   1.00800           0
      1278 MEMB     60       CHL1     H15B     HGA2     0.900000E-01   1.00800           0
      1279 MEMB     60       CHL1     C16      CRL2    -0.180000       12.0110           0
      1280 MEMB     60       CHL1     H16A     HGA2     0.900000E-01   1.00800           0
      1281 MEMB     60       CHL1     H16B     HGA2     0.900000E-01   1.00800           0
      1282 MEMB     60       CHL1     C17      CRL1    -0.900000E-01   12.0110           0
      1283 MEMB     60       CHL1     H17      HGA1     0.900000E-01   1.00800           0
      1284 MEMB     60       CHL1     C13      CRL1     0.000000       12.0110           0
      1285 MEMB     60       CHL1     C18      CTL3    -0.270000       12.0110           0
      1286 MEMB     60       CHL1     H18A     HAL3     0.900000E-01   1.00800           0
      1287 MEMB     60       CHL1     H18B     HAL3     0.900000E-01   1.00800           0
      1288 MEMB     60       CHL1     H18C     HAL3     0.900000E-01   1.00800           0
      1289 MEMB     60       CHL1     C12      CRL2    -0.180000       12.0110           0
      1290 MEMB     60       CHL1     H12A     HGA2     0.900000E-01   1.00800           0
      1291 MEMB     60       CHL1     H12B     HGA2     0.900000E-01   1.00800           0
      1292 MEMB     60       CHL1     C11      CRL2    -0.180000       12.0110           0
      1293 MEMB     60       CHL1     H11A     HGA2     0.900000E-01   1.00800           0
      1294 MEMB     60       CHL1     H11B     HGA2     0.900000E-01   1.00800           0
      1295 MEMB     60       CHL1     C9       CRL1    -0.900000E-01   12.0110           0
      1296 MEMB     60       CHL1     H9       HGA1     0.900000E-01   1.00800           0
      1297 MEMB     60       CHL1     C10      CRL1     0.000000       12.0110           0
      1298 MEMB     60       CHL1     C19      CTL3    -0.270000       12.0110           0
      1299 MEMB     60       CHL1     H19A     HAL3     0.900000E-01   1.00800           0
      1300 MEMB     60       CHL1     H19B     HAL3     0.900000E-01   1.00800           0
      1301 MEMB     60       CHL1     H19C     HAL3     0.900000E-01   1.00800           0
      1302 MEMB     60       CHL1     C1       CRL2    -0.180000       12.0110           0
      1303 MEMB     60       CHL1     H1A      HGA2     0.900000E-01   1.00800           0
      1304 MEMB     60       CHL1     H1B      HGA2     0.900000E-01   1.00800           0
      1305 MEMB     60       CHL1     C2       CRL2    -0.180000       12.0110           0
      1306 MEMB     60       CHL1     H2A      HGA2     0.900000E-01   1.00800           0
      1307 MEMB     60       CHL1     H2B      HGA2     0.900000E-01   1.00800           0
      1308 MEMB     60       CHL1     C20      CTL1    -0.900000E-01   12.0110           0
      1309 MEMB     60       CHL1     H20      HAL1     0.900000E-01   1.00800           0
      1310 MEMB     60       CHL1     C21      CTL3    -0.270000       12.0110           0
      1311 MEMB     60       CHL1     H21A     HAL3     0.900000E-01   1.00800           0
      1312 MEMB     60       CHL1     H21B     HAL3     0.900000E-01   1.00800           0
      1313 MEMB     60       CHL1     H21C     HAL3     0.900000E-01   1.00800           0
      1314 MEMB     60       CHL1     C22      CTL2    -0.180000       12.0110           0
      1315 MEMB     60       CHL1     H22A     HAL2     0.900000E-01   1.00800           0
      1316 MEMB     60       CHL1     H22B     HAL2     0.900000E-01   1.00800           0
      1317 MEMB     60       CHL1     C23      CTL2    -0.180000       12.0110           0
      1318 MEMB     60       CHL1     H23A     HAL2     0.900000E-01   1.00800           0
      1319 MEMB     60       CHL1     H23B     HAL2     0.900000E-01   1.00800           0
      1320 MEMB     60       CHL1     C24      CTL2    -0.180000       12.0110           0
      1321 MEMB     60       CHL1     H24A     HAL2     0.900000E-01   1.00800           0
      1322 MEMB     60       CHL1     H24B     HAL2     0.900000E-01   1.00800           0
      1323 MEMB     60       CHL1     C25      CTL1    -0.900000E-01   12.0110           0
      1324 MEMB     60       CHL1     H25      HAL1     0.900000E-01   1.00800           0
      1325 MEMB     60       CHL1     C26      CTL3    -0.270000       12.0110           0
      1326 MEMB     60       CHL1     H26A     HAL3     0.900000E-01   1.00800           0
      1327 MEMB     60       CHL1     H26B     HAL3     0.900000E-01   1.00800           0
      1328 MEMB     60       CHL1     H26C     HAL3     0.900000E-01   1.00800           0
      1329 MEMB     60       CHL1     C27      CTL3    -0.270000       12.0110           0
      1330 MEMB     60       CHL1     H27A     HAL3     0.900000E-01   1.00800           0
      1331 MEMB     60       CHL1     H27B     HAL3     0.900000E-01   1.00800           0
      1332 MEMB     60       CHL1     H27C     HAL3     0.900000E-01   1.00800           0
      1333 MEMB     61       CHL1     C3       CRL1     0.140000       12.0110           0
      1334 MEMB     61       CHL1     H3       HGA1     0.900000E-01   1.00800           0
      1335 MEMB     61       CHL1     O3       OHL     -0.660000       15.9994           0
      1336 MEMB     61       CHL1     H3'      HOL      0.430000       1.00800           0
      1337 MEMB     61       CHL1     C4       CRL2    -0.180000       12.0110           0
      1338 MEMB     61       CHL1     H4A      HGA2     0.900000E-01   1.00800           0
      1339 MEMB     61       CHL1     H4B      HGA2     0.900000E-01   1.00800           0
      1340 MEMB     61       CHL1     C5       CEL1     0.000000       12.0110           0
      1341 MEMB     61       CHL1     C6       CEL1    -0.150000       12.0110           0
      1342 MEMB     61       CHL1     H6       HEL1     0.150000       1.00800           0
      1343 MEMB     61       CHL1     C7       CRL2    -0.180000       12.0110           0
      1344 MEMB     61       CHL1     H7A      HGA2     0.900000E-01   1.00800           0
      1345 MEMB     61       CHL1     H7B      HGA2     0.900000E-01   1.00800           0
      1346 MEMB     61       CHL1     C8       CRL1    -0.900000E-01   12.0110           0
      1347 MEMB     61       CHL1     H8       HGA1     0.900000E-01   1.00800           0
      1348 MEMB     61       CHL1     C14      CRL1    -0.900000E-01   12.0110           0
      1349 MEMB     61       CHL1     H14      HGA1     0.900000E-01   1.00800           0
      1350 MEMB     61       CHL1     C15      CRL2    -0.180000       12.0110           0
      1351 MEMB     61       CHL1     H15A     HGA2     0.900000E-01   1.00800           0
      1352 MEMB     61       CHL1     H15B     HGA2     0.900000E-01   1.00800           0
      1353 MEMB     61       CHL1     C16      CRL2    -0.180000       12.0110           0
      1354 MEMB     61       CHL1     H16A     HGA2     0.900000E-01   1.00800           0
      1355 MEMB     61       CHL1     H16B     HGA2     0.900000E-01   1.00800           0
      1356 MEMB     61       CHL1     C17      CRL1    -0.900000E-01   12.0110           0
      1357 MEMB     61       CHL1     H17      HGA1     0.900000E-01   1.00800           0
      1358 MEMB     61       CHL1     C13      CRL1     0.000000       12.0110           0
      1359 MEMB     61       CHL1     C18      CTL3    -0.270000       12.0110           0
      1360 MEMB     61       CHL1     H18A     HAL3     0.900000E-01   1.00800           0
      1361 MEMB     61       CHL1     H18B     HAL3     0.900000E-01   1.00800           0
      1362 MEMB     61       CHL1     H18C     HAL3     0.900000E-01   1.00800           0
      1363 MEMB     61       CHL1     C12      CRL2    -0.180000       12.0110           0
      1364 MEMB     61       CHL1     H12A     HGA2     0.900000E-01   1.00800           0
      1365 MEMB     61       CHL1     H12B     HGA2     0.900000E-01   1.00800           0
      1366 MEMB     61       CHL1     C11      CRL2    -0.180000       12.0110           0
      1367 MEMB     61       CHL1     H11A     HGA2     0.900000E-01   1.00800           0
      1368 MEMB     61       CHL1     H11B     HGA2     0.900000E-01   1.00800           0
      1369 MEMB     61       CHL1     C9       CRL1    -0.900000E-01   12.0110           0
      1370 MEMB     61       CHL1     H9       HGA1     0.900000E-01   1.00800           0
      1371 MEMB     61       CHL1     C10      CRL1     0.000000       12.0110           0
      1372 MEMB     61       CHL1     C19      CTL3    -0.270000       12.0110           0
      1373 MEMB     61       CHL1     H19A     HAL3     0.900000E-01   1.00800           0
      1374 MEMB     61       CHL1     H19B     HAL3     0.900000E-01   1.00800           0
      1375 MEMB     61       CHL1     H19C     HAL3     0.900000E-01   1.00800           0
      1376 MEMB     61       CHL1     C1       CRL2    -0.180000       12.0110           0
      1377 MEMB     61       CHL1     H1A      HGA2     0.900000E-01   1.00800           0
      1378 MEMB     61       CHL1     H1B      HGA2     0.900000E-01   1.00800           0
      1379 MEMB     61       CHL1     C2       CRL2    -0.180000       12.0110           0
      1380 MEMB     61       CHL1     H2A      HGA2     0.900000E-01   1.00800           0
      1381 MEMB     61       CHL1     H2B      HGA2     0.900000E-01   1.00800           0
      1382 MEMB     61       CHL1     C20      CTL1    -0.900000E-01   12.0110           0
      1383 MEMB     61       CHL1     H20      HAL1     0.900000E-01   1.00800           0
      1384 MEMB     61       CHL1     C21      CTL3    -0.270000       12.0110           0
      1385 MEMB     61       CHL1     H21A     HAL3     0.900000E-01   1.00800           0
      1386 MEMB     61       CHL1     H21B     HAL3     0.900000E-01   1.00800           0
      1387 MEMB     61       CHL1     H21C     HAL3     0.900000E-01   1.00800           0
      1388 MEMB     61       CHL1     C22      CTL2    -0.180000       12.0110           0
      1389 MEMB     61       CHL1     H22A     HAL2     0.900000E-01   1.00800           0
      1390 MEMB     61       CHL1     H22B     HAL2     0.900000E-01   1.00800           0
      1391 MEMB     61       CHL1     C23      CTL2    -0.180000       12.0110           0
      1392 MEMB     61       CHL1     H23A     HAL2     0.900000E-01   1.00800           0
      1393 MEMB     61       CHL1     H23B     HAL2     0.900000E-01   1.00800           0
      1394 MEMB     61       CHL1     C24      CTL2    -0.180000       12.0110           0
      1395 MEMB     61       CHL1     H24A     HAL2     0.900000E-01   1.00800           0
      1396 MEMB     61       CHL1     H24B     HAL2     0.900000E-01   1.00800           0
      1397 MEMB     61       CHL1     C25      CTL1    -0.900000E-01   12.0110           0
      1398 MEMB     61       CHL1     H25      HAL1     0.900000E-01   1.00800           0
      1399 MEMB     61       CHL1     C26      CTL3    -0.270000       12.0110           0
      1400 MEMB     61       CHL1     H26A     HAL3     0.900000E-01   1.00800           0
      1401 MEMB     61       CHL1     H26B     HAL3     0.900000E-01   1.00800           0
      1402 MEMB     61       CHL1     H26C     HAL3     0.900000E-01   1.00800           0
      1403 MEMB     61       CHL1     C27      CTL3    -0.270000       12.0110           0
      1404 MEMB     61       CHL1     H27A     HAL3     0.900000E-01   1.00800           0
      1405 MEMB     61       CHL1     H27B     HAL3     0.900000E-01   1.00800           0
      1406 MEMB     61       CHL1     H27C     HAL3     0.900000E-01   1.00800           0
      1407 MEMB     63       CHL1     C3       CRL1     0.140000       12.0110           0
      1408 MEMB     63       CHL1     H3       HGA1     0.900000E-01   1.00800           0
      1409 MEMB     63       CHL1     O3       OHL     -0.660000       15.9994           0
      1410 MEMB     63       CHL1     H3'      HOL      0.430000       1.00800           0
      1411 MEMB     63       CHL1     C4       CRL2    -0.180000       12.0110           0
      1412 MEMB     63       CHL1     H4A      HGA2     0.900000E-01   1.00800           0
      1413 MEMB     63       CHL1     H4B      HGA2     0.900000E-01   1.00800           0
      1414 MEMB     63       CHL1     C5       CEL1     0.000000       12.0110           0
      1415 MEMB     63       CHL1     C6       CEL1    -0.150000       12.0110           0
      1416 MEMB     63       CHL1     H6       HEL1     0.150000       1.00800           0
      1417 MEMB     63       CHL1     C7       CRL2    -0.180000       12.0110           0
      1418 MEMB     63       CHL1     H7A      HGA2     0.900000E-01   1.00800           0
      1419 MEMB     63       CHL1     H7B      HGA2     0.900000E-01   1.00800           0
      1420 MEMB     63       CHL1     C8       CRL1    -0.900000E-01   12.0110           0
      1421 MEMB     63       CHL1     H8       HGA1     0.900000E-01   1.00800           0
      1422 MEMB     63       CHL1     C14      CRL1    -0.900000E-01   12.0110           0
      1423 MEMB     63       CHL1     H14      HGA1     0.900000E-01   1.00800           0
      1424 MEMB     63       CHL1     C15      CRL2    -0.180000       12.0110           0
      1425 MEMB     63       CHL1     H15A     HGA2     0.900000E-01   1.00800           0
      1426 MEMB     63       CHL1     H15B     HGA2     0.900000E-01   1.00800           0
      1427 MEMB     63       CHL1     C16      CRL2    -0.180000       12.0110           0
      1428 MEMB     63       CHL1     H16A     HGA2     0.900000E-01   1.00800           0
      1429 MEMB     63       CHL1     H16B     HGA2     0.900000E-01   1.00800           0
      1430 MEMB     63       CHL1     C17      CRL1    -0.900000E-01   12.0110           0
      1431 MEMB     63       CHL1     H17      HGA1     0.900000E-01   1.00800           0
      1432 MEMB     63       CHL1     C13      CRL1     0.000000       12.0110           0
      1433 MEMB     63       CHL1     C18      CTL3    -0.270000       12.0110           0
      1434 MEMB     63       CHL1     H18A     HAL3     0.900000E-01   1.00800           0
      1435 MEMB     63       CHL1     H18B     HAL3     0.900000E-01   1.00800           0
      1436 MEMB     63       CHL1     H18C     HAL3     0.900000E-01   1.00800           0
      1437 MEMB     63       CHL1     C12      CRL2    -0.180000       12.0110           0
      1438 MEMB     63       CHL1     H12A     HGA2     0.900000E-01   1.00800           0
      1439 MEMB     63       CHL1     H12B     HGA2     0.900000E-01   1.00800           0
      1440 MEMB     63       CHL1     C11      CRL2    -0.180000       12.0110           0
      1441 MEMB     63       CHL1     H11A     HGA2     0.900000E-01   1.00800           0
      1442 MEMB     63       CHL1     H11B     HGA2     0.900000E-01   1.00800           0
      1443 MEMB     63       CHL1     C9       CRL1    -0.900000E-01   12.0110           0
      1444 MEMB     63       CHL1     H9       HGA1     0.900000E-01   1.00800           0
      1445 MEMB     63       CHL1     C10      CRL1     0.000000       12.0110           0
      1446 MEMB     63       CHL1     C19      CTL3    -0.270000       12.0110           0
      1447 MEMB     63       CHL1     H19A     HAL3     0.900000E-01   1.00800           0
      1448 MEMB     63       CHL1     H19B     HAL3     0.900000E-01   1.00800           0
      1449 MEMB     63       CHL1     H19C     HAL3     0.900000E-01   1.00800           0
      1450 MEMB     63       CHL1     C1       CRL2    -0.180000       12.0110           0
      1451 MEMB     63       CHL1     H1A      HGA2     0.900000E-01   1.00800           0
      1452 MEMB     63       CHL1     H1B      HGA2     0.900000E-01   1.00800           0
      1453 MEMB     63       CHL1     C2       CRL2    -0.180000       12.0110           0
      1454 MEMB     63       CHL1     H2A      HGA2     0.900000E-01   1.00800           0
      1455 MEMB     63       CHL1     H2B      HGA2     0.900000E-01   1.00800           0
      1456 MEMB     63       CHL1     C20      CTL1    -0.900000E-01   12.0110           0
      1457 MEMB     63       CHL1     H20      HAL1     0.900000E-01   1.00800           0
      1458 MEMB     63       CHL1     C21      CTL3    -0.270000       12.0110           0
      1459 MEMB     63       CHL1     H21A     HAL3     0.900000E-01   1.00800           0
      1460 MEMB     63       CHL1     H21B     HAL3     0.900000E-01   1.00800           0
      1461 MEMB     63       CHL1     H21C     HAL3     0.900000E-01   1.00800           0
      1462 MEMB     63       CHL1     C22      CTL2    -0.180000       12.0110           0
      1463 MEMB     63       CHL1     H22A     HAL2     0.900000E-01   1.00800           0
      1464 MEMB     63       CHL1     H22B     HAL2     0.900000E-01   1.00800           0
      1465 MEMB     63       CHL1     C23      CTL2    -0.180000       12.0110           0
      1466 MEMB     63       CHL1     H23A     HAL2     0.900000E-01   1.00800           0
      1467 MEMB     63       CHL1     H23B     HAL2     0.900000E-01   1.00800           0
      1468 MEMB     63       CHL1     C24      CTL2    -0.180000       12.0110           0
      1469 MEMB     63       CHL1     H24A     HAL2     0.900000E-01   1.00800           0
      1470 MEMB     63       CHL1     H24B     HAL2     0.900000E-01   1.00800           0
      1471 MEMB     63       CHL1     C25      CTL1    -0.900000E-01   12.0110           0
      1472 MEMB     63       CHL1     H25      HAL1     0.900000E-01   1.00800           0
      1473 MEMB     63       CHL1     C26      CTL3    -0.270000       12.0110           0
      1474 MEMB     63       CHL1     H26A     HAL3     0.900000E-01   1.00800           0
      1475 MEMB     63       CHL1     H26B     HAL3     0.900000E-01   1.00800           0
      1476 MEMB     63       CHL1     H26C     HAL3     0.900000E-01   1.00800           0
      1477 MEMB     63       CHL1     C27      CTL3    -0.270000       12.0110           0
      1478 MEMB     63       CHL1     H27A     HAL3     0.900000E-01   1.00800           0
      1479 MEMB     63       CHL1     H27B     HAL3     0.900000E-01   1.00800           0
      1480 MEMB     63       CHL1     H27C     HAL3     0.900000E-01   1.00800           0
      1481 MEMB     64       CHL1     C3       CRL1     0.140000       12.0110           0
      1482 MEMB     64       CHL1     H3       HGA1     0.900000E-01   1.00800           0
      1483 MEMB     64       CHL1     O3       OHL     -0.660000       15.9994           0
      1484 MEMB     64       CHL1     H3'      HOL      0.430000       1.00800           0
      1485 MEMB     64       CHL1     C4       CRL2    -0.180000       12.0110           0
      1486 MEMB     64       CHL1     H4A      HGA2     0.900000E-01   1.00800           0
      1487 MEMB     64       CHL1     H4B      HGA2     0.900000E-01   1.00800           0
      1488 MEMB     64       CHL1     C5       CEL1     0.000000       12.0110           0
      1489 MEMB     64       CHL1     C6       CEL1    -0.150000       12.0110           0
      1490 MEMB     64       CHL1     H6       HEL1     0.150000       1.00800           0
      1491 MEMB     64       CHL1     C7       CRL2    -0.180000       12.0110           0
      1492 MEMB     64       CHL1     H7A      HGA2     0.900000E-01   1.00800           0
      1493 MEMB     64       CHL1     H7B      HGA2     0.900000E-01   1.00800           0
      1494 MEMB     64       CHL1     C8       CRL1    -0.900000E-01   12.0110           0
      1495 MEMB     64       CHL1     H8       HGA1     0.900000E-01   1.00800           0
      1496 MEMB     64       CHL1     C14      CRL1    -0.900000E-01   12.0110           0
      1497 MEMB     64       CHL1     H14      HGA1     0.900000E-01   1.00800           0
      1498 MEMB     64       CHL1     C15      CRL2    -0.180000       12.0110           0
      1499 MEMB     64       CHL1     H15A     HGA2     0.900000E-01   1.00800           0
      1500 MEMB     64       CHL1     H15B     HGA2     0.900000E-01   1.00800           0
      1501 MEMB     64       CHL1     C16      CRL2    -0.180000       12.0110           0
      1502 MEMB     64       CHL1     H16A     HGA2     0.900000E-01   1.00800           0
      1503 MEMB     64       CHL1     H16B     HGA2     0.900000E-01   1.00800           0
      1504 MEMB     64       CHL1     C17      CRL1    -0.900000E-01   12.0110           0
      1505 MEMB     64       CHL1     H17      HGA1     0.900000E-01   1.00800           0
      1506 MEMB     64       CHL1     C13      CRL1     0.000000       12.0110           0
      1507 MEMB     64       CHL1     C18      CTL3    -0.270000       12.0110           0
      1508 MEMB     64       CHL1     H18A     HAL3     0.900000E-01   1.00800           0
      1509 MEMB     64       CHL1     H18B     HAL3     0.900000E-01   1.00800           0
      1510 MEMB     64       CHL1     H18C     HAL3     0.900000E-01   1.00800           0
      1511 MEMB     64       CHL1     C12      CRL2    -0.180000       12.0110           0
      1512 MEMB     64       CHL1     H12A     HGA2     0.900000E-01   1.00800           0
      1513 MEMB     64       CHL1     H12B     HGA2     0.900000E-01   1.00800           0
      1514 MEMB     64       CHL1     C11      CRL2    -0.180000       12.0110           0
      1515 MEMB     64       CHL1     H11A     HGA2     0.900000E-01   1.00800           0
      1516 MEMB     64       CHL1     H11B     HGA2     0.900000E-01   1.00800           0
      1517 MEMB     64       CHL1     C9       CRL1    -0.900000E-01   12.0110           0
      1518 MEMB     64       CHL1     H9       HGA1     0.900000E-01   1.00800           0
      1519 MEMB     64       CHL1     C10      CRL1     0.000000       12.0110           0
      1520 MEMB     64       CHL1     C19      CTL3    -0.270000       12.0110           0
      1521 MEMB     64       CHL1     H19A     HAL3     0.900000E-01   1.00800           0
      1522 MEMB     64       CHL1     H19B     HAL3     0.900000E-01   1.00800           0
      1523 MEMB     64       CHL1     H19C     HAL3     0.900000E-01   1.00800           0
      1524 MEMB     64       CHL1     C1       CRL2    -0.180000       12.0110           0
      1525 MEMB     64       CHL1     H1A      HGA2     0.900000E-01   1.00800           0
      1526 MEMB     64       CHL1     H1B      HGA2     0.900000E-01   1.00800           0
      1527 MEMB     64       CHL1     C2       CRL2    -0.180000       12.0110           0
      1528 MEMB     64       CHL1     H2A      HGA2     0.900000E-01   1.00800           0
      1529 MEMB     64       CHL1     H2B      HGA2     0.900000E-01   1.00800           0
      1530 MEMB     64       CHL1     C20      CTL1    -0.900000E-01   12.0110           0
      1531 MEMB     64       CHL1     H20      HAL1     0.900000E-01   1.00800           0
      1532 MEMB     64       CHL1     C21      CTL3    -0.270000       12.0110           0
      1533 MEMB     64       CHL1     H21A     HAL3     0.900000E-01   1.00800           0
      1534 MEMB     64       CHL1     H21B     HAL3     0.900000E-01   1.00800           0
      1535 MEMB     64       CHL1     H21C     HAL3     0.900000E-01   1.00800           0
      1536 MEMB     64       CHL1     C22      CTL2    -0.180000       12.0110           0
      1537 MEMB     64       CHL1     H22A     HAL2     0.900000E-01   1.00800           0
      1538 MEMB     64       CHL1     H22B     HAL2     0.900000E-01   1.00800           0
      1539 MEMB     64       CHL1     C23      CTL2    -0.180000       12.0110           0
      1540 MEMB     64       CHL1     H23A     HAL2     0.900000E-01   1.00800           0
      1541 MEMB     64       CHL1     H23B     HAL2     0.900000E-01   1.00800           0
      1542 MEMB     64       CHL1     C24      CTL2    -0.180000       12.0110           0
      1543 MEMB     64       CHL1     H24A     HAL2     0.900000E-01   1.00800           0
      1544 MEMB     64       CHL1     H24B     HAL2     0.900000E-01   1.00800           0
      1545 MEMB     64       CHL1     C25      CTL1    -0.900000E-01   12.0110           0
      1546 MEMB     64       CHL1     H25      HAL1     0.900000E-01   1.00800           0
      1547 MEMB     64       CHL1     C26      CTL3    -0.270000       12.0110           0
      1548 MEMB     64       CHL1     H26A     HAL3     0.900000E-01   1.00800           0
      1549 MEMB     64       CHL1     H26B     HAL3     0.900000E-01   1.00800           0
      1550 MEMB     64       CHL1     H26C     HAL3     0.900000E-01   1.00800           0
      1551 MEMB     64       CHL1     C27      CTL3    -0.270000       12.0110           0
      1552 MEMB     64       CHL1     H27A     HAL3     0.900000E-01   1.00800           0
      1553 MEMB     64       CHL1     H27B     HAL3     0.900000E-01   1.00800           0
      1554 MEMB     64       CHL1     H27C     HAL3     0.900000E-01   1.00800           0
      1555 MEMB     66       CHL1     C3       CRL1     0.140000       12.0110           0
      1556 MEMB     66       CHL1     H3       HGA1     0.900000E-01   1.00800           0
      1557 MEMB     66       CHL1     O3       OHL     -0.660000       15.9994           0
      1558 MEMB     66       CHL1     H3'      HOL      0.430000       1.00800           0
      1559 MEMB     66       CHL1     C4       CRL2    -0.180000       12.0110           0
      1560 MEMB     66       CHL1     H4A      HGA2     0.900000E-01   1.00800           0
      1561 MEMB     66       CHL1     H4B      HGA2     0.900000E-01   1.00800           0
      1562 MEMB     66       CHL1     C5       CEL1     0.000000       12.0110           0
      1563 MEMB     66       CHL1     C6       CEL1    -0.150000       12.0110           0
      1564 MEMB     66       CHL1     H6       HEL1     0.150000       1.00800           0
      1565 MEMB     66       CHL1     C7       CRL2    -0.180000       12.0110           0
      1566 MEMB     66       CHL1     H7A      HGA2     0.900000E-01   1.00800           0
      1567 MEMB     66       CHL1     H7B      HGA2     0.900000E-01   1.00800           0
      1568 MEMB     66       CHL1     C8       CRL1    -0.900000E-01   12.0110           0
      1569 MEMB     66       CHL1     H8       HGA1     0.900000E-01   1.00800           0
      1570 MEMB     66       CHL1     C14      CRL1    -0.900000E-01   12.0110           0
      1571 MEMB     66       CHL1     H14      HGA1     0.900000E-01   1.00800           0
      1572 MEMB     66       CHL1     C15      CRL2    -0.180000       12.0110           0
      1573 MEMB     66       CHL1     H15A     HGA2     0.900000E-01   1.00800           0
      1574 MEMB     66       CHL1     H15B     HGA2     0.900000E-01   1.00800           0
      1575 MEMB     66       CHL1     C16      CRL2    -0.180000       12.0110           0
      1576 MEMB     66       CHL1     H16A     HGA2     0.900000E-01   1.00800           0
      1577 MEMB     66       CHL1     H16B     HGA2     0.900000E-01   1.00800           0
      1578 MEMB     66       CHL1     C17      CRL1    -0.900000E-01   12.0110           0
      1579 MEMB     66       CHL1     H17      HGA1     0.900000E-01   1.00800           0
      1580 MEMB     66       CHL1     C13      CRL1     0.000000       12.0110           0
      1581 MEMB     66       CHL1     C18      CTL3    -0.270000       12.0110           0
      1582 MEMB     66       CHL1     H18A     HAL3     0.900000E-01   1.00800           0
      1583 MEMB     66       CHL1     H18B     HAL3     0.900000E-01   1.00800           0
      1584 MEMB     66       CHL1     H18C     HAL3     0.900000E-01   1.00800           0
      1585 MEMB     66       CHL1     C12      CRL2    -0.180000       12.0110           0
      1586 MEMB     66       CHL1     H12A     HGA2     0.900000E-01   1.00800           0
      1587 MEMB     66       CHL1     H12B     HGA2     0.900000E-01   1.00800           0
      1588 MEMB     66       CHL1     C11      CRL2    -0.180000       12.0110           0
      1589 MEMB     66       CHL1     H11A     HGA2     0.900000E-01   1.00800           0
      1590 MEMB     66       CHL1     H11B     HGA2     0.900000E-01   1.00800           0
      1591 MEMB     66       CHL1     C9       CRL1    -0.900000E-01   12.0110           0
      1592 MEMB     66       CHL1     H9       HGA1     0.900000E-01   1.00800           0
      1593 MEMB     66       CHL1     C10      CRL1     0.000000       12.0110           0
      1594 MEMB     66       CHL1     C19      CTL3    -0.270000       12.0110           0
      1595 MEMB     66       CHL1     H19A     HAL3     0.900000E-01   1.00800           0
      1596 MEMB     66       CHL1     H19B     HAL3     0.900000E-01   1.00800           0
      1597 MEMB     66       CHL1     H19C     HAL3     0.900000E-01   1.00800           0
      1598 MEMB     66       CHL1     C1       CRL2    -0.180000       12.0110           0
      1599 MEMB     66       CHL1     H1A      HGA2     0.900000E-01   1.00800           0
      1600 MEMB     66       CHL1     H1B      HGA2     0.900000E-01   1.00800           0
      1601 MEMB     66       CHL1     C2       CRL2    -0.180000       12.0110           0
      1602 MEMB     66       CHL1     H2A      HGA2     0.900000E-01   1.00800           0
      1603 MEMB     66       CHL1     H2B      HGA2     0.900000E-01   1.00800           0
      1604 MEMB     66       CHL1     C20      CTL1    -0.900000E-01   12.0110           0
      1605 MEMB     66       CHL1     H20      HAL1     0.900000E-01   1.00800           0
      1606 MEMB     66       CHL1     C21      CTL3    -0.270000       12.0110           0
      1607 MEMB     66       CHL1     H21A     HAL3     0.900000E-01   1.00800           0
      1608 MEMB     66       CHL1     H21B     HAL3     0.900000E-01   1.00800           0
      1609 MEMB     66       CHL1     H21C     HAL3     0.900000E-01   1.00800           0
      1610 MEMB     66       CHL1     C22      CTL2    -0.180000       12.0110           0
      1611 MEMB     66       CHL1     H22A     HAL2     0.900000E-01   1.00800           0
      1612 MEMB     66       CHL1     H22B     HAL2     0.900000E-01   1.00800           0
      1613 MEMB     66       CHL1     C23      CTL2    -0.180000       12.0110           0
      1614 MEMB     66       CHL1     H23A     HAL2     0.900000E-01   1.00800           0
      1615 MEMB     66       CHL1     H23B     HAL2     0.900000E-01   1.00800           0
      1616 MEMB     66       CHL1     C24      CTL2    -0.180000       12.0110           0
      1617 MEMB     66       CHL1     H24A     HAL2     0.900000E-01   1.00800           0
      1618 MEMB     66       CHL1     H24B     HAL2     0.900000E-01   1.00800           0
      1619 MEMB     66       CHL1     C25      CTL1    -0.900000E-01   12.0110           0
      1620 MEMB     66       CHL1     H25      HAL1     0.900000E-01   1.00800           0
      1621 MEMB     66       CHL1     C26      CTL3    -0.270000       12.0110           0
      1622 MEMB     66       CHL1     H26A     HAL3     0.900000E-01   1.00800           0
      1623 MEMB     66       CHL1     H26B     HAL3     0.900000E-01   1.00800           0
      1624 MEMB     66       CHL1     H26C     HAL3     0.900000E-01   1.00800           0
      1625 MEMB     66       CHL1     C27      CTL3    -0.270000       12.0110           0
      1626 MEMB     66       CHL1     H27A     HAL3     0.900000E-01   1.00800           0
      1627 MEMB     66       CHL1     H27B     HAL3     0.900000E-01   1.00800           0
      1628 MEMB     66       CHL1     H27C     HAL3     0.900000E-01   1.00800           0
      1629 MEMB     68       CHL1     C3       CRL1     0.140000       12.0110           0
      1630 MEMB     68       CHL1     H3       HGA1     0.900000E-01   1.00800           0
      1631 MEMB     68       CHL1     O3       OHL     -0.660000       15.9994           0
      1632 MEMB     68       CHL1     H3'      HOL      0.430000       1.00800           0
      1633 MEMB     68       CHL1     C4       CRL2    -0.180000       12.0110           0
      1634 MEMB     68       CHL1     H4A      HGA2     0.900000E-01   1.00800           0
      1635 MEMB     68       CHL1     H4B      HGA2     0.900000E-01   1.00800           0
      1636 MEMB     68       CHL1     C5       CEL1     0.000000       12.0110           0
      1637 MEMB     68       CHL1     C6       CEL1    -0.150000       12.0110           0
      1638 MEMB     68       CHL1     H6       HEL1     0.150000       1.00800           0
      1639 MEMB     68       CHL1     C7       CRL2    -0.180000       12.0110           0
      1640 MEMB     68       CHL1     H7A      HGA2     0.900000E-01   1.00800           0
      1641 MEMB     68       CHL1     H7B      HGA2     0.900000E-01   1.00800           0
      1642 MEMB     68       CHL1     C8       CRL1    -0.900000E-01   12.0110           0
      1643 MEMB     68       CHL1     H8       HGA1     0.900000E-01   1.00800           0
      1644 MEMB     68       CHL1     C14      CRL1    -0.900000E-01   12.0110           0
      1645 MEMB     68       CHL1     H14      HGA1     0.900000E-01   1.00800           0
      1646 MEMB     68       CHL1     C15      CRL2    -0.180000       12.0110           0
      1647 MEMB     68       CHL1     H15A     HGA2     0.900000E-01   1.00800           0
      1648 MEMB     68       CHL1     H15B     HGA2     0.900000E-01   1.00800           0
      1649 MEMB     68       CHL1     C16      CRL2    -0.180000       12.0110           0
      1650 MEMB     68       CHL1     H16A     HGA2     0.900000E-01   1.00800           0
      1651 MEMB     68       CHL1     H16B     HGA2     0.900000E-01   1.00800           0
      1652 MEMB     68       CHL1     C17      CRL1    -0.900000E-01   12.0110           0
      1653 MEMB     68       CHL1     H17      HGA1     0.900000E-01   1.00800           0
      1654 MEMB     68       CHL1     C13      CRL1     0.000000       12.0110           0
      1655 MEMB     68       CHL1     C18      CTL3    -0.270000       12.0110           0
      1656 MEMB     68       CHL1     H18A     HAL3     0.900000E-01   1.00800           0
      1657 MEMB     68       CHL1     H18B     HAL3     0.900000E-01   1.00800           0
      1658 MEMB     68       CHL1     H18C     HAL3     0.900000E-01   1.00800           0
      1659 MEMB     68       CHL1     C12      CRL2    -0.180000       12.0110           0
      1660 MEMB     68       CHL1     H12A     HGA2     0.900000E-01   1.00800           0
      1661 MEMB     68       CHL1     H12B     HGA2     0.900000E-01   1.00800           0
      1662 MEMB     68       CHL1     C11      CRL2    -0.180000       12.0110           0
      1663 MEMB     68       CHL1     H11A     HGA2     0.900000E-01   1.00800           0
      1664 MEMB     68       CHL1     H11B     HGA2     0.900000E-01   1.00800           0
      1665 MEMB     68       CHL1     C9       CRL1    -0.900000E-01   12.0110           0
      1666 MEMB     68       CHL1     H9       HGA1     0.900000E-01   1.00800           0
      1667 MEMB     68       CHL1     C10      CRL1     0.000000       12.0110           0
      1668 MEMB     68       CHL1     C19      CTL3    -0.270000       12.0110           0
      1669 MEMB     68       CHL1     H19A     HAL3     0.900000E-01   1.00800           0
      1670 MEMB     68       CHL1     H19B     HAL3     0.900000E-01   1.00800           0
      1671 MEMB     68       CHL1     H19C     HAL3     0.900000E-01   1.00800           0
      1672 MEMB     68       CHL1     C1       CRL2    -0.180000       12.0110           0
      1673 MEMB     68       CHL1     H1A      HGA2     0.900000E-01   1.00800           0
      1674 MEMB     68       CHL1     H1B      HGA2     0.900000E-01   1.00800           0
      1675 MEMB     68       CHL1     C2       CRL2    -0.180000       12.0110           0
      1676 MEMB     68       CHL1     H2A      HGA2     0.900000E-01   1.00800           0
      1677 MEMB     68       CHL1     H2B      HGA2     0.900000E-01   1.00800           0
      1678 MEMB     68       CHL1     C20      CTL1    -0.900000E-01   12.0110           0
      1679 MEMB     68       CHL1     H20      HAL1     0.900000E-01   1.00800           0
      1680 MEMB     68       CHL1     C21      CTL3    -0.270000       12.0110           0
      1681 MEMB     68       CHL1     H21A     HAL3     0.900000E-01   1.00800           0
      1682 MEMB     68       CHL1     H21B     HAL3     0.900000E-01   1.00800           0
      1683 MEMB     68       CHL1     H21C     HAL3     0.900000E-01   1.00800           0
      1684 MEMB     68       CHL1     C22      CTL2    -0.180000       12.0110           0
      1685 MEMB     68       CHL1     H22A     HAL2     0.900000E-01   1.00800           0
      1686 MEMB     68       CHL1     H22B     HAL2     0.900000E-01   1.00800           0
      1687 MEMB     68       CHL1     C23      CTL2    -0.180000       12.0110           0
      1688 MEMB     68       CHL1     H23A     HAL2     0.900000E-01   1.00800           0
      1689 MEMB     68       CHL1     H23B     HAL2     0.900000E-01   1.00800           0
      1690 MEMB     68       CHL1     C24      CTL2    -0.180000       12.0110           0
      1691 MEMB     68       CHL1     H24A     HAL2     0.900000E-01   1.00800           0
      1692 MEMB     68       CHL1     H24B     HAL2     0.900000E-01   1.00800           0
      1693 MEMB     68       CHL1     C25      CTL1    -0.900000E-01   12.0110           0
      1694 MEMB     68       CHL1     H25      HAL1     0.900000E-01   1.00800           0
      1695 MEMB     68       CHL1     C26      CTL3    -0.270000       12.0110           0
      1696 MEMB     68       CHL1     H26A     HAL3     0.900000E-01   1.00800           0
      1697 MEMB     68       CHL1     H26B     HAL3     0.900000E-01   1.00800           0
      1698 MEMB     68       CHL1     H26C     HAL3     0.900000E-01   1.00800           0
      1699 MEMB     68       CHL1     C27      CTL3    -0.270000       12.0110           0
      1700 MEMB     68       CHL1     H27A     HAL3     0.900000E-01   1.00800           0
      1701 MEMB     68       CHL1     H27B     HAL3     0.900000E-01   1.00800           0
      1702 MEMB     68       CHL1     H27C     HAL3     0.900000E-01   1.00800           0
      1703 MEMB     75       CHL1     C3       CRL1     0.140000       12.0110           0
      1704 MEMB     75       CHL1     H3       HGA1     0.900000E-01   1.00800           0
      1705 MEMB     75       CHL1     O3       OHL     -0.660000       15.9994           0
      1706 MEMB     75       CHL1     H3'      HOL      0.430000       1.00800           0
      1707 MEMB     75       CHL1     C4       CRL2    -0.180000       12.0110           0
      1708 MEMB     75       CHL1     H4A      HGA2     0.900000E-01   1.00800           0
      1709 MEMB     75       CHL1     H4B      HGA2     0.900000E-01   1.00800           0
      1710 MEMB     75       CHL1     C5       CEL1     0.000000       12.0110           0
      1711 MEMB     75       CHL1     C6       CEL1    -0.150000       12.0110           0
      1712 MEMB     75       CHL1     H6       HEL1     0.150000       1.00800           0
      1713 MEMB     75       CHL1     C7       CRL2    -0.180000       12.0110           0
      1714 MEMB     75       CHL1     H7A      HGA2     0.900000E-01   1.00800           0
      1715 MEMB     75       CHL1     H7B      HGA2     0.900000E-01   1.00800           0
      1716 MEMB     75       CHL1     C8       CRL1    -0.900000E-01   12.0110           0
      1717 MEMB     75       CHL1     H8       HGA1     0.900000E-01   1.00800           0
      1718 MEMB     75       CHL1     C14      CRL1    -0.900000E-01   12.0110           0
      1719 MEMB     75       CHL1     H14      HGA1     0.900000E-01   1.00800           0
      1720 MEMB     75       CHL1     C15      CRL2    -0.180000       12.0110           0
      1721 MEMB     75       CHL1     H15A     HGA2     0.900000E-01   1.00800           0
      1722 MEMB     75       CHL1     H15B     HGA2     0.900000E-01   1.00800           0
      1723 MEMB     75       CHL1     C16      CRL2    -0.180000       12.0110           0
      1724 MEMB     75       CHL1     H16A     HGA2     0.900000E-01   1.00800           0
      1725 MEMB     75       CHL1     H16B     HGA2     0.900000E-01   1.00800           0
      1726 MEMB     75       CHL1     C17      CRL1    -0.900000E-01   12.0110           0
      1727 MEMB     75       CHL1     H17      HGA1     0.900000E-01   1.00800           0
      1728 MEMB     75       CHL1     C13      CRL1     0.000000       12.0110           0
      1729 MEMB     75       CHL1     C18      CTL3    -0.270000       12.0110           0
      1730 MEMB     75       CHL1     H18A     HAL3     0.900000E-01   1.00800           0
      1731 MEMB     75       CHL1     H18B     HAL3     0.900000E-01   1.00800           0
      1732 MEMB     75       CHL1     H18C     HAL3     0.900000E-01   1.00800           0
      1733 MEMB     75       CHL1     C12      CRL2    -0.180000       12.0110           0
      1734 MEMB     75       CHL1     H12A     HGA2     0.900000E-01   1.00800           0
      1735 MEMB     75       CHL1     H12B     HGA2     0.900000E-01   1.00800           0
      1736 MEMB     75       CHL1     C11      CRL2    -0.180000       12.0110           0
      1737 MEMB     75       CHL1     H11A     HGA2     0.900000E-01   1.00800           0
      1738 MEMB     75       CHL1     H11B     HGA2     0.900000E-01   1.00800           0
      1739 MEMB     75       CHL1     C9       CRL1    -0.900000E-01   12.0110           0
      1740 MEMB     75       CHL1     H9       HGA1     0.900000E-01   1.00800           0
      1741 MEMB     75       CHL1     C10      CRL1     0.000000       12.0110           0
      1742 MEMB     75       CHL1     C19      CTL3    -0.270000       12.0110           0
      1743 MEMB     75       CHL1     H19A     HAL3     0.900000E-01   1.00800           0
      1744 MEMB     75       CHL1     H19B     HAL3     0.900000E-01   1.00800           0
      1745 MEMB     75       CHL1     H19C     HAL3     0.900000E-01   1.00800           0
      1746 MEMB     75       CHL1     C1       CRL2    -0.180000       12.0110           0
      1747 MEMB     75       CHL1     H1A      HGA2     0.900000E-01   1.00800           0
      1748 MEMB     75       CHL1     H1B      HGA2     0.900000E-01   1.00800           0
      1749 MEMB     75       CHL1     C2       CRL2    -0.180000       12.0110           0
      1750 MEMB     75       CHL1     H2A      HGA2     0.900000E-01   1.00800           0
      1751 MEMB     75       CHL1     H2B      HGA2     0.900000E-01   1.00800           0
      1752 MEMB     75       CHL1     C20      CTL1    -0.900000E-01   12.0110           0
      1753 MEMB     75       CHL1     H20      HAL1     0.900000E-01   1.00800           0
      1754 MEMB     75       CHL1     C21      CTL3    -0.270000       12.0110           0
      1755 MEMB     75       CHL1     H21A     HAL3     0.900000E-01   1.00800           0
      1756 MEMB     75       CHL1     H21B     HAL3     0.900000E-01   1.00800           0
      1757 MEMB     75       CHL1     H21C     HAL3     0.900000E-01   1.00800           0
      1758 MEMB     75       CHL1     C22      CTL2    -0.180000       12.0110           0
      1759 MEMB     75       CHL1     H22A     HAL2     0.900000E-01   1.00800           0
      1760 MEMB     75       CHL1     H22B     HAL2     0.900000E-01   1.00800           0
      1761 MEMB     75       CHL1     C23      CTL2    -0.180000       12.0110           0
      1762 MEMB     75       CHL1     H23A     HAL2     0.900000E-01   1.00800           0
      1763 MEMB     75       CHL1     H23B     HAL2     0.900000E-01   1.00800           0
      1764 MEMB     75       CHL1     C24      CTL2    -0.180000       12.0110           0
      1765 MEMB     75       CHL1     H24A     HAL2     0.900000E-01   1.00800           0
      1766 MEMB     75       CHL1     H24B     HAL2     0.900000E-01   1.00800           0
      1767 MEMB     75       CHL1     C25      CTL1    -0.900000E-01   12.0110           0
      1768 MEMB     75       CHL1     H25      HAL1     0.900000E-01   1.00800           0
      1769 MEMB     75       CHL1     C26      CTL3    -0.270000       12.0110           0
      1770 MEMB     75       CHL1     H26A     HAL3     0.900000E-01   1.00800           0
      1771 MEMB     75       CHL1     H26B     HAL3     0.900000E-01   1.00800           0
      1772 MEMB     75       CHL1     H26C     HAL3     0.900000E-01   1.00800           0
      1773 MEMB     75       CHL1     C27      CTL3    -0.270000       12.0110           0
      1774 MEMB     75       CHL1     H27A     HAL3     0.900000E-01   1.00800           0
      1775 MEMB     75       CHL1     H27B     HAL3     0.900000E-01   1.00800           0
      1776 MEMB     75       CHL1     H27C     HAL3     0.900000E-01   1.00800           0
      1777 MEMB     80       CHL1     C3       CRL1     0.140000       12.0110           0
      1778 MEMB     80       CHL1     H3       HGA1     0.900000E-01   1.00800           0
      1779 MEMB     80       CHL1     O3       OHL     -0.660000       15.9994           0
      1780 MEMB     80       CHL1     H3'      HOL      0.430000       1.00800           0
      1781 MEMB     80       CHL1     C4       CRL2    -0.180000       12.0110           0
      1782 MEMB     80       CHL1     H4A      HGA2     0.900000E-01   1.00800           0
      1783 MEMB     80       CHL1     H4B      HGA2     0.900000E-01   1.00800           0
      1784 MEMB     80       CHL1     C5       CEL1     0.000000       12.0110           0
      1785 MEMB     80       CHL1     C6       CEL1    -0.150000       12.0110           0
      1786 MEMB     80       CHL1     H6       HEL1     0.150000       1.00800           0
      1787 MEMB     80       CHL1     C7       CRL2    -0.180000       12.0110           0
      1788 MEMB     80       CHL1     H7A      HGA2     0.900000E-01   1.00800           0
      1789 MEMB     80       CHL1     H7B      HGA2     0.900000E-01   1.00800           0
      1790 MEMB     80       CHL1     C8       CRL1    -0.900000E-01   12.0110           0
      1791 MEMB     80       CHL1     H8       HGA1     0.900000E-01   1.00800           0
      1792 MEMB     80       CHL1     C14      CRL1    -0.900000E-01   12.0110           0
      1793 MEMB     80       CHL1     H14      HGA1     0.900000E-01   1.00800           0
      1794 MEMB     80       CHL1     C15      CRL2    -0.180000       12.0110           0
      1795 MEMB     80       CHL1     H15A     HGA2     0.900000E-01   1.00800           0
      1796 MEMB     80       CHL1     H15B     HGA2     0.900000E-01   1.00800           0
      1797 MEMB     80       CHL1     C16      CRL2    -0.180000       12.0110           0
      1798 MEMB     80       CHL1     H16A     HGA2     0.900000E-01   1.00800           0
      1799 MEMB     80       CHL1     H16B     HGA2     0.900000E-01   1.00800           0
      1800 MEMB     80       CHL1     C17      CRL1    -0.900000E-01   12.0110           0
      1801 MEMB     80       CHL1     H17      HGA1     0.900000E-01   1.00800           0
      1802 MEMB     80       CHL1     C13      CRL1     0.000000       12.0110           0
      1803 MEMB     80       CHL1     C18      CTL3    -0.270000       12.0110           0
      1804 MEMB     80       CHL1     H18A     HAL3     0.900000E-01   1.00800           0
      1805 MEMB     80       CHL1     H18B     HAL3     0.900000E-01   1.00800           0
      1806 MEMB     80       CHL1     H18C     HAL3     0.900000E-01   1.00800           0
      1807 MEMB     80       CHL1     C12      CRL2    -0.180000       12.0110           0
      1808 MEMB     80       CHL1     H12A     HGA2     0.900000E-01   1.00800           0
      1809 MEMB     80       CHL1     H12B     HGA2     0.900000E-01   1.00800           0
      1810 MEMB     80       CHL1     C11      CRL2    -0.180000       12.0110           0
      1811 MEMB     80       CHL1     H11A     HGA2     0.900000E-01   1.00800           0
      1812 MEMB     80       CHL1     H11B     HGA2     0.900000E-01   1.00800           0
      1813 MEMB     80       CHL1     C9       CRL1    -0.900000E-01   12.0110           0
      1814 MEMB     80       CHL1     H9       HGA1     0.900000E-01   1.00800           0
      1815 MEMB     80       CHL1     C10      CRL1     0.000000       12.0110           0
      1816 MEMB     80       CHL1     C19      CTL3    -0.270000       12.0110           0
      1817 MEMB     80       CHL1     H19A     HAL3     0.900000E-01   1.00800           0
      1818 MEMB     80       CHL1     H19B     HAL3     0.900000E-01   1.00800           0
      1819 MEMB     80       CHL1     H19C     HAL3     0.900000E-01   1.00800           0
      1820 MEMB     80       CHL1     C1       CRL2    -0.180000       12.0110           0
      1821 MEMB     80       CHL1     H1A      HGA2     0.900000E-01   1.00800           0
      1822 MEMB     80       CHL1     H1B      HGA2     0.900000E-01   1.00800           0
      1823 MEMB     80       CHL1     C2       CRL2    -0.180000       12.0110           0
      1824 MEMB     80       CHL1     H2A      HGA2     0.900000E-01   1.00800           0
      1825 MEMB     80       CHL1     H2B      HGA2     0.900000E-01   1.00800           0
      1826 MEMB     80       CHL1     C20      CTL1    -0.900000E-01   12.0110           0
      1827 MEMB     80       CHL1     H20      HAL1     0.900000E-01   1.00800           0
      1828 MEMB     80       CHL1     C21      CTL3    -0.270000       12.0110           0
      1829 MEMB     80       CHL1     H21A     HAL3     0.900000E-01   1.00800           0
      1830 MEMB     80       CHL1     H21B     HAL3     0.900000E-01   1.00800           0
      1831 MEMB     80       CHL1     H21C     HAL3     0.900000E-01   1.00800           0
      1832 MEMB     80       CHL1     C22      CTL2    -0.180000       12.0110           0
      1833 MEMB     80       CHL1     H22A     HAL2     0.900000E-01   1.00800           0
      1834 MEMB     80       CHL1     H22B     HAL2     0.900000E-01   1.00800           0
      1835 MEMB     80       CHL1     C23      CTL2    -0.180000       12.0110           0
      1836 MEMB     80       CHL1     H23A     HAL2     0.900000E-01   1.00800           0
      1837 MEMB     80       CHL1     H23B     HAL2     0.900000E-01   1.00800           0
      1838 MEMB     80       CHL1     C24      CTL2    -0.180000       12.0110           0
      1839 MEMB     80       CHL1     H24A     HAL2     0.900000E-01   1.00800           0
      1840 MEMB     80       CHL1     H24B     HAL2     0.900000E-01   1.00800           0
      1841 MEMB     80       CHL1     C25      CTL1    -0.900000E-01   12.0110           0
      1842 MEMB     80       CHL1     H25      HAL1     0.900000E-01   1.00800           0
      1843 MEMB     80       CHL1     C26      CTL3    -0.270000       12.0110           0
      1844 MEMB     80       CHL1     H26A     HAL3     0.900000E-01   1.00800           0
      1845 MEMB     80       CHL1     H26B     HAL3     0.900000E-01   1.00800           0
      1846 MEMB     80       CHL1     H26C     HAL3     0.900000E-01   1.00800           0
      1847 MEMB     80       CHL1     C27      CTL3    -0.270000       12.0110           0
      1848 MEMB     80       CHL1     H27A     HAL3     0.900000E-01   1.00800           0
      1849 MEMB     80       CHL1     H27B     HAL3     0.900000E-01   1.00800           0
      1850 MEMB     80       CHL1     H27C     HAL3     0.900000E-01   1.00800           0
      1851 MEMB     81       CHL1     C3       CRL1     0.140000       12.0110           0
      1852 MEMB     81       CHL1     H3       HGA1     0.900000E-01   1.00800           0
      1853 MEMB     81       CHL1     O3       OHL     -0.660000       15.9994           0
      1854 MEMB     81       CHL1     H3'      HOL      0.430000       1.00800           0
      1855 MEMB     81       CHL1     C4       CRL2    -0.180000       12.0110           0
      1856 MEMB     81       CHL1     H4A      HGA2     0.900000E-01   1.00800           0
      1857 MEMB     81       CHL1     H4B      HGA2     0.900000E-01   1.00800           0
      1858 MEMB     81       CHL1     C5       CEL1     0.000000       12.0110           0
      1859 MEMB     81       CHL1     C6       CEL1    -0.150000       12.0110           0
      1860 MEMB     81       CHL1     H6       HEL1     0.150000       1.00800           0
      1861 MEMB     81       CHL1     C7       CRL2    -0.180000       12.0110           0
      1862 MEMB     81       CHL1     H7A      HGA2     0.900000E-01   1.00800           0
      1863 MEMB     81       CHL1     H7B      HGA2     0.900000E-01   1.00800           0
      1864 MEMB     81       CHL1     C8       CRL1    -0.900000E-01   12.0110           0
      1865 MEMB     81       CHL1     H8       HGA1     0.900000E-01   1.00800           0
      1866 MEMB     81       CHL1     C14      CRL1    -0.900000E-01   12.0110           0
      1867 MEMB     81       CHL1     H14      HGA1     0.900000E-01   1.00800           0
      1868 MEMB     81       CHL1     C15      CRL2    -0.180000       12.0110           0
      1869 MEMB     81       CHL1     H15A     HGA2     0.900000E-01   1.00800           0
      1870 MEMB     81       CHL1     H15B     HGA2     0.900000E-01   1.00800           0
      1871 MEMB     81       CHL1     C16      CRL2    -0.180000       12.0110           0
      1872 MEMB     81       CHL1     H16A     HGA2     0.900000E-01   1.00800           0
      1873 MEMB     81       CHL1     H16B     HGA2     0.900000E-01   1.00800           0
      1874 MEMB     81       CHL1     C17      CRL1    -0.900000E-01   12.0110           0
      1875 MEMB     81       CHL1     H17      HGA1     0.900000E-01   1.00800           0
      1876 MEMB     81       CHL1     C13      CRL1     0.000000       12.0110           0
      1877 MEMB     81       CHL1     C18      CTL3    -0.270000       12.0110           0
      1878 MEMB     81       CHL1     H18A     HAL3     0.900000E-01   1.00800           0
      1879 MEMB     81       CHL1     H18B     HAL3     0.900000E-01   1.00800           0
      1880 MEMB     81       CHL1     H18C     HAL3     0.900000E-01   1.00800           0
      1881 MEMB     81       CHL1     C12      CRL2    -0.180000       12.0110           0
      1882 MEMB     81       CHL1     H12A     HGA2     0.900000E-01   1.00800           0
      1883 MEMB     81       CHL1     H12B     HGA2     0.900000E-01   1.00800           0
      1884 MEMB     81       CHL1     C11      CRL2    -0.180000       12.0110           0
      1885 MEMB     81       CHL1     H11A     HGA2     0.900000E-01   1.00800           0
      1886 MEMB     81       CHL1     H11B     HGA2     0.900000E-01   1.00800           0
      1887 MEMB     81       CHL1     C9       CRL1    -0.900000E-01   12.0110           0
      1888 MEMB     81       CHL1     H9       HGA1     0.900000E-01   1.00800           0
      1889 MEMB     81       CHL1     C10      CRL1     0.000000       12.0110           0
      1890 MEMB     81       CHL1     C19      CTL3    -0.270000       12.0110           0
      1891 MEMB     81       CHL1     H19A     HAL3     0.900000E-01   1.00800           0
      1892 MEMB     81       CHL1     H19B     HAL3     0.900000E-01   1.00800           0
      1893 MEMB     81       CHL1     H19C     HAL3     0.900000E-01   1.00800           0
      1894 MEMB     81       CHL1     C1       CRL2    -0.180000       12.0110           0
      1895 MEMB     81       CHL1     H1A      HGA2     0.900000E-01   1.00800           0
      1896 MEMB     81       CHL1     H1B      HGA2     0.900000E-01   1.00800           0
      1897 MEMB     81       CHL1     C2       CRL2    -0.180000       12.0110           0
      1898 MEMB     81       CHL1     H2A      HGA2     0.900000E-01   1.00800           0
      1899 MEMB     81       CHL1     H2B      HGA2     0.900000E-01   1.00800           0
      1900 MEMB     81       CHL1     C20      CTL1    -0.900000E-01   12.0110           0
      1901 MEMB     81       CHL1     H20      HAL1     0.900000E-01   1.00800           0
      1902 MEMB     81       CHL1     C21      CTL3    -0.270000       12.0110           0
      1903 MEMB     81       CHL1     H21A     HAL3     0.900000E-01   1.00800           0
      1904 MEMB     81       CHL1     H21B     HAL3     0.900000E-01   1.00800           0
      1905 MEMB     81       CHL1     H21C     HAL3     0.900000E-01   1.00800           0
      1906 MEMB     81       CHL1     C22      CTL2    -0.180000       12.0110           0
      1907 MEMB     81       CHL1     H22A     HAL2     0.900000E-01   1.00800           0
      1908 MEMB     81       CHL1     H22B     HAL2     0.900000E-01   1.00800           0
      1909 MEMB     81       CHL1     C23      CTL2    -0.180000       12.0110           0
      1910 MEMB     81       CHL1     H23A     HAL2     0.900000E-01   1.00800           0
      1911 MEMB     81       CHL1     H23B     HAL2     0.900000E-01   1.00800           0
      1912 MEMB     81       CHL1     C24      CTL2    -0.180000       12.0110           0
      1913 MEMB     81       CHL1     H24A     HAL2     0.900000E-01   1.00800           0
      1914 MEMB     81       CHL1     H24B     HAL2     0.900000E-01   1.00800           0
      1915 MEMB     81       CHL1     C25      CTL1    -0.900000E-01   12.0110           0
      1916 MEMB     81       CHL1     H25      HAL1     0.900000E-01   1.00800           0
      1917 MEMB     81       CHL1     C26      CTL3    -0.270000       12.0110           0
      1918 MEMB     81       CHL1     H26A     HAL3     0.900000E-01   1.00800           0
      1919 MEMB     81       CHL1     H26B     HAL3     0.900000E-01   1.00800           0
      1920 MEMB     81       CHL1     H26C     HAL3     0.900000E-01   1.00800           0
      1921 MEMB     81       CHL1     C27      CTL3    -0.270000       12.0110           0
      1922 MEMB     81       CHL1     H27A     HAL3     0.900000E-01   1.00800           0
      1923 MEMB     81       CHL1     H27B     HAL3     0.900000E-01   1.00800           0
      1924 MEMB     81       CHL1     H27C     HAL3     0.900000E-01   1.00800           0
      1925 MEMB     86       CHL1     C3       CRL1     0.140000       12.0110           0
      1926 MEMB     86       CHL1     H3       HGA1     0.900000E-01   1.00800           0
      1927 MEMB     86       CHL1     O3       OHL     -0.660000       15.9994           0
      1928 MEMB     86       CHL1     H3'      HOL      0.430000       1.00800           0
      1929 MEMB     86       CHL1     C4       CRL2    -0.180000       12.0110           0
      1930 MEMB     86       CHL1     H4A      HGA2     0.900000E-01   1.00800           0
      1931 MEMB     86       CHL1     H4B      HGA2     0.900000E-01   1.00800           0
      1932 MEMB     86       CHL1     C5       CEL1     0.000000       12.0110           0
      1933 MEMB     86       CHL1     C6       CEL1    -0.150000       12.0110           0
      1934 MEMB     86       CHL1     H6       HEL1     0.150000       1.00800           0
      1935 MEMB     86       CHL1     C7       CRL2    -0.180000       12.0110           0
      1936 MEMB     86       CHL1     H7A      HGA2     0.900000E-01   1.00800           0
      1937 MEMB     86       CHL1     H7B      HGA2     0.900000E-01   1.00800           0
      1938 MEMB     86       CHL1     C8       CRL1    -0.900000E-01   12.0110           0
      1939 MEMB     86       CHL1     H8       HGA1     0.900000E-01   1.00800           0
      1940 MEMB     86       CHL1     C14      CRL1    -0.900000E-01   12.0110           0
      1941 MEMB     86       CHL1     H14      HGA1     0.900000E-01   1.00800           0
      1942 MEMB     86       CHL1     C15      CRL2    -0.180000       12.0110           0
      1943 MEMB     86       CHL1     H15A     HGA2     0.900000E-01   1.00800           0
      1944 MEMB     86       CHL1     H15B     HGA2     0.900000E-01   1.00800           0
      1945 MEMB     86       CHL1     C16      CRL2    -0.180000       12.0110           0
      1946 MEMB     86       CHL1     H16A     HGA2     0.900000E-01   1.00800           0
      1947 MEMB     86       CHL1     H16B     HGA2     0.900000E-01   1.00800           0
      1948 MEMB     86       CHL1     C17      CRL1    -0.900000E-01   12.0110           0
      1949 MEMB     86       CHL1     H17      HGA1     0.900000E-01   1.00800           0
      1950 MEMB     86       CHL1     C13      CRL1     0.000000       12.0110           0
      1951 MEMB     86       CHL1     C18      CTL3    -0.270000       12.0110           0
      1952 MEMB     86       CHL1     H18A     HAL3     0.900000E-01   1.00800           0
      1953 MEMB     86       CHL1     H18B     HAL3     0.900000E-01   1.00800           0
      1954 MEMB     86       CHL1     H18C     HAL3     0.900000E-01   1.00800           0
      1955 MEMB     86       CHL1     C12      CRL2    -0.180000       12.0110           0
      1956 MEMB     86       CHL1     H12A     HGA2     0.900000E-01   1.00800           0
      1957 MEMB     86       CHL1     H12B     HGA2     0.900000E-01   1.00800           0
      1958 MEMB     86       CHL1     C11      CRL2    -0.180000       12.0110           0
      1959 MEMB     86       CHL1     H11A     HGA2     0.900000E-01   1.00800           0
      1960 MEMB     86       CHL1     H11B     HGA2     0.900000E-01   1.00800           0
      1961 MEMB     86       CHL1     C9       CRL1    -0.900000E-01   12.0110           0
      1962 MEMB     86       CHL1     H9       HGA1     0.900000E-01   1.00800           0
      1963 MEMB     86       CHL1     C10      CRL1     0.000000       12.0110           0
      1964 MEMB     86       CHL1     C19      CTL3    -0.270000       12.0110           0
      1965 MEMB     86       CHL1     H19A     HAL3     0.900000E-01   1.00800           0
      1966 MEMB     86       CHL1     H19B     HAL3     0.900000E-01   1.00800           0
      1967 MEMB     86       CHL1     H19C     HAL3     0.900000E-01   1.00800           0
      1968 MEMB     86       CHL1     C1       CRL2    -0.180000       12.0110           0
      1969 MEMB     86       CHL1     H1A      HGA2     0.900000E-01   1.00800           0
      1970 MEMB     86       CHL1     H1B      HGA2     0.900000E-01   1.00800           0
      1971 MEMB     86       CHL1     C2       CRL2    -0.180000       12.0110           0
      1972 MEMB     86       CHL1     H2A      HGA2     0.900000E-01   1.00800           0
      1973 MEMB     86       CHL1     H2B      HGA2     0.900000E-01   1.00800           0
      1974 MEMB     86       CHL1     C20      CTL1    -0.900000E-01   12.0110           0
      1975 MEMB     86       CHL1     H20      HAL1     0.900000E-01   1.00800           0
      1976 MEMB     86       CHL1     C21      CTL3    -0.270000       12.0110           0
      1977 MEMB     86       CHL1     H21A     HAL3     0.900000E-01   1.00800           0
      1978 MEMB     86       CHL1     H21B     HAL3     0.900000E-01   1.00800           0
      1979 MEMB     86       CHL1     H21C     HAL3     0.900000E-01   1.00800           0
      1980 MEMB     86       CHL1     C22      CTL2    -0.180000       12.0110           0
      1981 MEMB     86       CHL1     H22A     HAL2     0.900000E-01   1.00800           0
      1982 MEMB     86       CHL1     H22B     HAL2     0.900000E-01   1.00800           0
      1983 MEMB     86       CHL1     C23      CTL2    -0.180000       12.0110           0
      1984 MEMB     86       CHL1     H23A     HAL2     0.900000E-01   1.00800           0
      1985 MEMB     86       CHL1     H23B     HAL2     0.900000E-01   1.00800           0
      1986 MEMB     86       CHL1     C24      CTL2    -0.180000       12.0110           0
      1987 MEMB     86       CHL1     H24A     HAL2     0.900000E-01   1.00800           0
      1988 MEMB     86       CHL1     H24B     HAL2     0.900000E-01   1.00800           0
      1989 MEMB     86       CHL1     C25      CTL1    -0.900000E-01   12.0110           0
      1990 MEMB     86       CHL1     H25      HAL1     0.900000E-01   1.00800           0
      1991 MEMB     86       CHL1     C26      CTL3    -0.270000       12.0110           0
      1992 MEMB     86       CHL1     H26A     HAL3     0.900000E-01   1.00800           0
      1993 MEMB     86       CHL1     H26B     HAL3     0.900000E-01   1.00800           0
      1994 MEMB     86       CHL1     H26C     HAL3     0.900000E-01   1.00800           0
      1995 MEMB     86       CHL1     C27      CTL3    -0.270000       12.0110           0
      1996 MEMB     86       CHL1     H27A     HAL3     0.900000E-01   1.00800           0
      1997 MEMB     86       CHL1     H27B     HAL3     0.900000E-01   1.00800           0
      1998 MEMB     86       CHL1     H27C     HAL3     0.900000E-01   1.00800           0
      1999 MEMB     92       CHL1     C3       CRL1     0.140000       12.0110           0
      2000 MEMB     92       CHL1     H3       HGA1     0.900000E-01   1.00800           0
      2001 MEMB     92       CHL1     O3       OHL     -0.660000       15.9994           0
      2002 MEMB     92       CHL1     H3'      HOL      0.430000       1.00800           0
      2003 MEMB     92       CHL1     C4       CRL2    -0.180000       12.0110           0
      2004 MEMB     92       CHL1     H4A      HGA2     0.900000E-01   1.00800           0
      2005 MEMB     92       CHL1     H4B      HGA2     0.900000E-01   1.00800           0
      2006 MEMB     92       CHL1     C5       CEL1     0.000000       12.0110           0
      2007 MEMB     92       CHL1     C6       CEL1    -0.150000       12.0110           0
      2008 MEMB     92       CHL1     H6       HEL1     0.150000       1.00800           0
      2009 MEMB     92       CHL1     C7       CRL2    -0.180000       12.0110           0
      2010 MEMB     92       CHL1     H7A      HGA2     0.900000E-01   1.00800           0
      2011 MEMB     92       CHL1     H7B      HGA2     0.900000E-01   1.00800           0
      2012 MEMB     92       CHL1     C8       CRL1    -0.900000E-01   12.0110           0
      2013 MEMB     92       CHL1     H8       HGA1     0.900000E-01   1.00800           0
      2014 MEMB     92       CHL1     C14      CRL1    -0.900000E-01   12.0110           0
      2015 MEMB     92       CHL1     H14      HGA1     0.900000E-01   1.00800           0
      2016 MEMB     92       CHL1     C15      CRL2    -0.180000       12.0110           0
      2017 MEMB     92       CHL1     H15A     HGA2     0.900000E-01   1.00800           0
      2018 MEMB     92       CHL1     H15B     HGA2     0.900000E-01   1.00800           0
      2019 MEMB     92       CHL1     C16      CRL2    -0.180000       12.0110           0
      2020 MEMB     92       CHL1     H16A     HGA2     0.900000E-01   1.00800           0
      2021 MEMB     92       CHL1     H16B     HGA2     0.900000E-01   1.00800           0
      2022 MEMB     92       CHL1     C17      CRL1    -0.900000E-01   12.0110           0
      2023 MEMB     92       CHL1     H17      HGA1     0.900000E-01   1.00800           0
      2024 MEMB     92       CHL1     C13      CRL1     0.000000       12.0110           0
      2025 MEMB     92       CHL1     C18      CTL3    -0.270000       12.0110           0
      2026 MEMB     92       CHL1     H18A     HAL3     0.900000E-01   1.00800           0
      2027 MEMB     92       CHL1     H18B     HAL3     0.900000E-01   1.00800           0
      2028 MEMB     92       CHL1     H18C     HAL3     0.900000E-01   1.00800           0
      2029 MEMB     92       CHL1     C12      CRL2    -0.180000       12.0110           0
      2030 MEMB     92       CHL1     H12A     HGA2     0.900000E-01   1.00800           0
      2031 MEMB     92       CHL1     H12B     HGA2     0.900000E-01   1.00800           0
      2032 MEMB     92       CHL1     C11      CRL2    -0.180000       12.0110           0
      2033 MEMB     92       CHL1     H11A     HGA2     0.900000E-01   1.00800           0
      2034 MEMB     92       CHL1     H11B     HGA2     0.900000E-01   1.00800           0
      2035 MEMB     92       CHL1     C9       CRL1    -0.900000E-01   12.0110           0
      2036 MEMB     92       CHL1     H9       HGA1     0.900000E-01   1.00800           0
      2037 MEMB     92       CHL1     C10      CRL1     0.000000       12.0110           0
      2038 MEMB     92       CHL1     C19      CTL3    -0.270000       12.0110           0
      2039 MEMB     92       CHL1     H19A     HAL3     0.900000E-01   1.00800           0
      2040 MEMB     92       CHL1     H19B     HAL3     0.900000E-01   1.00800           0
      2041 MEMB     92       CHL1     H19C     HAL3     0.900000E-01   1.00800           0
      2042 MEMB     92       CHL1     C1       CRL2    -0.180000       12.0110           0
      2043 MEMB     92       CHL1     H1A      HGA2     0.900000E-01   1.00800           0
      2044 MEMB     92       CHL1     H1B      HGA2     0.900000E-01   1.00800           0
      2045 MEMB     92       CHL1     C2       CRL2    -0.180000       12.0110           0
      2046 MEMB     92       CHL1     H2A      HGA2     0.900000E-01   1.00800           0
      2047 MEMB     92       CHL1     H2B      HGA2     0.900000E-01   1.00800           0
      2048 MEMB     92       CHL1     C20      CTL1    -0.900000E-01   12.0110           0
      2049 MEMB     92       CHL1     H20      HAL1     0.900000E-01   1.00800           0
      2050 MEMB     92       CHL1     C21      CTL3    -0.270000       12.0110           0
      2051 MEMB     92       CHL1     H21A     HAL3     0.900000E-01   1.00800           0
      2052 MEMB     92       CHL1     H21B     HAL3     0.900000E-01   1.00800           0
      2053 MEMB     92       CHL1     H21C     HAL3     0.900000E-01   1.00800           0
      2054 MEMB     92       CHL1     C22      CTL2    -0.180000       12.0110           0
      2055 MEMB     92       CHL1     H22A     HAL2     0.900000E-01   1.00800           0
      2056 MEMB     92       CHL1     H22B     HAL2     0.900000E-01   1.00800           0
      2057 MEMB     92       CHL1     C23      CTL2    -0.180000       12.0110           0
      2058 MEMB     92       CHL1     H23A     HAL2     0.900000E-01   1.00800           0
      2059 MEMB     92       CHL1     H23B     HAL2     0.900000E-01   1.00800           0
      2060 MEMB     92       CHL1     C24      CTL2    -0.180000       12.0110           0
      2061 MEMB     92       CHL1     H24A     HAL2     0.900000E-01   1.00800           0
      2062 MEMB     92       CHL1     H24B     HAL2     0.900000E-01   1.00800           0
      2063 MEMB     92       CHL1     C25      CTL1    -0.900000E-01   12.0110           0
      2064 MEMB     92       CHL1     H25      HAL1     0.900000E-01   1.00800           0
      2065 MEMB     92       CHL1     C26      CTL3    -0.270000       12.0110           0
      2066 MEMB     92       CHL1     H26A     HAL3     0.900000E-01   1.00800           0
      2067 MEMB     92       CHL1     H26B     HAL3     0.900000E-01   1.00800           0
      2068 MEMB     92       CHL1     H26C     HAL3     0.900000E-01   1.00800           0
      2069 MEMB     92       CHL1     C27      CTL3    -0.270000       12.0110           0
      2070 MEMB     92       CHL1     H27A     HAL3     0.900000E-01   1.00800           0
      2071 MEMB     92       CHL1     H27B     HAL3     0.900000E-01   1.00800           0
      2072 MEMB     92       CHL1     H27C     HAL3     0.900000E-01   1.00800           0
      2073 MEMB     106      CHL1     C3       CRL1     0.140000       12.0110           0
      2074 MEMB     106      CHL1     H3       HGA1     0.900000E-01   1.00800           0
      2075 MEMB     106      CHL1     O3       OHL     -0.660000       15.9994           0
      2076 MEMB     106      CHL1     H3'      HOL      0.430000       1.00800           0
      2077 MEMB     106      CHL1     C4       CRL2    -0.180000       12.0110           0
      2078 MEMB     106      CHL1     H4A      HGA2     0.900000E-01   1.00800           0
      2079 MEMB     106      CHL1     H4B      HGA2     0.900000E-01   1.00800           0
      2080 MEMB     106      CHL1     C5       CEL1     0.000000       12.0110           0
      2081 MEMB     106      CHL1     C6       CEL1    -0.150000       12.0110           0
      2082 MEMB     106      CHL1     H6       HEL1     0.150000       1.00800           0
      2083 MEMB     106      CHL1     C7       CRL2    -0.180000       12.0110           0
      2084 MEMB     106      CHL1     H7A      HGA2     0.900000E-01   1.00800           0
      2085 MEMB     106      CHL1     H7B      HGA2     0.900000E-01   1.00800           0
      2086 MEMB     106      CHL1     C8       CRL1    -0.900000E-01   12.0110           0
      2087 MEMB     106      CHL1     H8       HGA1     0.900000E-01   1.00800           0
      2088 MEMB     106      CHL1     C14      CRL1    -0.900000E-01   12.0110           0
      2089 MEMB     106      CHL1     H14      HGA1     0.900000E-01   1.00800           0
      2090 MEMB     106      CHL1     C15      CRL2    -0.180000       12.0110           0
      2091 MEMB     106      CHL1     H15A     HGA2     0.900000E-01   1.00800           0
      2092 MEMB     106      CHL1     H15B     HGA2     0.900000E-01   1.00800           0
      2093 MEMB     106      CHL1     C16      CRL2    -0.180000       12.0110           0
      2094 MEMB     106      CHL1     H16A     HGA2     0.900000E-01   1.00800           0
      2095 MEMB     106      CHL1     H16B     HGA2     0.900000E-01   1.00800           0
      2096 MEMB     106      CHL1     C17      CRL1    -0.900000E-01   12.0110           0
      2097 MEMB     106      CHL1     H17      HGA1     0.900000E-01   1.00800           0
      2098 MEMB     106      CHL1     C13      CRL1     0.000000       12.0110           0
      2099 MEMB     106      CHL1     C18      CTL3    -0.270000       12.0110           0
      2100 MEMB     106      CHL1     H18A     HAL3     0.900000E-01   1.00800           0
      2101 MEMB     106      CHL1     H18B     HAL3     0.900000E-01   1.00800           0
      2102 MEMB     106      CHL1     H18C     HAL3     0.900000E-01   1.00800           0
      2103 MEMB     106      CHL1     C12      CRL2    -0.180000       12.0110           0
      2104 MEMB     106      CHL1     H12A     HGA2     0.900000E-01   1.00800           0
      2105 MEMB     106      CHL1     H12B     HGA2     0.900000E-01   1.00800           0
      2106 MEMB     106      CHL1     C11      CRL2    -0.180000       12.0110           0
      2107 MEMB     106      CHL1     H11A     HGA2     0.900000E-01   1.00800           0
      2108 MEMB     106      CHL1     H11B     HGA2     0.900000E-01   1.00800           0
      2109 MEMB     106      CHL1     C9       CRL1    -0.900000E-01   12.0110           0
      2110 MEMB     106      CHL1     H9       HGA1     0.900000E-01   1.00800           0
      2111 MEMB     106      CHL1     C10      CRL1     0.000000       12.0110           0
      2112 MEMB     106      CHL1     C19      CTL3    -0.270000       12.0110           0
      2113 MEMB     106      CHL1     H19A     HAL3     0.900000E-01   1.00800           0
      2114 MEMB     106      CHL1     H19B     HAL3     0.900000E-01   1.00800           0
      2115 MEMB     106      CHL1     H19C     HAL3     0.900000E-01   1.00800           0
      2116 MEMB     106      CHL1     C1       CRL2    -0.180000       12.0110           0
      2117 MEMB     106      CHL1     H1A      HGA2     0.900000E-01   1.00800           0
      2118 MEMB     106      CHL1     H1B      HGA2     0.900000E-01   1.00800           0
      2119 MEMB     106      CHL1     C2       CRL2    -0.180000       12.0110           0
      2120 MEMB     106      CHL1     H2A      HGA2     0.900000E-01   1.00800           0
      2121 MEMB     106      CHL1     H2B      HGA2     0.900000E-01   1.00800           0
      2122 MEMB     106      CHL1     C20      CTL1    -0.900000E-01   12.0110           0
      2123 MEMB     106      CHL1     H20      HAL1     0.900000E-01   1.00800           0
      2124 MEMB     106      CHL1     C21      CTL3    -0.270000       12.0110           0
      2125 MEMB     106      CHL1     H21A     HAL3     0.900000E-01   1.00800           0
      2126 MEMB     106      CHL1     H21B     HAL3     0.900000E-01   1.00800           0
      2127 MEMB     106      CHL1     H21C     HAL3     0.900000E-01   1.00800           0
      2128 MEMB     106      CHL1     C22      CTL2    -0.180000       12.0110           0
      2129 MEMB     106      CHL1     H22A     HAL2     0.900000E-01   1.00800           0
      2130 MEMB     106      CHL1     H22B     HAL2     0.900000E-01   1.00800           0
      2131 MEMB     106      CHL1     C23      CTL2    -0.180000       12.0110           0
      2132 MEMB     106      CHL1     H23A     HAL2     0.900000E-01   1.00800           0
      2133 MEMB     106      CHL1     H23B     HAL2     0.900000E-01   1.00800           0
      2134 MEMB     106      CHL1     C24      CTL2    -0.180000       12.0110           0
      2135 MEMB     106      CHL1     H24A     HAL2     0.900000E-01   1.00800           0
      2136 MEMB     106      CHL1     H24B     HAL2     0.900000E-01   1.00800           0
      2137 MEMB     106      CHL1     C25      CTL1    -0.900000E-01   12.0110           0
      2138 MEMB     106      CHL1     H25      HAL1     0.900000E-01   1.00800           0
      2139 MEMB     106      CHL1     C26      CTL3    -0.270000       12.0110           0
      2140 MEMB     106      CHL1     H26A     HAL3     0.900000E-01   1.00800           0
      2141 MEMB     106      CHL1     H26B     HAL3     0.900000E-01   1.00800           0
      2142 MEMB     106      CHL1     H26C     HAL3     0.900000E-01   1.00800           0
      2143 MEMB     106      CHL1     C27      CTL3    -0.270000       12.0110           0
      2144 MEMB     106      CHL1     H27A     HAL3     0.900000E-01   1.00800           0
      2145 MEMB     106      CHL1     H27B     HAL3     0.900000E-01   1.00800           0
      2146 MEMB     106      CHL1     H27C     HAL3     0.900000E-01   1.00800           0
      2147 MEMB     107      CHL1     C3       CRL1     0.140000       12.0110           0
      2148 MEMB     107      CHL1     H3       HGA1     0.900000E-01   1.00800           0
      2149 MEMB     107      CHL1     O3       OHL     -0.660000       15.9994           0
      2150 MEMB     107      CHL1     H3'      HOL      0.430000       1.00800           0
      2151 MEMB     107      CHL1     C4       CRL2    -0.180000       12.0110           0
      2152 MEMB     107      CHL1     H4A      HGA2     0.900000E-01   1.00800           0
      2153 MEMB     107      CHL1     H4B      HGA2     0.900000E-01   1.00800           0
      2154 MEMB     107      CHL1     C5       CEL1     0.000000       12.0110           0
      2155 MEMB     107      CHL1     C6       CEL1    -0.150000       12.0110           0
      2156 MEMB     107      CHL1     H6       HEL1     0.150000       1.00800           0
      2157 MEMB     107      CHL1     C7       CRL2    -0.180000       12.0110           0
      2158 MEMB     107      CHL1     H7A      HGA2     0.900000E-01   1.00800           0
      2159 MEMB     107      CHL1     H7B      HGA2     0.900000E-01   1.00800           0
      2160 MEMB     107      CHL1     C8       CRL1    -0.900000E-01   12.0110           0
      2161 MEMB     107      CHL1     H8       HGA1     0.900000E-01   1.00800           0
      2162 MEMB     107      CHL1     C14      CRL1    -0.900000E-01   12.0110           0
      2163 MEMB     107      CHL1     H14      HGA1     0.900000E-01   1.00800           0
      2164 MEMB     107      CHL1     C15      CRL2    -0.180000       12.0110           0
      2165 MEMB     107      CHL1     H15A     HGA2     0.900000E-01   1.00800           0
      2166 MEMB     107      CHL1     H15B     HGA2     0.900000E-01   1.00800           0
      2167 MEMB     107      CHL1     C16      CRL2    -0.180000       12.0110           0
      2168 MEMB     107      CHL1     H16A     HGA2     0.900000E-01   1.00800           0
      2169 MEMB     107      CHL1     H16B     HGA2     0.900000E-01   1.00800           0
      2170 MEMB     107      CHL1     C17      CRL1    -0.900000E-01   12.0110           0
      2171 MEMB     107      CHL1     H17      HGA1     0.900000E-01   1.00800           0
      2172 MEMB     107      CHL1     C13      CRL1     0.000000       12.0110           0
      2173 MEMB     107      CHL1     C18      CTL3    -0.270000       12.0110           0
      2174 MEMB     107      CHL1     H18A     HAL3     0.900000E-01   1.00800           0
      2175 MEMB     107      CHL1     H18B     HAL3     0.900000E-01   1.00800           0
      2176 MEMB     107      CHL1     H18C     HAL3     0.900000E-01   1.00800           0
      2177 MEMB     107      CHL1     C12      CRL2    -0.180000       12.0110           0
      2178 MEMB     107      CHL1     H12A     HGA2     0.900000E-01   1.00800           0
      2179 MEMB     107      CHL1     H12B     HGA2     0.900000E-01   1.00800           0
      2180 MEMB     107      CHL1     C11      CRL2    -0.180000       12.0110           0
      2181 MEMB     107      CHL1     H11A     HGA2     0.900000E-01   1.00800           0
      2182 MEMB     107      CHL1     H11B     HGA2     0.900000E-01   1.00800           0
      2183 MEMB     107      CHL1     C9       CRL1    -0.900000E-01   12.0110           0
      2184 MEMB     107      CHL1     H9       HGA1     0.900000E-01   1.00800           0
      2185 MEMB     107      CHL1     C10      CRL1     0.000000       12.0110           0
      2186 MEMB     107      CHL1     C19      CTL3    -0.270000       12.0110           0
      2187 MEMB     107      CHL1     H19A     HAL3     0.900000E-01   1.00800           0
      2188 MEMB     107      CHL1     H19B     HAL3     0.900000E-01   1.00800           0
      2189 MEMB     107      CHL1     H19C     HAL3     0.900000E-01   1.00800           0
      2190 MEMB     107      CHL1     C1       CRL2    -0.180000       12.0110           0
      2191 MEMB     107      CHL1     H1A      HGA2     0.900000E-01   1.00800           0
      2192 MEMB     107      CHL1     H1B      HGA2     0.900000E-01   1.00800           0
      2193 MEMB     107      CHL1     C2       CRL2    -0.180000       12.0110           0
      2194 MEMB     107      CHL1     H2A      HGA2     0.900000E-01   1.00800           0
      2195 MEMB     107      CHL1     H2B      HGA2     0.900000E-01   1.00800           0
      2196 MEMB     107      CHL1     C20      CTL1    -0.900000E-01   12.0110           0
      2197 MEMB     107      CHL1     H20      HAL1     0.900000E-01   1.00800           0
      2198 MEMB     107      CHL1     C21      CTL3    -0.270000       12.0110           0
      2199 MEMB     107      CHL1     H21A     HAL3     0.900000E-01   1.00800           0
      2200 MEMB     107      CHL1     H21B     HAL3     0.900000E-01   1.00800           0
      2201 MEMB     107      CHL1     H21C     HAL3     0.900000E-01   1.00800           0
      2202 MEMB     107      CHL1     C22      CTL2    -0.180000       12.0110           0
      2203 MEMB     107      CHL1     H22A     HAL2     0.900000E-01   1.00800           0
      2204 MEMB     107      CHL1     H22B     HAL2     0.900000E-01   1.00800           0
      2205 MEMB     107      CHL1     C23      CTL2    -0.180000       12.0110           0
      2206 MEMB     107      CHL1     H23A     HAL2     0.900000E-01   1.00800           0
      2207 MEMB     107      CHL1     H23B     HAL2     0.900000E-01   1.00800           0
      2208 MEMB     107      CHL1     C24      CTL2    -0.180000       12.0110           0
      2209 MEMB     107      CHL1     H24A     HAL2     0.900000E-01   1.00800           0
      2210 MEMB     107      CHL1     H24B     HAL2     0.900000E-01   1.00800           0
      2211 MEMB     107      CHL1     C25      CTL1    -0.900000E-01   12.0110           0
      2212 MEMB     107      CHL1     H25      HAL1     0.900000E-01   1.00800           0
      2213 MEMB     107      CHL1     C26      CTL3    -0.270000       12.0110           0
      2214 MEMB     107      CHL1     H26A     HAL3     0.900000E-01   1.00800           0
      2215 MEMB     107      CHL1     H26B     HAL3     0.900000E-01   1.00800           0
      2216 MEMB     107      CHL1     H26C     HAL3     0.900000E-01   1.00800           0
      2217 MEMB     107      CHL1     C27      CTL3    -0.270000       12.0110           0
      2218 MEMB     107      CHL1     H27A     HAL3     0.900000E-01   1.00800           0
      2219 MEMB     107      CHL1     H27B     HAL3     0.900000E-01   1.00800           0
      2220 MEMB     107      CHL1     H27C     HAL3     0.900000E-01   1.00800           0
      2221 MEMB     110      CHL1     C3       CRL1     0.140000       12.0110           0
      2222 MEMB     110      CHL1     H3       HGA1     0.900000E-01   1.00800           0
      2223 MEMB     110      CHL1     O3       OHL     -0.660000       15.9994           0
      2224 MEMB     110      CHL1     H3'      HOL      0.430000       1.00800           0
      2225 MEMB     110      CHL1     C4       CRL2    -0.180000       12.0110           0
      2226 MEMB     110      CHL1     H4A      HGA2     0.900000E-01   1.00800           0
      2227 MEMB     110      CHL1     H4B      HGA2     0.900000E-01   1.00800           0
      2228 MEMB     110      CHL1     C5       CEL1     0.000000       12.0110           0
      2229 MEMB     110      CHL1     C6       CEL1    -0.150000       12.0110           0
      2230 MEMB     110      CHL1     H6       HEL1     0.150000       1.00800           0
      2231 MEMB     110      CHL1     C7       CRL2    -0.180000       12.0110           0
      2232 MEMB     110      CHL1     H7A      HGA2     0.900000E-01   1.00800           0
      2233 MEMB     110      CHL1     H7B      HGA2     0.900000E-01   1.00800           0
      2234 MEMB     110      CHL1     C8       CRL1    -0.900000E-01   12.0110           0
      2235 MEMB     110      CHL1     H8       HGA1     0.900000E-01   1.00800           0
      2236 MEMB     110      CHL1     C14      CRL1    -0.900000E-01   12.0110           0
      2237 MEMB     110      CHL1     H14      HGA1     0.900000E-01   1.00800           0
      2238 MEMB     110      CHL1     C15      CRL2    -0.180000       12.0110           0
      2239 MEMB     110      CHL1     H15A     HGA2     0.900000E-01   1.00800           0
      2240 MEMB     110      CHL1     H15B     HGA2     0.900000E-01   1.00800           0
      2241 MEMB     110      CHL1     C16      CRL2    -0.180000       12.0110           0
      2242 MEMB     110      CHL1     H16A     HGA2     0.900000E-01   1.00800           0
      2243 MEMB     110      CHL1     H16B     HGA2     0.900000E-01   1.00800           0
      2244 MEMB     110      CHL1     C17      CRL1    -0.900000E-01   12.0110           0
      2245 MEMB     110      CHL1     H17      HGA1     0.900000E-01   1.00800           0
      2246 MEMB     110      CHL1     C13      CRL1     0.000000       12.0110           0
      2247 MEMB     110      CHL1     C18      CTL3    -0.270000       12.0110           0
      2248 MEMB     110      CHL1     H18A     HAL3     0.900000E-01   1.00800           0
      2249 MEMB     110      CHL1     H18B     HAL3     0.900000E-01   1.00800           0
      2250 MEMB     110      CHL1     H18C     HAL3     0.900000E-01   1.00800           0
      2251 MEMB     110      CHL1     C12      CRL2    -0.180000       12.0110           0
      2252 MEMB     110      CHL1     H12A     HGA2     0.900000E-01   1.00800           0
      2253 MEMB     110      CHL1     H12B     HGA2     0.900000E-01   1.00800           0
      2254 MEMB     110      CHL1     C11      CRL2    -0.180000       12.0110           0
      2255 MEMB     110      CHL1     H11A     HGA2     0.900000E-01   1.00800           0
      2256 MEMB     110      CHL1     H11B     HGA2     0.900000E-01   1.00800           0
      2257 MEMB     110      CHL1     C9       CRL1    -0.900000E-01   12.0110           0
      2258 MEMB     110      CHL1     H9       HGA1     0.900000E-01   1.00800           0
      2259 MEMB     110      CHL1     C10      CRL1     0.000000       12.0110           0
      2260 MEMB     110      CHL1     C19      CTL3    -0.270000       12.0110           0
      2261 MEMB     110      CHL1     H19A     HAL3     0.900000E-01   1.00800           0
      2262 MEMB     110      CHL1     H19B     HAL3     0.900000E-01   1.00800           0
      2263 MEMB     110      CHL1     H19C     HAL3     0.900000E-01   1.00800           0
      2264 MEMB     110      CHL1     C1       CRL2    -0.180000       12.0110           0
      2265 MEMB     110      CHL1     H1A      HGA2     0.900000E-01   1.00800           0
      2266 MEMB     110      CHL1     H1B      HGA2     0.900000E-01   1.00800           0
      2267 MEMB     110      CHL1     C2       CRL2    -0.180000       12.0110           0
      2268 MEMB     110      CHL1     H2A      HGA2     0.900000E-01   1.00800           0
      2269 MEMB     110      CHL1     H2B      HGA2     0.900000E-01   1.00800           0
      2270 MEMB     110      CHL1     C20      CTL1    -0.900000E-01   12.0110           0
      2271 MEMB     110      CHL1     H20      HAL1     0.900000E-01   1.00800           0
      2272 MEMB     110      CHL1     C21      CTL3    -0.270000       12.0110           0
      2273 MEMB     110      CHL1     H21A     HAL3     0.900000E-01   1.00800           0
      2274 MEMB     110      CHL1     H21B     HAL3     0.900000E-01   1.00800           0
      2275 MEMB     110      CHL1     H21C     HAL3     0.900000E-01   1.00800           0
      2276 MEMB     110      CHL1     C22      CTL2    -0.180000       12.0110           0
      2277 MEMB     110      CHL1     H22A     HAL2     0.900000E-01   1.00800           0
      2278 MEMB     110      CHL1     H22B     HAL2     0.900000E-01   1.00800           0
      2279 MEMB     110      CHL1     C23      CTL2    -0.180000       12.0110           0
      2280 MEMB     110      CHL1     H23A     HAL2     0.900000E-01   1.00800           0
      2281 MEMB     110      CHL1     H23B     HAL2     0.900000E-01   1.00800           0
      2282 MEMB     110      CHL1     C24      CTL2    -0.180000       12.0110           0
      2283 MEMB     110      CHL1     H24A     HAL2     0.900000E-01   1.00800           0
      2284 MEMB     110      CHL1     H24B     HAL2     0.900000E-01   1.00800           0
      2285 MEMB     110      CHL1     C25      CTL1    -0.900000E-01   12.0110           0
      2286 MEMB     110      CHL1     H25      HAL1     0.900000E-01   1.00800           0
      2287 MEMB     110      CHL1     C26      CTL3    -0.270000       12.0110           0
      2288 MEMB     110      CHL1     H26A     HAL3     0.900000E-01   1.00800           0
      2289 MEMB     110      CHL1     H26B     HAL3     0.900000E-01   1.00800           0
      2290 MEMB     110      CHL1     H26C     HAL3     0.900000E-01   1.00800           0
      2291 MEMB     110      CHL1     C27      CTL3    -0.270000       12.0110           0
      2292 MEMB     110      CHL1     H27A     HAL3     0.900000E-01   1.00800           0
      2293 MEMB     110      CHL1     H27B     HAL3     0.900000E-01   1.00800           0
      2294 MEMB     110      CHL1     H27C     HAL3     0.900000E-01   1.00800           0
      2295 MEMB     111      CHL1     C3       CRL1     0.140000       12.0110           0
      2296 MEMB     111      CHL1     H3       HGA1     0.900000E-01   1.00800           0
      2297 MEMB     111      CHL1     O3       OHL     -0.660000       15.9994           0
      2298 MEMB     111      CHL1     H3'      HOL      0.430000       1.00800           0
      2299 MEMB     111      CHL1     C4       CRL2    -0.180000       12.0110           0
      2300 MEMB     111      CHL1     H4A      HGA2     0.900000E-01   1.00800           0
      2301 MEMB     111      CHL1     H4B      HGA2     0.900000E-01   1.00800           0
      2302 MEMB     111      CHL1     C5       CEL1     0.000000       12.0110           0
      2303 MEMB     111      CHL1     C6       CEL1    -0.150000       12.0110           0
      2304 MEMB     111      CHL1     H6       HEL1     0.150000       1.00800           0
      2305 MEMB     111      CHL1     C7       CRL2    -0.180000       12.0110           0
      2306 MEMB     111      CHL1     H7A      HGA2     0.900000E-01   1.00800           0
      2307 MEMB     111      CHL1     H7B      HGA2     0.900000E-01   1.00800           0
      2308 MEMB     111      CHL1     C8       CRL1    -0.900000E-01   12.0110           0
      2309 MEMB     111      CHL1     H8       HGA1     0.900000E-01   1.00800           0
      2310 MEMB     111      CHL1     C14      CRL1    -0.900000E-01   12.0110           0
      2311 MEMB     111      CHL1     H14      HGA1     0.900000E-01   1.00800           0
      2312 MEMB     111      CHL1     C15      CRL2    -0.180000       12.0110           0
      2313 MEMB     111      CHL1     H15A     HGA2     0.900000E-01   1.00800           0
      2314 MEMB     111      CHL1     H15B     HGA2     0.900000E-01   1.00800           0
      2315 MEMB     111      CHL1     C16      CRL2    -0.180000       12.0110           0
      2316 MEMB     111      CHL1     H16A     HGA2     0.900000E-01   1.00800           0
      2317 MEMB     111      CHL1     H16B     HGA2     0.900000E-01   1.00800           0
      2318 MEMB     111      CHL1     C17      CRL1    -0.900000E-01   12.0110           0
      2319 MEMB     111      CHL1     H17      HGA1     0.900000E-01   1.00800           0
      2320 MEMB     111      CHL1     C13      CRL1     0.000000       12.0110           0
      2321 MEMB     111      CHL1     C18      CTL3    -0.270000       12.0110           0
      2322 MEMB     111      CHL1     H18A     HAL3     0.900000E-01   1.00800           0
      2323 MEMB     111      CHL1     H18B     HAL3     0.900000E-01   1.00800           0
      2324 MEMB     111      CHL1     H18C     HAL3     0.900000E-01   1.00800           0
      2325 MEMB     111      CHL1     C12      CRL2    -0.180000       12.0110           0
      2326 MEMB     111      CHL1     H12A     HGA2     0.900000E-01   1.00800           0
      2327 MEMB     111      CHL1     H12B     HGA2     0.900000E-01   1.00800           0
      2328 MEMB     111      CHL1     C11      CRL2    -0.180000       12.0110           0
      2329 MEMB     111      CHL1     H11A     HGA2     0.900000E-01   1.00800           0
      2330 MEMB     111      CHL1     H11B     HGA2     0.900000E-01   1.00800           0
      2331 MEMB     111      CHL1     C9       CRL1    -0.900000E-01   12.0110           0
      2332 MEMB     111      CHL1     H9       HGA1     0.900000E-01   1.00800           0
      2333 MEMB     111      CHL1     C10      CRL1     0.000000       12.0110           0
      2334 MEMB     111      CHL1     C19      CTL3    -0.270000       12.0110           0
      2335 MEMB     111      CHL1     H19A     HAL3     0.900000E-01   1.00800           0
      2336 MEMB     111      CHL1     H19B     HAL3     0.900000E-01   1.00800           0
      2337 MEMB     111      CHL1     H19C     HAL3     0.900000E-01   1.00800           0
      2338 MEMB     111      CHL1     C1       CRL2    -0.180000       12.0110           0
      2339 MEMB     111      CHL1     H1A      HGA2     0.900000E-01   1.00800           0
      2340 MEMB     111      CHL1     H1B      HGA2     0.900000E-01   1.00800           0
      2341 MEMB     111      CHL1     C2       CRL2    -0.180000       12.0110           0
      2342 MEMB     111      CHL1     H2A      HGA2     0.900000E-01   1.00800           0
      2343 MEMB     111      CHL1     H2B      HGA2     0.900000E-01   1.00800           0
      2344 MEMB     111      CHL1     C20      CTL1    -0.900000E-01   12.0110           0
      2345 MEMB     111      CHL1     H20      HAL1     0.900000E-01   1.00800           0
      2346 MEMB     111      CHL1     C21      CTL3    -0.270000       12.0110           0
      2347 MEMB     111      CHL1     H21A     HAL3     0.900000E-01   1.00800           0
      2348 MEMB     111      CHL1     H21B     HAL3     0.900000E-01   1.00800           0
      2349 MEMB     111      CHL1     H21C     HAL3     0.900000E-01   1.00800           0
      2350 MEMB     111      CHL1     C22      CTL2    -0.180000       12.0110           0
      2351 MEMB     111      CHL1     H22A     HAL2     0.900000E-01   1.00800           0
      2352 MEMB     111      CHL1     H22B     HAL2     0.900000E-01   1.00800           0
      2353 MEMB     111      CHL1     C23      CTL2    -0.180000       12.0110           0
      2354 MEMB     111      CHL1     H23A     HAL2     0.900000E-01   1.00800           0
      2355 MEMB     111      CHL1     H23B     HAL2     0.900000E-01   1.00800           0
      2356 MEMB     111      CHL1     C24      CTL2    -0.180000       12.0110           0
      2357 MEMB     111      CHL1     H24A     HAL2     0.900000E-01   1.00800           0
      2358 MEMB     111      CHL1     H24B     HAL2     0.900000E-01   1.00800           0
      2359 MEMB     111      CHL1     C25      CTL1    -0.900000E-01   12.0110           0
      2360 MEMB     111      CHL1     H25      HAL1     0.900000E-01   1.00800           0
      2361 MEMB     111      CHL1     C26      CTL3    -0.270000       12.0110           0
      2362 MEMB     111      CHL1     H26A     HAL3     0.900000E-01   1.00800           0
      2363 MEMB     111      CHL1     H26B     HAL3     0.900000E-01   1.00800           0
      2364 MEMB     111      CHL1     H26C     HAL3     0.900000E-01   1.00800           0
      2365 MEMB     111      CHL1     C27      CTL3    -0.270000       12.0110           0
      2366 MEMB     111      CHL1     H27A     HAL3     0.900000E-01   1.00800           0
      2367 MEMB     111      CHL1     H27B     HAL3     0.900000E-01   1.00800           0
      2368 MEMB     111      CHL1     H27C     HAL3     0.900000E-01   1.00800           0
      2369 MEMB     112      CHL1     C3       CRL1     0.140000       12.0110           0
      2370 MEMB     112      CHL1     H3       HGA1     0.900000E-01   1.00800           0
      2371 MEMB     112      CHL1     O3       OHL     -0.660000       15.9994           0
      2372 MEMB     112      CHL1     H3'      HOL      0.430000       1.00800           0
      2373 MEMB     112      CHL1     C4       CRL2    -0.180000       12.0110           0
      2374 MEMB     112      CHL1     H4A      HGA2     0.900000E-01   1.00800           0
      2375 MEMB     112      CHL1     H4B      HGA2     0.900000E-01   1.00800           0
      2376 MEMB     112      CHL1     C5       CEL1     0.000000       12.0110           0
      2377 MEMB     112      CHL1     C6       CEL1    -0.150000       12.0110           0
      2378 MEMB     112      CHL1     H6       HEL1     0.150000       1.00800           0
      2379 MEMB     112      CHL1     C7       CRL2    -0.180000       12.0110           0
      2380 MEMB     112      CHL1     H7A      HGA2     0.900000E-01   1.00800           0
      2381 MEMB     112      CHL1     H7B      HGA2     0.900000E-01   1.00800           0
      2382 MEMB     112      CHL1     C8       CRL1    -0.900000E-01   12.0110           0
      2383 MEMB     112      CHL1     H8       HGA1     0.900000E-01   1.00800           0
      2384 MEMB     112      CHL1     C14      CRL1    -0.900000E-01   12.0110           0
      2385 MEMB     112      CHL1     H14      HGA1     0.900000E-01   1.00800           0
      2386 MEMB     112      CHL1     C15      CRL2    -0.180000       12.0110           0
      2387 MEMB     112      CHL1     H15A     HGA2     0.900000E-01   1.00800           0
      2388 MEMB     112      CHL1     H15B     HGA2     0.900000E-01   1.00800           0
      2389 MEMB     112      CHL1     C16      CRL2    -0.180000       12.0110           0
      2390 MEMB     112      CHL1     H16A     HGA2     0.900000E-01   1.00800           0
      2391 MEMB     112      CHL1     H16B     HGA2     0.900000E-01   1.00800           0
      2392 MEMB     112      CHL1     C17      CRL1    -0.900000E-01   12.0110           0
      2393 MEMB     112      CHL1     H17      HGA1     0.900000E-01   1.00800           0
      2394 MEMB     112      CHL1     C13      CRL1     0.000000       12.0110           0
      2395 MEMB     112      CHL1     C18      CTL3    -0.270000       12.0110           0
      2396 MEMB     112      CHL1     H18A     HAL3     0.900000E-01   1.00800           0
      2397 MEMB     112      CHL1     H18B     HAL3     0.900000E-01   1.00800           0
      2398 MEMB     112      CHL1     H18C     HAL3     0.900000E-01   1.00800           0
      2399 MEMB     112      CHL1     C12      CRL2    -0.180000       12.0110           0
      2400 MEMB     112      CHL1     H12A     HGA2     0.900000E-01   1.00800           0
      2401 MEMB     112      CHL1     H12B     HGA2     0.900000E-01   1.00800           0
      2402 MEMB     112      CHL1     C11      CRL2    -0.180000       12.0110           0
      2403 MEMB     112      CHL1     H11A     HGA2     0.900000E-01   1.00800           0
      2404 MEMB     112      CHL1     H11B     HGA2     0.900000E-01   1.00800           0
      2405 MEMB     112      CHL1     C9       CRL1    -0.900000E-01   12.0110           0
      2406 MEMB     112      CHL1     H9       HGA1     0.900000E-01   1.00800           0
      2407 MEMB     112      CHL1     C10      CRL1     0.000000       12.0110           0
      2408 MEMB     112      CHL1     C19      CTL3    -0.270000       12.0110           0
      2409 MEMB     112      CHL1     H19A     HAL3     0.900000E-01   1.00800           0
      2410 MEMB     112      CHL1     H19B     HAL3     0.900000E-01   1.00800           0
      2411 MEMB     112      CHL1     H19C     HAL3     0.900000E-01   1.00800           0
      2412 MEMB     112      CHL1     C1       CRL2    -0.180000       12.0110           0
      2413 MEMB     112      CHL1     H1A      HGA2     0.900000E-01   1.00800           0
      2414 MEMB     112      CHL1     H1B      HGA2     0.900000E-01   1.00800           0
      2415 MEMB     112      CHL1     C2       CRL2    -0.180000       12.0110           0
      2416 MEMB     112      CHL1     H2A      HGA2     0.900000E-01   1.00800           0
      2417 MEMB     112      CHL1     H2B      HGA2     0.900000E-01   1.00800           0
      2418 MEMB     112      CHL1     C20      CTL1    -0.900000E-01   12.0110           0
      2419 MEMB     112      CHL1     H20      HAL1     0.900000E-01   1.00800           0
      2420 MEMB     112      CHL1     C21      CTL3    -0.270000       12.0110           0
      2421 MEMB     112      CHL1     H21A     HAL3     0.900000E-01   1.00800           0
      2422 MEMB     112      CHL1     H21B     HAL3     0.900000E-01   1.00800           0
      2423 MEMB     112      CHL1     H21C     HAL3     0.900000E-01   1.00800           0
      2424 MEMB     112      CHL1     C22      CTL2    -0.180000       12.0110           0
      2425 MEMB     112      CHL1     H22A     HAL2     0.900000E-01   1.00800           0
      2426 MEMB     112      CHL1     H22B     HAL2     0.900000E-01   1.00800           0
      2427 MEMB     112      CHL1     C23      CTL2    -0.180000       12.0110           0
      2428 MEMB     112      CHL1     H23A     HAL2     0.900000E-01   1.00800           0
      2429 MEMB     112      CHL1     H23B     HAL2     0.900000E-01   1.00800           0
      2430 MEMB     112      CHL1     C24      CTL2    -0.180000       12.0110           0
      2431 MEMB     112      CHL1     H24A     HAL2     0.900000E-01   1.00800           0
      2432 MEMB     112      CHL1     H24B     HAL2     0.900000E-01   1.00800           0
      2433 MEMB     112      CHL1     C25      CTL1    -0.900000E-01   12.0110           0
      2434 MEMB     112      CHL1     H25      HAL1     0.900000E-01   1.00800           0
      2435 MEMB     112      CHL1     C26      CTL3    -0.270000       12.0110           0
      2436 MEMB     112      CHL1     H26A     HAL3     0.900000E-01   1.00800           0
      2437 MEMB     112      CHL1     H26B     HAL3     0.900000E-01   1.00800           0
      2438 MEMB     112      CHL1     H26C     HAL3     0.900000E-01   1.00800           0
      2439 MEMB     112      CHL1     C27      CTL3    -0.270000       12.0110           0
      2440 MEMB     112      CHL1     H27A     HAL3     0.900000E-01   1.00800           0
      2441 MEMB     112      CHL1     H27B     HAL3     0.900000E-01   1.00800           0
      2442 MEMB     112      CHL1     H27C     HAL3     0.900000E-01   1.00800           0
      2443 MEMB     113      CHL1     C3       CRL1     0.140000       12.0110           0
      2444 MEMB     113      CHL1     H3       HGA1     0.900000E-01   1.00800           0
      2445 MEMB     113      CHL1     O3       OHL     -0.660000       15.9994           0
      2446 MEMB     113      CHL1     H3'      HOL      0.430000       1.00800           0
      2447 MEMB     113      CHL1     C4       CRL2    -0.180000       12.0110           0
      2448 MEMB     113      CHL1     H4A      HGA2     0.900000E-01   1.00800           0
      2449 MEMB     113      CHL1     H4B      HGA2     0.900000E-01   1.00800           0
      2450 MEMB     113      CHL1     C5       CEL1     0.000000       12.0110           0
      2451 MEMB     113      CHL1     C6       CEL1    -0.150000       12.0110           0
      2452 MEMB     113      CHL1     H6       HEL1     0.150000       1.00800           0
      2453 MEMB     113      CHL1     C7       CRL2    -0.180000       12.0110           0
      2454 MEMB     113      CHL1     H7A      HGA2     0.900000E-01   1.00800           0
      2455 MEMB     113      CHL1     H7B      HGA2     0.900000E-01   1.00800           0
      2456 MEMB     113      CHL1     C8       CRL1    -0.900000E-01   12.0110           0
      2457 MEMB     113      CHL1     H8       HGA1     0.900000E-01   1.00800           0
      2458 MEMB     113      CHL1     C14      CRL1    -0.900000E-01   12.0110           0
      2459 MEMB     113      CHL1     H14      HGA1     0.900000E-01   1.00800           0
      2460 MEMB     113      CHL1     C15      CRL2    -0.180000       12.0110           0
      2461 MEMB     113      CHL1     H15A     HGA2     0.900000E-01   1.00800           0
      2462 MEMB     113      CHL1     H15B     HGA2     0.900000E-01   1.00800           0
      2463 MEMB     113      CHL1     C16      CRL2    -0.180000       12.0110           0
      2464 MEMB     113      CHL1     H16A     HGA2     0.900000E-01   1.00800           0
      2465 MEMB     113      CHL1     H16B     HGA2     0.900000E-01   1.00800           0
      2466 MEMB     113      CHL1     C17      CRL1    -0.900000E-01   12.0110           0
      2467 MEMB     113      CHL1     H17      HGA1     0.900000E-01   1.00800           0
      2468 MEMB     113      CHL1     C13      CRL1     0.000000       12.0110           0
      2469 MEMB     113      CHL1     C18      CTL3    -0.270000       12.0110           0
      2470 MEMB     113      CHL1     H18A     HAL3     0.900000E-01   1.00800           0
      2471 MEMB     113      CHL1     H18B     HAL3     0.900000E-01   1.00800           0
      2472 MEMB     113      CHL1     H18C     HAL3     0.900000E-01   1.00800           0
      2473 MEMB     113      CHL1     C12      CRL2    -0.180000       12.0110           0
      2474 MEMB     113      CHL1     H12A     HGA2     0.900000E-01   1.00800           0
      2475 MEMB     113      CHL1     H12B     HGA2     0.900000E-01   1.00800           0
      2476 MEMB     113      CHL1     C11      CRL2    -0.180000       12.0110           0
      2477 MEMB     113      CHL1     H11A     HGA2     0.900000E-01   1.00800           0
      2478 MEMB     113      CHL1     H11B     HGA2     0.900000E-01   1.00800           0
      2479 MEMB     113      CHL1     C9       CRL1    -0.900000E-01   12.0110           0
      2480 MEMB     113      CHL1     H9       HGA1     0.900000E-01   1.00800           0
      2481 MEMB     113      CHL1     C10      CRL1     0.000000       12.0110           0
      2482 MEMB     113      CHL1     C19      CTL3    -0.270000       12.0110           0
      2483 MEMB     113      CHL1     H19A     HAL3     0.900000E-01   1.00800           0
      2484 MEMB     113      CHL1     H19B     HAL3     0.900000E-01   1.00800           0
      2485 MEMB     113      CHL1     H19C     HAL3     0.900000E-01   1.00800           0
      2486 MEMB     113      CHL1     C1       CRL2    -0.180000       12.0110           0
      2487 MEMB     113      CHL1     H1A      HGA2     0.900000E-01   1.00800           0
      2488 MEMB     113      CHL1     H1B      HGA2     0.900000E-01   1.00800           0
      2489 MEMB     113      CHL1     C2       CRL2    -0.180000       12.0110           0
      2490 MEMB     113      CHL1     H2A      HGA2     0.900000E-01   1.00800           0
      2491 MEMB     113      CHL1     H2B      HGA2     0.900000E-01   1.00800           0
      2492 MEMB     113      CHL1     C20      CTL1    -0.900000E-01   12.0110           0
      2493 MEMB     113      CHL1     H20      HAL1     0.900000E-01   1.00800           0
      2494 MEMB     113      CHL1     C21      CTL3    -0.270000       12.0110           0
      2495 MEMB     113      CHL1     H21A     HAL3     0.900000E-01   1.00800           0
      2496 MEMB     113      CHL1     H21B     HAL3     0.900000E-01   1.00800           0
      2497 MEMB     113      CHL1     H21C     HAL3     0.900000E-01   1.00800           0
      2498 MEMB     113      CHL1     C22      CTL2    -0.180000       12.0110           0
      2499 MEMB     113      CHL1     H22A     HAL2     0.900000E-01   1.00800           0
      2500 MEMB     113      CHL1     H22B     HAL2     0.900000E-01   1.00800           0
      2501 MEMB     113      CHL1     C23      CTL2    -0.180000       12.0110           0
      2502 MEMB     113      CHL1     H23A     HAL2     0.900000E-01   1.00800           0
      2503 MEMB     113      CHL1     H23B     HAL2     0.900000E-01   1.00800           0
      2504 MEMB     113      CHL1     C24      CTL2    -0.180000       12.0110           0
      2505 MEMB     113      CHL1     H24A     HAL2     0.900000E-01   1.00800           0
      2506 MEMB     113      CHL1     H24B     HAL2     0.900000E-01   1.00800           0
      2507 MEMB     113      CHL1     C25      CTL1    -0.900000E-01   12.0110           0
      2508 MEMB     113      CHL1     H25      HAL1     0.900000E-01   1.00800           0
      2509 MEMB     113      CHL1     C26      CTL3    -0.270000       12.0110           0
      2510 MEMB     113      CHL1     H26A     HAL3     0.900000E-01   1.00800           0
      2511 MEMB     113      CHL1     H26B     HAL3     0.900000E-01   1.00800           0
      2512 MEMB     113      CHL1     H26C     HAL3     0.900000E-01   1.00800           0
      2513 MEMB     113      CHL1     C27      CTL3    -0.270000       12.0110           0
      2514 MEMB     113      CHL1     H27A     HAL3     0.900000E-01   1.00800           0
      2515 MEMB     113      CHL1     H27B     HAL3     0.900000E-01   1.00800           0
      2516 MEMB     113      CHL1     H27C     HAL3     0.900000E-01   1.00800           0
      2517 MEMB     118      CHL1     C3       CRL1     0.140000       12.0110           0
      2518 MEMB     118      CHL1     H3       HGA1     0.900000E-01   1.00800           0
      2519 MEMB     118      CHL1     O3       OHL     -0.660000       15.9994           0
      2520 MEMB     118      CHL1     H3'      HOL      0.430000       1.00800           0
      2521 MEMB     118      CHL1     C4       CRL2    -0.180000       12.0110           0
      2522 MEMB     118      CHL1     H4A      HGA2     0.900000E-01   1.00800           0
      2523 MEMB     118      CHL1     H4B      HGA2     0.900000E-01   1.00800           0
      2524 MEMB     118      CHL1     C5       CEL1     0.000000       12.0110           0
      2525 MEMB     118      CHL1     C6       CEL1    -0.150000       12.0110           0
      2526 MEMB     118      CHL1     H6       HEL1     0.150000       1.00800           0
      2527 MEMB     118      CHL1     C7       CRL2    -0.180000       12.0110           0
      2528 MEMB     118      CHL1     H7A      HGA2     0.900000E-01   1.00800           0
      2529 MEMB     118      CHL1     H7B      HGA2     0.900000E-01   1.00800           0
      2530 MEMB     118      CHL1     C8       CRL1    -0.900000E-01   12.0110           0
      2531 MEMB     118      CHL1     H8       HGA1     0.900000E-01   1.00800           0
      2532 MEMB     118      CHL1     C14      CRL1    -0.900000E-01   12.0110           0
      2533 MEMB     118      CHL1     H14      HGA1     0.900000E-01   1.00800           0
      2534 MEMB     118      CHL1     C15      CRL2    -0.180000       12.0110           0
      2535 MEMB     118      CHL1     H15A     HGA2     0.900000E-01   1.00800           0
      2536 MEMB     118      CHL1     H15B     HGA2     0.900000E-01   1.00800           0
      2537 MEMB     118      CHL1     C16      CRL2    -0.180000       12.0110           0
      2538 MEMB     118      CHL1     H16A     HGA2     0.900000E-01   1.00800           0
      2539 MEMB     118      CHL1     H16B     HGA2     0.900000E-01   1.00800           0
      2540 MEMB     118      CHL1     C17      CRL1    -0.900000E-01   12.0110           0
      2541 MEMB     118      CHL1     H17      HGA1     0.900000E-01   1.00800           0
      2542 MEMB     118      CHL1     C13      CRL1     0.000000       12.0110           0
      2543 MEMB     118      CHL1     C18      CTL3    -0.270000       12.0110           0
      2544 MEMB     118      CHL1     H18A     HAL3     0.900000E-01   1.00800           0
      2545 MEMB     118      CHL1     H18B     HAL3     0.900000E-01   1.00800           0
      2546 MEMB     118      CHL1     H18C     HAL3     0.900000E-01   1.00800           0
      2547 MEMB     118      CHL1     C12      CRL2    -0.180000       12.0110           0
      2548 MEMB     118      CHL1     H12A     HGA2     0.900000E-01   1.00800           0
      2549 MEMB     118      CHL1     H12B     HGA2     0.900000E-01   1.00800           0
      2550 MEMB     118      CHL1     C11      CRL2    -0.180000       12.0110           0
      2551 MEMB     118      CHL1     H11A     HGA2     0.900000E-01   1.00800           0
      2552 MEMB     118      CHL1     H11B     HGA2     0.900000E-01   1.00800           0
      2553 MEMB     118      CHL1     C9       CRL1    -0.900000E-01   12.0110           0
      2554 MEMB     118      CHL1     H9       HGA1     0.900000E-01   1.00800           0
      2555 MEMB     118      CHL1     C10      CRL1     0.000000       12.0110           0
      2556 MEMB     118      CHL1     C19      CTL3    -0.270000       12.0110           0
      2557 MEMB     118      CHL1     H19A     HAL3     0.900000E-01   1.00800           0
      2558 MEMB     118      CHL1     H19B     HAL3     0.900000E-01   1.00800           0
      2559 MEMB     118      CHL1     H19C     HAL3     0.900000E-01   1.00800           0
      2560 MEMB     118      CHL1     C1       CRL2    -0.180000       12.0110           0
      2561 MEMB     118      CHL1     H1A      HGA2     0.900000E-01   1.00800           0
      2562 MEMB     118      CHL1     H1B      HGA2     0.900000E-01   1.00800           0
      2563 MEMB     118      CHL1     C2       CRL2    -0.180000       12.0110           0
      2564 MEMB     118      CHL1     H2A      HGA2     0.900000E-01   1.00800           0
      2565 MEMB     118      CHL1     H2B      HGA2     0.900000E-01   1.00800           0
      2566 MEMB     118      CHL1     C20      CTL1    -0.900000E-01   12.0110           0
      2567 MEMB     118      CHL1     H20      HAL1     0.900000E-01   1.00800           0
      2568 MEMB     118      CHL1     C21      CTL3    -0.270000       12.0110           0
      2569 MEMB     118      CHL1     H21A     HAL3     0.900000E-01   1.00800           0
      2570 MEMB     118      CHL1     H21B     HAL3     0.900000E-01   1.00800           0
      2571 MEMB     118      CHL1     H21C     HAL3     0.900000E-01   1.00800           0
      2572 MEMB     118      CHL1     C22      CTL2    -0.180000       12.0110           0
      2573 MEMB     118      CHL1     H22A     HAL2     0.900000E-01   1.00800           0
      2574 MEMB     118      CHL1     H22B     HAL2     0.900000E-01   1.00800           0
      2575 MEMB     118      CHL1     C23      CTL2    -0.180000       12.0110           0
      2576 MEMB     118      CHL1     H23A     HAL2     0.900000E-01   1.00800           0
      2577 MEMB     118      CHL1     H23B     HAL2     0.900000E-01   1.00800           0
      2578 MEMB     118      CHL1     C24      CTL2    -0.180000       12.0110           0
      2579 MEMB     118      CHL1     H24A     HAL2     0.900000E-01   1.00800           0
      2580 MEMB     118      CHL1     H24B     HAL2     0.900000E-01   1.00800           0
      2581 MEMB     118      CHL1     C25      CTL1    -0.900000E-01   12.0110           0
      2582 MEMB     118      CHL1     H25      HAL1     0.900000E-01   1.00800           0
      2583 MEMB     118      CHL1     C26      CTL3    -0.270000       12.0110           0
      2584 MEMB     118      CHL1     H26A     HAL3     0.900000E-01   1.00800           0
      2585 MEMB     118      CHL1     H26B     HAL3     0.900000E-01   1.00800           0
      2586 MEMB     118      CHL1     H26C     HAL3     0.900000E-01   1.00800           0
      2587 MEMB     118      CHL1     C27      CTL3    -0.270000       12.0110           0
      2588 MEMB     118      CHL1     H27A     HAL3     0.900000E-01   1.00800           0
      2589 MEMB     118      CHL1     H27B     HAL3     0.900000E-01   1.00800           0
      2590 MEMB     118      CHL1     H27C     HAL3     0.900000E-01   1.00800           0
      2591 MEMB     123      CHL1     C3       CRL1     0.140000       12.0110           0
      2592 MEMB     123      CHL1     H3       HGA1     0.900000E-01   1.00800           0
      2593 MEMB     123      CHL1     O3       OHL     -0.660000       15.9994           0
      2594 MEMB     123      CHL1     H3'      HOL      0.430000       1.00800           0
      2595 MEMB     123      CHL1     C4       CRL2    -0.180000       12.0110           0
      2596 MEMB     123      CHL1     H4A      HGA2     0.900000E-01   1.00800           0
      2597 MEMB     123      CHL1     H4B      HGA2     0.900000E-01   1.00800           0
      2598 MEMB     123      CHL1     C5       CEL1     0.000000       12.0110           0
      2599 MEMB     123      CHL1     C6       CEL1    -0.150000       12.0110           0
      2600 MEMB     123      CHL1     H6       HEL1     0.150000       1.00800           0
      2601 MEMB     123      CHL1     C7       CRL2    -0.180000       12.0110           0
      2602 MEMB     123      CHL1     H7A      HGA2     0.900000E-01   1.00800           0
      2603 MEMB     123      CHL1     H7B      HGA2     0.900000E-01   1.00800           0
      2604 MEMB     123      CHL1     C8       CRL1    -0.900000E-01   12.0110           0
      2605 MEMB     123      CHL1     H8       HGA1     0.900000E-01   1.00800           0
      2606 MEMB     123      CHL1     C14      CRL1    -0.900000E-01   12.0110           0
      2607 MEMB     123      CHL1     H14      HGA1     0.900000E-01   1.00800           0
      2608 MEMB     123      CHL1     C15      CRL2    -0.180000       12.0110           0
      2609 MEMB     123      CHL1     H15A     HGA2     0.900000E-01   1.00800           0
      2610 MEMB     123      CHL1     H15B     HGA2     0.900000E-01   1.00800           0
      2611 MEMB     123      CHL1     C16      CRL2    -0.180000       12.0110           0
      2612 MEMB     123      CHL1     H16A     HGA2     0.900000E-01   1.00800           0
      2613 MEMB     123      CHL1     H16B     HGA2     0.900000E-01   1.00800           0
      2614 MEMB     123      CHL1     C17      CRL1    -0.900000E-01   12.0110           0
      2615 MEMB     123      CHL1     H17      HGA1     0.900000E-01   1.00800           0
      2616 MEMB     123      CHL1     C13      CRL1     0.000000       12.0110           0
      2617 MEMB     123      CHL1     C18      CTL3    -0.270000       12.0110           0
      2618 MEMB     123      CHL1     H18A     HAL3     0.900000E-01   1.00800           0
      2619 MEMB     123      CHL1     H18B     HAL3     0.900000E-01   1.00800           0
      2620 MEMB     123      CHL1     H18C     HAL3     0.900000E-01   1.00800           0
      2621 MEMB     123      CHL1     C12      CRL2    -0.180000       12.0110           0
      2622 MEMB     123      CHL1     H12A     HGA2     0.900000E-01   1.00800           0
      2623 MEMB     123      CHL1     H12B     HGA2     0.900000E-01   1.00800           0
      2624 MEMB     123      CHL1     C11      CRL2    -0.180000       12.0110           0
      2625 MEMB     123      CHL1     H11A     HGA2     0.900000E-01   1.00800           0
      2626 MEMB     123      CHL1     H11B     HGA2     0.900000E-01   1.00800           0
      2627 MEMB     123      CHL1     C9       CRL1    -0.900000E-01   12.0110           0
      2628 MEMB     123      CHL1     H9       HGA1     0.900000E-01   1.00800           0
      2629 MEMB     123      CHL1     C10      CRL1     0.000000       12.0110           0
      2630 MEMB     123      CHL1     C19      CTL3    -0.270000       12.0110           0
      2631 MEMB     123      CHL1     H19A     HAL3     0.900000E-01   1.00800           0
      2632 MEMB     123      CHL1     H19B     HAL3     0.900000E-01   1.00800           0
      2633 MEMB     123      CHL1     H19C     HAL3     0.900000E-01   1.00800           0
      2634 MEMB     123      CHL1     C1       CRL2    -0.180000       12.0110           0
      2635 MEMB     123      CHL1     H1A      HGA2     0.900000E-01   1.00800           0
      2636 MEMB     123      CHL1     H1B      HGA2     0.900000E-01   1.00800           0
      2637 MEMB     123      CHL1     C2       CRL2    -0.180000       12.0110           0
      2638 MEMB     123      CHL1     H2A      HGA2     0.900000E-01   1.00800           0
      2639 MEMB     123      CHL1     H2B      HGA2     0.900000E-01   1.00800           0
      2640 MEMB     123      CHL1     C20      CTL1    -0.900000E-01   12.0110           0
      2641 MEMB     123      CHL1     H20      HAL1     0.900000E-01   1.00800           0
      2642 MEMB     123      CHL1     C21      CTL3    -0.270000       12.0110           0
      2643 MEMB     123      CHL1     H21A     HAL3     0.900000E-01   1.00800           0
      2644 MEMB     123      CHL1     H21B     HAL3     0.900000E-01   1.00800           0
      2645 MEMB     123      CHL1     H21C     HAL3     0.900000E-01   1.00800           0
      2646 MEMB     123      CHL1     C22      CTL2    -0.180000       12.0110           0
      2647 MEMB     123      CHL1     H22A     HAL2     0.900000E-01   1.00800           0
      2648 MEMB     123      CHL1     H22B     HAL2     0.900000E-01   1.00800           0
      2649 MEMB     123      CHL1     C23      CTL2    -0.180000       12.0110           0
      2650 MEMB     123      CHL1     H23A     HAL2     0.900000E-01   1.00800           0
      2651 MEMB     123      CHL1     H23B     HAL2     0.900000E-01   1.00800           0
      2652 MEMB     123      CHL1     C24      CTL2    -0.180000       12.0110           0
      2653 MEMB     123      CHL1     H24A     HAL2     0.900000E-01   1.00800           0
      2654 MEMB     123      CHL1     H24B     HAL2     0.900000E-01   1.00800           0
      2655 MEMB     123      CHL1     C25      CTL1    -0.900000E-01   12.0110           0
      2656 MEMB     123      CHL1     H25      HAL1     0.900000E-01   1.00800           0
      2657 MEMB     123      CHL1     C26      CTL3    -0.270000       12.0110           0
      2658 MEMB     123      CHL1     H26A     HAL3     0.900000E-01   1.00800           0
      2659 MEMB     123      CHL1     H26B     HAL3     0.900000E-01   1.00800           0
      2660 MEMB     123      CHL1     H26C     HAL3     0.900000E-01   1.00800           0
      2661 MEMB     123      CHL1     C27      CTL3    -0.270000       12.0110           0
      2662 MEMB     123      CHL1     H27A     HAL3     0.900000E-01   1.00800           0
      2663 MEMB     123      CHL1     H27B     HAL3     0.900000E-01   1.00800           0
      2664 MEMB     123      CHL1     H27C     HAL3     0.900000E-01   1.00800           0
      2665 MEMB     124      CHL1     C3       CRL1     0.140000       12.0110           0
      2666 MEMB     124      CHL1     H3       HGA1     0.900000E-01   1.00800           0
      2667 MEMB     124      CHL1     O3       OHL     -0.660000       15.9994           0
      2668 MEMB     124      CHL1     H3'      HOL      0.430000       1.00800           0
      2669 MEMB     124      CHL1     C4       CRL2    -0.180000       12.0110           0
      2670 MEMB     124      CHL1     H4A      HGA2     0.900000E-01   1.00800           0
      2671 MEMB     124      CHL1     H4B      HGA2     0.900000E-01   1.00800           0
      2672 MEMB     124      CHL1     C5       CEL1     0.000000       12.0110           0
      2673 MEMB     124      CHL1     C6       CEL1    -0.150000       12.0110           0
      2674 MEMB     124      CHL1     H6       HEL1     0.150000       1.00800           0
      2675 MEMB     124      CHL1     C7       CRL2    -0.180000       12.0110           0
      2676 MEMB     124      CHL1     H7A      HGA2     0.900000E-01   1.00800           0
      2677 MEMB     124      CHL1     H7B      HGA2     0.900000E-01   1.00800           0
      2678 MEMB     124      CHL1     C8       CRL1    -0.900000E-01   12.0110           0
      2679 MEMB     124      CHL1     H8       HGA1     0.900000E-01   1.00800           0
      2680 MEMB     124      CHL1     C14      CRL1    -0.900000E-01   12.0110           0
      2681 MEMB     124      CHL1     H14      HGA1     0.900000E-01   1.00800           0
      2682 MEMB     124      CHL1     C15      CRL2    -0.180000       12.0110           0
      2683 MEMB     124      CHL1     H15A     HGA2     0.900000E-01   1.00800           0
      2684 MEMB     124      CHL1     H15B     HGA2     0.900000E-01   1.00800           0
      2685 MEMB     124      CHL1     C16      CRL2    -0.180000       12.0110           0
      2686 MEMB     124      CHL1     H16A     HGA2     0.900000E-01   1.00800           0
      2687 MEMB     124      CHL1     H16B     HGA2     0.900000E-01   1.00800           0
      2688 MEMB     124      CHL1     C17      CRL1    -0.900000E-01   12.0110           0
      2689 MEMB     124      CHL1     H17      HGA1     0.900000E-01   1.00800           0
      2690 MEMB     124      CHL1     C13      CRL1     0.000000       12.0110           0
      2691 MEMB     124      CHL1     C18      CTL3    -0.270000       12.0110           0
      2692 MEMB     124      CHL1     H18A     HAL3     0.900000E-01   1.00800           0
      2693 MEMB     124      CHL1     H18B     HAL3     0.900000E-01   1.00800           0
      2694 MEMB     124      CHL1     H18C     HAL3     0.900000E-01   1.00800           0
      2695 MEMB     124      CHL1     C12      CRL2    -0.180000       12.0110           0
      2696 MEMB     124      CHL1     H12A     HGA2     0.900000E-01   1.00800           0
      2697 MEMB     124      CHL1     H12B     HGA2     0.900000E-01   1.00800           0
      2698 MEMB     124      CHL1     C11      CRL2    -0.180000       12.0110           0
      2699 MEMB     124      CHL1     H11A     HGA2     0.900000E-01   1.00800           0
      2700 MEMB     124      CHL1     H11B     HGA2     0.900000E-01   1.00800           0
      2701 MEMB     124      CHL1     C9       CRL1    -0.900000E-01   12.0110           0
      2702 MEMB     124      CHL1     H9       HGA1     0.900000E-01   1.00800           0
      2703 MEMB     124      CHL1     C10      CRL1     0.000000       12.0110           0
      2704 MEMB     124      CHL1     C19      CTL3    -0.270000       12.0110           0
      2705 MEMB     124      CHL1     H19A     HAL3     0.900000E-01   1.00800           0
      2706 MEMB     124      CHL1     H19B     HAL3     0.900000E-01   1.00800           0
      2707 MEMB     124      CHL1     H19C     HAL3     0.900000E-01   1.00800           0
      2708 MEMB     124      CHL1     C1       CRL2    -0.180000       12.0110           0
      2709 MEMB     124      CHL1     H1A      HGA2     0.900000E-01   1.00800           0
      2710 MEMB     124      CHL1     H1B      HGA2     0.900000E-01   1.00800           0
      2711 MEMB     124      CHL1     C2       CRL2    -0.180000       12.0110           0
      2712 MEMB     124      CHL1     H2A      HGA2     0.900000E-01   1.00800           0
      2713 MEMB     124      CHL1     H2B      HGA2     0.900000E-01   1.00800           0
      2714 MEMB     124      CHL1     C20      CTL1    -0.900000E-01   12.0110           0
      2715 MEMB     124      CHL1     H20      HAL1     0.900000E-01   1.00800           0
      2716 MEMB     124      CHL1     C21      CTL3    -0.270000       12.0110           0
      2717 MEMB     124      CHL1     H21A     HAL3     0.900000E-01   1.00800           0
      2718 MEMB     124      CHL1     H21B     HAL3     0.900000E-01   1.00800           0
      2719 MEMB     124      CHL1     H21C     HAL3     0.900000E-01   1.00800           0
      2720 MEMB     124      CHL1     C22      CTL2    -0.180000       12.0110           0
      2721 MEMB     124      CHL1     H22A     HAL2     0.900000E-01   1.00800           0
      2722 MEMB     124      CHL1     H22B     HAL2     0.900000E-01   1.00800           0
      2723 MEMB     124      CHL1     C23      CTL2    -0.180000       12.0110           0
      2724 MEMB     124      CHL1     H23A     HAL2     0.900000E-01   1.00800           0
      2725 MEMB     124      CHL1     H23B     HAL2     0.900000E-01   1.00800           0
      2726 MEMB     124      CHL1     C24      CTL2    -0.180000       12.0110           0
      2727 MEMB     124      CHL1     H24A     HAL2     0.900000E-01   1.00800           0
      2728 MEMB     124      CHL1     H24B     HAL2     0.900000E-01   1.00800           0
      2729 MEMB     124      CHL1     C25      CTL1    -0.900000E-01   12.0110           0
      2730 MEMB     124      CHL1     H25      HAL1     0.900000E-01   1.00800           0
      2731 MEMB     124      CHL1     C26      CTL3    -0.270000       12.0110           0
      2732 MEMB     124      CHL1     H26A     HAL3     0.900000E-01   1.00800           0
      2733 MEMB     124      CHL1     H26B     HAL3     0.900000E-01   1.00800           0
      2734 MEMB     124      CHL1     H26C     HAL3     0.900000E-01   1.00800           0
      2735 MEMB     124      CHL1     C27      CTL3    -0.270000       12.0110           0
      2736 MEMB     124      CHL1     H27A     HAL3     0.900000E-01   1.00800           0
      2737 MEMB     124      CHL1     H27B     HAL3     0.900000E-01   1.00800           0
      2738 MEMB     124      CHL1     H27C     HAL3     0.900000E-01   1.00800           0
      2739 MEMB     126      CHL1     C3       CRL1     0.140000       12.0110           0
      2740 MEMB     126      CHL1     H3       HGA1     0.900000E-01   1.00800           0
      2741 MEMB     126      CHL1     O3       OHL     -0.660000       15.9994           0
      2742 MEMB     126      CHL1     H3'      HOL      0.430000       1.00800           0
      2743 MEMB     126      CHL1     C4       CRL2    -0.180000       12.0110           0
      2744 MEMB     126      CHL1     H4A      HGA2     0.900000E-01   1.00800           0
      2745 MEMB     126      CHL1     H4B      HGA2     0.900000E-01   1.00800           0
      2746 MEMB     126      CHL1     C5       CEL1     0.000000       12.0110           0
      2747 MEMB     126      CHL1     C6       CEL1    -0.150000       12.0110           0
      2748 MEMB     126      CHL1     H6       HEL1     0.150000       1.00800           0
      2749 MEMB     126      CHL1     C7       CRL2    -0.180000       12.0110           0
      2750 MEMB     126      CHL1     H7A      HGA2     0.900000E-01   1.00800           0
      2751 MEMB     126      CHL1     H7B      HGA2     0.900000E-01   1.00800           0
      2752 MEMB     126      CHL1     C8       CRL1    -0.900000E-01   12.0110           0
      2753 MEMB     126      CHL1     H8       HGA1     0.900000E-01   1.00800           0
      2754 MEMB     126      CHL1     C14      CRL1    -0.900000E-01   12.0110           0
      2755 MEMB     126      CHL1     H14      HGA1     0.900000E-01   1.00800           0
      2756 MEMB     126      CHL1     C15      CRL2    -0.180000       12.0110           0
      2757 MEMB     126      CHL1     H15A     HGA2     0.900000E-01   1.00800           0
      2758 MEMB     126      CHL1     H15B     HGA2     0.900000E-01   1.00800           0
      2759 MEMB     126      CHL1     C16      CRL2    -0.180000       12.0110           0
      2760 MEMB     126      CHL1     H16A     HGA2     0.900000E-01   1.00800           0
      2761 MEMB     126      CHL1     H16B     HGA2     0.900000E-01   1.00800           0
      2762 MEMB     126      CHL1     C17      CRL1    -0.900000E-01   12.0110           0
      2763 MEMB     126      CHL1     H17      HGA1     0.900000E-01   1.00800           0
      2764 MEMB     126      CHL1     C13      CRL1     0.000000       12.0110           0
      2765 MEMB     126      CHL1     C18      CTL3    -0.270000       12.0110           0
      2766 MEMB     126      CHL1     H18A     HAL3     0.900000E-01   1.00800           0
      2767 MEMB     126      CHL1     H18B     HAL3     0.900000E-01   1.00800           0
      2768 MEMB     126      CHL1     H18C     HAL3     0.900000E-01   1.00800           0
      2769 MEMB     126      CHL1     C12      CRL2    -0.180000       12.0110           0
      2770 MEMB     126      CHL1     H12A     HGA2     0.900000E-01   1.00800           0
      2771 MEMB     126      CHL1     H12B     HGA2     0.900000E-01   1.00800           0
      2772 MEMB     126      CHL1     C11      CRL2    -0.180000       12.0110           0
      2773 MEMB     126      CHL1     H11A     HGA2     0.900000E-01   1.00800           0
      2774 MEMB     126      CHL1     H11B     HGA2     0.900000E-01   1.00800           0
      2775 MEMB     126      CHL1     C9       CRL1    -0.900000E-01   12.0110           0
      2776 MEMB     126      CHL1     H9       HGA1     0.900000E-01   1.00800           0
      2777 MEMB     126      CHL1     C10      CRL1     0.000000       12.0110           0
      2778 MEMB     126      CHL1     C19      CTL3    -0.270000       12.0110           0
      2779 MEMB     126      CHL1     H19A     HAL3     0.900000E-01   1.00800           0
      2780 MEMB     126      CHL1     H19B     HAL3     0.900000E-01   1.00800           0
      2781 MEMB     126      CHL1     H19C     HAL3     0.900000E-01   1.00800           0
      2782 MEMB     126      CHL1     C1       CRL2    -0.180000       12.0110           0
      2783 MEMB     126      CHL1     H1A      HGA2     0.900000E-01   1.00800           0
      2784 MEMB     126      CHL1     H1B      HGA2     0.900000E-01   1.00800           0
      2785 MEMB     126      CHL1     C2       CRL2    -0.180000       12.0110           0
      2786 MEMB     126      CHL1     H2A      HGA2     0.900000E-01   1.00800           0
      2787 MEMB     126      CHL1     H2B      HGA2     0.900000E-01   1.00800           0
      2788 MEMB     126      CHL1     C20      CTL1    -0.900000E-01   12.0110           0
      2789 MEMB     126      CHL1     H20      HAL1     0.900000E-01   1.00800           0
      2790 MEMB     126      CHL1     C21      CTL3    -0.270000       12.0110           0
      2791 MEMB     126      CHL1     H21A     HAL3     0.900000E-01   1.00800           0
      2792 MEMB     126      CHL1     H21B     HAL3     0.900000E-01   1.00800           0
      2793 MEMB     126      CHL1     H21C     HAL3     0.900000E-01   1.00800           0
      2794 MEMB     126      CHL1     C22      CTL2    -0.180000       12.0110           0
      2795 MEMB     126      CHL1     H22A     HAL2     0.900000E-01   1.00800           0
      2796 MEMB     126      CHL1     H22B     HAL2     0.900000E-01   1.00800           0
      2797 MEMB     126      CHL1     C23      CTL2    -0.180000       12.0110           0
      2798 MEMB     126      CHL1     H23A     HAL2     0.900000E-01   1.00800           0
      2799 MEMB     126      CHL1     H23B     HAL2     0.900000E-01   1.00800           0
      2800 MEMB     126      CHL1     C24      CTL2    -0.180000       12.0110           0
      2801 MEMB     126      CHL1     H24A     HAL2     0.900000E-01   1.00800           0
      2802 MEMB     126      CHL1     H24B     HAL2     0.900000E-01   1.00800           0
      2803 MEMB     126      CHL1     C25      CTL1    -0.900000E-01   12.0110           0
      2804 MEMB     126      CHL1     H25      HAL1     0.900000E-01   1.00800           0
      2805 MEMB     126      CHL1     C26      CTL3    -0.270000       12.0110           0
      2806 MEMB     126      CHL1     H26A     HAL3     0.900000E-01   1.00800           0
      2807 MEMB     126      CHL1     H26B     HAL3     0.900000E-01   1.00800           0
      2808 MEMB     126      CHL1     H26C     HAL3     0.900000E-01   1.00800           0
      2809 MEMB     126      CHL1     C27      CTL3    -0.270000       12.0110           0
      2810 MEMB     126      CHL1     H27A     HAL3     0.900000E-01   1.00800           0
      2811 MEMB     126      CHL1     H27B     HAL3     0.900000E-01   1.00800           0
      2812 MEMB     126      CHL1     H27C     HAL3     0.900000E-01   1.00800           0
      2813 MEMB     127      CHL1     C3       CRL1     0.140000       12.0110           0
      2814 MEMB     127      CHL1     H3       HGA1     0.900000E-01   1.00800           0
      2815 MEMB     127      CHL1     O3       OHL     -0.660000       15.9994           0
      2816 MEMB     127      CHL1     H3'      HOL      0.430000       1.00800           0
      2817 MEMB     127      CHL1     C4       CRL2    -0.180000       12.0110           0
      2818 MEMB     127      CHL1     H4A      HGA2     0.900000E-01   1.00800           0
      2819 MEMB     127      CHL1     H4B      HGA2     0.900000E-01   1.00800           0
      2820 MEMB     127      CHL1     C5       CEL1     0.000000       12.0110           0
      2821 MEMB     127      CHL1     C6       CEL1    -0.150000       12.0110           0
      2822 MEMB     127      CHL1     H6       HEL1     0.150000       1.00800           0
      2823 MEMB     127      CHL1     C7       CRL2    -0.180000       12.0110           0
      2824 MEMB     127      CHL1     H7A      HGA2     0.900000E-01   1.00800           0
      2825 MEMB     127      CHL1     H7B      HGA2     0.900000E-01   1.00800           0
      2826 MEMB     127      CHL1     C8       CRL1    -0.900000E-01   12.0110           0
      2827 MEMB     127      CHL1     H8       HGA1     0.900000E-01   1.00800           0
      2828 MEMB     127      CHL1     C14      CRL1    -0.900000E-01   12.0110           0
      2829 MEMB     127      CHL1     H14      HGA1     0.900000E-01   1.00800           0
      2830 MEMB     127      CHL1     C15      CRL2    -0.180000       12.0110           0
      2831 MEMB     127      CHL1     H15A     HGA2     0.900000E-01   1.00800           0
      2832 MEMB     127      CHL1     H15B     HGA2     0.900000E-01   1.00800           0
      2833 MEMB     127      CHL1     C16      CRL2    -0.180000       12.0110           0
      2834 MEMB     127      CHL1     H16A     HGA2     0.900000E-01   1.00800           0
      2835 MEMB     127      CHL1     H16B     HGA2     0.900000E-01   1.00800           0
      2836 MEMB     127      CHL1     C17      CRL1    -0.900000E-01   12.0110           0
      2837 MEMB     127      CHL1     H17      HGA1     0.900000E-01   1.00800           0
      2838 MEMB     127      CHL1     C13      CRL1     0.000000       12.0110           0
      2839 MEMB     127      CHL1     C18      CTL3    -0.270000       12.0110           0
      2840 MEMB     127      CHL1     H18A     HAL3     0.900000E-01   1.00800           0
      2841 MEMB     127      CHL1     H18B     HAL3     0.900000E-01   1.00800           0
      2842 MEMB     127      CHL1     H18C     HAL3     0.900000E-01   1.00800           0
      2843 MEMB     127      CHL1     C12      CRL2    -0.180000       12.0110           0
      2844 MEMB     127      CHL1     H12A     HGA2     0.900000E-01   1.00800           0
      2845 MEMB     127      CHL1     H12B     HGA2     0.900000E-01   1.00800           0
      2846 MEMB     127      CHL1     C11      CRL2    -0.180000       12.0110           0
      2847 MEMB     127      CHL1     H11A     HGA2     0.900000E-01   1.00800           0
      2848 MEMB     127      CHL1     H11B     HGA2     0.900000E-01   1.00800           0
      2849 MEMB     127      CHL1     C9       CRL1    -0.900000E-01   12.0110           0
      2850 MEMB     127      CHL1     H9       HGA1     0.900000E-01   1.00800           0
      2851 MEMB     127      CHL1     C10      CRL1     0.000000       12.0110           0
      2852 MEMB     127      CHL1     C19      CTL3    -0.270000       12.0110           0
      2853 MEMB     127      CHL1     H19A     HAL3     0.900000E-01   1.00800           0
      2854 MEMB     127      CHL1     H19B     HAL3     0.900000E-01   1.00800           0
      2855 MEMB     127      CHL1     H19C     HAL3     0.900000E-01   1.00800           0
      2856 MEMB     127      CHL1     C1       CRL2    -0.180000       12.0110           0
      2857 MEMB     127      CHL1     H1A      HGA2     0.900000E-01   1.00800           0
      2858 MEMB     127      CHL1     H1B      HGA2     0.900000E-01   1.00800           0
      2859 MEMB     127      CHL1     C2       CRL2    -0.180000       12.0110           0
      2860 MEMB     127      CHL1     H2A      HGA2     0.900000E-01   1.00800           0
      2861 MEMB     127      CHL1     H2B      HGA2     0.900000E-01   1.00800           0
      2862 MEMB     127      CHL1     C20      CTL1    -0.900000E-01   12.0110           0
      2863 MEMB     127      CHL1     H20      HAL1     0.900000E-01   1.00800           0
      2864 MEMB     127      CHL1     C21      CTL3    -0.270000       12.0110           0
      2865 MEMB     127      CHL1     H21A     HAL3     0.900000E-01   1.00800           0
      2866 MEMB     127      CHL1     H21B     HAL3     0.900000E-01   1.00800           0
      2867 MEMB     127      CHL1     H21C     HAL3     0.900000E-01   1.00800           0
      2868 MEMB     127      CHL1     C22      CTL2    -0.180000       12.0110           0
      2869 MEMB     127      CHL1     H22A     HAL2     0.900000E-01   1.00800           0
      2870 MEMB     127      CHL1     H22B     HAL2     0.900000E-01   1.00800           0
      2871 MEMB     127      CHL1     C23      CTL2    -0.180000       12.0110           0
      2872 MEMB     127      CHL1     H23A     HAL2     0.900000E-01   1.00800           0
      2873 MEMB     127      CHL1     H23B     HAL2     0.900000E-01   1.00800           0
      2874 MEMB     127      CHL1     C24      CTL2    -0.180000       12.0110           0
      2875 MEMB     127      CHL1     H24A     HAL2     0.900000E-01   1.00800           0
      2876 MEMB     127      CHL1     H24B     HAL2     0.900000E-01   1.00800           0
      2877 MEMB     127      CHL1     C25      CTL1    -0.900000E-01   12.0110           0
      2878 MEMB     127      CHL1     H25      HAL1     0.900000E-01   1.00800           0
      2879 MEMB     127      CHL1     C26      CTL3    -0.270000       12.0110           0
      2880 MEMB     127      CHL1     H26A     HAL3     0.900000E-01   1.00800           0
      2881 MEMB     127      CHL1     H26B     HAL3     0.900000E-01   1.00800           0
      2882 MEMB     127      CHL1     H26C     HAL3     0.900000E-01   1.00800           0
      2883 MEMB     127      CHL1     C27      CTL3    -0.270000       12.0110           0
      2884 MEMB     127      CHL1     H27A     HAL3     0.900000E-01   1.00800           0
      2885 MEMB     127      CHL1     H27B     HAL3     0.900000E-01   1.00800           0
      2886 MEMB     127      CHL1     H27C     HAL3     0.900000E-01   1.00800           0
      2887 MEMB     128      CHL1     C3       CRL1     0.140000       12.0110           0
      2888 MEMB     128      CHL1     H3       HGA1     0.900000E-01   1.00800           0
      2889 MEMB     128      CHL1     O3       OHL     -0.660000       15.9994           0
      2890 MEMB     128      CHL1     H3'      HOL      0.430000       1.00800           0
      2891 MEMB     128      CHL1     C4       CRL2    -0.180000       12.0110           0
      2892 MEMB     128      CHL1     H4A      HGA2     0.900000E-01   1.00800           0
      2893 MEMB     128      CHL1     H4B      HGA2     0.900000E-01   1.00800           0
      2894 MEMB     128      CHL1     C5       CEL1     0.000000       12.0110           0
      2895 MEMB     128      CHL1     C6       CEL1    -0.150000       12.0110           0
      2896 MEMB     128      CHL1     H6       HEL1     0.150000       1.00800           0
      2897 MEMB     128      CHL1     C7       CRL2    -0.180000       12.0110           0
      2898 MEMB     128      CHL1     H7A      HGA2     0.900000E-01   1.00800           0
      2899 MEMB     128      CHL1     H7B      HGA2     0.900000E-01   1.00800           0
      2900 MEMB     128      CHL1     C8       CRL1    -0.900000E-01   12.0110           0
      2901 MEMB     128      CHL1     H8       HGA1     0.900000E-01   1.00800           0
      2902 MEMB     128      CHL1     C14      CRL1    -0.900000E-01   12.0110           0
      2903 MEMB     128      CHL1     H14      HGA1     0.900000E-01   1.00800           0
      2904 MEMB     128      CHL1     C15      CRL2    -0.180000       12.0110           0
      2905 MEMB     128      CHL1     H15A     HGA2     0.900000E-01   1.00800           0
      2906 MEMB     128      CHL1     H15B     HGA2     0.900000E-01   1.00800           0
      2907 MEMB     128      CHL1     C16      CRL2    -0.180000       12.0110           0
      2908 MEMB     128      CHL1     H16A     HGA2     0.900000E-01   1.00800           0
      2909 MEMB     128      CHL1     H16B     HGA2     0.900000E-01   1.00800           0
      2910 MEMB     128      CHL1     C17      CRL1    -0.900000E-01   12.0110           0
      2911 MEMB     128      CHL1     H17      HGA1     0.900000E-01   1.00800           0
      2912 MEMB     128      CHL1     C13      CRL1     0.000000       12.0110           0
      2913 MEMB     128      CHL1     C18      CTL3    -0.270000       12.0110           0
      2914 MEMB     128      CHL1     H18A     HAL3     0.900000E-01   1.00800           0
      2915 MEMB     128      CHL1     H18B     HAL3     0.900000E-01   1.00800           0
      2916 MEMB     128      CHL1     H18C     HAL3     0.900000E-01   1.00800           0
      2917 MEMB     128      CHL1     C12      CRL2    -0.180000       12.0110           0
      2918 MEMB     128      CHL1     H12A     HGA2     0.900000E-01   1.00800           0
      2919 MEMB     128      CHL1     H12B     HGA2     0.900000E-01   1.00800           0
      2920 MEMB     128      CHL1     C11      CRL2    -0.180000       12.0110           0
      2921 MEMB     128      CHL1     H11A     HGA2     0.900000E-01   1.00800           0
      2922 MEMB     128      CHL1     H11B     HGA2     0.900000E-01   1.00800           0
      2923 MEMB     128      CHL1     C9       CRL1    -0.900000E-01   12.0110           0
      2924 MEMB     128      CHL1     H9       HGA1     0.900000E-01   1.00800           0
      2925 MEMB     128      CHL1     C10      CRL1     0.000000       12.0110           0
      2926 MEMB     128      CHL1     C19      CTL3    -0.270000       12.0110           0
      2927 MEMB     128      CHL1     H19A     HAL3     0.900000E-01   1.00800           0
      2928 MEMB     128      CHL1     H19B     HAL3     0.900000E-01   1.00800           0
      2929 MEMB     128      CHL1     H19C     HAL3     0.900000E-01   1.00800           0
      2930 MEMB     128      CHL1     C1       CRL2    -0.180000       12.0110           0
      2931 MEMB     128      CHL1     H1A      HGA2     0.900000E-01   1.00800           0
      2932 MEMB     128      CHL1     H1B      HGA2     0.900000E-01   1.00800           0
      2933 MEMB     128      CHL1     C2       CRL2    -0.180000       12.0110           0
      2934 MEMB     128      CHL1     H2A      HGA2     0.900000E-01   1.00800           0
      2935 MEMB     128      CHL1     H2B      HGA2     0.900000E-01   1.00800           0
      2936 MEMB     128      CHL1     C20      CTL1    -0.900000E-01   12.0110           0
      2937 MEMB     128      CHL1     H20      HAL1     0.900000E-01   1.00800           0
      2938 MEMB     128      CHL1     C21      CTL3    -0.270000       12.0110           0
      2939 MEMB     128      CHL1     H21A     HAL3     0.900000E-01   1.00800           0
      2940 MEMB     128      CHL1     H21B     HAL3     0.900000E-01   1.00800           0
      2941 MEMB     128      CHL1     H21C     HAL3     0.900000E-01   1.00800           0
      2942 MEMB     128      CHL1     C22      CTL2    -0.180000       12.0110           0
      2943 MEMB     128      CHL1     H22A     HAL2     0.900000E-01   1.00800           0
      2944 MEMB     128      CHL1     H22B     HAL2     0.900000E-01   1.00800           0
      2945 MEMB     128      CHL1     C23      CTL2    -0.180000       12.0110           0
      2946 MEMB     128      CHL1     H23A     HAL2     0.900000E-01   1.00800           0
      2947 MEMB     128      CHL1     H23B     HAL2     0.900000E-01   1.00800           0
      2948 MEMB     128      CHL1     C24      CTL2    -0.180000       12.0110           0
      2949 MEMB     128      CHL1     H24A     HAL2     0.900000E-01   1.00800           0
      2950 MEMB     128      CHL1     H24B     HAL2     0.900000E-01   1.00800           0
      2951 MEMB     128      CHL1     C25      CTL1    -0.900000E-01   12.0110           0
      2952 MEMB     128      CHL1     H25      HAL1     0.900000E-01   1.00800           0
      2953 MEMB     128      CHL1     C26      CTL3    -0.270000       12.0110           0
      2954 MEMB     128      CHL1     H26A     HAL3     0.900000E-01   1.00800           0
      2955 MEMB     128      CHL1     H26B     HAL3     0.900000E-01   1.00800           0
      2956 MEMB     128      CHL1     H26C     HAL3     0.900000E-01   1.00800           0
      2957 MEMB     128      CHL1     C27      CTL3    -0.270000       12.0110           0
      2958 MEMB     128      CHL1     H27A     HAL3     0.900000E-01   1.00800           0
      2959 MEMB     128      CHL1     H27B     HAL3     0.900000E-01   1.00800           0
      2960 MEMB     128      CHL1     H27C     HAL3     0.900000E-01   1.00800           0
      2961 MEMB     130      CHL1     C3       CRL1     0.140000       12.0110           0
      2962 MEMB     130      CHL1     H3       HGA1     0.900000E-01   1.00800           0
      2963 MEMB     130      CHL1     O3       OHL     -0.660000       15.9994           0
      2964 MEMB     130      CHL1     H3'      HOL      0.430000       1.00800           0
      2965 MEMB     130      CHL1     C4       CRL2    -0.180000       12.0110           0
      2966 MEMB     130      CHL1     H4A      HGA2     0.900000E-01   1.00800           0
      2967 MEMB     130      CHL1     H4B      HGA2     0.900000E-01   1.00800           0
      2968 MEMB     130      CHL1     C5       CEL1     0.000000       12.0110           0
      2969 MEMB     130      CHL1     C6       CEL1    -0.150000       12.0110           0
      2970 MEMB     130      CHL1     H6       HEL1     0.150000       1.00800           0
      2971 MEMB     130      CHL1     C7       CRL2    -0.180000       12.0110           0
      2972 MEMB     130      CHL1     H7A      HGA2     0.900000E-01   1.00800           0
      2973 MEMB     130      CHL1     H7B      HGA2     0.900000E-01   1.00800           0
      2974 MEMB     130      CHL1     C8       CRL1    -0.900000E-01   12.0110           0
      2975 MEMB     130      CHL1     H8       HGA1     0.900000E-01   1.00800           0
      2976 MEMB     130      CHL1     C14      CRL1    -0.900000E-01   12.0110           0
      2977 MEMB     130      CHL1     H14      HGA1     0.900000E-01   1.00800           0
      2978 MEMB     130      CHL1     C15      CRL2    -0.180000       12.0110           0
      2979 MEMB     130      CHL1     H15A     HGA2     0.900000E-01   1.00800           0
      2980 MEMB     130      CHL1     H15B     HGA2     0.900000E-01   1.00800           0
      2981 MEMB     130      CHL1     C16      CRL2    -0.180000       12.0110           0
      2982 MEMB     130      CHL1     H16A     HGA2     0.900000E-01   1.00800           0
      2983 MEMB     130      CHL1     H16B     HGA2     0.900000E-01   1.00800           0
      2984 MEMB     130      CHL1     C17      CRL1    -0.900000E-01   12.0110           0
      2985 MEMB     130      CHL1     H17      HGA1     0.900000E-01   1.00800           0
      2986 MEMB     130      CHL1     C13      CRL1     0.000000       12.0110           0
      2987 MEMB     130      CHL1     C18      CTL3    -0.270000       12.0110           0
      2988 MEMB     130      CHL1     H18A     HAL3     0.900000E-01   1.00800           0
      2989 MEMB     130      CHL1     H18B     HAL3     0.900000E-01   1.00800           0
      2990 MEMB     130      CHL1     H18C     HAL3     0.900000E-01   1.00800           0
      2991 MEMB     130      CHL1     C12      CRL2    -0.180000       12.0110           0
      2992 MEMB     130      CHL1     H12A     HGA2     0.900000E-01   1.00800           0
      2993 MEMB     130      CHL1     H12B     HGA2     0.900000E-01   1.00800           0
      2994 MEMB     130      CHL1     C11      CRL2    -0.180000       12.0110           0
      2995 MEMB     130      CHL1     H11A     HGA2     0.900000E-01   1.00800           0
      2996 MEMB     130      CHL1     H11B     HGA2     0.900000E-01   1.00800           0
      2997 MEMB     130      CHL1     C9       CRL1    -0.900000E-01   12.0110           0
      2998 MEMB     130      CHL1     H9       HGA1     0.900000E-01   1.00800           0
      2999 MEMB     130      CHL1     C10      CRL1     0.000000       12.0110           0
      3000 MEMB     130      CHL1     C19      CTL3    -0.270000       12.0110           0
      3001 MEMB     130      CHL1     H19A     HAL3     0.900000E-01   1.00800           0
      3002 MEMB     130      CHL1     H19B     HAL3     0.900000E-01   1.00800           0
      3003 MEMB     130      CHL1     H19C     HAL3     0.900000E-01   1.00800           0
      3004 MEMB     130      CHL1     C1       CRL2    -0.180000       12.0110           0
      3005 MEMB     130      CHL1     H1A      HGA2     0.900000E-01   1.00800           0
      3006 MEMB     130      CHL1     H1B      HGA2     0.900000E-01   1.00800           0
      3007 MEMB     130      CHL1     C2       CRL2    -0.180000       12.0110           0
      3008 MEMB     130      CHL1     H2A      HGA2     0.900000E-01   1.00800           0
      3009 MEMB     130      CHL1     H2B      HGA2     0.900000E-01   1.00800           0
      3010 MEMB     130      CHL1     C20      CTL1    -0.900000E-01   12.0110           0
      3011 MEMB     130      CHL1     H20      HAL1     0.900000E-01   1.00800           0
      3012 MEMB     130      CHL1     C21      CTL3    -0.270000       12.0110           0
      3013 MEMB     130      CHL1     H21A     HAL3     0.900000E-01   1.00800           0
      3014 MEMB     130      CHL1     H21B     HAL3     0.900000E-01   1.00800           0
      3015 MEMB     130      CHL1     H21C     HAL3     0.900000E-01   1.00800           0
      3016 MEMB     130      CHL1     C22      CTL2    -0.180000       12.0110           0
      3017 MEMB     130      CHL1     H22A     HAL2     0.900000E-01   1.00800           0
      3018 MEMB     130      CHL1     H22B     HAL2     0.900000E-01   1.00800           0
      3019 MEMB     130      CHL1     C23      CTL2    -0.180000       12.0110           0
      3020 MEMB     130      CHL1     H23A     HAL2     0.900000E-01   1.00800           0
      3021 MEMB     130      CHL1     H23B     HAL2     0.900000E-01   1.00800           0
      3022 MEMB     130      CHL1     C24      CTL2    -0.180000       12.0110           0
      3023 MEMB     130      CHL1     H24A     HAL2     0.900000E-01   1.00800           0
      3024 MEMB     130      CHL1     H24B     HAL2     0.900000E-01   1.00800           0
      3025 MEMB     130      CHL1     C25      CTL1    -0.900000E-01   12.0110           0
      3026 MEMB     130      CHL1     H25      HAL1     0.900000E-01   1.00800           0
      3027 MEMB     130      CHL1     C26      CTL3    -0.270000       12.0110           0
      3028 MEMB     130      CHL1     H26A     HAL3     0.900000E-01   1.00800           0
      3029 MEMB     130      CHL1     H26B     HAL3     0.900000E-01   1.00800           0
      3030 MEMB     130      CHL1     H26C     HAL3     0.900000E-01   1.00800           0
      3031 MEMB     130      CHL1     C27      CTL3    -0.270000       12.0110           0
      3032 MEMB     130      CHL1     H27A     HAL3     0.900000E-01   1.00800           0
      3033 MEMB     130      CHL1     H27B     HAL3     0.900000E-01   1.00800           0
      3034 MEMB     130      CHL1     H27C     HAL3     0.900000E-01   1.00800           0
      3035 MEMB     138      CHL1     C3       CRL1     0.140000       12.0110           0
      3036 MEMB     138      CHL1     H3       HGA1     0.900000E-01   1.00800           0
      3037 MEMB     138      CHL1     O3       OHL     -0.660000       15.9994           0
      3038 MEMB     138      CHL1     H3'      HOL      0.430000       1.00800           0
      3039 MEMB     138      CHL1     C4       CRL2    -0.180000       12.0110           0
      3040 MEMB     138      CHL1     H4A      HGA2     0.900000E-01   1.00800           0
      3041 MEMB     138      CHL1     H4B      HGA2     0.900000E-01   1.00800           0
      3042 MEMB     138      CHL1     C5       CEL1     0.000000       12.0110           0
      3043 MEMB     138      CHL1     C6       CEL1    -0.150000       12.0110           0
      3044 MEMB     138      CHL1     H6       HEL1     0.150000       1.00800           0
      3045 MEMB     138      CHL1     C7       CRL2    -0.180000       12.0110           0
      3046 MEMB     138      CHL1     H7A      HGA2     0.900000E-01   1.00800           0
      3047 MEMB     138      CHL1     H7B      HGA2     0.900000E-01   1.00800           0
      3048 MEMB     138      CHL1     C8       CRL1    -0.900000E-01   12.0110           0
      3049 MEMB     138      CHL1     H8       HGA1     0.900000E-01   1.00800           0
      3050 MEMB     138      CHL1     C14      CRL1    -0.900000E-01   12.0110           0
      3051 MEMB     138      CHL1     H14      HGA1     0.900000E-01   1.00800           0
      3052 MEMB     138      CHL1     C15      CRL2    -0.180000       12.0110           0
      3053 MEMB     138      CHL1     H15A     HGA2     0.900000E-01   1.00800           0
      3054 MEMB     138      CHL1     H15B     HGA2     0.900000E-01   1.00800           0
      3055 MEMB     138      CHL1     C16      CRL2    -0.180000       12.0110           0
      3056 MEMB     138      CHL1     H16A     HGA2     0.900000E-01   1.00800           0
      3057 MEMB     138      CHL1     H16B     HGA2     0.900000E-01   1.00800           0
      3058 MEMB     138      CHL1     C17      CRL1    -0.900000E-01   12.0110           0
      3059 MEMB     138      CHL1     H17      HGA1     0.900000E-01   1.00800           0
      3060 MEMB     138      CHL1     C13      CRL1     0.000000       12.0110           0
      3061 MEMB     138      CHL1     C18      CTL3    -0.270000       12.0110           0
      3062 MEMB     138      CHL1     H18A     HAL3     0.900000E-01   1.00800           0
      3063 MEMB     138      CHL1     H18B     HAL3     0.900000E-01   1.00800           0
      3064 MEMB     138      CHL1     H18C     HAL3     0.900000E-01   1.00800           0
      3065 MEMB     138      CHL1     C12      CRL2    -0.180000       12.0110           0
      3066 MEMB     138      CHL1     H12A     HGA2     0.900000E-01   1.00800           0
      3067 MEMB     138      CHL1     H12B     HGA2     0.900000E-01   1.00800           0
      3068 MEMB     138      CHL1     C11      CRL2    -0.180000       12.0110           0
      3069 MEMB     138      CHL1     H11A     HGA2     0.900000E-01   1.00800           0
      3070 MEMB     138      CHL1     H11B     HGA2     0.900000E-01   1.00800           0
      3071 MEMB     138      CHL1     C9       CRL1    -0.900000E-01   12.0110           0
      3072 MEMB     138      CHL1     H9       HGA1     0.900000E-01   1.00800           0
      3073 MEMB     138      CHL1     C10      CRL1     0.000000       12.0110           0
      3074 MEMB     138      CHL1     C19      CTL3    -0.270000       12.0110           0
      3075 MEMB     138      CHL1     H19A     HAL3     0.900000E-01   1.00800           0
      3076 MEMB     138      CHL1     H19B     HAL3     0.900000E-01   1.00800           0
      3077 MEMB     138      CHL1     H19C     HAL3     0.900000E-01   1.00800           0
      3078 MEMB     138      CHL1     C1       CRL2    -0.180000       12.0110           0
      3079 MEMB     138      CHL1     H1A      HGA2     0.900000E-01   1.00800           0
      3080 MEMB     138      CHL1     H1B      HGA2     0.900000E-01   1.00800           0
      3081 MEMB     138      CHL1     C2       CRL2    -0.180000       12.0110           0
      3082 MEMB     138      CHL1     H2A      HGA2     0.900000E-01   1.00800           0
      3083 MEMB     138      CHL1     H2B      HGA2     0.900000E-01   1.00800           0
      3084 MEMB     138      CHL1     C20      CTL1    -0.900000E-01   12.0110           0
      3085 MEMB     138      CHL1     H20      HAL1     0.900000E-01   1.00800           0
      3086 MEMB     138      CHL1     C21      CTL3    -0.270000       12.0110           0
      3087 MEMB     138      CHL1     H21A     HAL3     0.900000E-01   1.00800           0
      3088 MEMB     138      CHL1     H21B     HAL3     0.900000E-01   1.00800           0
      3089 MEMB     138      CHL1     H21C     HAL3     0.900000E-01   1.00800           0
      3090 MEMB     138      CHL1     C22      CTL2    -0.180000       12.0110           0
      3091 MEMB     138      CHL1     H22A     HAL2     0.900000E-01   1.00800           0
      3092 MEMB     138      CHL1     H22B     HAL2     0.900000E-01   1.00800           0
      3093 MEMB     138      CHL1     C23      CTL2    -0.180000       12.0110           0
      3094 MEMB     138      CHL1     H23A     HAL2     0.900000E-01   1.00800           0
      3095 MEMB     138      CHL1     H23B     HAL2     0.900000E-01   1.00800           0
      3096 MEMB     138      CHL1     C24      CTL2    -0.180000       12.0110           0
      3097 MEMB     138      CHL1     H24A     HAL2     0.900000E-01   1.00800           0
      3098 MEMB     138      CHL1     H24B     HAL2     0.900000E-01   1.00800           0
      3099 MEMB     138      CHL1     C25      CTL1    -0.900000E-01   12.0110           0
      3100 MEMB     138      CHL1     H25      HAL1     0.900000E-01   1.00800           0
      3101 MEMB     138      CHL1     C26      CTL3    -0.270000       12.0110           0
      3102 MEMB     138      CHL1     H26A     HAL3     0.900000E-01   1.00800           0
      3103 MEMB     138      CHL1     H26B     HAL3     0.900000E-01   1.00800           0
      3104 MEMB     138      CHL1     H26C     HAL3     0.900000E-01   1.00800           0
      3105 MEMB     138      CHL1     C27      CTL3    -0.270000       12.0110           0
      3106 MEMB     138      CHL1     H27A     HAL3     0.900000E-01   1.00800           0
      3107 MEMB     138      CHL1     H27B     HAL3     0.900000E-01   1.00800           0
      3108 MEMB     138      CHL1     H27C     HAL3     0.900000E-01   1.00800           0
      3109 MEMB     140      CHL1     C3       CRL1     0.140000       12.0110           0
      3110 MEMB     140      CHL1     H3       HGA1     0.900000E-01   1.00800           0
      3111 MEMB     140      CHL1     O3       OHL     -0.660000       15.9994           0
      3112 MEMB     140      CHL1     H3'      HOL      0.430000       1.00800           0
      3113 MEMB     140      CHL1     C4       CRL2    -0.180000       12.0110           0
      3114 MEMB     140      CHL1     H4A      HGA2     0.900000E-01   1.00800           0
      3115 MEMB     140      CHL1     H4B      HGA2     0.900000E-01   1.00800           0
      3116 MEMB     140      CHL1     C5       CEL1     0.000000       12.0110           0
      3117 MEMB     140      CHL1     C6       CEL1    -0.150000       12.0110           0
      3118 MEMB     140      CHL1     H6       HEL1     0.150000       1.00800           0
      3119 MEMB     140      CHL1     C7       CRL2    -0.180000       12.0110           0
      3120 MEMB     140      CHL1     H7A      HGA2     0.900000E-01   1.00800           0
      3121 MEMB     140      CHL1     H7B      HGA2     0.900000E-01   1.00800           0
      3122 MEMB     140      CHL1     C8       CRL1    -0.900000E-01   12.0110           0
      3123 MEMB     140      CHL1     H8       HGA1     0.900000E-01   1.00800           0
      3124 MEMB     140      CHL1     C14      CRL1    -0.900000E-01   12.0110           0
      3125 MEMB     140      CHL1     H14      HGA1     0.900000E-01   1.00800           0
      3126 MEMB     140      CHL1     C15      CRL2    -0.180000       12.0110           0
      3127 MEMB     140      CHL1     H15A     HGA2     0.900000E-01   1.00800           0
      3128 MEMB     140      CHL1     H15B     HGA2     0.900000E-01   1.00800           0
      3129 MEMB     140      CHL1     C16      CRL2    -0.180000       12.0110           0
      3130 MEMB     140      CHL1     H16A     HGA2     0.900000E-01   1.00800           0
      3131 MEMB     140      CHL1     H16B     HGA2     0.900000E-01   1.00800           0
      3132 MEMB     140      CHL1     C17      CRL1    -0.900000E-01   12.0110           0
      3133 MEMB     140      CHL1     H17      HGA1     0.900000E-01   1.00800           0
      3134 MEMB     140      CHL1     C13      CRL1     0.000000       12.0110           0
      3135 MEMB     140      CHL1     C18      CTL3    -0.270000       12.0110           0
      3136 MEMB     140      CHL1     H18A     HAL3     0.900000E-01   1.00800           0
      3137 MEMB     140      CHL1     H18B     HAL3     0.900000E-01   1.00800           0
      3138 MEMB     140      CHL1     H18C     HAL3     0.900000E-01   1.00800           0
      3139 MEMB     140      CHL1     C12      CRL2    -0.180000       12.0110           0
      3140 MEMB     140      CHL1     H12A     HGA2     0.900000E-01   1.00800           0
      3141 MEMB     140      CHL1     H12B     HGA2     0.900000E-01   1.00800           0
      3142 MEMB     140      CHL1     C11      CRL2    -0.180000       12.0110           0
      3143 MEMB     140      CHL1     H11A     HGA2     0.900000E-01   1.00800           0
      3144 MEMB     140      CHL1     H11B     HGA2     0.900000E-01   1.00800           0
      3145 MEMB     140      CHL1     C9       CRL1    -0.900000E-01   12.0110           0
      3146 MEMB     140      CHL1     H9       HGA1     0.900000E-01   1.00800           0
      3147 MEMB     140      CHL1     C10      CRL1     0.000000       12.0110           0
      3148 MEMB     140      CHL1     C19      CTL3    -0.270000       12.0110           0
      3149 MEMB     140      CHL1     H19A     HAL3     0.900000E-01   1.00800           0
      3150 MEMB     140      CHL1     H19B     HAL3     0.900000E-01   1.00800           0
      3151 MEMB     140      CHL1     H19C     HAL3     0.900000E-01   1.00800           0
      3152 MEMB     140      CHL1     C1       CRL2    -0.180000       12.0110           0
      3153 MEMB     140      CHL1     H1A      HGA2     0.900000E-01   1.00800           0
      3154 MEMB     140      CHL1     H1B      HGA2     0.900000E-01   1.00800           0
      3155 MEMB     140      CHL1     C2       CRL2    -0.180000       12.0110           0
      3156 MEMB     140      CHL1     H2A      HGA2     0.900000E-01   1.00800           0
      3157 MEMB     140      CHL1     H2B      HGA2     0.900000E-01   1.00800           0
      3158 MEMB     140      CHL1     C20      CTL1    -0.900000E-01   12.0110           0
      3159 MEMB     140      CHL1     H20      HAL1     0.900000E-01   1.00800           0
      3160 MEMB     140      CHL1     C21      CTL3    -0.270000       12.0110           0
      3161 MEMB     140      CHL1     H21A     HAL3     0.900000E-01   1.00800           0
      3162 MEMB     140      CHL1     H21B     HAL3     0.900000E-01   1.00800           0
      3163 MEMB     140      CHL1     H21C     HAL3     0.900000E-01   1.00800           0
      3164 MEMB     140      CHL1     C22      CTL2    -0.180000       12.0110           0
      3165 MEMB     140      CHL1     H22A     HAL2     0.900000E-01   1.00800           0
      3166 MEMB     140      CHL1     H22B     HAL2     0.900000E-01   1.00800           0
      3167 MEMB     140      CHL1     C23      CTL2    -0.180000       12.0110           0
      3168 MEMB     140      CHL1     H23A     HAL2     0.900000E-01   1.00800           0
      3169 MEMB     140      CHL1     H23B     HAL2     0.900000E-01   1.00800           0
      3170 MEMB     140      CHL1     C24      CTL2    -0.180000       12.0110           0
      3171 MEMB     140      CHL1     H24A     HAL2     0.900000E-01   1.00800           0
      3172 MEMB     140      CHL1     H24B     HAL2     0.900000E-01   1.00800           0
      3173 MEMB     140      CHL1     C25      CTL1    -0.900000E-01   12.0110           0
      3174 MEMB     140      CHL1     H25      HAL1     0.900000E-01   1.00800           0
      3175 MEMB     140      CHL1     C26      CTL3    -0.270000       12.0110           0
      3176 MEMB     140      CHL1     H26A     HAL3     0.900000E-01   1.00800           0
      3177 MEMB     140      CHL1     H26B     HAL3     0.900000E-01   1.00800           0
      3178 MEMB     140      CHL1     H26C     HAL3     0.900000E-01   1.00800           0
      3179 MEMB     140      CHL1     C27      CTL3    -0.270000       12.0110           0
      3180 MEMB     140      CHL1     H27A     HAL3     0.900000E-01   1.00800           0
      3181 MEMB     140      CHL1     H27B     HAL3     0.900000E-01   1.00800           0
      3182 MEMB     140      CHL1     H27C     HAL3     0.900000E-01   1.00800           0
      3183 MEMB     144      CHL1     C3       CRL1     0.140000       12.0110           0
      3184 MEMB     144      CHL1     H3       HGA1     0.900000E-01   1.00800           0
      3185 MEMB     144      CHL1     O3       OHL     -0.660000       15.9994           0
      3186 MEMB     144      CHL1     H3'      HOL      0.430000       1.00800           0
      3187 MEMB     144      CHL1     C4       CRL2    -0.180000       12.0110           0
      3188 MEMB     144      CHL1     H4A      HGA2     0.900000E-01   1.00800           0
      3189 MEMB     144      CHL1     H4B      HGA2     0.900000E-01   1.00800           0
      3190 MEMB     144      CHL1     C5       CEL1     0.000000       12.0110           0
      3191 MEMB     144      CHL1     C6       CEL1    -0.150000       12.0110           0
      3192 MEMB     144      CHL1     H6       HEL1     0.150000       1.00800           0
      3193 MEMB     144      CHL1     C7       CRL2    -0.180000       12.0110           0
      3194 MEMB     144      CHL1     H7A      HGA2     0.900000E-01   1.00800           0
      3195 MEMB     144      CHL1     H7B      HGA2     0.900000E-01   1.00800           0
      3196 MEMB     144      CHL1     C8       CRL1    -0.900000E-01   12.0110           0
      3197 MEMB     144      CHL1     H8       HGA1     0.900000E-01   1.00800           0
      3198 MEMB     144      CHL1     C14      CRL1    -0.900000E-01   12.0110           0
      3199 MEMB     144      CHL1     H14      HGA1     0.900000E-01   1.00800           0
      3200 MEMB     144      CHL1     C15      CRL2    -0.180000       12.0110           0
      3201 MEMB     144      CHL1     H15A     HGA2     0.900000E-01   1.00800           0
      3202 MEMB     144      CHL1     H15B     HGA2     0.900000E-01   1.00800           0
      3203 MEMB     144      CHL1     C16      CRL2    -0.180000       12.0110           0
      3204 MEMB     144      CHL1     H16A     HGA2     0.900000E-01   1.00800           0
      3205 MEMB     144      CHL1     H16B     HGA2     0.900000E-01   1.00800           0
      3206 MEMB     144      CHL1     C17      CRL1    -0.900000E-01   12.0110           0
      3207 MEMB     144      CHL1     H17      HGA1     0.900000E-01   1.00800           0
      3208 MEMB     144      CHL1     C13      CRL1     0.000000       12.0110           0
      3209 MEMB     144      CHL1     C18      CTL3    -0.270000       12.0110           0
      3210 MEMB     144      CHL1     H18A     HAL3     0.900000E-01   1.00800           0
      3211 MEMB     144      CHL1     H18B     HAL3     0.900000E-01   1.00800           0
      3212 MEMB     144      CHL1     H18C     HAL3     0.900000E-01   1.00800           0
      3213 MEMB     144      CHL1     C12      CRL2    -0.180000       12.0110           0
      3214 MEMB     144      CHL1     H12A     HGA2     0.900000E-01   1.00800           0
      3215 MEMB     144      CHL1     H12B     HGA2     0.900000E-01   1.00800           0
      3216 MEMB     144      CHL1     C11      CRL2    -0.180000       12.0110           0
      3217 MEMB     144      CHL1     H11A     HGA2     0.900000E-01   1.00800           0
      3218 MEMB     144      CHL1     H11B     HGA2     0.900000E-01   1.00800           0
      3219 MEMB     144      CHL1     C9       CRL1    -0.900000E-01   12.0110           0
      3220 MEMB     144      CHL1     H9       HGA1     0.900000E-01   1.00800           0
      3221 MEMB     144      CHL1     C10      CRL1     0.000000       12.0110           0
      3222 MEMB     144      CHL1     C19      CTL3    -0.270000       12.0110           0
      3223 MEMB     144      CHL1     H19A     HAL3     0.900000E-01   1.00800           0
      3224 MEMB     144      CHL1     H19B     HAL3     0.900000E-01   1.00800           0
      3225 MEMB     144      CHL1     H19C     HAL3     0.900000E-01   1.00800           0
      3226 MEMB     144      CHL1     C1       CRL2    -0.180000       12.0110           0
      3227 MEMB     144      CHL1     H1A      HGA2     0.900000E-01   1.00800           0
      3228 MEMB     144      CHL1     H1B      HGA2     0.900000E-01   1.00800           0
      3229 MEMB     144      CHL1     C2       CRL2    -0.180000       12.0110           0
      3230 MEMB     144      CHL1     H2A      HGA2     0.900000E-01   1.00800           0
      3231 MEMB     144      CHL1     H2B      HGA2     0.900000E-01   1.00800           0
      3232 MEMB     144      CHL1     C20      CTL1    -0.900000E-01   12.0110           0
      3233 MEMB     144      CHL1     H20      HAL1     0.900000E-01   1.00800           0
      3234 MEMB     144      CHL1     C21      CTL3    -0.270000       12.0110           0
      3235 MEMB     144      CHL1     H21A     HAL3     0.900000E-01   1.00800           0
      3236 MEMB     144      CHL1     H21B     HAL3     0.900000E-01   1.00800           0
      3237 MEMB     144      CHL1     H21C     HAL3     0.900000E-01   1.00800           0
      3238 MEMB     144      CHL1     C22      CTL2    -0.180000       12.0110           0
      3239 MEMB     144      CHL1     H22A     HAL2     0.900000E-01   1.00800           0
      3240 MEMB     144      CHL1     H22B     HAL2     0.900000E-01   1.00800           0
      3241 MEMB     144      CHL1     C23      CTL2    -0.180000       12.0110           0
      3242 MEMB     144      CHL1     H23A     HAL2     0.900000E-01   1.00800           0
      3243 MEMB     144      CHL1     H23B     HAL2     0.900000E-01   1.00800           0
      3244 MEMB     144      CHL1     C24      CTL2    -0.180000       12.0110           0
      3245 MEMB     144      CHL1     H24A     HAL2     0.900000E-01   1.00800           0
      3246 MEMB     144      CHL1     H24B     HAL2     0.900000E-01   1.00800           0
      3247 MEMB     144      CHL1     C25      CTL1    -0.900000E-01   12.0110           0
      3248 MEMB     144      CHL1     H25      HAL1     0.900000E-01   1.00800           0
      3249 MEMB     144      CHL1     C26      CTL3    -0.270000       12.0110           0
      3250 MEMB     144      CHL1     H26A     HAL3     0.900000E-01   1.00800           0
      3251 MEMB     144      CHL1     H26B     HAL3     0.900000E-01   1.00800           0
      3252 MEMB     144      CHL1     H26C     HAL3     0.900000E-01   1.00800           0
      3253 MEMB     144      CHL1     C27      CTL3    -0.270000       12.0110           0
      3254 MEMB     144      CHL1     H27A     HAL3     0.900000E-01   1.00800           0
      3255 MEMB     144      CHL1     H27B     HAL3     0.900000E-01   1.00800           0
      3256 MEMB     144      CHL1     H27C     HAL3     0.900000E-01   1.00800           0
      3257 MEMB     147      CHL1     C3       CRL1     0.140000       12.0110           0
      3258 MEMB     147      CHL1     H3       HGA1     0.900000E-01   1.00800           0
      3259 MEMB     147      CHL1     O3       OHL     -0.660000       15.9994           0
      3260 MEMB     147      CHL1     H3'      HOL      0.430000       1.00800           0
      3261 MEMB     147      CHL1     C4       CRL2    -0.180000       12.0110           0
      3262 MEMB     147      CHL1     H4A      HGA2     0.900000E-01   1.00800           0
      3263 MEMB     147      CHL1     H4B      HGA2     0.900000E-01   1.00800           0
      3264 MEMB     147      CHL1     C5       CEL1     0.000000       12.0110           0
      3265 MEMB     147      CHL1     C6       CEL1    -0.150000       12.0110           0
      3266 MEMB     147      CHL1     H6       HEL1     0.150000       1.00800           0
      3267 MEMB     147      CHL1     C7       CRL2    -0.180000       12.0110           0
      3268 MEMB     147      CHL1     H7A      HGA2     0.900000E-01   1.00800           0
      3269 MEMB     147      CHL1     H7B      HGA2     0.900000E-01   1.00800           0
      3270 MEMB     147      CHL1     C8       CRL1    -0.900000E-01   12.0110           0
      3271 MEMB     147      CHL1     H8       HGA1     0.900000E-01   1.00800           0
      3272 MEMB     147      CHL1     C14      CRL1    -0.900000E-01   12.0110           0
      3273 MEMB     147      CHL1     H14      HGA1     0.900000E-01   1.00800           0
      3274 MEMB     147      CHL1     C15      CRL2    -0.180000       12.0110           0
      3275 MEMB     147      CHL1     H15A     HGA2     0.900000E-01   1.00800           0
      3276 MEMB     147      CHL1     H15B     HGA2     0.900000E-01   1.00800           0
      3277 MEMB     147      CHL1     C16      CRL2    -0.180000       12.0110           0
      3278 MEMB     147      CHL1     H16A     HGA2     0.900000E-01   1.00800           0
      3279 MEMB     147      CHL1     H16B     HGA2     0.900000E-01   1.00800           0
      3280 MEMB     147      CHL1     C17      CRL1    -0.900000E-01   12.0110           0
      3281 MEMB     147      CHL1     H17      HGA1     0.900000E-01   1.00800           0
      3282 MEMB     147      CHL1     C13      CRL1     0.000000       12.0110           0
      3283 MEMB     147      CHL1     C18      CTL3    -0.270000       12.0110           0
      3284 MEMB     147      CHL1     H18A     HAL3     0.900000E-01   1.00800           0
      3285 MEMB     147      CHL1     H18B     HAL3     0.900000E-01   1.00800           0
      3286 MEMB     147      CHL1     H18C     HAL3     0.900000E-01   1.00800           0
      3287 MEMB     147      CHL1     C12      CRL2    -0.180000       12.0110           0
      3288 MEMB     147      CHL1     H12A     HGA2     0.900000E-01   1.00800           0
      3289 MEMB     147      CHL1     H12B     HGA2     0.900000E-01   1.00800           0
      3290 MEMB     147      CHL1     C11      CRL2    -0.180000       12.0110           0
      3291 MEMB     147      CHL1     H11A     HGA2     0.900000E-01   1.00800           0
      3292 MEMB     147      CHL1     H11B     HGA2     0.900000E-01   1.00800           0
      3293 MEMB     147      CHL1     C9       CRL1    -0.900000E-01   12.0110           0
      3294 MEMB     147      CHL1     H9       HGA1     0.900000E-01   1.00800           0
      3295 MEMB     147      CHL1     C10      CRL1     0.000000       12.0110           0
      3296 MEMB     147      CHL1     C19      CTL3    -0.270000       12.0110           0
      3297 MEMB     147      CHL1     H19A     HAL3     0.900000E-01   1.00800           0
      3298 MEMB     147      CHL1     H19B     HAL3     0.900000E-01   1.00800           0
      3299 MEMB     147      CHL1     H19C     HAL3     0.900000E-01   1.00800           0
      3300 MEMB     147      CHL1     C1       CRL2    -0.180000       12.0110           0
      3301 MEMB     147      CHL1     H1A      HGA2     0.900000E-01   1.00800           0
      3302 MEMB     147      CHL1     H1B      HGA2     0.900000E-01   1.00800           0
      3303 MEMB     147      CHL1     C2       CRL2    -0.180000       12.0110           0
      3304 MEMB     147      CHL1     H2A      HGA2     0.900000E-01   1.00800           0
      3305 MEMB     147      CHL1     H2B      HGA2     0.900000E-01   1.00800           0
      3306 MEMB     147      CHL1     C20      CTL1    -0.900000E-01   12.0110           0
      3307 MEMB     147      CHL1     H20      HAL1     0.900000E-01   1.00800           0
      3308 MEMB     147      CHL1     C21      CTL3    -0.270000       12.0110           0
      3309 MEMB     147      CHL1     H21A     HAL3     0.900000E-01   1.00800           0
      3310 MEMB     147      CHL1     H21B     HAL3     0.900000E-01   1.00800           0
      3311 MEMB     147      CHL1     H21C     HAL3     0.900000E-01   1.00800           0
      3312 MEMB     147      CHL1     C22      CTL2    -0.180000       12.0110           0
      3313 MEMB     147      CHL1     H22A     HAL2     0.900000E-01   1.00800           0
      3314 MEMB     147      CHL1     H22B     HAL2     0.900000E-01   1.00800           0
      3315 MEMB     147      CHL1     C23      CTL2    -0.180000       12.0110           0
      3316 MEMB     147      CHL1     H23A     HAL2     0.900000E-01   1.00800           0
      3317 MEMB     147      CHL1     H23B     HAL2     0.900000E-01   1.00800           0
      3318 MEMB     147      CHL1     C24      CTL2    -0.180000       12.0110           0
      3319 MEMB     147      CHL1     H24A     HAL2     0.900000E-01   1.00800           0
      3320 MEMB     147      CHL1     H24B     HAL2     0.900000E-01   1.00800           0
      3321 MEMB     147      CHL1     C25      CTL1    -0.900000E-01   12.0110           0
      3322 MEMB     147      CHL1     H25      HAL1     0.900000E-01   1.00800           0
      3323 MEMB     147      CHL1     C26      CTL3    -0.270000       12.0110           0
      3324 MEMB     147      CHL1     H26A     HAL3     0.900000E-01   1.00800           0
      3325 MEMB     147      CHL1     H26B     HAL3     0.900000E-01   1.00800           0
      3326 MEMB     147      CHL1     H26C     HAL3     0.900000E-01   1.00800           0
      3327 MEMB     147      CHL1     C27      CTL3    -0.270000       12.0110           0
      3328 MEMB     147      CHL1     H27A     HAL3     0.900000E-01   1.00800           0
      3329 MEMB     147      CHL1     H27B     HAL3     0.900000E-01   1.00800           0
      3330 MEMB     147      CHL1     H27C     HAL3     0.900000E-01   1.00800           0
      3331 MEMB     151      CHL1     C3       CRL1     0.140000       12.0110           0
      3332 MEMB     151      CHL1     H3       HGA1     0.900000E-01   1.00800           0
      3333 MEMB     151      CHL1     O3       OHL     -0.660000       15.9994           0
      3334 MEMB     151      CHL1     H3'      HOL      0.430000       1.00800           0
      3335 MEMB     151      CHL1     C4       CRL2    -0.180000       12.0110           0
      3336 MEMB     151      CHL1     H4A      HGA2     0.900000E-01   1.00800           0
      3337 MEMB     151      CHL1     H4B      HGA2     0.900000E-01   1.00800           0
      3338 MEMB     151      CHL1     C5       CEL1     0.000000       12.0110           0
      3339 MEMB     151      CHL1     C6       CEL1    -0.150000       12.0110           0
      3340 MEMB     151      CHL1     H6       HEL1     0.150000       1.00800           0
      3341 MEMB     151      CHL1     C7       CRL2    -0.180000       12.0110           0
      3342 MEMB     151      CHL1     H7A      HGA2     0.900000E-01   1.00800           0
      3343 MEMB     151      CHL1     H7B      HGA2     0.900000E-01   1.00800           0
      3344 MEMB     151      CHL1     C8       CRL1    -0.900000E-01   12.0110           0
      3345 MEMB     151      CHL1     H8       HGA1     0.900000E-01   1.00800           0
      3346 MEMB     151      CHL1     C14      CRL1    -0.900000E-01   12.0110           0
      3347 MEMB     151      CHL1     H14      HGA1     0.900000E-01   1.00800           0
      3348 MEMB     151      CHL1     C15      CRL2    -0.180000       12.0110           0
      3349 MEMB     151      CHL1     H15A     HGA2     0.900000E-01   1.00800           0
      3350 MEMB     151      CHL1     H15B     HGA2     0.900000E-01   1.00800           0
      3351 MEMB     151      CHL1     C16      CRL2    -0.180000       12.0110           0
      3352 MEMB     151      CHL1     H16A     HGA2     0.900000E-01   1.00800           0
      3353 MEMB     151      CHL1     H16B     HGA2     0.900000E-01   1.00800           0
      3354 MEMB     151      CHL1     C17      CRL1    -0.900000E-01   12.0110           0
      3355 MEMB     151      CHL1     H17      HGA1     0.900000E-01   1.00800           0
      3356 MEMB     151      CHL1     C13      CRL1     0.000000       12.0110           0
      3357 MEMB     151      CHL1     C18      CTL3    -0.270000       12.0110           0
      3358 MEMB     151      CHL1     H18A     HAL3     0.900000E-01   1.00800           0
      3359 MEMB     151      CHL1     H18B     HAL3     0.900000E-01   1.00800           0
      3360 MEMB     151      CHL1     H18C     HAL3     0.900000E-01   1.00800           0
      3361 MEMB     151      CHL1     C12      CRL2    -0.180000       12.0110           0
      3362 MEMB     151      CHL1     H12A     HGA2     0.900000E-01   1.00800           0
      3363 MEMB     151      CHL1     H12B     HGA2     0.900000E-01   1.00800           0
      3364 MEMB     151      CHL1     C11      CRL2    -0.180000       12.0110           0
      3365 MEMB     151      CHL1     H11A     HGA2     0.900000E-01   1.00800           0
      3366 MEMB     151      CHL1     H11B     HGA2     0.900000E-01   1.00800           0
      3367 MEMB     151      CHL1     C9       CRL1    -0.900000E-01   12.0110           0
      3368 MEMB     151      CHL1     H9       HGA1     0.900000E-01   1.00800           0
      3369 MEMB     151      CHL1     C10      CRL1     0.000000       12.0110           0
      3370 MEMB     151      CHL1     C19      CTL3    -0.270000       12.0110           0
      3371 MEMB     151      CHL1     H19A     HAL3     0.900000E-01   1.00800           0
      3372 MEMB     151      CHL1     H19B     HAL3     0.900000E-01   1.00800           0
      3373 MEMB     151      CHL1     H19C     HAL3     0.900000E-01   1.00800           0
      3374 MEMB     151      CHL1     C1       CRL2    -0.180000       12.0110           0
      3375 MEMB     151      CHL1     H1A      HGA2     0.900000E-01   1.00800           0
      3376 MEMB     151      CHL1     H1B      HGA2     0.900000E-01   1.00800           0
      3377 MEMB     151      CHL1     C2       CRL2    -0.180000       12.0110           0
      3378 MEMB     151      CHL1     H2A      HGA2     0.900000E-01   1.00800           0
      3379 MEMB     151      CHL1     H2B      HGA2     0.900000E-01   1.00800           0
      3380 MEMB     151      CHL1     C20      CTL1    -0.900000E-01   12.0110           0
      3381 MEMB     151      CHL1     H20      HAL1     0.900000E-01   1.00800           0
      3382 MEMB     151      CHL1     C21      CTL3    -0.270000       12.0110           0
      3383 MEMB     151      CHL1     H21A     HAL3     0.900000E-01   1.00800           0
      3384 MEMB     151      CHL1     H21B     HAL3     0.900000E-01   1.00800           0
      3385 MEMB     151      CHL1     H21C     HAL3     0.900000E-01   1.00800           0
      3386 MEMB     151      CHL1     C22      CTL2    -0.180000       12.0110           0
      3387 MEMB     151      CHL1     H22A     HAL2     0.900000E-01   1.00800           0
      3388 MEMB     151      CHL1     H22B     HAL2     0.900000E-01   1.00800           0
      3389 MEMB     151      CHL1     C23      CTL2    -0.180000       12.0110           0
      3390 MEMB     151      CHL1     H23A     HAL2     0.900000E-01   1.00800           0
      3391 MEMB     151      CHL1     H23B     HAL2     0.900000E-01   1.00800           0
      3392 MEMB     151      CHL1     C24      CTL2    -0.180000       12.0110           0
      3393 MEMB     151      CHL1     H24A     HAL2     0.900000E-01   1.00800           0
      3394 MEMB     151      CHL1     H24B     HAL2     0.900000E-01   1.00800           0
      3395 MEMB     151      CHL1     C25      CTL1    -0.900000E-01   12.0110           0
      3396 MEMB     151      CHL1     H25      HAL1     0.900000E-01   1.00800           0
      3397 MEMB     151      CHL1     C26      CTL3    -0.270000       12.0110           0
      3398 MEMB     151      CHL1     H26A     HAL3     0.900000E-01   1.00800           0
      3399 MEMB     151      CHL1     H26B     HAL3     0.900000E-01   1.00800           0
      3400 MEMB     151      CHL1     H26C     HAL3     0.900000E-01   1.00800           0
      3401 MEMB     151      CHL1     C27      CTL3    -0.270000       12.0110           0
      3402 MEMB     151      CHL1     H27A     HAL3     0.900000E-01   1.00800           0
      3403 MEMB     151      CHL1     H27B     HAL3     0.900000E-01   1.00800           0
      3404 MEMB     151      CHL1     H27C     HAL3     0.900000E-01   1.00800           0
      3405 MEMB     157      CHL1     C3       CRL1     0.140000       12.0110           0
      3406 MEMB     157      CHL1     H3       HGA1     0.900000E-01   1.00800           0
      3407 MEMB     157      CHL1     O3       OHL     -0.660000       15.9994           0
      3408 MEMB     157      CHL1     H3'      HOL      0.430000       1.00800           0
      3409 MEMB     157      CHL1     C4       CRL2    -0.180000       12.0110           0
      3410 MEMB     157      CHL1     H4A      HGA2     0.900000E-01   1.00800           0
      3411 MEMB     157      CHL1     H4B      HGA2     0.900000E-01   1.00800           0
      3412 MEMB     157      CHL1     C5       CEL1     0.000000       12.0110           0
      3413 MEMB     157      CHL1     C6       CEL1    -0.150000       12.0110           0
      3414 MEMB     157      CHL1     H6       HEL1     0.150000       1.00800           0
      3415 MEMB     157      CHL1     C7       CRL2    -0.180000       12.0110           0
      3416 MEMB     157      CHL1     H7A      HGA2     0.900000E-01   1.00800           0
      3417 MEMB     157      CHL1     H7B      HGA2     0.900000E-01   1.00800           0
      3418 MEMB     157      CHL1     C8       CRL1    -0.900000E-01   12.0110           0
      3419 MEMB     157      CHL1     H8       HGA1     0.900000E-01   1.00800           0
      3420 MEMB     157      CHL1     C14      CRL1    -0.900000E-01   12.0110           0
      3421 MEMB     157      CHL1     H14      HGA1     0.900000E-01   1.00800           0
      3422 MEMB     157      CHL1     C15      CRL2    -0.180000       12.0110           0
      3423 MEMB     157      CHL1     H15A     HGA2     0.900000E-01   1.00800           0
      3424 MEMB     157      CHL1     H15B     HGA2     0.900000E-01   1.00800           0
      3425 MEMB     157      CHL1     C16      CRL2    -0.180000       12.0110           0
      3426 MEMB     157      CHL1     H16A     HGA2     0.900000E-01   1.00800           0
      3427 MEMB     157      CHL1     H16B     HGA2     0.900000E-01   1.00800           0
      3428 MEMB     157      CHL1     C17      CRL1    -0.900000E-01   12.0110           0
      3429 MEMB     157      CHL1     H17      HGA1     0.900000E-01   1.00800           0
      3430 MEMB     157      CHL1     C13      CRL1     0.000000       12.0110           0
      3431 MEMB     157      CHL1     C18      CTL3    -0.270000       12.0110           0
      3432 MEMB     157      CHL1     H18A     HAL3     0.900000E-01   1.00800           0
      3433 MEMB     157      CHL1     H18B     HAL3     0.900000E-01   1.00800           0
      3434 MEMB     157      CHL1     H18C     HAL3     0.900000E-01   1.00800           0
      3435 MEMB     157      CHL1     C12      CRL2    -0.180000       12.0110           0
      3436 MEMB     157      CHL1     H12A     HGA2     0.900000E-01   1.00800           0
      3437 MEMB     157      CHL1     H12B     HGA2     0.900000E-01   1.00800           0
      3438 MEMB     157      CHL1     C11      CRL2    -0.180000       12.0110           0
      3439 MEMB     157      CHL1     H11A     HGA2     0.900000E-01   1.00800           0
      3440 MEMB     157      CHL1     H11B     HGA2     0.900000E-01   1.00800           0
      3441 MEMB     157      CHL1     C9       CRL1    -0.900000E-01   12.0110           0
      3442 MEMB     157      CHL1     H9       HGA1     0.900000E-01   1.00800           0
      3443 MEMB     157      CHL1     C10      CRL1     0.000000       12.0110           0
      3444 MEMB     157      CHL1     C19      CTL3    -0.270000       12.0110           0
      3445 MEMB     157      CHL1     H19A     HAL3     0.900000E-01   1.00800           0
      3446 MEMB     157      CHL1     H19B     HAL3     0.900000E-01   1.00800           0
      3447 MEMB     157      CHL1     H19C     HAL3     0.900000E-01   1.00800           0
      3448 MEMB     157      CHL1     C1       CRL2    -0.180000       12.0110           0
      3449 MEMB     157      CHL1     H1A      HGA2     0.900000E-01   1.00800           0
      3450 MEMB     157      CHL1     H1B      HGA2     0.900000E-01   1.00800           0
      3451 MEMB     157      CHL1     C2       CRL2    -0.180000       12.0110           0
      3452 MEMB     157      CHL1     H2A      HGA2     0.900000E-01   1.00800           0
      3453 MEMB     157      CHL1     H2B      HGA2     0.900000E-01   1.00800           0
      3454 MEMB     157      CHL1     C20      CTL1    -0.900000E-01   12.0110           0
      3455 MEMB     157      CHL1     H20      HAL1     0.900000E-01   1.00800           0
      3456 MEMB     157      CHL1     C21      CTL3    -0.270000       12.0110           0
      3457 MEMB     157      CHL1     H21A     HAL3     0.900000E-01   1.00800           0
      3458 MEMB     157      CHL1     H21B     HAL3     0.900000E-01   1.00800           0
      3459 MEMB     157      CHL1     H21C     HAL3     0.900000E-01   1.00800           0
      3460 MEMB     157      CHL1     C22      CTL2    -0.180000       12.0110           0
      3461 MEMB     157      CHL1     H22A     HAL2     0.900000E-01   1.00800           0
      3462 MEMB     157      CHL1     H22B     HAL2     0.900000E-01   1.00800           0
      3463 MEMB     157      CHL1     C23      CTL2    -0.180000       12.0110           0
      3464 MEMB     157      CHL1     H23A     HAL2     0.900000E-01   1.00800           0
      3465 MEMB     157      CHL1     H23B     HAL2     0.900000E-01   1.00800           0
      3466 MEMB     157      CHL1     C24      CTL2    -0.180000       12.0110           0
      3467 MEMB     157      CHL1     H24A     HAL2     0.900000E-01   1.00800           0
      3468 MEMB     157      CHL1     H24B     HAL2     0.900000E-01   1.00800           0
      3469 MEMB     157      CHL1     C25      CTL1    -0.900000E-01   12.0110           0
      3470 MEMB     157      CHL1     H25      HAL1     0.900000E-01   1.00800           0
      3471 MEMB     157      CHL1     C26      CTL3    -0.270000       12.0110           0
      3472 MEMB     157      CHL1     H26A     HAL3     0.900000E-01   1.00800           0
      3473 MEMB     157      CHL1     H26B     HAL3     0.900000E-01   1.00800           0
      3474 MEMB     157      CHL1     H26C     HAL3     0.900000E-01   1.00800           0
      3475 MEMB     157      CHL1     C27      CTL3    -0.270000       12.0110           0
      3476 MEMB     157      CHL1     H27A     HAL3     0.900000E-01   1.00800           0
      3477 MEMB     157      CHL1     H27B     HAL3     0.900000E-01   1.00800           0
      3478 MEMB     157      CHL1     H27C     HAL3     0.900000E-01   1.00800           0
      3479 MEMB     164      CHL1     C3       CRL1     0.140000       12.0110           0
      3480 MEMB     164      CHL1     H3       HGA1     0.900000E-01   1.00800           0
      3481 MEMB     164      CHL1     O3       OHL     -0.660000       15.9994           0
      3482 MEMB     164      CHL1     H3'      HOL      0.430000       1.00800           0
      3483 MEMB     164      CHL1     C4       CRL2    -0.180000       12.0110           0
      3484 MEMB     164      CHL1     H4A      HGA2     0.900000E-01   1.00800           0
      3485 MEMB     164      CHL1     H4B      HGA2     0.900000E-01   1.00800           0
      3486 MEMB     164      CHL1     C5       CEL1     0.000000       12.0110           0
      3487 MEMB     164      CHL1     C6       CEL1    -0.150000       12.0110           0
      3488 MEMB     164      CHL1     H6       HEL1     0.150000       1.00800           0
      3489 MEMB     164      CHL1     C7       CRL2    -0.180000       12.0110           0
      3490 MEMB     164      CHL1     H7A      HGA2     0.900000E-01   1.00800           0
      3491 MEMB     164      CHL1     H7B      HGA2     0.900000E-01   1.00800           0
      3492 MEMB     164      CHL1     C8       CRL1    -0.900000E-01   12.0110           0
      3493 MEMB     164      CHL1     H8       HGA1     0.900000E-01   1.00800           0
      3494 MEMB     164      CHL1     C14      CRL1    -0.900000E-01   12.0110           0
      3495 MEMB     164      CHL1     H14      HGA1     0.900000E-01   1.00800           0
      3496 MEMB     164      CHL1     C15      CRL2    -0.180000       12.0110           0
      3497 MEMB     164      CHL1     H15A     HGA2     0.900000E-01   1.00800           0
      3498 MEMB     164      CHL1     H15B     HGA2     0.900000E-01   1.00800           0
      3499 MEMB     164      CHL1     C16      CRL2    -0.180000       12.0110           0
      3500 MEMB     164      CHL1     H16A     HGA2     0.900000E-01   1.00800           0
      3501 MEMB     164      CHL1     H16B     HGA2     0.900000E-01   1.00800           0
      3502 MEMB     164      CHL1     C17      CRL1    -0.900000E-01   12.0110           0
      3503 MEMB     164      CHL1     H17      HGA1     0.900000E-01   1.00800           0
      3504 MEMB     164      CHL1     C13      CRL1     0.000000       12.0110           0
      3505 MEMB     164      CHL1     C18      CTL3    -0.270000       12.0110           0
      3506 MEMB     164      CHL1     H18A     HAL3     0.900000E-01   1.00800           0
      3507 MEMB     164      CHL1     H18B     HAL3     0.900000E-01   1.00800           0
      3508 MEMB     164      CHL1     H18C     HAL3     0.900000E-01   1.00800           0
      3509 MEMB     164      CHL1     C12      CRL2    -0.180000       12.0110           0
      3510 MEMB     164      CHL1     H12A     HGA2     0.900000E-01   1.00800           0
      3511 MEMB     164      CHL1     H12B     HGA2     0.900000E-01   1.00800           0
      3512 MEMB     164      CHL1     C11      CRL2    -0.180000       12.0110           0
      3513 MEMB     164      CHL1     H11A     HGA2     0.900000E-01   1.00800           0
      3514 MEMB     164      CHL1     H11B     HGA2     0.900000E-01   1.00800           0
      3515 MEMB     164      CHL1     C9       CRL1    -0.900000E-01   12.0110           0
      3516 MEMB     164      CHL1     H9       HGA1     0.900000E-01   1.00800           0
      3517 MEMB     164      CHL1     C10      CRL1     0.000000       12.0110           0
      3518 MEMB     164      CHL1     C19      CTL3    -0.270000       12.0110           0
      3519 MEMB     164      CHL1     H19A     HAL3     0.900000E-01   1.00800           0
      3520 MEMB     164      CHL1     H19B     HAL3     0.900000E-01   1.00800           0
      3521 MEMB     164      CHL1     H19C     HAL3     0.900000E-01   1.00800           0
      3522 MEMB     164      CHL1     C1       CRL2    -0.180000       12.0110           0
      3523 MEMB     164      CHL1     H1A      HGA2     0.900000E-01   1.00800           0
      3524 MEMB     164      CHL1     H1B      HGA2     0.900000E-01   1.00800           0
      3525 MEMB     164      CHL1     C2       CRL2    -0.180000       12.0110           0
      3526 MEMB     164      CHL1     H2A      HGA2     0.900000E-01   1.00800           0
      3527 MEMB     164      CHL1     H2B      HGA2     0.900000E-01   1.00800           0
      3528 MEMB     164      CHL1     C20      CTL1    -0.900000E-01   12.0110           0
      3529 MEMB     164      CHL1     H20      HAL1     0.900000E-01   1.00800           0
      3530 MEMB     164      CHL1     C21      CTL3    -0.270000       12.0110           0
      3531 MEMB     164      CHL1     H21A     HAL3     0.900000E-01   1.00800           0
      3532 MEMB     164      CHL1     H21B     HAL3     0.900000E-01   1.00800           0
      3533 MEMB     164      CHL1     H21C     HAL3     0.900000E-01   1.00800           0
      3534 MEMB     164      CHL1     C22      CTL2    -0.180000       12.0110           0
      3535 MEMB     164      CHL1     H22A     HAL2     0.900000E-01   1.00800           0
      3536 MEMB     164      CHL1     H22B     HAL2     0.900000E-01   1.00800           0
      3537 MEMB     164      CHL1     C23      CTL2    -0.180000       12.0110           0
      3538 MEMB     164      CHL1     H23A     HAL2     0.900000E-01   1.00800           0
      3539 MEMB     164      CHL1     H23B     HAL2     0.900000E-01   1.00800           0
      3540 MEMB     164      CHL1     C24      CTL2    -0.180000       12.0110           0
      3541 MEMB     164      CHL1     H24A     HAL2     0.900000E-01   1.00800           0
      3542 MEMB     164      CHL1     H24B     HAL2     0.900000E-01   1.00800           0
      3543 MEMB     164      CHL1     C25      CTL1    -0.900000E-01   12.0110           0
      3544 MEMB     164      CHL1     H25      HAL1     0.900000E-01   1.00800           0
      3545 MEMB     164      CHL1     C26      CTL3    -0.270000       12.0110           0
      3546 MEMB     164      CHL1     H26A     HAL3     0.900000E-01   1.00800           0
      3547 MEMB     164      CHL1     H26B     HAL3     0.900000E-01   1.00800           0
      3548 MEMB     164      CHL1     H26C     HAL3     0.900000E-01   1.00800           0
      3549 MEMB     164      CHL1     C27      CTL3    -0.270000       12.0110           0
      3550 MEMB     164      CHL1     H27A     HAL3     0.900000E-01   1.00800           0
      3551 MEMB     164      CHL1     H27B     HAL3     0.900000E-01   1.00800           0
      3552 MEMB     164      CHL1     H27C     HAL3     0.900000E-01   1.00800           0
      3553 MEMB     167      CHL1     C3       CRL1     0.140000       12.0110           0
      3554 MEMB     167      CHL1     H3       HGA1     0.900000E-01   1.00800           0
      3555 MEMB     167      CHL1     O3       OHL     -0.660000       15.9994           0
      3556 MEMB     167      CHL1     H3'      HOL      0.430000       1.00800           0
      3557 MEMB     167      CHL1     C4       CRL2    -0.180000       12.0110           0
      3558 MEMB     167      CHL1     H4A      HGA2     0.900000E-01   1.00800           0
      3559 MEMB     167      CHL1     H4B      HGA2     0.900000E-01   1.00800           0
      3560 MEMB     167      CHL1     C5       CEL1     0.000000       12.0110           0
      3561 MEMB     167      CHL1     C6       CEL1    -0.150000       12.0110           0
      3562 MEMB     167      CHL1     H6       HEL1     0.150000       1.00800           0
      3563 MEMB     167      CHL1     C7       CRL2    -0.180000       12.0110           0
      3564 MEMB     167      CHL1     H7A      HGA2     0.900000E-01   1.00800           0
      3565 MEMB     167      CHL1     H7B      HGA2     0.900000E-01   1.00800           0
      3566 MEMB     167      CHL1     C8       CRL1    -0.900000E-01   12.0110           0
      3567 MEMB     167      CHL1     H8       HGA1     0.900000E-01   1.00800           0
      3568 MEMB     167      CHL1     C14      CRL1    -0.900000E-01   12.0110           0
      3569 MEMB     167      CHL1     H14      HGA1     0.900000E-01   1.00800           0
      3570 MEMB     167      CHL1     C15      CRL2    -0.180000       12.0110           0
      3571 MEMB     167      CHL1     H15A     HGA2     0.900000E-01   1.00800           0
      3572 MEMB     167      CHL1     H15B     HGA2     0.900000E-01   1.00800           0
      3573 MEMB     167      CHL1     C16      CRL2    -0.180000       12.0110           0
      3574 MEMB     167      CHL1     H16A     HGA2     0.900000E-01   1.00800           0
      3575 MEMB     167      CHL1     H16B     HGA2     0.900000E-01   1.00800           0
      3576 MEMB     167      CHL1     C17      CRL1    -0.900000E-01   12.0110           0
      3577 MEMB     167      CHL1     H17      HGA1     0.900000E-01   1.00800           0
      3578 MEMB     167      CHL1     C13      CRL1     0.000000       12.0110           0
      3579 MEMB     167      CHL1     C18      CTL3    -0.270000       12.0110           0
      3580 MEMB     167      CHL1     H18A     HAL3     0.900000E-01   1.00800           0
      3581 MEMB     167      CHL1     H18B     HAL3     0.900000E-01   1.00800           0
      3582 MEMB     167      CHL1     H18C     HAL3     0.900000E-01   1.00800           0
      3583 MEMB     167      CHL1     C12      CRL2    -0.180000       12.0110           0
      3584 MEMB     167      CHL1     H12A     HGA2     0.900000E-01   1.00800           0
      3585 MEMB     167      CHL1     H12B     HGA2     0.900000E-01   1.00800           0
      3586 MEMB     167      CHL1     C11      CRL2    -0.180000       12.0110           0
      3587 MEMB     167      CHL1     H11A     HGA2     0.900000E-01   1.00800           0
      3588 MEMB     167      CHL1     H11B     HGA2     0.900000E-01   1.00800           0
      3589 MEMB     167      CHL1     C9       CRL1    -0.900000E-01   12.0110           0
      3590 MEMB     167      CHL1     H9       HGA1     0.900000E-01   1.00800           0
      3591 MEMB     167      CHL1     C10      CRL1     0.000000       12.0110           0
      3592 MEMB     167      CHL1     C19      CTL3    -0.270000       12.0110           0
      3593 MEMB     167      CHL1     H19A     HAL3     0.900000E-01   1.00800           0
      3594 MEMB     167      CHL1     H19B     HAL3     0.900000E-01   1.00800           0
      3595 MEMB     167      CHL1     H19C     HAL3     0.900000E-01   1.00800           0
      3596 MEMB     167      CHL1     C1       CRL2    -0.180000       12.0110           0
      3597 MEMB     167      CHL1     H1A      HGA2     0.900000E-01   1.00800           0
      3598 MEMB     167      CHL1     H1B      HGA2     0.900000E-01   1.00800           0
      3599 MEMB     167      CHL1     C2       CRL2    -0.180000       12.0110           0
      3600 MEMB     167      CHL1     H2A      HGA2     0.900000E-01   1.00800           0
      3601 MEMB     167      CHL1     H2B      HGA2     0.900000E-01   1.00800           0
      3602 MEMB     167      CHL1     C20      CTL1    -0.900000E-01   12.0110           0
      3603 MEMB     167      CHL1     H20      HAL1     0.900000E-01   1.00800           0
      3604 MEMB     167      CHL1     C21      CTL3    -0.270000       12.0110           0
      3605 MEMB     167      CHL1     H21A     HAL3     0.900000E-01   1.00800           0
      3606 MEMB     167      CHL1     H21B     HAL3     0.900000E-01   1.00800           0
      3607 MEMB     167      CHL1     H21C     HAL3     0.900000E-01   1.00800           0
      3608 MEMB     167      CHL1     C22      CTL2    -0.180000       12.0110           0
      3609 MEMB     167      CHL1     H22A     HAL2     0.900000E-01   1.00800           0
      3610 MEMB     167      CHL1     H22B     HAL2     0.900000E-01   1.00800           0
      3611 MEMB     167      CHL1     C23      CTL2    -0.180000       12.0110           0
      3612 MEMB     167      CHL1     H23A     HAL2     0.900000E-01   1.00800           0
      3613 MEMB     167      CHL1     H23B     HAL2     0.900000E-01   1.00800           0
      3614 MEMB     167      CHL1     C24      CTL2    -0.180000       12.0110           0
      3615 MEMB     167      CHL1     H24A     HAL2     0.900000E-01   1.00800           0
      3616 MEMB     167      CHL1     H24B     HAL2     0.900000E-01   1.00800           0
      3617 MEMB     167      CHL1     C25      CTL1    -0.900000E-01   12.0110           0
      3618 MEMB     167      CHL1     H25      HAL1     0.900000E-01   1.00800           0
      3619 MEMB     167      CHL1     C26      CTL3    -0.270000       12.0110           0
      3620 MEMB     167      CHL1     H26A     HAL3     0.900000E-01   1.00800           0
      3621 MEMB     167      CHL1     H26B     HAL3     0.900000E-01   1.00800           0
      3622 MEMB     167      CHL1     H26C     HAL3     0.900000E-01   1.00800           0
      3623 MEMB     167      CHL1     C27      CTL3    -0.270000       12.0110           0
      3624 MEMB     167      CHL1     H27A     HAL3     0.900000E-01   1.00800           0
      3625 MEMB     167      CHL1     H27B     HAL3     0.900000E-01   1.00800           0
      3626 MEMB     167      CHL1     H27C     HAL3     0.900000E-01   1.00800           0
      3627 MEMB     173      CHL1     C3       CRL1     0.140000       12.0110           0
      3628 MEMB     173      CHL1     H3       HGA1     0.900000E-01   1.00800           0
      3629 MEMB     173      CHL1     O3       OHL     -0.660000       15.9994           0
      3630 MEMB     173      CHL1     H3'      HOL      0.430000       1.00800           0
      3631 MEMB     173      CHL1     C4       CRL2    -0.180000       12.0110           0
      3632 MEMB     173      CHL1     H4A      HGA2     0.900000E-01   1.00800           0
      3633 MEMB     173      CHL1     H4B      HGA2     0.900000E-01   1.00800           0
      3634 MEMB     173      CHL1     C5       CEL1     0.000000       12.0110           0
      3635 MEMB     173      CHL1     C6       CEL1    -0.150000       12.0110           0
      3636 MEMB     173      CHL1     H6       HEL1     0.150000       1.00800           0
      3637 MEMB     173      CHL1     C7       CRL2    -0.180000       12.0110           0
      3638 MEMB     173      CHL1     H7A      HGA2     0.900000E-01   1.00800           0
      3639 MEMB     173      CHL1     H7B      HGA2     0.900000E-01   1.00800           0
      3640 MEMB     173      CHL1     C8       CRL1    -0.900000E-01   12.0110           0
      3641 MEMB     173      CHL1     H8       HGA1     0.900000E-01   1.00800           0
      3642 MEMB     173      CHL1     C14      CRL1    -0.900000E-01   12.0110           0
      3643 MEMB     173      CHL1     H14      HGA1     0.900000E-01   1.00800           0
      3644 MEMB     173      CHL1     C15      CRL2    -0.180000       12.0110           0
      3645 MEMB     173      CHL1     H15A     HGA2     0.900000E-01   1.00800           0
      3646 MEMB     173      CHL1     H15B     HGA2     0.900000E-01   1.00800           0
      3647 MEMB     173      CHL1     C16      CRL2    -0.180000       12.0110           0
      3648 MEMB     173      CHL1     H16A     HGA2     0.900000E-01   1.00800           0
      3649 MEMB     173      CHL1     H16B     HGA2     0.900000E-01   1.00800           0
      3650 MEMB     173      CHL1     C17      CRL1    -0.900000E-01   12.0110           0
      3651 MEMB     173      CHL1     H17      HGA1     0.900000E-01   1.00800           0
      3652 MEMB     173      CHL1     C13      CRL1     0.000000       12.0110           0
      3653 MEMB     173      CHL1     C18      CTL3    -0.270000       12.0110           0
      3654 MEMB     173      CHL1     H18A     HAL3     0.900000E-01   1.00800           0
      3655 MEMB     173      CHL1     H18B     HAL3     0.900000E-01   1.00800           0
      3656 MEMB     173      CHL1     H18C     HAL3     0.900000E-01   1.00800           0
      3657 MEMB     173      CHL1     C12      CRL2    -0.180000       12.0110           0
      3658 MEMB     173      CHL1     H12A     HGA2     0.900000E-01   1.00800           0
      3659 MEMB     173      CHL1     H12B     HGA2     0.900000E-01   1.00800           0
      3660 MEMB     173      CHL1     C11      CRL2    -0.180000       12.0110           0
      3661 MEMB     173      CHL1     H11A     HGA2     0.900000E-01   1.00800           0
      3662 MEMB     173      CHL1     H11B     HGA2     0.900000E-01   1.00800           0
      3663 MEMB     173      CHL1     C9       CRL1    -0.900000E-01   12.0110           0
      3664 MEMB     173      CHL1     H9       HGA1     0.900000E-01   1.00800           0
      3665 MEMB     173      CHL1     C10      CRL1     0.000000       12.0110           0
      3666 MEMB     173      CHL1     C19      CTL3    -0.270000       12.0110           0
      3667 MEMB     173      CHL1     H19A     HAL3     0.900000E-01   1.00800           0
      3668 MEMB     173      CHL1     H19B     HAL3     0.900000E-01   1.00800           0
      3669 MEMB     173      CHL1     H19C     HAL3     0.900000E-01   1.00800           0
      3670 MEMB     173      CHL1     C1       CRL2    -0.180000       12.0110           0
      3671 MEMB     173      CHL1     H1A      HGA2     0.900000E-01   1.00800           0
      3672 MEMB     173      CHL1     H1B      HGA2     0.900000E-01   1.00800           0
      3673 MEMB     173      CHL1     C2       CRL2    -0.180000       12.0110           0
      3674 MEMB     173      CHL1     H2A      HGA2     0.900000E-01   1.00800           0
      3675 MEMB     173      CHL1     H2B      HGA2     0.900000E-01   1.00800           0
      3676 MEMB     173      CHL1     C20      CTL1    -0.900000E-01   12.0110           0
      3677 MEMB     173      CHL1     H20      HAL1     0.900000E-01   1.00800           0
      3678 MEMB     173      CHL1     C21      CTL3    -0.270000       12.0110           0
      3679 MEMB     173      CHL1     H21A     HAL3     0.900000E-01   1.00800           0
      3680 MEMB     173      CHL1     H21B     HAL3     0.900000E-01   1.00800           0
      3681 MEMB     173      CHL1     H21C     HAL3     0.900000E-01   1.00800           0
      3682 MEMB     173      CHL1     C22      CTL2    -0.180000       12.0110           0
      3683 MEMB     173      CHL1     H22A     HAL2     0.900000E-01   1.00800           0
      3684 MEMB     173      CHL1     H22B     HAL2     0.900000E-01   1.00800           0
      3685 MEMB     173      CHL1     C23      CTL2    -0.180000       12.0110           0
      3686 MEMB     173      CHL1     H23A     HAL2     0.900000E-01   1.00800           0
      3687 MEMB     173      CHL1     H23B     HAL2     0.900000E-01   1.00800           0
      3688 MEMB     173      CHL1     C24      CTL2    -0.180000       12.0110           0
      3689 MEMB     173      CHL1     H24A     HAL2     0.900000E-01   1.00800           0
      3690 MEMB     173      CHL1     H24B     HAL2     0.900000E-01   1.00800           0
      3691 MEMB     173      CHL1     C25      CTL1    -0.900000E-01   12.0110           0
      3692 MEMB     173      CHL1     H25      HAL1     0.900000E-01   1.00800           0
      3693 MEMB     173      CHL1     C26      CTL3    -0.270000       12.0110           0
      3694 MEMB     173      CHL1     H26A     HAL3     0.900000E-01   1.00800           0
      3695 MEMB     173      CHL1     H26B     HAL3     0.900000E-01   1.00800           0
      3696 MEMB     173      CHL1     H26C     HAL3     0.900000E-01   1.00800           0
      3697 MEMB     173      CHL1     C27      CTL3    -0.270000       12.0110           0
      3698 MEMB     173      CHL1     H27A     HAL3     0.900000E-01   1.00800           0
      3699 MEMB     173      CHL1     H27B     HAL3     0.900000E-01   1.00800           0
      3700 MEMB     173      CHL1     H27C     HAL3     0.900000E-01   1.00800           0
      3701 MEMB     174      CHL1     C3       CRL1     0.140000       12.0110           0
      3702 MEMB     174      CHL1     H3       HGA1     0.900000E-01   1.00800           0
      3703 MEMB     174      CHL1     O3       OHL     -0.660000       15.9994           0
      3704 MEMB     174      CHL1     H3'      HOL      0.430000       1.00800           0
      3705 MEMB     174      CHL1     C4       CRL2    -0.180000       12.0110           0
      3706 MEMB     174      CHL1     H4A      HGA2     0.900000E-01   1.00800           0
      3707 MEMB     174      CHL1     H4B      HGA2     0.900000E-01   1.00800           0
      3708 MEMB     174      CHL1     C5       CEL1     0.000000       12.0110           0
      3709 MEMB     174      CHL1     C6       CEL1    -0.150000       12.0110           0
      3710 MEMB     174      CHL1     H6       HEL1     0.150000       1.00800           0
      3711 MEMB     174      CHL1     C7       CRL2    -0.180000       12.0110           0
      3712 MEMB     174      CHL1     H7A      HGA2     0.900000E-01   1.00800           0
      3713 MEMB     174      CHL1     H7B      HGA2     0.900000E-01   1.00800           0
      3714 MEMB     174      CHL1     C8       CRL1    -0.900000E-01   12.0110           0
      3715 MEMB     174      CHL1     H8       HGA1     0.900000E-01   1.00800           0
      3716 MEMB     174      CHL1     C14      CRL1    -0.900000E-01   12.0110           0
      3717 MEMB     174      CHL1     H14      HGA1     0.900000E-01   1.00800           0
      3718 MEMB     174      CHL1     C15      CRL2    -0.180000       12.0110           0
      3719 MEMB     174      CHL1     H15A     HGA2     0.900000E-01   1.00800           0
      3720 MEMB     174      CHL1     H15B     HGA2     0.900000E-01   1.00800           0
      3721 MEMB     174      CHL1     C16      CRL2    -0.180000       12.0110           0
      3722 MEMB     174      CHL1     H16A     HGA2     0.900000E-01   1.00800           0
      3723 MEMB     174      CHL1     H16B     HGA2     0.900000E-01   1.00800           0
      3724 MEMB     174      CHL1     C17      CRL1    -0.900000E-01   12.0110           0
      3725 MEMB     174      CHL1     H17      HGA1     0.900000E-01   1.00800           0
      3726 MEMB     174      CHL1     C13      CRL1     0.000000       12.0110           0
      3727 MEMB     174      CHL1     C18      CTL3    -0.270000       12.0110           0
      3728 MEMB     174      CHL1     H18A     HAL3     0.900000E-01   1.00800           0
      3729 MEMB     174      CHL1     H18B     HAL3     0.900000E-01   1.00800           0
      3730 MEMB     174      CHL1     H18C     HAL3     0.900000E-01   1.00800           0
      3731 MEMB     174      CHL1     C12      CRL2    -0.180000       12.0110           0
      3732 MEMB     174      CHL1     H12A     HGA2     0.900000E-01   1.00800           0
      3733 MEMB     174      CHL1     H12B     HGA2     0.900000E-01   1.00800           0
      3734 MEMB     174      CHL1     C11      CRL2    -0.180000       12.0110           0
      3735 MEMB     174      CHL1     H11A     HGA2     0.900000E-01   1.00800           0
      3736 MEMB     174      CHL1     H11B     HGA2     0.900000E-01   1.00800           0
      3737 MEMB     174      CHL1     C9       CRL1    -0.900000E-01   12.0110           0
      3738 MEMB     174      CHL1     H9       HGA1     0.900000E-01   1.00800           0
      3739 MEMB     174      CHL1     C10      CRL1     0.000000       12.0110           0
      3740 MEMB     174      CHL1     C19      CTL3    -0.270000       12.0110           0
      3741 MEMB     174      CHL1     H19A     HAL3     0.900000E-01   1.00800           0
      3742 MEMB     174      CHL1     H19B     HAL3     0.900000E-01   1.00800           0
      3743 MEMB     174      CHL1     H19C     HAL3     0.900000E-01   1.00800           0
      3744 MEMB     174      CHL1     C1       CRL2    -0.180000       12.0110           0
      3745 MEMB     174      CHL1     H1A      HGA2     0.900000E-01   1.00800           0
      3746 MEMB     174      CHL1     H1B      HGA2     0.900000E-01   1.00800           0
      3747 MEMB     174      CHL1     C2       CRL2    -0.180000       12.0110           0
      3748 MEMB     174      CHL1     H2A      HGA2     0.900000E-01   1.00800           0
      3749 MEMB     174      CHL1     H2B      HGA2     0.900000E-01   1.00800           0
      3750 MEMB     174      CHL1     C20      CTL1    -0.900000E-01   12.0110           0
      3751 MEMB     174      CHL1     H20      HAL1     0.900000E-01   1.00800           0
      3752 MEMB     174      CHL1     C21      CTL3    -0.270000       12.0110           0
      3753 MEMB     174      CHL1     H21A     HAL3     0.900000E-01   1.00800           0
      3754 MEMB     174      CHL1     H21B     HAL3     0.900000E-01   1.00800           0
      3755 MEMB     174      CHL1     H21C     HAL3     0.900000E-01   1.00800           0
      3756 MEMB     174      CHL1     C22      CTL2    -0.180000       12.0110           0
      3757 MEMB     174      CHL1     H22A     HAL2     0.900000E-01   1.00800           0
      3758 MEMB     174      CHL1     H22B     HAL2     0.900000E-01   1.00800           0
      3759 MEMB     174      CHL1     C23      CTL2    -0.180000       12.0110           0
      3760 MEMB     174      CHL1     H23A     HAL2     0.900000E-01   1.00800           0
      3761 MEMB     174      CHL1     H23B     HAL2     0.900000E-01   1.00800           0
      3762 MEMB     174      CHL1     C24      CTL2    -0.180000       12.0110           0
      3763 MEMB     174      CHL1     H24A     HAL2     0.900000E-01   1.00800           0
      3764 MEMB     174      CHL1     H24B     HAL2     0.900000E-01   1.00800           0
      3765 MEMB     174      CHL1     C25      CTL1    -0.900000E-01   12.0110           0
      3766 MEMB     174      CHL1     H25      HAL1     0.900000E-01   1.00800           0
      3767 MEMB     174      CHL1     C26      CTL3    -0.270000       12.0110           0
      3768 MEMB     174      CHL1     H26A     HAL3     0.900000E-01   1.00800           0
      3769 MEMB     174      CHL1     H26B     HAL3     0.900000E-01   1.00800           0
      3770 MEMB     174      CHL1     H26C     HAL3     0.900000E-01   1.00800           0
      3771 MEMB     174      CHL1     C27      CTL3    -0.270000       12.0110           0
      3772 MEMB     174      CHL1     H27A     HAL3     0.900000E-01   1.00800           0
      3773 MEMB     174      CHL1     H27B     HAL3     0.900000E-01   1.00800           0
      3774 MEMB     174      CHL1     H27C     HAL3     0.900000E-01   1.00800           0
      3775 MEMB     176      CHL1     C3       CRL1     0.140000       12.0110           0
      3776 MEMB     176      CHL1     H3       HGA1     0.900000E-01   1.00800           0
      3777 MEMB     176      CHL1     O3       OHL     -0.660000       15.9994           0
      3778 MEMB     176      CHL1     H3'      HOL      0.430000       1.00800           0
      3779 MEMB     176      CHL1     C4       CRL2    -0.180000       12.0110           0
      3780 MEMB     176      CHL1     H4A      HGA2     0.900000E-01   1.00800           0
      3781 MEMB     176      CHL1     H4B      HGA2     0.900000E-01   1.00800           0
      3782 MEMB     176      CHL1     C5       CEL1     0.000000       12.0110           0
      3783 MEMB     176      CHL1     C6       CEL1    -0.150000       12.0110           0
      3784 MEMB     176      CHL1     H6       HEL1     0.150000       1.00800           0
      3785 MEMB     176      CHL1     C7       CRL2    -0.180000       12.0110           0
      3786 MEMB     176      CHL1     H7A      HGA2     0.900000E-01   1.00800           0
      3787 MEMB     176      CHL1     H7B      HGA2     0.900000E-01   1.00800           0
      3788 MEMB     176      CHL1     C8       CRL1    -0.900000E-01   12.0110           0
      3789 MEMB     176      CHL1     H8       HGA1     0.900000E-01   1.00800           0
      3790 MEMB     176      CHL1     C14      CRL1    -0.900000E-01   12.0110           0
      3791 MEMB     176      CHL1     H14      HGA1     0.900000E-01   1.00800           0
      3792 MEMB     176      CHL1     C15      CRL2    -0.180000       12.0110           0
      3793 MEMB     176      CHL1     H15A     HGA2     0.900000E-01   1.00800           0
      3794 MEMB     176      CHL1     H15B     HGA2     0.900000E-01   1.00800           0
      3795 MEMB     176      CHL1     C16      CRL2    -0.180000       12.0110           0
      3796 MEMB     176      CHL1     H16A     HGA2     0.900000E-01   1.00800           0
      3797 MEMB     176      CHL1     H16B     HGA2     0.900000E-01   1.00800           0
      3798 MEMB     176      CHL1     C17      CRL1    -0.900000E-01   12.0110           0
      3799 MEMB     176      CHL1     H17      HGA1     0.900000E-01   1.00800           0
      3800 MEMB     176      CHL1     C13      CRL1     0.000000       12.0110           0
      3801 MEMB     176      CHL1     C18      CTL3    -0.270000       12.0110           0
      3802 MEMB     176      CHL1     H18A     HAL3     0.900000E-01   1.00800           0
      3803 MEMB     176      CHL1     H18B     HAL3     0.900000E-01   1.00800           0
      3804 MEMB     176      CHL1     H18C     HAL3     0.900000E-01   1.00800           0
      3805 MEMB     176      CHL1     C12      CRL2    -0.180000       12.0110           0
      3806 MEMB     176      CHL1     H12A     HGA2     0.900000E-01   1.00800           0
      3807 MEMB     176      CHL1     H12B     HGA2     0.900000E-01   1.00800           0
      3808 MEMB     176      CHL1     C11      CRL2    -0.180000       12.0110           0
      3809 MEMB     176      CHL1     H11A     HGA2     0.900000E-01   1.00800           0
      3810 MEMB     176      CHL1     H11B     HGA2     0.900000E-01   1.00800           0
      3811 MEMB     176      CHL1     C9       CRL1    -0.900000E-01   12.0110           0
      3812 MEMB     176      CHL1     H9       HGA1     0.900000E-01   1.00800           0
      3813 MEMB     176      CHL1     C10      CRL1     0.000000       12.0110           0
      3814 MEMB     176      CHL1     C19      CTL3    -0.270000       12.0110           0
      3815 MEMB     176      CHL1     H19A     HAL3     0.900000E-01   1.00800           0
      3816 MEMB     176      CHL1     H19B     HAL3     0.900000E-01   1.00800           0
      3817 MEMB     176      CHL1     H19C     HAL3     0.900000E-01   1.00800           0
      3818 MEMB     176      CHL1     C1       CRL2    -0.180000       12.0110           0
      3819 MEMB     176      CHL1     H1A      HGA2     0.900000E-01   1.00800           0
      3820 MEMB     176      CHL1     H1B      HGA2     0.900000E-01   1.00800           0
      3821 MEMB     176      CHL1     C2       CRL2    -0.180000       12.0110           0
      3822 MEMB     176      CHL1     H2A      HGA2     0.900000E-01   1.00800           0
      3823 MEMB     176      CHL1     H2B      HGA2     0.900000E-01   1.00800           0
      3824 MEMB     176      CHL1     C20      CTL1    -0.900000E-01   12.0110           0
      3825 MEMB     176      CHL1     H20      HAL1     0.900000E-01   1.00800           0
      3826 MEMB     176      CHL1     C21      CTL3    -0.270000       12.0110           0
      3827 MEMB     176      CHL1     H21A     HAL3     0.900000E-01   1.00800           0
      3828 MEMB     176      CHL1     H21B     HAL3     0.900000E-01   1.00800           0
      3829 MEMB     176      CHL1     H21C     HAL3     0.900000E-01   1.00800           0
      3830 MEMB     176      CHL1     C22      CTL2    -0.180000       12.0110           0
      3831 MEMB     176      CHL1     H22A     HAL2     0.900000E-01   1.00800           0
      3832 MEMB     176      CHL1     H22B     HAL2     0.900000E-01   1.00800           0
      3833 MEMB     176      CHL1     C23      CTL2    -0.180000       12.0110           0
      3834 MEMB     176      CHL1     H23A     HAL2     0.900000E-01   1.00800           0
      3835 MEMB     176      CHL1     H23B     HAL2     0.900000E-01   1.00800           0
      3836 MEMB     176      CHL1     C24      CTL2    -0.180000       12.0110           0
      3837 MEMB     176      CHL1     H24A     HAL2     0.900000E-01   1.00800           0
      3838 MEMB     176      CHL1     H24B     HAL2     0.900000E-01   1.00800           0
      3839 MEMB     176      CHL1     C25      CTL1    -0.900000E-01   12.0110           0
      3840 MEMB     176      CHL1     H25      HAL1     0.900000E-01   1.00800           0
      3841 MEMB     176      CHL1     C26      CTL3    -0.270000       12.0110           0
      3842 MEMB     176      CHL1     H26A     HAL3     0.900000E-01   1.00800           0
      3843 MEMB     176      CHL1     H26B     HAL3     0.900000E-01   1.00800           0
      3844 MEMB     176      CHL1     H26C     HAL3     0.900000E-01   1.00800           0
      3845 MEMB     176      CHL1     C27      CTL3    -0.270000       12.0110           0
      3846 MEMB     176      CHL1     H27A     HAL3     0.900000E-01   1.00800           0
      3847 MEMB     176      CHL1     H27B     HAL3     0.900000E-01   1.00800           0
      3848 MEMB     176      CHL1     H27C     HAL3     0.900000E-01   1.00800           0
      3849 MEMB     179      CHL1     C3       CRL1     0.140000       12.0110           0
      3850 MEMB     179      CHL1     H3       HGA1     0.900000E-01   1.00800           0
      3851 MEMB     179      CHL1     O3       OHL     -0.660000       15.9994           0
      3852 MEMB     179      CHL1     H3'      HOL      0.430000       1.00800           0
      3853 MEMB     179      CHL1     C4       CRL2    -0.180000       12.0110           0
      3854 MEMB     179      CHL1     H4A      HGA2     0.900000E-01   1.00800           0
      3855 MEMB     179      CHL1     H4B      HGA2     0.900000E-01   1.00800           0
      3856 MEMB     179      CHL1     C5       CEL1     0.000000       12.0110           0
      3857 MEMB     179      CHL1     C6       CEL1    -0.150000       12.0110           0
      3858 MEMB     179      CHL1     H6       HEL1     0.150000       1.00800           0
      3859 MEMB     179      CHL1     C7       CRL2    -0.180000       12.0110           0
      3860 MEMB     179      CHL1     H7A      HGA2     0.900000E-01   1.00800           0
      3861 MEMB     179      CHL1     H7B      HGA2     0.900000E-01   1.00800           0
      3862 MEMB     179      CHL1     C8       CRL1    -0.900000E-01   12.0110           0
      3863 MEMB     179      CHL1     H8       HGA1     0.900000E-01   1.00800           0
      3864 MEMB     179      CHL1     C14      CRL1    -0.900000E-01   12.0110           0
      3865 MEMB     179      CHL1     H14      HGA1     0.900000E-01   1.00800           0
      3866 MEMB     179      CHL1     C15      CRL2    -0.180000       12.0110           0
      3867 MEMB     179      CHL1     H15A     HGA2     0.900000E-01   1.00800           0
      3868 MEMB     179      CHL1     H15B     HGA2     0.900000E-01   1.00800           0
      3869 MEMB     179      CHL1     C16      CRL2    -0.180000       12.0110           0
      3870 MEMB     179      CHL1     H16A     HGA2     0.900000E-01   1.00800           0
      3871 MEMB     179      CHL1     H16B     HGA2     0.900000E-01   1.00800           0
      3872 MEMB     179      CHL1     C17      CRL1    -0.900000E-01   12.0110           0
      3873 MEMB     179      CHL1     H17      HGA1     0.900000E-01   1.00800           0
      3874 MEMB     179      CHL1     C13      CRL1     0.000000       12.0110           0
      3875 MEMB     179      CHL1     C18      CTL3    -0.270000       12.0110           0
      3876 MEMB     179      CHL1     H18A     HAL3     0.900000E-01   1.00800           0
      3877 MEMB     179      CHL1     H18B     HAL3     0.900000E-01   1.00800           0
      3878 MEMB     179      CHL1     H18C     HAL3     0.900000E-01   1.00800           0
      3879 MEMB     179      CHL1     C12      CRL2    -0.180000       12.0110           0
      3880 MEMB     179      CHL1     H12A     HGA2     0.900000E-01   1.00800           0
      3881 MEMB     179      CHL1     H12B     HGA2     0.900000E-01   1.00800           0
      3882 MEMB     179      CHL1     C11      CRL2    -0.180000       12.0110           0
      3883 MEMB     179      CHL1     H11A     HGA2     0.900000E-01   1.00800           0
      3884 MEMB     179      CHL1     H11B     HGA2     0.900000E-01   1.00800           0
      3885 MEMB     179      CHL1     C9       CRL1    -0.900000E-01   12.0110           0
      3886 MEMB     179      CHL1     H9       HGA1     0.900000E-01   1.00800           0
      3887 MEMB     179      CHL1     C10      CRL1     0.000000       12.0110           0
      3888 MEMB     179      CHL1     C19      CTL3    -0.270000       12.0110           0
      3889 MEMB     179      CHL1     H19A     HAL3     0.900000E-01   1.00800           0
      3890 MEMB     179      CHL1     H19B     HAL3     0.900000E-01   1.00800           0
      3891 MEMB     179      CHL1     H19C     HAL3     0.900000E-01   1.00800           0
      3892 MEMB     179      CHL1     C1       CRL2    -0.180000       12.0110           0
      3893 MEMB     179      CHL1     H1A      HGA2     0.900000E-01   1.00800           0
      3894 MEMB     179      CHL1     H1B      HGA2     0.900000E-01   1.00800           0
      3895 MEMB     179      CHL1     C2       CRL2    -0.180000       12.0110           0
      3896 MEMB     179      CHL1     H2A      HGA2     0.900000E-01   1.00800           0
      3897 MEMB     179      CHL1     H2B      HGA2     0.900000E-01   1.00800           0
      3898 MEMB     179      CHL1     C20      CTL1    -0.900000E-01   12.0110           0
      3899 MEMB     179      CHL1     H20      HAL1     0.900000E-01   1.00800           0
      3900 MEMB     179      CHL1     C21      CTL3    -0.270000       12.0110           0
      3901 MEMB     179      CHL1     H21A     HAL3     0.900000E-01   1.00800           0
      3902 MEMB     179      CHL1     H21B     HAL3     0.900000E-01   1.00800           0
      3903 MEMB     179      CHL1     H21C     HAL3     0.900000E-01   1.00800           0
      3904 MEMB     179      CHL1     C22      CTL2    -0.180000       12.0110           0
      3905 MEMB     179      CHL1     H22A     HAL2     0.900000E-01   1.00800           0
      3906 MEMB     179      CHL1     H22B     HAL2     0.900000E-01   1.00800           0
      3907 MEMB     179      CHL1     C23      CTL2    -0.180000       12.0110           0
      3908 MEMB     179      CHL1     H23A     HAL2     0.900000E-01   1.00800           0
      3909 MEMB     179      CHL1     H23B     HAL2     0.900000E-01   1.00800           0
      3910 MEMB     179      CHL1     C24      CTL2    -0.180000       12.0110           0
      3911 MEMB     179      CHL1     H24A     HAL2     0.900000E-01   1.00800           0
      3912 MEMB     179      CHL1     H24B     HAL2     0.900000E-01   1.00800           0
      3913 MEMB     179      CHL1     C25      CTL1    -0.900000E-01   12.0110           0
      3914 MEMB     179      CHL1     H25      HAL1     0.900000E-01   1.00800           0
      3915 MEMB     179      CHL1     C26      CTL3    -0.270000       12.0110           0
      3916 MEMB     179      CHL1     H26A     HAL3     0.900000E-01   1.00800           0
      3917 MEMB     179      CHL1     H26B     HAL3     0.900000E-01   1.00800           0
      3918 MEMB     179      CHL1     H26C     HAL3     0.900000E-01   1.00800           0
      3919 MEMB     179      CHL1     C27      CTL3    -0.270000       12.0110           0
      3920 MEMB     179      CHL1     H27A     HAL3     0.900000E-01   1.00800           0
      3921 MEMB     179      CHL1     H27B     HAL3     0.900000E-01   1.00800           0
      3922 MEMB     179      CHL1     H27C     HAL3     0.900000E-01   1.00800           0
      3923 MEMB     180      CHL1     C3       CRL1     0.140000       12.0110           0
      3924 MEMB     180      CHL1     H3       HGA1     0.900000E-01   1.00800           0
      3925 MEMB     180      CHL1     O3       OHL     -0.660000       15.9994           0
      3926 MEMB     180      CHL1     H3'      HOL      0.430000       1.00800           0
      3927 MEMB     180      CHL1     C4       CRL2    -0.180000       12.0110           0
      3928 MEMB     180      CHL1     H4A      HGA2     0.900000E-01   1.00800           0
      3929 MEMB     180      CHL1     H4B      HGA2     0.900000E-01   1.00800           0
      3930 MEMB     180      CHL1     C5       CEL1     0.000000       12.0110           0
      3931 MEMB     180      CHL1     C6       CEL1    -0.150000       12.0110           0
      3932 MEMB     180      CHL1     H6       HEL1     0.150000       1.00800           0
      3933 MEMB     180      CHL1     C7       CRL2    -0.180000       12.0110           0
      3934 MEMB     180      CHL1     H7A      HGA2     0.900000E-01   1.00800           0
      3935 MEMB     180      CHL1     H7B      HGA2     0.900000E-01   1.00800           0
      3936 MEMB     180      CHL1     C8       CRL1    -0.900000E-01   12.0110           0
      3937 MEMB     180      CHL1     H8       HGA1     0.900000E-01   1.00800           0
      3938 MEMB     180      CHL1     C14      CRL1    -0.900000E-01   12.0110           0
      3939 MEMB     180      CHL1     H14      HGA1     0.900000E-01   1.00800           0
      3940 MEMB     180      CHL1     C15      CRL2    -0.180000       12.0110           0
      3941 MEMB     180      CHL1     H15A     HGA2     0.900000E-01   1.00800           0
      3942 MEMB     180      CHL1     H15B     HGA2     0.900000E-01   1.00800           0
      3943 MEMB     180      CHL1     C16      CRL2    -0.180000       12.0110           0
      3944 MEMB     180      CHL1     H16A     HGA2     0.900000E-01   1.00800           0
      3945 MEMB     180      CHL1     H16B     HGA2     0.900000E-01   1.00800           0
      3946 MEMB     180      CHL1     C17      CRL1    -0.900000E-01   12.0110           0
      3947 MEMB     180      CHL1     H17      HGA1     0.900000E-01   1.00800           0
      3948 MEMB     180      CHL1     C13      CRL1     0.000000       12.0110           0
      3949 MEMB     180      CHL1     C18      CTL3    -0.270000       12.0110           0
      3950 MEMB     180      CHL1     H18A     HAL3     0.900000E-01   1.00800           0
      3951 MEMB     180      CHL1     H18B     HAL3     0.900000E-01   1.00800           0
      3952 MEMB     180      CHL1     H18C     HAL3     0.900000E-01   1.00800           0
      3953 MEMB     180      CHL1     C12      CRL2    -0.180000       12.0110           0
      3954 MEMB     180      CHL1     H12A     HGA2     0.900000E-01   1.00800           0
      3955 MEMB     180      CHL1     H12B     HGA2     0.900000E-01   1.00800           0
      3956 MEMB     180      CHL1     C11      CRL2    -0.180000       12.0110           0
      3957 MEMB     180      CHL1     H11A     HGA2     0.900000E-01   1.00800           0
      3958 MEMB     180      CHL1     H11B     HGA2     0.900000E-01   1.00800           0
      3959 MEMB     180      CHL1     C9       CRL1    -0.900000E-01   12.0110           0
      3960 MEMB     180      CHL1     H9       HGA1     0.900000E-01   1.00800           0
      3961 MEMB     180      CHL1     C10      CRL1     0.000000       12.0110           0
      3962 MEMB     180      CHL1     C19      CTL3    -0.270000       12.0110           0
      3963 MEMB     180      CHL1     H19A     HAL3     0.900000E-01   1.00800           0
      3964 MEMB     180      CHL1     H19B     HAL3     0.900000E-01   1.00800           0
      3965 MEMB     180      CHL1     H19C     HAL3     0.900000E-01   1.00800           0
      3966 MEMB     180      CHL1     C1       CRL2    -0.180000       12.0110           0
      3967 MEMB     180      CHL1     H1A      HGA2     0.900000E-01   1.00800           0
      3968 MEMB     180      CHL1     H1B      HGA2     0.900000E-01   1.00800           0
      3969 MEMB     180      CHL1     C2       CRL2    -0.180000       12.0110           0
      3970 MEMB     180      CHL1     H2A      HGA2     0.900000E-01   1.00800           0
      3971 MEMB     180      CHL1     H2B      HGA2     0.900000E-01   1.00800           0
      3972 MEMB     180      CHL1     C20      CTL1    -0.900000E-01   12.0110           0
      3973 MEMB     180      CHL1     H20      HAL1     0.900000E-01   1.00800           0
      3974 MEMB     180      CHL1     C21      CTL3    -0.270000       12.0110           0
      3975 MEMB     180      CHL1     H21A     HAL3     0.900000E-01   1.00800           0
      3976 MEMB     180      CHL1     H21B     HAL3     0.900000E-01   1.00800           0
      3977 MEMB     180      CHL1     H21C     HAL3     0.900000E-01   1.00800           0
      3978 MEMB     180      CHL1     C22      CTL2    -0.180000       12.0110           0
      3979 MEMB     180      CHL1     H22A     HAL2     0.900000E-01   1.00800           0
      3980 MEMB     180      CHL1     H22B     HAL2     0.900000E-01   1.00800           0
      3981 MEMB     180      CHL1     C23      CTL2    -0.180000       12.0110           0
      3982 MEMB     180      CHL1     H23A     HAL2     0.900000E-01   1.00800           0
      3983 MEMB     180      CHL1     H23B     HAL2     0.900000E-01   1.00800           0
      3984 MEMB     180      CHL1     C24      CTL2    -0.180000       12.0110           0
      3985 MEMB     180      CHL1     H24A     HAL2     0.900000E-01   1.00800           0
      3986 MEMB     180      CHL1     H24B     HAL2     0.900000E-01   1.00800           0
      3987 MEMB     180      CHL1     C25      CTL1    -0.900000E-01   12.0110           0
      3988 MEMB     180      CHL1     H25      HAL1     0.900000E-01   1.00800           0
      3989 MEMB     180      CHL1     C26      CTL3    -0.270000       12.0110           0
      3990 MEMB     180      CHL1     H26A     HAL3     0.900000E-01   1.00800           0
      3991 MEMB     180      CHL1     H26B     HAL3     0.900000E-01   1.00800           0
      3992 MEMB     180      CHL1     H26C     HAL3     0.900000E-01   1.00800           0
      3993 MEMB     180      CHL1     C27      CTL3    -0.270000       12.0110           0
      3994 MEMB     180      CHL1     H27A     HAL3     0.900000E-01   1.00800           0
      3995 MEMB     180      CHL1     H27B     HAL3     0.900000E-01   1.00800           0
      3996 MEMB     180      CHL1     H27C     HAL3     0.900000E-01   1.00800           0
      3997 MEMB     184      CHL1     C3       CRL1     0.140000       12.0110           0
      3998 MEMB     184      CHL1     H3       HGA1     0.900000E-01   1.00800           0
      3999 MEMB     184      CHL1     O3       OHL     -0.660000       15.9994           0
      4000 MEMB     184      CHL1     H3'      HOL      0.430000       1.00800           0
      4001 MEMB     184      CHL1     C4       CRL2    -0.180000       12.0110           0
      4002 MEMB     184      CHL1     H4A      HGA2     0.900000E-01   1.00800           0
      4003 MEMB     184      CHL1     H4B      HGA2     0.900000E-01   1.00800           0
      4004 MEMB     184      CHL1     C5       CEL1     0.000000       12.0110           0
      4005 MEMB     184      CHL1     C6       CEL1    -0.150000       12.0110           0
      4006 MEMB     184      CHL1     H6       HEL1     0.150000       1.00800           0
      4007 MEMB     184      CHL1     C7       CRL2    -0.180000       12.0110           0
      4008 MEMB     184      CHL1     H7A      HGA2     0.900000E-01   1.00800           0
      4009 MEMB     184      CHL1     H7B      HGA2     0.900000E-01   1.00800           0
      4010 MEMB     184      CHL1     C8       CRL1    -0.900000E-01   12.0110           0
      4011 MEMB     184      CHL1     H8       HGA1     0.900000E-01   1.00800           0
      4012 MEMB     184      CHL1     C14      CRL1    -0.900000E-01   12.0110           0
      4013 MEMB     184      CHL1     H14      HGA1     0.900000E-01   1.00800           0
      4014 MEMB     184      CHL1     C15      CRL2    -0.180000       12.0110           0
      4015 MEMB     184      CHL1     H15A     HGA2     0.900000E-01   1.00800           0
      4016 MEMB     184      CHL1     H15B     HGA2     0.900000E-01   1.00800           0
      4017 MEMB     184      CHL1     C16      CRL2    -0.180000       12.0110           0
      4018 MEMB     184      CHL1     H16A     HGA2     0.900000E-01   1.00800           0
      4019 MEMB     184      CHL1     H16B     HGA2     0.900000E-01   1.00800           0
      4020 MEMB     184      CHL1     C17      CRL1    -0.900000E-01   12.0110           0
      4021 MEMB     184      CHL1     H17      HGA1     0.900000E-01   1.00800           0
      4022 MEMB     184      CHL1     C13      CRL1     0.000000       12.0110           0
      4023 MEMB     184      CHL1     C18      CTL3    -0.270000       12.0110           0
      4024 MEMB     184      CHL1     H18A     HAL3     0.900000E-01   1.00800           0
      4025 MEMB     184      CHL1     H18B     HAL3     0.900000E-01   1.00800           0
      4026 MEMB     184      CHL1     H18C     HAL3     0.900000E-01   1.00800           0
      4027 MEMB     184      CHL1     C12      CRL2    -0.180000       12.0110           0
      4028 MEMB     184      CHL1     H12A     HGA2     0.900000E-01   1.00800           0
      4029 MEMB     184      CHL1     H12B     HGA2     0.900000E-01   1.00800           0
      4030 MEMB     184      CHL1     C11      CRL2    -0.180000       12.0110           0
      4031 MEMB     184      CHL1     H11A     HGA2     0.900000E-01   1.00800           0
      4032 MEMB     184      CHL1     H11B     HGA2     0.900000E-01   1.00800           0
      4033 MEMB     184      CHL1     C9       CRL1    -0.900000E-01   12.0110           0
      4034 MEMB     184      CHL1     H9       HGA1     0.900000E-01   1.00800           0
      4035 MEMB     184      CHL1     C10      CRL1     0.000000       12.0110           0
      4036 MEMB     184      CHL1     C19      CTL3    -0.270000       12.0110           0
      4037 MEMB     184      CHL1     H19A     HAL3     0.900000E-01   1.00800           0
      4038 MEMB     184      CHL1     H19B     HAL3     0.900000E-01   1.00800           0
      4039 MEMB     184      CHL1     H19C     HAL3     0.900000E-01   1.00800           0
      4040 MEMB     184      CHL1     C1       CRL2    -0.180000       12.0110           0
      4041 MEMB     184      CHL1     H1A      HGA2     0.900000E-01   1.00800           0
      4042 MEMB     184      CHL1     H1B      HGA2     0.900000E-01   1.00800           0
      4043 MEMB     184      CHL1     C2       CRL2    -0.180000       12.0110           0
      4044 MEMB     184      CHL1     H2A      HGA2     0.900000E-01   1.00800           0
      4045 MEMB     184      CHL1     H2B      HGA2     0.900000E-01   1.00800           0
      4046 MEMB     184      CHL1     C20      CTL1    -0.900000E-01   12.0110           0
      4047 MEMB     184      CHL1     H20      HAL1     0.900000E-01   1.00800           0
      4048 MEMB     184      CHL1     C21      CTL3    -0.270000       12.0110           0
      4049 MEMB     184      CHL1     H21A     HAL3     0.900000E-01   1.00800           0
      4050 MEMB     184      CHL1     H21B     HAL3     0.900000E-01   1.00800           0
      4051 MEMB     184      CHL1     H21C     HAL3     0.900000E-01   1.00800           0
      4052 MEMB     184      CHL1     C22      CTL2    -0.180000       12.0110           0
      4053 MEMB     184      CHL1     H22A     HAL2     0.900000E-01   1.00800           0
      4054 MEMB     184      CHL1     H22B     HAL2     0.900000E-01   1.00800           0
      4055 MEMB     184      CHL1     C23      CTL2    -0.180000       12.0110           0
      4056 MEMB     184      CHL1     H23A     HAL2     0.900000E-01   1.00800           0
      4057 MEMB     184      CHL1     H23B     HAL2     0.900000E-01   1.00800           0
      4058 MEMB     184      CHL1     C24      CTL2    -0.180000       12.0110           0
      4059 MEMB     184      CHL1     H24A     HAL2     0.900000E-01   1.00800           0
      4060 MEMB     184      CHL1     H24B     HAL2     0.900000E-01   1.00800           0
      4061 MEMB     184      CHL1     C25      CTL1    -0.900000E-01   12.0110           0
      4062 MEMB     184      CHL1     H25      HAL1     0.900000E-01   1.00800           0
      4063 MEMB     184      CHL1     C26      CTL3    -0.270000       12.0110           0
      4064 MEMB     184      CHL1     H26A     HAL3     0.900000E-01   1.00800           0
      4065 MEMB     184      CHL1     H26B     HAL3     0.900000E-01   1.00800           0
      4066 MEMB     184      CHL1     H26C     HAL3     0.900000E-01   1.00800           0
      4067 MEMB     184      CHL1     C27      CTL3    -0.270000       12.0110           0
      4068 MEMB     184      CHL1     H27A     HAL3     0.900000E-01   1.00800           0
      4069 MEMB     184      CHL1     H27B     HAL3     0.900000E-01   1.00800           0
      4070 MEMB     184      CHL1     H27C     HAL3     0.900000E-01   1.00800           0
      4071 MEMB     192      CHL1     C3       CRL1     0.140000       12.0110           0
      4072 MEMB     192      CHL1     H3       HGA1     0.900000E-01   1.00800           0
      4073 MEMB     192      CHL1     O3       OHL     -0.660000       15.9994           0
      4074 MEMB     192      CHL1     H3'      HOL      0.430000       1.00800           0
      4075 MEMB     192      CHL1     C4       CRL2    -0.180000       12.0110           0
      4076 MEMB     192      CHL1     H4A      HGA2     0.900000E-01   1.00800           0
      4077 MEMB     192      CHL1     H4B      HGA2     0.900000E-01   1.00800           0
      4078 MEMB     192      CHL1     C5       CEL1     0.000000       12.0110           0
      4079 MEMB     192      CHL1     C6       CEL1    -0.150000       12.0110           0
      4080 MEMB     192      CHL1     H6       HEL1     0.150000       1.00800           0
      4081 MEMB     192      CHL1     C7       CRL2    -0.180000       12.0110           0
      4082 MEMB     192      CHL1     H7A      HGA2     0.900000E-01   1.00800           0
      4083 MEMB     192      CHL1     H7B      HGA2     0.900000E-01   1.00800           0
      4084 MEMB     192      CHL1     C8       CRL1    -0.900000E-01   12.0110           0
      4085 MEMB     192      CHL1     H8       HGA1     0.900000E-01   1.00800           0
      4086 MEMB     192      CHL1     C14      CRL1    -0.900000E-01   12.0110           0
      4087 MEMB     192      CHL1     H14      HGA1     0.900000E-01   1.00800           0
      4088 MEMB     192      CHL1     C15      CRL2    -0.180000       12.0110           0
      4089 MEMB     192      CHL1     H15A     HGA2     0.900000E-01   1.00800           0
      4090 MEMB     192      CHL1     H15B     HGA2     0.900000E-01   1.00800           0
      4091 MEMB     192      CHL1     C16      CRL2    -0.180000       12.0110           0
      4092 MEMB     192      CHL1     H16A     HGA2     0.900000E-01   1.00800           0
      4093 MEMB     192      CHL1     H16B     HGA2     0.900000E-01   1.00800           0
      4094 MEMB     192      CHL1     C17      CRL1    -0.900000E-01   12.0110           0
      4095 MEMB     192      CHL1     H17      HGA1     0.900000E-01   1.00800           0
      4096 MEMB     192      CHL1     C13      CRL1     0.000000       12.0110           0
      4097 MEMB     192      CHL1     C18      CTL3    -0.270000       12.0110           0
      4098 MEMB     192      CHL1     H18A     HAL3     0.900000E-01   1.00800           0
      4099 MEMB     192      CHL1     H18B     HAL3     0.900000E-01   1.00800           0
      4100 MEMB     192      CHL1     H18C     HAL3     0.900000E-01   1.00800           0
      4101 MEMB     192      CHL1     C12      CRL2    -0.180000       12.0110           0
      4102 MEMB     192      CHL1     H12A     HGA2     0.900000E-01   1.00800           0
      4103 MEMB     192      CHL1     H12B     HGA2     0.900000E-01   1.00800           0
      4104 MEMB     192      CHL1     C11      CRL2    -0.180000       12.0110           0
      4105 MEMB     192      CHL1     H11A     HGA2     0.900000E-01   1.00800           0
      4106 MEMB     192      CHL1     H11B     HGA2     0.900000E-01   1.00800           0
      4107 MEMB     192      CHL1     C9       CRL1    -0.900000E-01   12.0110           0
      4108 MEMB     192      CHL1     H9       HGA1     0.900000E-01   1.00800           0
      4109 MEMB     192      CHL1     C10      CRL1     0.000000       12.0110           0
      4110 MEMB     192      CHL1     C19      CTL3    -0.270000       12.0110           0
      4111 MEMB     192      CHL1     H19A     HAL3     0.900000E-01   1.00800           0
      4112 MEMB     192      CHL1     H19B     HAL3     0.900000E-01   1.00800           0
      4113 MEMB     192      CHL1     H19C     HAL3     0.900000E-01   1.00800           0
      4114 MEMB     192      CHL1     C1       CRL2    -0.180000       12.0110           0
      4115 MEMB     192      CHL1     H1A      HGA2     0.900000E-01   1.00800           0
      4116 MEMB     192      CHL1     H1B      HGA2     0.900000E-01   1.00800           0
      4117 MEMB     192      CHL1     C2       CRL2    -0.180000       12.0110           0
      4118 MEMB     192      CHL1     H2A      HGA2     0.900000E-01   1.00800           0
      4119 MEMB     192      CHL1     H2B      HGA2     0.900000E-01   1.00800           0
      4120 MEMB     192      CHL1     C20      CTL1    -0.900000E-01   12.0110           0
      4121 MEMB     192      CHL1     H20      HAL1     0.900000E-01   1.00800           0
      4122 MEMB     192      CHL1     C21      CTL3    -0.270000       12.0110           0
      4123 MEMB     192      CHL1     H21A     HAL3     0.900000E-01   1.00800           0
      4124 MEMB     192      CHL1     H21B     HAL3     0.900000E-01   1.00800           0
      4125 MEMB     192      CHL1     H21C     HAL3     0.900000E-01   1.00800           0
      4126 MEMB     192      CHL1     C22      CTL2    -0.180000       12.0110           0
      4127 MEMB     192      CHL1     H22A     HAL2     0.900000E-01   1.00800           0
      4128 MEMB     192      CHL1     H22B     HAL2     0.900000E-01   1.00800           0
      4129 MEMB     192      CHL1     C23      CTL2    -0.180000       12.0110           0
      4130 MEMB     192      CHL1     H23A     HAL2     0.900000E-01   1.00800           0
      4131 MEMB     192      CHL1     H23B     HAL2     0.900000E-01   1.00800           0
      4132 MEMB     192      CHL1     C24      CTL2    -0.180000       12.0110           0
      4133 MEMB     192      CHL1     H24A     HAL2     0.900000E-01   1.00800           0
      4134 MEMB     192      CHL1     H24B     HAL2     0.900000E-01   1.00800           0
      4135 MEMB     192      CHL1     C25      CTL1    -0.900000E-01   12.0110           0
      4136 MEMB     192      CHL1     H25      HAL1     0.900000E-01   1.00800           0
      4137 MEMB     192      CHL1     C26      CTL3    -0.270000       12.0110           0
      4138 MEMB     192      CHL1     H26A     HAL3     0.900000E-01   1.00800           0
      4139 MEMB     192      CHL1     H26B     HAL3     0.900000E-01   1.00800           0
      4140 MEMB     192      CHL1     H26C     HAL3     0.900000E-01   1.00800           0
      4141 MEMB     192      CHL1     C27      CTL3    -0.270000       12.0110           0
      4142 MEMB     192      CHL1     H27A     HAL3     0.900000E-01   1.00800           0
      4143 MEMB     192      CHL1     H27B     HAL3     0.900000E-01   1.00800           0
      4144 MEMB     192      CHL1     H27C     HAL3     0.900000E-01   1.00800           0
      4145 MEMB     2        SAPC     N        NTL     -0.600000       14.0070           0
      4146 MEMB     2        SAPC     C12      CTL2    -0.100000       12.0110           0
      4147 MEMB     2        SAPC     H12A     HL       0.250000       1.00800           0
      4148 MEMB     2        SAPC     H12B     HL       0.250000       1.00800           0
      4149 MEMB     2        SAPC     C13      CTL5    -0.350000       12.0110           0
      4150 MEMB     2        SAPC     H13A     HL       0.250000       1.00800           0
      4151 MEMB     2        SAPC     H13B     HL       0.250000       1.00800           0
      4152 MEMB     2        SAPC     H13C     HL       0.250000       1.00800           0
      4153 MEMB     2        SAPC     C14      CTL5    -0.350000       12.0110           0
      4154 MEMB     2        SAPC     H14A     HL       0.250000       1.00800           0
      4155 MEMB     2        SAPC     H14B     HL       0.250000       1.00800           0
      4156 MEMB     2        SAPC     H14C     HL       0.250000       1.00800           0
      4157 MEMB     2        SAPC     C15      CTL5    -0.350000       12.0110           0
      4158 MEMB     2        SAPC     H15A     HL       0.250000       1.00800           0
      4159 MEMB     2        SAPC     H15B     HL       0.250000       1.00800           0
      4160 MEMB     2        SAPC     H15C     HL       0.250000       1.00800           0
      4161 MEMB     2        SAPC     C11      CTL2    -0.800000E-01   12.0110           0
      4162 MEMB     2        SAPC     H11A     HAL2     0.900000E-01   1.00800           0
      4163 MEMB     2        SAPC     H11B     HAL2     0.900000E-01   1.00800           0
      4164 MEMB     2        SAPC     P        PL       1.500000       30.9740           0
      4165 MEMB     2        SAPC     O13      O2L     -0.780000       15.9994           0
      4166 MEMB     2        SAPC     O14      O2L     -0.780000       15.9994           0
      4167 MEMB     2        SAPC     O12      OSLP    -0.570000       15.9994           0
      4168 MEMB     2        SAPC     O11      OSLP    -0.570000       15.9994           0
      4169 MEMB     2        SAPC     C1       CTL2    -0.800000E-01   12.0110           0
      4170 MEMB     2        SAPC     HA       HAL2     0.900000E-01   1.00800           0
      4171 MEMB     2        SAPC     HB       HAL2     0.900000E-01   1.00800           0
      4172 MEMB     2        SAPC     C2       CTL1     0.170000       12.0110           0
      4173 MEMB     2        SAPC     HS       HAL1     0.900000E-01   1.00800           0
      4174 MEMB     2        SAPC     O21      OSL     -0.490000       15.9994           0
      4175 MEMB     2        SAPC     C21      CL       0.900000       12.0110           0
      4176 MEMB     2        SAPC     O22      OBL     -0.630000       15.9994           0
      4177 MEMB     2        SAPC     C22      CTL2    -0.220000       12.0110           0
      4178 MEMB     2        SAPC     H2R      HAL2     0.900000E-01   1.00800           0
      4179 MEMB     2        SAPC     H2S      HAL2     0.900000E-01   1.00800           0
      4180 MEMB     2        SAPC     C3       CTL2     0.800000E-01   12.0110           0
      4181 MEMB     2        SAPC     HX       HAL2     0.900000E-01   1.00800           0
      4182 MEMB     2        SAPC     HY       HAL2     0.900000E-01   1.00800           0
      4183 MEMB     2        SAPC     O31      OSL     -0.490000       15.9994           0
      4184 MEMB     2        SAPC     C31      CL       0.900000       12.0110           0
      4185 MEMB     2        SAPC     O32      OBL     -0.630000       15.9994           0
      4186 MEMB     2        SAPC     C32      CTL2    -0.220000       12.0110           0
      4187 MEMB     2        SAPC     H2X      HAL2     0.900000E-01   1.00800           0
      4188 MEMB     2        SAPC     H2Y      HAL2     0.900000E-01   1.00800           0
      4189 MEMB     2        SAPC     C23      CTL2    -0.180000       12.0110           0
      4190 MEMB     2        SAPC     H3R      HAL2     0.900000E-01   1.00800           0
      4191 MEMB     2        SAPC     H3S      HAL2     0.900000E-01   1.00800           0
      4192 MEMB     2        SAPC     C24      CTL2    -0.180000       12.0110           0
      4193 MEMB     2        SAPC     H4R      HAL2     0.900000E-01   1.00800           0
      4194 MEMB     2        SAPC     H4S      HAL2     0.900000E-01   1.00800           0
      4195 MEMB     2        SAPC     C25      CEL1    -0.150000       12.0110           0
      4196 MEMB     2        SAPC     H5R      HEL1     0.150000       1.00800           0
      4197 MEMB     2        SAPC     C26      CEL1    -0.150000       12.0110           0
      4198 MEMB     2        SAPC     H6R      HEL1     0.150000       1.00800           0
      4199 MEMB     2        SAPC     C27      CTL2    -0.180000       12.0110           0
      4200 MEMB     2        SAPC     H7R      HAL2     0.900000E-01   1.00800           0
      4201 MEMB     2        SAPC     H7S      HAL2     0.900000E-01   1.00800           0
      4202 MEMB     2        SAPC     C28      CEL1    -0.150000       12.0110           0
      4203 MEMB     2        SAPC     H8R      HEL1     0.150000       1.00800           0
      4204 MEMB     2        SAPC     C29      CEL1    -0.150000       12.0110           0
      4205 MEMB     2        SAPC     H9R      HEL1     0.150000       1.00800           0
      4206 MEMB     2        SAPC     C210     CTL2    -0.180000       12.0110           0
      4207 MEMB     2        SAPC     H10R     HAL2     0.900000E-01   1.00800           0
      4208 MEMB     2        SAPC     H10S     HAL2     0.900000E-01   1.00800           0
      4209 MEMB     2        SAPC     C211     CEL1    -0.150000       12.0110           0
      4210 MEMB     2        SAPC     H11R     HEL1     0.150000       1.00800           0
      4211 MEMB     2        SAPC     C212     CEL1    -0.150000       12.0110           0
      4212 MEMB     2        SAPC     H12R     HEL1     0.150000       1.00800           0
      4213 MEMB     2        SAPC     C213     CTL2    -0.180000       12.0110           0
      4214 MEMB     2        SAPC     H13R     HAL2     0.900000E-01   1.00800           0
      4215 MEMB     2        SAPC     H13S     HAL2     0.900000E-01   1.00800           0
      4216 MEMB     2        SAPC     C214     CEL1    -0.150000       12.0110           0
      4217 MEMB     2        SAPC     H14R     HEL1     0.150000       1.00800           0
      4218 MEMB     2        SAPC     C215     CEL1    -0.150000       12.0110           0
      4219 MEMB     2        SAPC     H15R     HEL1     0.150000       1.00800           0
      4220 MEMB     2        SAPC     C216     CTL2    -0.180000       12.0110           0
      4221 MEMB     2        SAPC     H16R     HAL2     0.900000E-01   1.00800           0
      4222 MEMB     2        SAPC     H16S     HAL2     0.900000E-01   1.00800           0
      4223 MEMB     2        SAPC     C217     CTL2    -0.180000       12.0110           0
      4224 MEMB     2        SAPC     H17R     HAL2     0.900000E-01   1.00800           0
      4225 MEMB     2        SAPC     H17S     HAL2     0.900000E-01   1.00800           0
      4226 MEMB     2        SAPC     C218     CTL2    -0.270000       12.0110           0
      4227 MEMB     2        SAPC     H18R     HAL2     0.900000E-01   1.00800           0
      4228 MEMB     2        SAPC     H18S     HAL2     0.900000E-01   1.00800           0
      4229 MEMB     2        SAPC     C219     CTL2    -0.180000       12.0110           0
      4230 MEMB     2        SAPC     H19R     HAL2     0.900000E-01   1.00800           0
      4231 MEMB     2        SAPC     H19S     HAL2     0.900000E-01   1.00800           0
      4232 MEMB     2        SAPC     C220     CTL3    -0.180000       12.0110           0
      4233 MEMB     2        SAPC     H20R     HAL3     0.900000E-01   1.00800           0
      4234 MEMB     2        SAPC     H20S     HAL3     0.900000E-01   1.00800           0
      4235 MEMB     2        SAPC     H20T     HAL3     0.900000E-01   1.00800           0
      4236 MEMB     2        SAPC     C33      CTL2    -0.180000       12.0110           0
      4237 MEMB     2        SAPC     H3X      HAL2     0.900000E-01   1.00800           0
      4238 MEMB     2        SAPC     H3Y      HAL2     0.900000E-01   1.00800           0
      4239 MEMB     2        SAPC     C34      CTL2    -0.180000       12.0110           0
      4240 MEMB     2        SAPC     H4X      HAL2     0.900000E-01   1.00800           0
      4241 MEMB     2        SAPC     H4Y      HAL2     0.900000E-01   1.00800           0
      4242 MEMB     2        SAPC     C35      CTL2    -0.180000       12.0110           0
      4243 MEMB     2        SAPC     H5X      HAL2     0.900000E-01   1.00800           0
      4244 MEMB     2        SAPC     H5Y      HAL2     0.900000E-01   1.00800           0
      4245 MEMB     2        SAPC     C36      CTL2    -0.180000       12.0110           0
      4246 MEMB     2        SAPC     H6X      HAL2     0.900000E-01   1.00800           0
      4247 MEMB     2        SAPC     H6Y      HAL2     0.900000E-01   1.00800           0
      4248 MEMB     2        SAPC     C37      CTL2    -0.180000       12.0110           0
      4249 MEMB     2        SAPC     H7X      HAL2     0.900000E-01   1.00800           0
      4250 MEMB     2        SAPC     H7Y      HAL2     0.900000E-01   1.00800           0
      4251 MEMB     2        SAPC     C38      CTL2    -0.180000       12.0110           0
      4252 MEMB     2        SAPC     H8X      HAL2     0.900000E-01   1.00800           0
      4253 MEMB     2        SAPC     H8Y      HAL2     0.900000E-01   1.00800           0
      4254 MEMB     2        SAPC     C39      CTL2    -0.180000       12.0110           0
      4255 MEMB     2        SAPC     H9X      HAL2     0.900000E-01   1.00800           0
      4256 MEMB     2        SAPC     H9Y      HAL2     0.900000E-01   1.00800           0
      4257 MEMB     2        SAPC     C310     CTL2    -0.180000       12.0110           0
      4258 MEMB     2        SAPC     H10X     HAL2     0.900000E-01   1.00800           0
      4259 MEMB     2        SAPC     H10Y     HAL2     0.900000E-01   1.00800           0
      4260 MEMB     2        SAPC     C311     CTL2    -0.180000       12.0110           0
      4261 MEMB     2        SAPC     H11X     HAL2     0.900000E-01   1.00800           0
      4262 MEMB     2        SAPC     H11Y     HAL2     0.900000E-01   1.00800           0
      4263 MEMB     2        SAPC     C312     CTL2    -0.180000       12.0110           0
      4264 MEMB     2        SAPC     H12X     HAL2     0.900000E-01   1.00800           0
      4265 MEMB     2        SAPC     H12Y     HAL2     0.900000E-01   1.00800           0
      4266 MEMB     2        SAPC     C313     CTL2    -0.180000       12.0110           0
      4267 MEMB     2        SAPC     H13X     HAL2     0.900000E-01   1.00800           0
      4268 MEMB     2        SAPC     H13Y     HAL2     0.900000E-01   1.00800           0
      4269 MEMB     2        SAPC     C314     CTL2    -0.180000       12.0110           0
      4270 MEMB     2        SAPC     H14X     HAL2     0.900000E-01   1.00800           0
      4271 MEMB     2        SAPC     H14Y     HAL2     0.900000E-01   1.00800           0
      4272 MEMB     2        SAPC     C315     CTL2    -0.180000       12.0110           0
      4273 MEMB     2        SAPC     H15X     HAL2     0.900000E-01   1.00800           0
      4274 MEMB     2        SAPC     H15Y     HAL2     0.900000E-01   1.00800           0
      4275 MEMB     2        SAPC     C316     CTL2    -0.180000       12.0110           0
      4276 MEMB     2        SAPC     H16X     HAL2     0.900000E-01   1.00800           0
      4277 MEMB     2        SAPC     H16Y     HAL2     0.900000E-01   1.00800           0
      4278 MEMB     2        SAPC     C317     CTL2    -0.180000       12.0110           0
      4279 MEMB     2        SAPC     H17X     HAL2     0.900000E-01   1.00800           0
      4280 MEMB     2        SAPC     H17Y     HAL2     0.900000E-01   1.00800           0
      4281 MEMB     2        SAPC     C318     CTL3    -0.270000       12.0110           0
      4282 MEMB     2        SAPC     H18X     HAL3     0.900000E-01   1.00800           0
      4283 MEMB     2        SAPC     H18Y     HAL3     0.900000E-01   1.00800           0
      4284 MEMB     2        SAPC     H18Z     HAL3     0.900000E-01   1.00800           0
      4285 MEMB     16       SAPC     N        NTL     -0.600000       14.0070           0
      4286 MEMB     16       SAPC     C12      CTL2    -0.100000       12.0110           0
      4287 MEMB     16       SAPC     H12A     HL       0.250000       1.00800           0
      4288 MEMB     16       SAPC     H12B     HL       0.250000       1.00800           0
      4289 MEMB     16       SAPC     C13      CTL5    -0.350000       12.0110           0
      4290 MEMB     16       SAPC     H13A     HL       0.250000       1.00800           0
      4291 MEMB     16       SAPC     H13B     HL       0.250000       1.00800           0
      4292 MEMB     16       SAPC     H13C     HL       0.250000       1.00800           0
      4293 MEMB     16       SAPC     C14      CTL5    -0.350000       12.0110           0
      4294 MEMB     16       SAPC     H14A     HL       0.250000       1.00800           0
      4295 MEMB     16       SAPC     H14B     HL       0.250000       1.00800           0
      4296 MEMB     16       SAPC     H14C     HL       0.250000       1.00800           0
      4297 MEMB     16       SAPC     C15      CTL5    -0.350000       12.0110           0
      4298 MEMB     16       SAPC     H15A     HL       0.250000       1.00800           0
      4299 MEMB     16       SAPC     H15B     HL       0.250000       1.00800           0
      4300 MEMB     16       SAPC     H15C     HL       0.250000       1.00800           0
      4301 MEMB     16       SAPC     C11      CTL2    -0.800000E-01   12.0110           0
      4302 MEMB     16       SAPC     H11A     HAL2     0.900000E-01   1.00800           0
      4303 MEMB     16       SAPC     H11B     HAL2     0.900000E-01   1.00800           0
      4304 MEMB     16       SAPC     P        PL       1.500000       30.9740           0
      4305 MEMB     16       SAPC     O13      O2L     -0.780000       15.9994           0
      4306 MEMB     16       SAPC     O14      O2L     -0.780000       15.9994           0
      4307 MEMB     16       SAPC     O12      OSLP    -0.570000       15.9994           0
      4308 MEMB     16       SAPC     O11      OSLP    -0.570000       15.9994           0
      4309 MEMB     16       SAPC     C1       CTL2    -0.800000E-01   12.0110           0
      4310 MEMB     16       SAPC     HA       HAL2     0.900000E-01   1.00800           0
      4311 MEMB     16       SAPC     HB       HAL2     0.900000E-01   1.00800           0
      4312 MEMB     16       SAPC     C2       CTL1     0.170000       12.0110           0
      4313 MEMB     16       SAPC     HS       HAL1     0.900000E-01   1.00800           0
      4314 MEMB     16       SAPC     O21      OSL     -0.490000       15.9994           0
      4315 MEMB     16       SAPC     C21      CL       0.900000       12.0110           0
      4316 MEMB     16       SAPC     O22      OBL     -0.630000       15.9994           0
      4317 MEMB     16       SAPC     C22      CTL2    -0.220000       12.0110           0
      4318 MEMB     16       SAPC     H2R      HAL2     0.900000E-01   1.00800           0
      4319 MEMB     16       SAPC     H2S      HAL2     0.900000E-01   1.00800           0
      4320 MEMB     16       SAPC     C3       CTL2     0.800000E-01   12.0110           0
      4321 MEMB     16       SAPC     HX       HAL2     0.900000E-01   1.00800           0
      4322 MEMB     16       SAPC     HY       HAL2     0.900000E-01   1.00800           0
      4323 MEMB     16       SAPC     O31      OSL     -0.490000       15.9994           0
      4324 MEMB     16       SAPC     C31      CL       0.900000       12.0110           0
      4325 MEMB     16       SAPC     O32      OBL     -0.630000       15.9994           0
      4326 MEMB     16       SAPC     C32      CTL2    -0.220000       12.0110           0
      4327 MEMB     16       SAPC     H2X      HAL2     0.900000E-01   1.00800           0
      4328 MEMB     16       SAPC     H2Y      HAL2     0.900000E-01   1.00800           0
      4329 MEMB     16       SAPC     C23      CTL2    -0.180000       12.0110           0
      4330 MEMB     16       SAPC     H3R      HAL2     0.900000E-01   1.00800           0
      4331 MEMB     16       SAPC     H3S      HAL2     0.900000E-01   1.00800           0
      4332 MEMB     16       SAPC     C24      CTL2    -0.180000       12.0110           0
      4333 MEMB     16       SAPC     H4R      HAL2     0.900000E-01   1.00800           0
      4334 MEMB     16       SAPC     H4S      HAL2     0.900000E-01   1.00800           0
      4335 MEMB     16       SAPC     C25      CEL1    -0.150000       12.0110           0
      4336 MEMB     16       SAPC     H5R      HEL1     0.150000       1.00800           0
      4337 MEMB     16       SAPC     C26      CEL1    -0.150000       12.0110           0
      4338 MEMB     16       SAPC     H6R      HEL1     0.150000       1.00800           0
      4339 MEMB     16       SAPC     C27      CTL2    -0.180000       12.0110           0
      4340 MEMB     16       SAPC     H7R      HAL2     0.900000E-01   1.00800           0
      4341 MEMB     16       SAPC     H7S      HAL2     0.900000E-01   1.00800           0
      4342 MEMB     16       SAPC     C28      CEL1    -0.150000       12.0110           0
      4343 MEMB     16       SAPC     H8R      HEL1     0.150000       1.00800           0
      4344 MEMB     16       SAPC     C29      CEL1    -0.150000       12.0110           0
      4345 MEMB     16       SAPC     H9R      HEL1     0.150000       1.00800           0
      4346 MEMB     16       SAPC     C210     CTL2    -0.180000       12.0110           0
      4347 MEMB     16       SAPC     H10R     HAL2     0.900000E-01   1.00800           0
      4348 MEMB     16       SAPC     H10S     HAL2     0.900000E-01   1.00800           0
      4349 MEMB     16       SAPC     C211     CEL1    -0.150000       12.0110           0
      4350 MEMB     16       SAPC     H11R     HEL1     0.150000       1.00800           0
      4351 MEMB     16       SAPC     C212     CEL1    -0.150000       12.0110           0
      4352 MEMB     16       SAPC     H12R     HEL1     0.150000       1.00800           0
      4353 MEMB     16       SAPC     C213     CTL2    -0.180000       12.0110           0
      4354 MEMB     16       SAPC     H13R     HAL2     0.900000E-01   1.00800           0
      4355 MEMB     16       SAPC     H13S     HAL2     0.900000E-01   1.00800           0
      4356 MEMB     16       SAPC     C214     CEL1    -0.150000       12.0110           0
      4357 MEMB     16       SAPC     H14R     HEL1     0.150000       1.00800           0
      4358 MEMB     16       SAPC     C215     CEL1    -0.150000       12.0110           0
      4359 MEMB     16       SAPC     H15R     HEL1     0.150000       1.00800           0
      4360 MEMB     16       SAPC     C216     CTL2    -0.180000       12.0110           0
      4361 MEMB     16       SAPC     H16R     HAL2     0.900000E-01   1.00800           0
      4362 MEMB     16       SAPC     H16S     HAL2     0.900000E-01   1.00800           0
      4363 MEMB     16       SAPC     C217     CTL2    -0.180000       12.0110           0
      4364 MEMB     16       SAPC     H17R     HAL2     0.900000E-01   1.00800           0
      4365 MEMB     16       SAPC     H17S     HAL2     0.900000E-01   1.00800           0
      4366 MEMB     16       SAPC     C218     CTL2    -0.270000       12.0110           0
      4367 MEMB     16       SAPC     H18R     HAL2     0.900000E-01   1.00800           0
      4368 MEMB     16       SAPC     H18S     HAL2     0.900000E-01   1.00800           0
      4369 MEMB     16       SAPC     C219     CTL2    -0.180000       12.0110           0
      4370 MEMB     16       SAPC     H19R     HAL2     0.900000E-01   1.00800           0
      4371 MEMB     16       SAPC     H19S     HAL2     0.900000E-01   1.00800           0
      4372 MEMB     16       SAPC     C220     CTL3    -0.180000       12.0110           0
      4373 MEMB     16       SAPC     H20R     HAL3     0.900000E-01   1.00800           0
      4374 MEMB     16       SAPC     H20S     HAL3     0.900000E-01   1.00800           0
      4375 MEMB     16       SAPC     H20T     HAL3     0.900000E-01   1.00800           0
      4376 MEMB     16       SAPC     C33      CTL2    -0.180000       12.0110           0
      4377 MEMB     16       SAPC     H3X      HAL2     0.900000E-01   1.00800           0
      4378 MEMB     16       SAPC     H3Y      HAL2     0.900000E-01   1.00800           0
      4379 MEMB     16       SAPC     C34      CTL2    -0.180000       12.0110           0
      4380 MEMB     16       SAPC     H4X      HAL2     0.900000E-01   1.00800           0
      4381 MEMB     16       SAPC     H4Y      HAL2     0.900000E-01   1.00800           0
      4382 MEMB     16       SAPC     C35      CTL2    -0.180000       12.0110           0
      4383 MEMB     16       SAPC     H5X      HAL2     0.900000E-01   1.00800           0
      4384 MEMB     16       SAPC     H5Y      HAL2     0.900000E-01   1.00800           0
      4385 MEMB     16       SAPC     C36      CTL2    -0.180000       12.0110           0
      4386 MEMB     16       SAPC     H6X      HAL2     0.900000E-01   1.00800           0
      4387 MEMB     16       SAPC     H6Y      HAL2     0.900000E-01   1.00800           0
      4388 MEMB     16       SAPC     C37      CTL2    -0.180000       12.0110           0
      4389 MEMB     16       SAPC     H7X      HAL2     0.900000E-01   1.00800           0
      4390 MEMB     16       SAPC     H7Y      HAL2     0.900000E-01   1.00800           0
      4391 MEMB     16       SAPC     C38      CTL2    -0.180000       12.0110           0
      4392 MEMB     16       SAPC     H8X      HAL2     0.900000E-01   1.00800           0
      4393 MEMB     16       SAPC     H8Y      HAL2     0.900000E-01   1.00800           0
      4394 MEMB     16       SAPC     C39      CTL2    -0.180000       12.0110           0
      4395 MEMB     16       SAPC     H9X      HAL2     0.900000E-01   1.00800           0
      4396 MEMB     16       SAPC     H9Y      HAL2     0.900000E-01   1.00800           0
      4397 MEMB     16       SAPC     C310     CTL2    -0.180000       12.0110           0
      4398 MEMB     16       SAPC     H10X     HAL2     0.900000E-01   1.00800           0
      4399 MEMB     16       SAPC     H10Y     HAL2     0.900000E-01   1.00800           0
      4400 MEMB     16       SAPC     C311     CTL2    -0.180000       12.0110           0
      4401 MEMB     16       SAPC     H11X     HAL2     0.900000E-01   1.00800           0
      4402 MEMB     16       SAPC     H11Y     HAL2     0.900000E-01   1.00800           0
      4403 MEMB     16       SAPC     C312     CTL2    -0.180000       12.0110           0
      4404 MEMB     16       SAPC     H12X     HAL2     0.900000E-01   1.00800           0
      4405 MEMB     16       SAPC     H12Y     HAL2     0.900000E-01   1.00800           0
      4406 MEMB     16       SAPC     C313     CTL2    -0.180000       12.0110           0
      4407 MEMB     16       SAPC     H13X     HAL2     0.900000E-01   1.00800           0
      4408 MEMB     16       SAPC     H13Y     HAL2     0.900000E-01   1.00800           0
      4409 MEMB     16       SAPC     C314     CTL2    -0.180000       12.0110           0
      4410 MEMB     16       SAPC     H14X     HAL2     0.900000E-01   1.00800           0
      4411 MEMB     16       SAPC     H14Y     HAL2     0.900000E-01   1.00800           0
      4412 MEMB     16       SAPC     C315     CTL2    -0.180000       12.0110           0
      4413 MEMB     16       SAPC     H15X     HAL2     0.900000E-01   1.00800           0
      4414 MEMB     16       SAPC     H15Y     HAL2     0.900000E-01   1.00800           0
      4415 MEMB     16       SAPC     C316     CTL2    -0.180000       12.0110           0
      4416 MEMB     16       SAPC     H16X     HAL2     0.900000E-01   1.00800           0
      4417 MEMB     16       SAPC     H16Y     HAL2     0.900000E-01   1.00800           0
      4418 MEMB     16       SAPC     C317     CTL2    -0.180000       12.0110           0
      4419 MEMB     16       SAPC     H17X     HAL2     0.900000E-01   1.00800           0
      4420 MEMB     16       SAPC     H17Y     HAL2     0.900000E-01   1.00800           0
      4421 MEMB     16       SAPC     C318     CTL3    -0.270000       12.0110           0
      4422 MEMB     16       SAPC     H18X     HAL3     0.900000E-01   1.00800           0
      4423 MEMB     16       SAPC     H18Y     HAL3     0.900000E-01   1.00800           0
      4424 MEMB     16       SAPC     H18Z     HAL3     0.900000E-01   1.00800           0
      4425 MEMB     57       SAPC     N        NTL     -0.600000       14.0070           0
      4426 MEMB     57       SAPC     C12      CTL2    -0.100000       12.0110           0
      4427 MEMB     57       SAPC     H12A     HL       0.250000       1.00800           0
      4428 MEMB     57       SAPC     H12B     HL       0.250000       1.00800           0
      4429 MEMB     57       SAPC     C13      CTL5    -0.350000       12.0110           0
      4430 MEMB     57       SAPC     H13A     HL       0.250000       1.00800           0
      4431 MEMB     57       SAPC     H13B     HL       0.250000       1.00800           0
      4432 MEMB     57       SAPC     H13C     HL       0.250000       1.00800           0
      4433 MEMB     57       SAPC     C14      CTL5    -0.350000       12.0110           0
      4434 MEMB     57       SAPC     H14A     HL       0.250000       1.00800           0
      4435 MEMB     57       SAPC     H14B     HL       0.250000       1.00800           0
      4436 MEMB     57       SAPC     H14C     HL       0.250000       1.00800           0
      4437 MEMB     57       SAPC     C15      CTL5    -0.350000       12.0110           0
      4438 MEMB     57       SAPC     H15A     HL       0.250000       1.00800           0
      4439 MEMB     57       SAPC     H15B     HL       0.250000       1.00800           0
      4440 MEMB     57       SAPC     H15C     HL       0.250000       1.00800           0
      4441 MEMB     57       SAPC     C11      CTL2    -0.800000E-01   12.0110           0
      4442 MEMB     57       SAPC     H11A     HAL2     0.900000E-01   1.00800           0
      4443 MEMB     57       SAPC     H11B     HAL2     0.900000E-01   1.00800           0
      4444 MEMB     57       SAPC     P        PL       1.500000       30.9740           0
      4445 MEMB     57       SAPC     O13      O2L     -0.780000       15.9994           0
      4446 MEMB     57       SAPC     O14      O2L     -0.780000       15.9994           0
      4447 MEMB     57       SAPC     O12      OSLP    -0.570000       15.9994           0
      4448 MEMB     57       SAPC     O11      OSLP    -0.570000       15.9994           0
      4449 MEMB     57       SAPC     C1       CTL2    -0.800000E-01   12.0110           0
      4450 MEMB     57       SAPC     HA       HAL2     0.900000E-01   1.00800           0
      4451 MEMB     57       SAPC     HB       HAL2     0.900000E-01   1.00800           0
      4452 MEMB     57       SAPC     C2       CTL1     0.170000       12.0110           0
      4453 MEMB     57       SAPC     HS       HAL1     0.900000E-01   1.00800           0
      4454 MEMB     57       SAPC     O21      OSL     -0.490000       15.9994           0
      4455 MEMB     57       SAPC     C21      CL       0.900000       12.0110           0
      4456 MEMB     57       SAPC     O22      OBL     -0.630000       15.9994           0
      4457 MEMB     57       SAPC     C22      CTL2    -0.220000       12.0110           0
      4458 MEMB     57       SAPC     H2R      HAL2     0.900000E-01   1.00800           0
      4459 MEMB     57       SAPC     H2S      HAL2     0.900000E-01   1.00800           0
      4460 MEMB     57       SAPC     C3       CTL2     0.800000E-01   12.0110           0
      4461 MEMB     57       SAPC     HX       HAL2     0.900000E-01   1.00800           0
      4462 MEMB     57       SAPC     HY       HAL2     0.900000E-01   1.00800           0
      4463 MEMB     57       SAPC     O31      OSL     -0.490000       15.9994           0
      4464 MEMB     57       SAPC     C31      CL       0.900000       12.0110           0
      4465 MEMB     57       SAPC     O32      OBL     -0.630000       15.9994           0
      4466 MEMB     57       SAPC     C32      CTL2    -0.220000       12.0110           0
      4467 MEMB     57       SAPC     H2X      HAL2     0.900000E-01   1.00800           0
      4468 MEMB     57       SAPC     H2Y      HAL2     0.900000E-01   1.00800           0
      4469 MEMB     57       SAPC     C23      CTL2    -0.180000       12.0110           0
      4470 MEMB     57       SAPC     H3R      HAL2     0.900000E-01   1.00800           0
      4471 MEMB     57       SAPC     H3S      HAL2     0.900000E-01   1.00800           0
      4472 MEMB     57       SAPC     C24      CTL2    -0.180000       12.0110           0
      4473 MEMB     57       SAPC     H4R      HAL2     0.900000E-01   1.00800           0
      4474 MEMB     57       SAPC     H4S      HAL2     0.900000E-01   1.00800           0
      4475 MEMB     57       SAPC     C25      CEL1    -0.150000       12.0110           0
      4476 MEMB     57       SAPC     H5R      HEL1     0.150000       1.00800           0
      4477 MEMB     57       SAPC     C26      CEL1    -0.150000       12.0110           0
      4478 MEMB     57       SAPC     H6R      HEL1     0.150000       1.00800           0
      4479 MEMB     57       SAPC     C27      CTL2    -0.180000       12.0110           0
      4480 MEMB     57       SAPC     H7R      HAL2     0.900000E-01   1.00800           0
      4481 MEMB     57       SAPC     H7S      HAL2     0.900000E-01   1.00800           0
      4482 MEMB     57       SAPC     C28      CEL1    -0.150000       12.0110           0
      4483 MEMB     57       SAPC     H8R      HEL1     0.150000       1.00800           0
      4484 MEMB     57       SAPC     C29      CEL1    -0.150000       12.0110           0
      4485 MEMB     57       SAPC     H9R      HEL1     0.150000       1.00800           0
      4486 MEMB     57       SAPC     C210     CTL2    -0.180000       12.0110           0
      4487 MEMB     57       SAPC     H10R     HAL2     0.900000E-01   1.00800           0
      4488 MEMB     57       SAPC     H10S     HAL2     0.900000E-01   1.00800           0
      4489 MEMB     57       SAPC     C211     CEL1    -0.150000       12.0110           0
      4490 MEMB     57       SAPC     H11R     HEL1     0.150000       1.00800           0
      4491 MEMB     57       SAPC     C212     CEL1    -0.150000       12.0110           0
      4492 MEMB     57       SAPC     H12R     HEL1     0.150000       1.00800           0
      4493 MEMB     57       SAPC     C213     CTL2    -0.180000       12.0110           0
      4494 MEMB     57       SAPC     H13R     HAL2     0.900000E-01   1.00800           0
      4495 MEMB     57       SAPC     H13S     HAL2     0.900000E-01   1.00800           0
      4496 MEMB     57       SAPC     C214     CEL1    -0.150000       12.0110           0
      4497 MEMB     57       SAPC     H14R     HEL1     0.150000       1.00800           0
      4498 MEMB     57       SAPC     C215     CEL1    -0.150000       12.0110           0
      4499 MEMB     57       SAPC     H15R     HEL1     0.150000       1.00800           0
      4500 MEMB     57       SAPC     C216     CTL2    -0.180000       12.0110           0
      4501 MEMB     57       SAPC     H16R     HAL2     0.900000E-01   1.00800           0
      4502 MEMB     57       SAPC     H16S     HAL2     0.900000E-01   1.00800           0
      4503 MEMB     57       SAPC     C217     CTL2    -0.180000       12.0110           0
      4504 MEMB     57       SAPC     H17R     HAL2     0.900000E-01   1.00800           0
      4505 MEMB     57       SAPC     H17S     HAL2     0.900000E-01   1.00800           0
      4506 MEMB     57       SAPC     C218     CTL2    -0.270000       12.0110           0
      4507 MEMB     57       SAPC     H18R     HAL2     0.900000E-01   1.00800           0
      4508 MEMB     57       SAPC     H18S     HAL2     0.900000E-01   1.00800           0
      4509 MEMB     57       SAPC     C219     CTL2    -0.180000       12.0110           0
      4510 MEMB     57       SAPC     H19R     HAL2     0.900000E-01   1.00800           0
      4511 MEMB     57       SAPC     H19S     HAL2     0.900000E-01   1.00800           0
      4512 MEMB     57       SAPC     C220     CTL3    -0.180000       12.0110           0
      4513 MEMB     57       SAPC     H20R     HAL3     0.900000E-01   1.00800           0
      4514 MEMB     57       SAPC     H20S     HAL3     0.900000E-01   1.00800           0
      4515 MEMB     57       SAPC     H20T     HAL3     0.900000E-01   1.00800           0
      4516 MEMB     57       SAPC     C33      CTL2    -0.180000       12.0110           0
      4517 MEMB     57       SAPC     H3X      HAL2     0.900000E-01   1.00800           0
      4518 MEMB     57       SAPC     H3Y      HAL2     0.900000E-01   1.00800           0
      4519 MEMB     57       SAPC     C34      CTL2    -0.180000       12.0110           0
      4520 MEMB     57       SAPC     H4X      HAL2     0.900000E-01   1.00800           0
      4521 MEMB     57       SAPC     H4Y      HAL2     0.900000E-01   1.00800           0
      4522 MEMB     57       SAPC     C35      CTL2    -0.180000       12.0110           0
      4523 MEMB     57       SAPC     H5X      HAL2     0.900000E-01   1.00800           0
      4524 MEMB     57       SAPC     H5Y      HAL2     0.900000E-01   1.00800           0
      4525 MEMB     57       SAPC     C36      CTL2    -0.180000       12.0110           0
      4526 MEMB     57       SAPC     H6X      HAL2     0.900000E-01   1.00800           0
      4527 MEMB     57       SAPC     H6Y      HAL2     0.900000E-01   1.00800           0
      4528 MEMB     57       SAPC     C37      CTL2    -0.180000       12.0110           0
      4529 MEMB     57       SAPC     H7X      HAL2     0.900000E-01   1.00800           0
      4530 MEMB     57       SAPC     H7Y      HAL2     0.900000E-01   1.00800           0
      4531 MEMB     57       SAPC     C38      CTL2    -0.180000       12.0110           0
      4532 MEMB     57       SAPC     H8X      HAL2     0.900000E-01   1.00800           0
      4533 MEMB     57       SAPC     H8Y      HAL2     0.900000E-01   1.00800           0
      4534 MEMB     57       SAPC     C39      CTL2    -0.180000       12.0110           0
      4535 MEMB     57       SAPC     H9X      HAL2     0.900000E-01   1.00800           0
      4536 MEMB     57       SAPC     H9Y      HAL2     0.900000E-01   1.00800           0
      4537 MEMB     57       SAPC     C310     CTL2    -0.180000       12.0110           0
      4538 MEMB     57       SAPC     H10X     HAL2     0.900000E-01   1.00800           0
      4539 MEMB     57       SAPC     H10Y     HAL2     0.900000E-01   1.00800           0
      4540 MEMB     57       SAPC     C311     CTL2    -0.180000       12.0110           0
      4541 MEMB     57       SAPC     H11X     HAL2     0.900000E-01   1.00800           0
      4542 MEMB     57       SAPC     H11Y     HAL2     0.900000E-01   1.00800           0
      4543 MEMB     57       SAPC     C312     CTL2    -0.180000       12.0110           0
      4544 MEMB     57       SAPC     H12X     HAL2     0.900000E-01   1.00800           0
      4545 MEMB     57       SAPC     H12Y     HAL2     0.900000E-01   1.00800           0
      4546 MEMB     57       SAPC     C313     CTL2    -0.180000       12.0110           0
      4547 MEMB     57       SAPC     H13X     HAL2     0.900000E-01   1.00800           0
      4548 MEMB     57       SAPC     H13Y     HAL2     0.900000E-01   1.00800           0
      4549 MEMB     57       SAPC     C314     CTL2    -0.180000       12.0110           0
      4550 MEMB     57       SAPC     H14X     HAL2     0.900000E-01   1.00800           0
      4551 MEMB     57       SAPC     H14Y     HAL2     0.900000E-01   1.00800           0
      4552 MEMB     57       SAPC     C315     CTL2    -0.180000       12.0110           0
      4553 MEMB     57       SAPC     H15X     HAL2     0.900000E-01   1.00800           0
      4554 MEMB     57       SAPC     H15Y     HAL2     0.900000E-01   1.00800           0
      4555 MEMB     57       SAPC     C316     CTL2    -0.180000       12.0110           0
      4556 MEMB     57       SAPC     H16X     HAL2     0.900000E-01   1.00800           0
      4557 MEMB     57       SAPC     H16Y     HAL2     0.900000E-01   1.00800           0
      4558 MEMB     57       SAPC     C317     CTL2    -0.180000       12.0110           0
      4559 MEMB     57       SAPC     H17X     HAL2     0.900000E-01   1.00800           0
      4560 MEMB     57       SAPC     H17Y     HAL2     0.900000E-01   1.00800           0
      4561 MEMB     57       SAPC     C318     CTL3    -0.270000       12.0110           0
      4562 MEMB     57       SAPC     H18X     HAL3     0.900000E-01   1.00800           0
      4563 MEMB     57       SAPC     H18Y     HAL3     0.900000E-01   1.00800           0
      4564 MEMB     57       SAPC     H18Z     HAL3     0.900000E-01   1.00800           0
      4565 MEMB     69       SAPC     N        NTL     -0.600000       14.0070           0
      4566 MEMB     69       SAPC     C12      CTL2    -0.100000       12.0110           0
      4567 MEMB     69       SAPC     H12A     HL       0.250000       1.00800           0
      4568 MEMB     69       SAPC     H12B     HL       0.250000       1.00800           0
      4569 MEMB     69       SAPC     C13      CTL5    -0.350000       12.0110           0
      4570 MEMB     69       SAPC     H13A     HL       0.250000       1.00800           0
      4571 MEMB     69       SAPC     H13B     HL       0.250000       1.00800           0
      4572 MEMB     69       SAPC     H13C     HL       0.250000       1.00800           0
      4573 MEMB     69       SAPC     C14      CTL5    -0.350000       12.0110           0
      4574 MEMB     69       SAPC     H14A     HL       0.250000       1.00800           0
      4575 MEMB     69       SAPC     H14B     HL       0.250000       1.00800           0
      4576 MEMB     69       SAPC     H14C     HL       0.250000       1.00800           0
      4577 MEMB     69       SAPC     C15      CTL5    -0.350000       12.0110           0
      4578 MEMB     69       SAPC     H15A     HL       0.250000       1.00800           0
      4579 MEMB     69       SAPC     H15B     HL       0.250000       1.00800           0
      4580 MEMB     69       SAPC     H15C     HL       0.250000       1.00800           0
      4581 MEMB     69       SAPC     C11      CTL2    -0.800000E-01   12.0110           0
      4582 MEMB     69       SAPC     H11A     HAL2     0.900000E-01   1.00800           0
      4583 MEMB     69       SAPC     H11B     HAL2     0.900000E-01   1.00800           0
      4584 MEMB     69       SAPC     P        PL       1.500000       30.9740           0
      4585 MEMB     69       SAPC     O13      O2L     -0.780000       15.9994           0
      4586 MEMB     69       SAPC     O14      O2L     -0.780000       15.9994           0
      4587 MEMB     69       SAPC     O12      OSLP    -0.570000       15.9994           0
      4588 MEMB     69       SAPC     O11      OSLP    -0.570000       15.9994           0
      4589 MEMB     69       SAPC     C1       CTL2    -0.800000E-01   12.0110           0
      4590 MEMB     69       SAPC     HA       HAL2     0.900000E-01   1.00800           0
      4591 MEMB     69       SAPC     HB       HAL2     0.900000E-01   1.00800           0
      4592 MEMB     69       SAPC     C2       CTL1     0.170000       12.0110           0
      4593 MEMB     69       SAPC     HS       HAL1     0.900000E-01   1.00800           0
      4594 MEMB     69       SAPC     O21      OSL     -0.490000       15.9994           0
      4595 MEMB     69       SAPC     C21      CL       0.900000       12.0110           0
      4596 MEMB     69       SAPC     O22      OBL     -0.630000       15.9994           0
      4597 MEMB     69       SAPC     C22      CTL2    -0.220000       12.0110           0
      4598 MEMB     69       SAPC     H2R      HAL2     0.900000E-01   1.00800           0
      4599 MEMB     69       SAPC     H2S      HAL2     0.900000E-01   1.00800           0
      4600 MEMB     69       SAPC     C3       CTL2     0.800000E-01   12.0110           0
      4601 MEMB     69       SAPC     HX       HAL2     0.900000E-01   1.00800           0
      4602 MEMB     69       SAPC     HY       HAL2     0.900000E-01   1.00800           0
      4603 MEMB     69       SAPC     O31      OSL     -0.490000       15.9994           0
      4604 MEMB     69       SAPC     C31      CL       0.900000       12.0110           0
      4605 MEMB     69       SAPC     O32      OBL     -0.630000       15.9994           0
      4606 MEMB     69       SAPC     C32      CTL2    -0.220000       12.0110           0
      4607 MEMB     69       SAPC     H2X      HAL2     0.900000E-01   1.00800           0
      4608 MEMB     69       SAPC     H2Y      HAL2     0.900000E-01   1.00800           0
      4609 MEMB     69       SAPC     C23      CTL2    -0.180000       12.0110           0
      4610 MEMB     69       SAPC     H3R      HAL2     0.900000E-01   1.00800           0
      4611 MEMB     69       SAPC     H3S      HAL2     0.900000E-01   1.00800           0
      4612 MEMB     69       SAPC     C24      CTL2    -0.180000       12.0110           0
      4613 MEMB     69       SAPC     H4R      HAL2     0.900000E-01   1.00800           0
      4614 MEMB     69       SAPC     H4S      HAL2     0.900000E-01   1.00800           0
      4615 MEMB     69       SAPC     C25      CEL1    -0.150000       12.0110           0
      4616 MEMB     69       SAPC     H5R      HEL1     0.150000       1.00800           0
      4617 MEMB     69       SAPC     C26      CEL1    -0.150000       12.0110           0
      4618 MEMB     69       SAPC     H6R      HEL1     0.150000       1.00800           0
      4619 MEMB     69       SAPC     C27      CTL2    -0.180000       12.0110           0
      4620 MEMB     69       SAPC     H7R      HAL2     0.900000E-01   1.00800           0
      4621 MEMB     69       SAPC     H7S      HAL2     0.900000E-01   1.00800           0
      4622 MEMB     69       SAPC     C28      CEL1    -0.150000       12.0110           0
      4623 MEMB     69       SAPC     H8R      HEL1     0.150000       1.00800           0
      4624 MEMB     69       SAPC     C29      CEL1    -0.150000       12.0110           0
      4625 MEMB     69       SAPC     H9R      HEL1     0.150000       1.00800           0
      4626 MEMB     69       SAPC     C210     CTL2    -0.180000       12.0110           0
      4627 MEMB     69       SAPC     H10R     HAL2     0.900000E-01   1.00800           0
      4628 MEMB     69       SAPC     H10S     HAL2     0.900000E-01   1.00800           0
      4629 MEMB     69       SAPC     C211     CEL1    -0.150000       12.0110           0
      4630 MEMB     69       SAPC     H11R     HEL1     0.150000       1.00800           0
      4631 MEMB     69       SAPC     C212     CEL1    -0.150000       12.0110           0
      4632 MEMB     69       SAPC     H12R     HEL1     0.150000       1.00800           0
      4633 MEMB     69       SAPC     C213     CTL2    -0.180000       12.0110           0
      4634 MEMB     69       SAPC     H13R     HAL2     0.900000E-01   1.00800           0
      4635 MEMB     69       SAPC     H13S     HAL2     0.900000E-01   1.00800           0
      4636 MEMB     69       SAPC     C214     CEL1    -0.150000       12.0110           0
      4637 MEMB     69       SAPC     H14R     HEL1     0.150000       1.00800           0
      4638 MEMB     69       SAPC     C215     CEL1    -0.150000       12.0110           0
      4639 MEMB     69       SAPC     H15R     HEL1     0.150000       1.00800           0
      4640 MEMB     69       SAPC     C216     CTL2    -0.180000       12.0110           0
      4641 MEMB     69       SAPC     H16R     HAL2     0.900000E-01   1.00800           0
      4642 MEMB     69       SAPC     H16S     HAL2     0.900000E-01   1.00800           0
      4643 MEMB     69       SAPC     C217     CTL2    -0.180000       12.0110           0
      4644 MEMB     69       SAPC     H17R     HAL2     0.900000E-01   1.00800           0
      4645 MEMB     69       SAPC     H17S     HAL2     0.900000E-01   1.00800           0
      4646 MEMB     69       SAPC     C218     CTL2    -0.270000       12.0110           0
      4647 MEMB     69       SAPC     H18R     HAL2     0.900000E-01   1.00800           0
      4648 MEMB     69       SAPC     H18S     HAL2     0.900000E-01   1.00800           0
      4649 MEMB     69       SAPC     C219     CTL2    -0.180000       12.0110           0
      4650 MEMB     69       SAPC     H19R     HAL2     0.900000E-01   1.00800           0
      4651 MEMB     69       SAPC     H19S     HAL2     0.900000E-01   1.00800           0
      4652 MEMB     69       SAPC     C220     CTL3    -0.180000       12.0110           0
      4653 MEMB     69       SAPC     H20R     HAL3     0.900000E-01   1.00800           0
      4654 MEMB     69       SAPC     H20S     HAL3     0.900000E-01   1.00800           0
      4655 MEMB     69       SAPC     H20T     HAL3     0.900000E-01   1.00800           0
      4656 MEMB     69       SAPC     C33      CTL2    -0.180000       12.0110           0
      4657 MEMB     69       SAPC     H3X      HAL2     0.900000E-01   1.00800           0
      4658 MEMB     69       SAPC     H3Y      HAL2     0.900000E-01   1.00800           0
      4659 MEMB     69       SAPC     C34      CTL2    -0.180000       12.0110           0
      4660 MEMB     69       SAPC     H4X      HAL2     0.900000E-01   1.00800           0
      4661 MEMB     69       SAPC     H4Y      HAL2     0.900000E-01   1.00800           0
      4662 MEMB     69       SAPC     C35      CTL2    -0.180000       12.0110           0
      4663 MEMB     69       SAPC     H5X      HAL2     0.900000E-01   1.00800           0
      4664 MEMB     69       SAPC     H5Y      HAL2     0.900000E-01   1.00800           0
      4665 MEMB     69       SAPC     C36      CTL2    -0.180000       12.0110           0
      4666 MEMB     69       SAPC     H6X      HAL2     0.900000E-01   1.00800           0
      4667 MEMB     69       SAPC     H6Y      HAL2     0.900000E-01   1.00800           0
      4668 MEMB     69       SAPC     C37      CTL2    -0.180000       12.0110           0
      4669 MEMB     69       SAPC     H7X      HAL2     0.900000E-01   1.00800           0
      4670 MEMB     69       SAPC     H7Y      HAL2     0.900000E-01   1.00800           0
      4671 MEMB     69       SAPC     C38      CTL2    -0.180000       12.0110           0
      4672 MEMB     69       SAPC     H8X      HAL2     0.900000E-01   1.00800           0
      4673 MEMB     69       SAPC     H8Y      HAL2     0.900000E-01   1.00800           0
      4674 MEMB     69       SAPC     C39      CTL2    -0.180000       12.0110           0
      4675 MEMB     69       SAPC     H9X      HAL2     0.900000E-01   1.00800           0
      4676 MEMB     69       SAPC     H9Y      HAL2     0.900000E-01   1.00800           0
      4677 MEMB     69       SAPC     C310     CTL2    -0.180000       12.0110           0
      4678 MEMB     69       SAPC     H10X     HAL2     0.900000E-01   1.00800           0
      4679 MEMB     69       SAPC     H10Y     HAL2     0.900000E-01   1.00800           0
      4680 MEMB     69       SAPC     C311     CTL2    -0.180000       12.0110           0
      4681 MEMB     69       SAPC     H11X     HAL2     0.900000E-01   1.00800           0
      4682 MEMB     69       SAPC     H11Y     HAL2     0.900000E-01   1.00800           0
      4683 MEMB     69       SAPC     C312     CTL2    -0.180000       12.0110           0
      4684 MEMB     69       SAPC     H12X     HAL2     0.900000E-01   1.00800           0
      4685 MEMB     69       SAPC     H12Y     HAL2     0.900000E-01   1.00800           0
      4686 MEMB     69       SAPC     C313     CTL2    -0.180000       12.0110           0
      4687 MEMB     69       SAPC     H13X     HAL2     0.900000E-01   1.00800           0
      4688 MEMB     69       SAPC     H13Y     HAL2     0.900000E-01   1.00800           0
      4689 MEMB     69       SAPC     C314     CTL2    -0.180000       12.0110           0
      4690 MEMB     69       SAPC     H14X     HAL2     0.900000E-01   1.00800           0
      4691 MEMB     69       SAPC     H14Y     HAL2     0.900000E-01   1.00800           0
      4692 MEMB     69       SAPC     C315     CTL2    -0.180000       12.0110           0
      4693 MEMB     69       SAPC     H15X     HAL2     0.900000E-01   1.00800           0
      4694 MEMB     69       SAPC     H15Y     HAL2     0.900000E-01   1.00800           0
      4695 MEMB     69       SAPC     C316     CTL2    -0.180000       12.0110           0
      4696 MEMB     69       SAPC     H16X     HAL2     0.900000E-01   1.00800           0
      4697 MEMB     69       SAPC     H16Y     HAL2     0.900000E-01   1.00800           0
      4698 MEMB     69       SAPC     C317     CTL2    -0.180000       12.0110           0
      4699 MEMB     69       SAPC     H17X     HAL2     0.900000E-01   1.00800           0
      4700 MEMB     69       SAPC     H17Y     HAL2     0.900000E-01   1.00800           0
      4701 MEMB     69       SAPC     C318     CTL3    -0.270000       12.0110           0
      4702 MEMB     69       SAPC     H18X     HAL3     0.900000E-01   1.00800           0
      4703 MEMB     69       SAPC     H18Y     HAL3     0.900000E-01   1.00800           0
      4704 MEMB     69       SAPC     H18Z     HAL3     0.900000E-01   1.00800           0
      4705 MEMB     76       SAPC     N        NTL     -0.600000       14.0070           0
      4706 MEMB     76       SAPC     C12      CTL2    -0.100000       12.0110           0
      4707 MEMB     76       SAPC     H12A     HL       0.250000       1.00800           0
      4708 MEMB     76       SAPC     H12B     HL       0.250000       1.00800           0
      4709 MEMB     76       SAPC     C13      CTL5    -0.350000       12.0110           0
      4710 MEMB     76       SAPC     H13A     HL       0.250000       1.00800           0
      4711 MEMB     76       SAPC     H13B     HL       0.250000       1.00800           0
      4712 MEMB     76       SAPC     H13C     HL       0.250000       1.00800           0
      4713 MEMB     76       SAPC     C14      CTL5    -0.350000       12.0110           0
      4714 MEMB     76       SAPC     H14A     HL       0.250000       1.00800           0
      4715 MEMB     76       SAPC     H14B     HL       0.250000       1.00800           0
      4716 MEMB     76       SAPC     H14C     HL       0.250000       1.00800           0
      4717 MEMB     76       SAPC     C15      CTL5    -0.350000       12.0110           0
      4718 MEMB     76       SAPC     H15A     HL       0.250000       1.00800           0
      4719 MEMB     76       SAPC     H15B     HL       0.250000       1.00800           0
      4720 MEMB     76       SAPC     H15C     HL       0.250000       1.00800           0
      4721 MEMB     76       SAPC     C11      CTL2    -0.800000E-01   12.0110           0
      4722 MEMB     76       SAPC     H11A     HAL2     0.900000E-01   1.00800           0
      4723 MEMB     76       SAPC     H11B     HAL2     0.900000E-01   1.00800           0
      4724 MEMB     76       SAPC     P        PL       1.500000       30.9740           0
      4725 MEMB     76       SAPC     O13      O2L     -0.780000       15.9994           0
      4726 MEMB     76       SAPC     O14      O2L     -0.780000       15.9994           0
      4727 MEMB     76       SAPC     O12      OSLP    -0.570000       15.9994           0
      4728 MEMB     76       SAPC     O11      OSLP    -0.570000       15.9994           0
      4729 MEMB     76       SAPC     C1       CTL2    -0.800000E-01   12.0110           0
      4730 MEMB     76       SAPC     HA       HAL2     0.900000E-01   1.00800           0
      4731 MEMB     76       SAPC     HB       HAL2     0.900000E-01   1.00800           0
      4732 MEMB     76       SAPC     C2       CTL1     0.170000       12.0110           0
      4733 MEMB     76       SAPC     HS       HAL1     0.900000E-01   1.00800           0
      4734 MEMB     76       SAPC     O21      OSL     -0.490000       15.9994           0
      4735 MEMB     76       SAPC     C21      CL       0.900000       12.0110           0
      4736 MEMB     76       SAPC     O22      OBL     -0.630000       15.9994           0
      4737 MEMB     76       SAPC     C22      CTL2    -0.220000       12.0110           0
      4738 MEMB     76       SAPC     H2R      HAL2     0.900000E-01   1.00800           0
      4739 MEMB     76       SAPC     H2S      HAL2     0.900000E-01   1.00800           0
      4740 MEMB     76       SAPC     C3       CTL2     0.800000E-01   12.0110           0
      4741 MEMB     76       SAPC     HX       HAL2     0.900000E-01   1.00800           0
      4742 MEMB     76       SAPC     HY       HAL2     0.900000E-01   1.00800           0
      4743 MEMB     76       SAPC     O31      OSL     -0.490000       15.9994           0
      4744 MEMB     76       SAPC     C31      CL       0.900000       12.0110           0
      4745 MEMB     76       SAPC     O32      OBL     -0.630000       15.9994           0
      4746 MEMB     76       SAPC     C32      CTL2    -0.220000       12.0110           0
      4747 MEMB     76       SAPC     H2X      HAL2     0.900000E-01   1.00800           0
      4748 MEMB     76       SAPC     H2Y      HAL2     0.900000E-01   1.00800           0
      4749 MEMB     76       SAPC     C23      CTL2    -0.180000       12.0110           0
      4750 MEMB     76       SAPC     H3R      HAL2     0.900000E-01   1.00800           0
      4751 MEMB     76       SAPC     H3S      HAL2     0.900000E-01   1.00800           0
      4752 MEMB     76       SAPC     C24      CTL2    -0.180000       12.0110           0
      4753 MEMB     76       SAPC     H4R      HAL2     0.900000E-01   1.00800           0
      4754 MEMB     76       SAPC     H4S      HAL2     0.900000E-01   1.00800           0
      4755 MEMB     76       SAPC     C25      CEL1    -0.150000       12.0110           0
      4756 MEMB     76       SAPC     H5R      HEL1     0.150000       1.00800           0
      4757 MEMB     76       SAPC     C26      CEL1    -0.150000       12.0110           0
      4758 MEMB     76       SAPC     H6R      HEL1     0.150000       1.00800           0
      4759 MEMB     76       SAPC     C27      CTL2    -0.180000       12.0110           0
      4760 MEMB     76       SAPC     H7R      HAL2     0.900000E-01   1.00800           0
      4761 MEMB     76       SAPC     H7S      HAL2     0.900000E-01   1.00800           0
      4762 MEMB     76       SAPC     C28      CEL1    -0.150000       12.0110           0
      4763 MEMB     76       SAPC     H8R      HEL1     0.150000       1.00800           0
      4764 MEMB     76       SAPC     C29      CEL1    -0.150000       12.0110           0
      4765 MEMB     76       SAPC     H9R      HEL1     0.150000       1.00800           0
      4766 MEMB     76       SAPC     C210     CTL2    -0.180000       12.0110           0
      4767 MEMB     76       SAPC     H10R     HAL2     0.900000E-01   1.00800           0
      4768 MEMB     76       SAPC     H10S     HAL2     0.900000E-01   1.00800           0
      4769 MEMB     76       SAPC     C211     CEL1    -0.150000       12.0110           0
      4770 MEMB     76       SAPC     H11R     HEL1     0.150000       1.00800           0
      4771 MEMB     76       SAPC     C212     CEL1    -0.150000       12.0110           0
      4772 MEMB     76       SAPC     H12R     HEL1     0.150000       1.00800           0
      4773 MEMB     76       SAPC     C213     CTL2    -0.180000       12.0110           0
      4774 MEMB     76       SAPC     H13R     HAL2     0.900000E-01   1.00800           0
      4775 MEMB     76       SAPC     H13S     HAL2     0.900000E-01   1.00800           0
      4776 MEMB     76       SAPC     C214     CEL1    -0.150000       12.0110           0
      4777 MEMB     76       SAPC     H14R     HEL1     0.150000       1.00800           0
      4778 MEMB     76       SAPC     C215     CEL1    -0.150000       12.0110           0
      4779 MEMB     76       SAPC     H15R     HEL1     0.150000       1.00800           0
      4780 MEMB     76       SAPC     C216     CTL2    -0.180000       12.0110           0
      4781 MEMB     76       SAPC     H16R     HAL2     0.900000E-01   1.00800           0
      4782 MEMB     76       SAPC     H16S     HAL2     0.900000E-01   1.00800           0
      4783 MEMB     76       SAPC     C217     CTL2    -0.180000       12.0110           0
      4784 MEMB     76       SAPC     H17R     HAL2     0.900000E-01   1.00800           0
      4785 MEMB     76       SAPC     H17S     HAL2     0.900000E-01   1.00800           0
      4786 MEMB     76       SAPC     C218     CTL2    -0.270000       12.0110           0
      4787 MEMB     76       SAPC     H18R     HAL2     0.900000E-01   1.00800           0
      4788 MEMB     76       SAPC     H18S     HAL2     0.900000E-01   1.00800           0
      4789 MEMB     76       SAPC     C219     CTL2    -0.180000       12.0110           0
      4790 MEMB     76       SAPC     H19R     HAL2     0.900000E-01   1.00800           0
      4791 MEMB     76       SAPC     H19S     HAL2     0.900000E-01   1.00800           0
      4792 MEMB     76       SAPC     C220     CTL3    -0.180000       12.0110           0
      4793 MEMB     76       SAPC     H20R     HAL3     0.900000E-01   1.00800           0
      4794 MEMB     76       SAPC     H20S     HAL3     0.900000E-01   1.00800           0
      4795 MEMB     76       SAPC     H20T     HAL3     0.900000E-01   1.00800           0
      4796 MEMB     76       SAPC     C33      CTL2    -0.180000       12.0110           0
      4797 MEMB     76       SAPC     H3X      HAL2     0.900000E-01   1.00800           0
      4798 MEMB     76       SAPC     H3Y      HAL2     0.900000E-01   1.00800           0
      4799 MEMB     76       SAPC     C34      CTL2    -0.180000       12.0110           0
      4800 MEMB     76       SAPC     H4X      HAL2     0.900000E-01   1.00800           0
      4801 MEMB     76       SAPC     H4Y      HAL2     0.900000E-01   1.00800           0
      4802 MEMB     76       SAPC     C35      CTL2    -0.180000       12.0110           0
      4803 MEMB     76       SAPC     H5X      HAL2     0.900000E-01   1.00800           0
      4804 MEMB     76       SAPC     H5Y      HAL2     0.900000E-01   1.00800           0
      4805 MEMB     76       SAPC     C36      CTL2    -0.180000       12.0110           0
      4806 MEMB     76       SAPC     H6X      HAL2     0.900000E-01   1.00800           0
      4807 MEMB     76       SAPC     H6Y      HAL2     0.900000E-01   1.00800           0
      4808 MEMB     76       SAPC     C37      CTL2    -0.180000       12.0110           0
      4809 MEMB     76       SAPC     H7X      HAL2     0.900000E-01   1.00800           0
      4810 MEMB     76       SAPC     H7Y      HAL2     0.900000E-01   1.00800           0
      4811 MEMB     76       SAPC     C38      CTL2    -0.180000       12.0110           0
      4812 MEMB     76       SAPC     H8X      HAL2     0.900000E-01   1.00800           0
      4813 MEMB     76       SAPC     H8Y      HAL2     0.900000E-01   1.00800           0
      4814 MEMB     76       SAPC     C39      CTL2    -0.180000       12.0110           0
      4815 MEMB     76       SAPC     H9X      HAL2     0.900000E-01   1.00800           0
      4816 MEMB     76       SAPC     H9Y      HAL2     0.900000E-01   1.00800           0
      4817 MEMB     76       SAPC     C310     CTL2    -0.180000       12.0110           0
      4818 MEMB     76       SAPC     H10X     HAL2     0.900000E-01   1.00800           0
      4819 MEMB     76       SAPC     H10Y     HAL2     0.900000E-01   1.00800           0
      4820 MEMB     76       SAPC     C311     CTL2    -0.180000       12.0110           0
      4821 MEMB     76       SAPC     H11X     HAL2     0.900000E-01   1.00800           0
      4822 MEMB     76       SAPC     H11Y     HAL2     0.900000E-01   1.00800           0
      4823 MEMB     76       SAPC     C312     CTL2    -0.180000       12.0110           0
      4824 MEMB     76       SAPC     H12X     HAL2     0.900000E-01   1.00800           0
      4825 MEMB     76       SAPC     H12Y     HAL2     0.900000E-01   1.00800           0
      4826 MEMB     76       SAPC     C313     CTL2    -0.180000       12.0110           0
      4827 MEMB     76       SAPC     H13X     HAL2     0.900000E-01   1.00800           0
      4828 MEMB     76       SAPC     H13Y     HAL2     0.900000E-01   1.00800           0
      4829 MEMB     76       SAPC     C314     CTL2    -0.180000       12.0110           0
      4830 MEMB     76       SAPC     H14X     HAL2     0.900000E-01   1.00800           0
      4831 MEMB     76       SAPC     H14Y     HAL2     0.900000E-01   1.00800           0
      4832 MEMB     76       SAPC     C315     CTL2    -0.180000       12.0110           0
      4833 MEMB     76       SAPC     H15X     HAL2     0.900000E-01   1.00800           0
      4834 MEMB     76       SAPC     H15Y     HAL2     0.900000E-01   1.00800           0
      4835 MEMB     76       SAPC     C316     CTL2    -0.180000       12.0110           0
      4836 MEMB     76       SAPC     H16X     HAL2     0.900000E-01   1.00800           0
      4837 MEMB     76       SAPC     H16Y     HAL2     0.900000E-01   1.00800           0
      4838 MEMB     76       SAPC     C317     CTL2    -0.180000       12.0110           0
      4839 MEMB     76       SAPC     H17X     HAL2     0.900000E-01   1.00800           0
      4840 MEMB     76       SAPC     H17Y     HAL2     0.900000E-01   1.00800           0
      4841 MEMB     76       SAPC     C318     CTL3    -0.270000       12.0110           0
      4842 MEMB     76       SAPC     H18X     HAL3     0.900000E-01   1.00800           0
      4843 MEMB     76       SAPC     H18Y     HAL3     0.900000E-01   1.00800           0
      4844 MEMB     76       SAPC     H18Z     HAL3     0.900000E-01   1.00800           0
      4845 MEMB     87       SAPC     N        NTL     -0.600000       14.0070           0
      4846 MEMB     87       SAPC     C12      CTL2    -0.100000       12.0110           0
      4847 MEMB     87       SAPC     H12A     HL       0.250000       1.00800           0
      4848 MEMB     87       SAPC     H12B     HL       0.250000       1.00800           0
      4849 MEMB     87       SAPC     C13      CTL5    -0.350000       12.0110           0
      4850 MEMB     87       SAPC     H13A     HL       0.250000       1.00800           0
      4851 MEMB     87       SAPC     H13B     HL       0.250000       1.00800           0
      4852 MEMB     87       SAPC     H13C     HL       0.250000       1.00800           0
      4853 MEMB     87       SAPC     C14      CTL5    -0.350000       12.0110           0
      4854 MEMB     87       SAPC     H14A     HL       0.250000       1.00800           0
      4855 MEMB     87       SAPC     H14B     HL       0.250000       1.00800           0
      4856 MEMB     87       SAPC     H14C     HL       0.250000       1.00800           0
      4857 MEMB     87       SAPC     C15      CTL5    -0.350000       12.0110           0
      4858 MEMB     87       SAPC     H15A     HL       0.250000       1.00800           0
      4859 MEMB     87       SAPC     H15B     HL       0.250000       1.00800           0
      4860 MEMB     87       SAPC     H15C     HL       0.250000       1.00800           0
      4861 MEMB     87       SAPC     C11      CTL2    -0.800000E-01   12.0110           0
      4862 MEMB     87       SAPC     H11A     HAL2     0.900000E-01   1.00800           0
      4863 MEMB     87       SAPC     H11B     HAL2     0.900000E-01   1.00800           0
      4864 MEMB     87       SAPC     P        PL       1.500000       30.9740           0
      4865 MEMB     87       SAPC     O13      O2L     -0.780000       15.9994           0
      4866 MEMB     87       SAPC     O14      O2L     -0.780000       15.9994           0
      4867 MEMB     87       SAPC     O12      OSLP    -0.570000       15.9994           0
      4868 MEMB     87       SAPC     O11      OSLP    -0.570000       15.9994           0
      4869 MEMB     87       SAPC     C1       CTL2    -0.800000E-01   12.0110           0
      4870 MEMB     87       SAPC     HA       HAL2     0.900000E-01   1.00800           0
      4871 MEMB     87       SAPC     HB       HAL2     0.900000E-01   1.00800           0
      4872 MEMB     87       SAPC     C2       CTL1     0.170000       12.0110           0
      4873 MEMB     87       SAPC     HS       HAL1     0.900000E-01   1.00800           0
      4874 MEMB     87       SAPC     O21      OSL     -0.490000       15.9994           0
      4875 MEMB     87       SAPC     C21      CL       0.900000       12.0110           0
      4876 MEMB     87       SAPC     O22      OBL     -0.630000       15.9994           0
      4877 MEMB     87       SAPC     C22      CTL2    -0.220000       12.0110           0
      4878 MEMB     87       SAPC     H2R      HAL2     0.900000E-01   1.00800           0
      4879 MEMB     87       SAPC     H2S      HAL2     0.900000E-01   1.00800           0
      4880 MEMB     87       SAPC     C3       CTL2     0.800000E-01   12.0110           0
      4881 MEMB     87       SAPC     HX       HAL2     0.900000E-01   1.00800           0
      4882 MEMB     87       SAPC     HY       HAL2     0.900000E-01   1.00800           0
      4883 MEMB     87       SAPC     O31      OSL     -0.490000       15.9994           0
      4884 MEMB     87       SAPC     C31      CL       0.900000       12.0110           0
      4885 MEMB     87       SAPC     O32      OBL     -0.630000       15.9994           0
      4886 MEMB     87       SAPC     C32      CTL2    -0.220000       12.0110           0
      4887 MEMB     87       SAPC     H2X      HAL2     0.900000E-01   1.00800           0
      4888 MEMB     87       SAPC     H2Y      HAL2     0.900000E-01   1.00800           0
      4889 MEMB     87       SAPC     C23      CTL2    -0.180000       12.0110           0
      4890 MEMB     87       SAPC     H3R      HAL2     0.900000E-01   1.00800           0
      4891 MEMB     87       SAPC     H3S      HAL2     0.900000E-01   1.00800           0
      4892 MEMB     87       SAPC     C24      CTL2    -0.180000       12.0110           0
      4893 MEMB     87       SAPC     H4R      HAL2     0.900000E-01   1.00800           0
      4894 MEMB     87       SAPC     H4S      HAL2     0.900000E-01   1.00800           0
      4895 MEMB     87       SAPC     C25      CEL1    -0.150000       12.0110           0
      4896 MEMB     87       SAPC     H5R      HEL1     0.150000       1.00800           0
      4897 MEMB     87       SAPC     C26      CEL1    -0.150000       12.0110           0
      4898 MEMB     87       SAPC     H6R      HEL1     0.150000       1.00800           0
      4899 MEMB     87       SAPC     C27      CTL2    -0.180000       12.0110           0
      4900 MEMB     87       SAPC     H7R      HAL2     0.900000E-01   1.00800           0
      4901 MEMB     87       SAPC     H7S      HAL2     0.900000E-01   1.00800           0
      4902 MEMB     87       SAPC     C28      CEL1    -0.150000       12.0110           0
      4903 MEMB     87       SAPC     H8R      HEL1     0.150000       1.00800           0
      4904 MEMB     87       SAPC     C29      CEL1    -0.150000       12.0110           0
      4905 MEMB     87       SAPC     H9R      HEL1     0.150000       1.00800           0
      4906 MEMB     87       SAPC     C210     CTL2    -0.180000       12.0110           0
      4907 MEMB     87       SAPC     H10R     HAL2     0.900000E-01   1.00800           0
      4908 MEMB     87       SAPC     H10S     HAL2     0.900000E-01   1.00800           0
      4909 MEMB     87       SAPC     C211     CEL1    -0.150000       12.0110           0
      4910 MEMB     87       SAPC     H11R     HEL1     0.150000       1.00800           0
      4911 MEMB     87       SAPC     C212     CEL1    -0.150000       12.0110           0
      4912 MEMB     87       SAPC     H12R     HEL1     0.150000       1.00800           0
      4913 MEMB     87       SAPC     C213     CTL2    -0.180000       12.0110           0
      4914 MEMB     87       SAPC     H13R     HAL2     0.900000E-01   1.00800           0
      4915 MEMB     87       SAPC     H13S     HAL2     0.900000E-01   1.00800           0
      4916 MEMB     87       SAPC     C214     CEL1    -0.150000       12.0110           0
      4917 MEMB     87       SAPC     H14R     HEL1     0.150000       1.00800           0
      4918 MEMB     87       SAPC     C215     CEL1    -0.150000       12.0110           0
      4919 MEMB     87       SAPC     H15R     HEL1     0.150000       1.00800           0
      4920 MEMB     87       SAPC     C216     CTL2    -0.180000       12.0110           0
      4921 MEMB     87       SAPC     H16R     HAL2     0.900000E-01   1.00800           0
      4922 MEMB     87       SAPC     H16S     HAL2     0.900000E-01   1.00800           0
      4923 MEMB     87       SAPC     C217     CTL2    -0.180000       12.0110           0
      4924 MEMB     87       SAPC     H17R     HAL2     0.900000E-01   1.00800           0
      4925 MEMB     87       SAPC     H17S     HAL2     0.900000E-01   1.00800           0
      4926 MEMB     87       SAPC     C218     CTL2    -0.270000       12.0110           0
      4927 MEMB     87       SAPC     H18R     HAL2     0.900000E-01   1.00800           0
      4928 MEMB     87       SAPC     H18S     HAL2     0.900000E-01   1.00800           0
      4929 MEMB     87       SAPC     C219     CTL2    -0.180000       12.0110           0
      4930 MEMB     87       SAPC     H19R     HAL2     0.900000E-01   1.00800           0
      4931 MEMB     87       SAPC     H19S     HAL2     0.900000E-01   1.00800           0
      4932 MEMB     87       SAPC     C220     CTL3    -0.180000       12.0110           0
      4933 MEMB     87       SAPC     H20R     HAL3     0.900000E-01   1.00800           0
      4934 MEMB     87       SAPC     H20S     HAL3     0.900000E-01   1.00800           0
      4935 MEMB     87       SAPC     H20T     HAL3     0.900000E-01   1.00800           0
      4936 MEMB     87       SAPC     C33      CTL2    -0.180000       12.0110           0
      4937 MEMB     87       SAPC     H3X      HAL2     0.900000E-01   1.00800           0
      4938 MEMB     87       SAPC     H3Y      HAL2     0.900000E-01   1.00800           0
      4939 MEMB     87       SAPC     C34      CTL2    -0.180000       12.0110           0
      4940 MEMB     87       SAPC     H4X      HAL2     0.900000E-01   1.00800           0
      4941 MEMB     87       SAPC     H4Y      HAL2     0.900000E-01   1.00800           0
      4942 MEMB     87       SAPC     C35      CTL2    -0.180000       12.0110           0
      4943 MEMB     87       SAPC     H5X      HAL2     0.900000E-01   1.00800           0
      4944 MEMB     87       SAPC     H5Y      HAL2     0.900000E-01   1.00800           0
      4945 MEMB     87       SAPC     C36      CTL2    -0.180000       12.0110           0
      4946 MEMB     87       SAPC     H6X      HAL2     0.900000E-01   1.00800           0
      4947 MEMB     87       SAPC     H6Y      HAL2     0.900000E-01   1.00800           0
      4948 MEMB     87       SAPC     C37      CTL2    -0.180000       12.0110           0
      4949 MEMB     87       SAPC     H7X      HAL2     0.900000E-01   1.00800           0
      4950 MEMB     87       SAPC     H7Y      HAL2     0.900000E-01   1.00800           0
      4951 MEMB     87       SAPC     C38      CTL2    -0.180000       12.0110           0
      4952 MEMB     87       SAPC     H8X      HAL2     0.900000E-01   1.00800           0
      4953 MEMB     87       SAPC     H8Y      HAL2     0.900000E-01   1.00800           0
      4954 MEMB     87       SAPC     C39      CTL2    -0.180000       12.0110           0
      4955 MEMB     87       SAPC     H9X      HAL2     0.900000E-01   1.00800           0
      4956 MEMB     87       SAPC     H9Y      HAL2     0.900000E-01   1.00800           0
      4957 MEMB     87       SAPC     C310     CTL2    -0.180000       12.0110           0
      4958 MEMB     87       SAPC     H10X     HAL2     0.900000E-01   1.00800           0
      4959 MEMB     87       SAPC     H10Y     HAL2     0.900000E-01   1.00800           0
      4960 MEMB     87       SAPC     C311     CTL2    -0.180000       12.0110           0
      4961 MEMB     87       SAPC     H11X     HAL2     0.900000E-01   1.00800           0
      4962 MEMB     87       SAPC     H11Y     HAL2     0.900000E-01   1.00800           0
      4963 MEMB     87       SAPC     C312     CTL2    -0.180000       12.0110           0
      4964 MEMB     87       SAPC     H12X     HAL2     0.900000E-01   1.00800           0
      4965 MEMB     87       SAPC     H12Y     HAL2     0.900000E-01   1.00800           0
      4966 MEMB     87       SAPC     C313     CTL2    -0.180000       12.0110           0
      4967 MEMB     87       SAPC     H13X     HAL2     0.900000E-01   1.00800           0
      4968 MEMB     87       SAPC     H13Y     HAL2     0.900000E-01   1.00800           0
      4969 MEMB     87       SAPC     C314     CTL2    -0.180000       12.0110           0
      4970 MEMB     87       SAPC     H14X     HAL2     0.900000E-01   1.00800           0
      4971 MEMB     87       SAPC     H14Y     HAL2     0.900000E-01   1.00800           0
      4972 MEMB     87       SAPC     C315     CTL2    -0.180000       12.0110           0
      4973 MEMB     87       SAPC     H15X     HAL2     0.900000E-01   1.00800           0
      4974 MEMB     87       SAPC     H15Y     HAL2     0.900000E-01   1.00800           0
      4975 MEMB     87       SAPC     C316     CTL2    -0.180000       12.0110           0
      4976 MEMB     87       SAPC     H16X     HAL2     0.900000E-01   1.00800           0
      4977 MEMB     87       SAPC     H16Y     HAL2     0.900000E-01   1.00800           0
      4978 MEMB     87       SAPC     C317     CTL2    -0.180000       12.0110           0
      4979 MEMB     87       SAPC     H17X     HAL2     0.900000E-01   1.00800           0
      4980 MEMB     87       SAPC     H17Y     HAL2     0.900000E-01   1.00800           0
      4981 MEMB     87       SAPC     C318     CTL3    -0.270000       12.0110           0
      4982 MEMB     87       SAPC     H18X     HAL3     0.900000E-01   1.00800           0
      4983 MEMB     87       SAPC     H18Y     HAL3     0.900000E-01   1.00800           0
      4984 MEMB     87       SAPC     H18Z     HAL3     0.900000E-01   1.00800           0
      4985 MEMB     99       SAPC     N        NTL     -0.600000       14.0070           0
      4986 MEMB     99       SAPC     C12      CTL2    -0.100000       12.0110           0
      4987 MEMB     99       SAPC     H12A     HL       0.250000       1.00800           0
      4988 MEMB     99       SAPC     H12B     HL       0.250000       1.00800           0
      4989 MEMB     99       SAPC     C13      CTL5    -0.350000       12.0110           0
      4990 MEMB     99       SAPC     H13A     HL       0.250000       1.00800           0
      4991 MEMB     99       SAPC     H13B     HL       0.250000       1.00800           0
      4992 MEMB     99       SAPC     H13C     HL       0.250000       1.00800           0
      4993 MEMB     99       SAPC     C14      CTL5    -0.350000       12.0110           0
      4994 MEMB     99       SAPC     H14A     HL       0.250000       1.00800           0
      4995 MEMB     99       SAPC     H14B     HL       0.250000       1.00800           0
      4996 MEMB     99       SAPC     H14C     HL       0.250000       1.00800           0
      4997 MEMB     99       SAPC     C15      CTL5    -0.350000       12.0110           0
      4998 MEMB     99       SAPC     H15A     HL       0.250000       1.00800           0
      4999 MEMB     99       SAPC     H15B     HL       0.250000       1.00800           0
      5000 MEMB     99       SAPC     H15C     HL       0.250000       1.00800           0
      5001 MEMB     99       SAPC     C11      CTL2    -0.800000E-01   12.0110           0
      5002 MEMB     99       SAPC     H11A     HAL2     0.900000E-01   1.00800           0
      5003 MEMB     99       SAPC     H11B     HAL2     0.900000E-01   1.00800           0
      5004 MEMB     99       SAPC     P        PL       1.500000       30.9740           0
      5005 MEMB     99       SAPC     O13      O2L     -0.780000       15.9994           0
      5006 MEMB     99       SAPC     O14      O2L     -0.780000       15.9994           0
      5007 MEMB     99       SAPC     O12      OSLP    -0.570000       15.9994           0
      5008 MEMB     99       SAPC     O11      OSLP    -0.570000       15.9994           0
      5009 MEMB     99       SAPC     C1       CTL2    -0.800000E-01   12.0110           0
      5010 MEMB     99       SAPC     HA       HAL2     0.900000E-01   1.00800           0
      5011 MEMB     99       SAPC     HB       HAL2     0.900000E-01   1.00800           0
      5012 MEMB     99       SAPC     C2       CTL1     0.170000       12.0110           0
      5013 MEMB     99       SAPC     HS       HAL1     0.900000E-01   1.00800           0
      5014 MEMB     99       SAPC     O21      OSL     -0.490000       15.9994           0
      5015 MEMB     99       SAPC     C21      CL       0.900000       12.0110           0
      5016 MEMB     99       SAPC     O22      OBL     -0.630000       15.9994           0
      5017 MEMB     99       SAPC     C22      CTL2    -0.220000       12.0110           0
      5018 MEMB     99       SAPC     H2R      HAL2     0.900000E-01   1.00800           0
      5019 MEMB     99       SAPC     H2S      HAL2     0.900000E-01   1.00800           0
      5020 MEMB     99       SAPC     C3       CTL2     0.800000E-01   12.0110           0
      5021 MEMB     99       SAPC     HX       HAL2     0.900000E-01   1.00800           0
      5022 MEMB     99       SAPC     HY       HAL2     0.900000E-01   1.00800           0
      5023 MEMB     99       SAPC     O31      OSL     -0.490000       15.9994           0
      5024 MEMB     99       SAPC     C31      CL       0.900000       12.0110           0
      5025 MEMB     99       SAPC     O32      OBL     -0.630000       15.9994           0
      5026 MEMB     99       SAPC     C32      CTL2    -0.220000       12.0110           0
      5027 MEMB     99       SAPC     H2X      HAL2     0.900000E-01   1.00800           0
      5028 MEMB     99       SAPC     H2Y      HAL2     0.900000E-01   1.00800           0
      5029 MEMB     99       SAPC     C23      CTL2    -0.180000       12.0110           0
      5030 MEMB     99       SAPC     H3R      HAL2     0.900000E-01   1.00800           0
      5031 MEMB     99       SAPC     H3S      HAL2     0.900000E-01   1.00800           0
      5032 MEMB     99       SAPC     C24      CTL2    -0.180000       12.0110           0
      5033 MEMB     99       SAPC     H4R      HAL2     0.900000E-01   1.00800           0
      5034 MEMB     99       SAPC     H4S      HAL2     0.900000E-01   1.00800           0
      5035 MEMB     99       SAPC     C25      CEL1    -0.150000       12.0110           0
      5036 MEMB     99       SAPC     H5R      HEL1     0.150000       1.00800           0
      5037 MEMB     99       SAPC     C26      CEL1    -0.150000       12.0110           0
      5038 MEMB     99       SAPC     H6R      HEL1     0.150000       1.00800           0
      5039 MEMB     99       SAPC     C27      CTL2    -0.180000       12.0110           0
      5040 MEMB     99       SAPC     H7R      HAL2     0.900000E-01   1.00800           0
      5041 MEMB     99       SAPC     H7S      HAL2     0.900000E-01   1.00800           0
      5042 MEMB     99       SAPC     C28      CEL1    -0.150000       12.0110           0
      5043 MEMB     99       SAPC     H8R      HEL1     0.150000       1.00800           0
      5044 MEMB     99       SAPC     C29      CEL1    -0.150000       12.0110           0
      5045 MEMB     99       SAPC     H9R      HEL1     0.150000       1.00800           0
      5046 MEMB     99       SAPC     C210     CTL2    -0.180000       12.0110           0
      5047 MEMB     99       SAPC     H10R     HAL2     0.900000E-01   1.00800           0
      5048 MEMB     99       SAPC     H10S     HAL2     0.900000E-01   1.00800           0
      5049 MEMB     99       SAPC     C211     CEL1    -0.150000       12.0110           0
      5050 MEMB     99       SAPC     H11R     HEL1     0.150000       1.00800           0
      5051 MEMB     99       SAPC     C212     CEL1    -0.150000       12.0110           0
      5052 MEMB     99       SAPC     H12R     HEL1     0.150000       1.00800           0
      5053 MEMB     99       SAPC     C213     CTL2    -0.180000       12.0110           0
      5054 MEMB     99       SAPC     H13R     HAL2     0.900000E-01   1.00800           0
      5055 MEMB     99       SAPC     H13S     HAL2     0.900000E-01   1.00800           0
      5056 MEMB     99       SAPC     C214     CEL1    -0.150000       12.0110           0
      5057 MEMB     99       SAPC     H14R     HEL1     0.150000       1.00800           0
      5058 MEMB     99       SAPC     C215     CEL1    -0.150000       12.0110           0
      5059 MEMB     99       SAPC     H15R     HEL1     0.150000       1.00800           0
      5060 MEMB     99       SAPC     C216     CTL2    -0.180000       12.0110           0
      5061 MEMB     99       SAPC     H16R     HAL2     0.900000E-01   1.00800           0
      5062 MEMB     99       SAPC     H16S     HAL2     0.900000E-01   1.00800           0
      5063 MEMB     99       SAPC     C217     CTL2    -0.180000       12.0110           0
      5064 MEMB     99       SAPC     H17R     HAL2     0.900000E-01   1.00800           0
      5065 MEMB     99       SAPC     H17S     HAL2     0.900000E-01   1.00800           0
      5066 MEMB     99       SAPC     C218     CTL2    -0.270000       12.0110           0
      5067 MEMB     99       SAPC     H18R     HAL2     0.900000E-01   1.00800           0
      5068 MEMB     99       SAPC     H18S     HAL2     0.900000E-01   1.00800           0
      5069 MEMB     99       SAPC     C219     CTL2    -0.180000       12.0110           0
      5070 MEMB     99       SAPC     H19R     HAL2     0.900000E-01   1.00800           0
      5071 MEMB     99       SAPC     H19S     HAL2     0.900000E-01   1.00800           0
      5072 MEMB     99       SAPC     C220     CTL3    -0.180000       12.0110           0
      5073 MEMB     99       SAPC     H20R     HAL3     0.900000E-01   1.00800           0
      5074 MEMB     99       SAPC     H20S     HAL3     0.900000E-01   1.00800           0
      5075 MEMB     99       SAPC     H20T     HAL3     0.900000E-01   1.00800           0
      5076 MEMB     99       SAPC     C33      CTL2    -0.180000       12.0110           0
      5077 MEMB     99       SAPC     H3X      HAL2     0.900000E-01   1.00800           0
      5078 MEMB     99       SAPC     H3Y      HAL2     0.900000E-01   1.00800           0
      5079 MEMB     99       SAPC     C34      CTL2    -0.180000       12.0110           0
      5080 MEMB     99       SAPC     H4X      HAL2     0.900000E-01   1.00800           0
      5081 MEMB     99       SAPC     H4Y      HAL2     0.900000E-01   1.00800           0
      5082 MEMB     99       SAPC     C35      CTL2    -0.180000       12.0110           0
      5083 MEMB     99       SAPC     H5X      HAL2     0.900000E-01   1.00800           0
      5084 MEMB     99       SAPC     H5Y      HAL2     0.900000E-01   1.00800           0
      5085 MEMB     99       SAPC     C36      CTL2    -0.180000       12.0110           0
      5086 MEMB     99       SAPC     H6X      HAL2     0.900000E-01   1.00800           0
      5087 MEMB     99       SAPC     H6Y      HAL2     0.900000E-01   1.00800           0
      5088 MEMB     99       SAPC     C37      CTL2    -0.180000       12.0110           0
      5089 MEMB     99       SAPC     H7X      HAL2     0.900000E-01   1.00800           0
      5090 MEMB     99       SAPC     H7Y      HAL2     0.900000E-01   1.00800           0
      5091 MEMB     99       SAPC     C38      CTL2    -0.180000       12.0110           0
      5092 MEMB     99       SAPC     H8X      HAL2     0.900000E-01   1.00800           0
      5093 MEMB     99       SAPC     H8Y      HAL2     0.900000E-01   1.00800           0
      5094 MEMB     99       SAPC     C39      CTL2    -0.180000       12.0110           0
      5095 MEMB     99       SAPC     H9X      HAL2     0.900000E-01   1.00800           0
      5096 MEMB     99       SAPC     H9Y      HAL2     0.900000E-01   1.00800           0
      5097 MEMB     99       SAPC     C310     CTL2    -0.180000       12.0110           0
      5098 MEMB     99       SAPC     H10X     HAL2     0.900000E-01   1.00800           0
      5099 MEMB     99       SAPC     H10Y     HAL2     0.900000E-01   1.00800           0
      5100 MEMB     99       SAPC     C311     CTL2    -0.180000       12.0110           0
      5101 MEMB     99       SAPC     H11X     HAL2     0.900000E-01   1.00800           0
      5102 MEMB     99       SAPC     H11Y     HAL2     0.900000E-01   1.00800           0
      5103 MEMB     99       SAPC     C312     CTL2    -0.180000       12.0110           0
      5104 MEMB     99       SAPC     H12X     HAL2     0.900000E-01   1.00800           0
      5105 MEMB     99       SAPC     H12Y     HAL2     0.900000E-01   1.00800           0
      5106 MEMB     99       SAPC     C313     CTL2    -0.180000       12.0110           0
      5107 MEMB     99       SAPC     H13X     HAL2     0.900000E-01   1.00800           0
      5108 MEMB     99       SAPC     H13Y     HAL2     0.900000E-01   1.00800           0
      5109 MEMB     99       SAPC     C314     CTL2    -0.180000       12.0110           0
      5110 MEMB     99       SAPC     H14X     HAL2     0.900000E-01   1.00800           0
      5111 MEMB     99       SAPC     H14Y     HAL2     0.900000E-01   1.00800           0
      5112 MEMB     99       SAPC     C315     CTL2    -0.180000       12.0110           0
      5113 MEMB     99       SAPC     H15X     HAL2     0.900000E-01   1.00800           0
      5114 MEMB     99       SAPC     H15Y     HAL2     0.900000E-01   1.00800           0
      5115 MEMB     99       SAPC     C316     CTL2    -0.180000       12.0110           0
      5116 MEMB     99       SAPC     H16X     HAL2     0.900000E-01   1.00800           0
      5117 MEMB     99       SAPC     H16Y     HAL2     0.900000E-01   1.00800           0
      5118 MEMB     99       SAPC     C317     CTL2    -0.180000       12.0110           0
      5119 MEMB     99       SAPC     H17X     HAL2     0.900000E-01   1.00800           0
      5120 MEMB     99       SAPC     H17Y     HAL2     0.900000E-01   1.00800           0
      5121 MEMB     99       SAPC     C318     CTL3    -0.270000       12.0110           0
      5122 MEMB     99       SAPC     H18X     HAL3     0.900000E-01   1.00800           0
      5123 MEMB     99       SAPC     H18Y     HAL3     0.900000E-01   1.00800           0
      5124 MEMB     99       SAPC     H18Z     HAL3     0.900000E-01   1.00800           0
      5125 MEMB     136      SAPC     N        NTL     -0.600000       14.0070           0
      5126 MEMB     136      SAPC     C12      CTL2    -0.100000       12.0110           0
      5127 MEMB     136      SAPC     H12A     HL       0.250000       1.00800           0
      5128 MEMB     136      SAPC     H12B     HL       0.250000       1.00800           0
      5129 MEMB     136      SAPC     C13      CTL5    -0.350000       12.0110           0
      5130 MEMB     136      SAPC     H13A     HL       0.250000       1.00800           0
      5131 MEMB     136      SAPC     H13B     HL       0.250000       1.00800           0
      5132 MEMB     136      SAPC     H13C     HL       0.250000       1.00800           0
      5133 MEMB     136      SAPC     C14      CTL5    -0.350000       12.0110           0
      5134 MEMB     136      SAPC     H14A     HL       0.250000       1.00800           0
      5135 MEMB     136      SAPC     H14B     HL       0.250000       1.00800           0
      5136 MEMB     136      SAPC     H14C     HL       0.250000       1.00800           0
      5137 MEMB     136      SAPC     C15      CTL5    -0.350000       12.0110           0
      5138 MEMB     136      SAPC     H15A     HL       0.250000       1.00800           0
      5139 MEMB     136      SAPC     H15B     HL       0.250000       1.00800           0
      5140 MEMB     136      SAPC     H15C     HL       0.250000       1.00800           0
      5141 MEMB     136      SAPC     C11      CTL2    -0.800000E-01   12.0110           0
      5142 MEMB     136      SAPC     H11A     HAL2     0.900000E-01   1.00800           0
      5143 MEMB     136      SAPC     H11B     HAL2     0.900000E-01   1.00800           0
      5144 MEMB     136      SAPC     P        PL       1.500000       30.9740           0
      5145 MEMB     136      SAPC     O13      O2L     -0.780000       15.9994           0
      5146 MEMB     136      SAPC     O14      O2L     -0.780000       15.9994           0
      5147 MEMB     136      SAPC     O12      OSLP    -0.570000       15.9994           0
      5148 MEMB     136      SAPC     O11      OSLP    -0.570000       15.9994           0
      5149 MEMB     136      SAPC     C1       CTL2    -0.800000E-01   12.0110           0
      5150 MEMB     136      SAPC     HA       HAL2     0.900000E-01   1.00800           0
      5151 MEMB     136      SAPC     HB       HAL2     0.900000E-01   1.00800           0
      5152 MEMB     136      SAPC     C2       CTL1     0.170000       12.0110           0
      5153 MEMB     136      SAPC     HS       HAL1     0.900000E-01   1.00800           0
      5154 MEMB     136      SAPC     O21      OSL     -0.490000       15.9994           0
      5155 MEMB     136      SAPC     C21      CL       0.900000       12.0110           0
      5156 MEMB     136      SAPC     O22      OBL     -0.630000       15.9994           0
      5157 MEMB     136      SAPC     C22      CTL2    -0.220000       12.0110           0
      5158 MEMB     136      SAPC     H2R      HAL2     0.900000E-01   1.00800           0
      5159 MEMB     136      SAPC     H2S      HAL2     0.900000E-01   1.00800           0
      5160 MEMB     136      SAPC     C3       CTL2     0.800000E-01   12.0110           0
      5161 MEMB     136      SAPC     HX       HAL2     0.900000E-01   1.00800           0
      5162 MEMB     136      SAPC     HY       HAL2     0.900000E-01   1.00800           0
      5163 MEMB     136      SAPC     O31      OSL     -0.490000       15.9994           0
      5164 MEMB     136      SAPC     C31      CL       0.900000       12.0110           0
      5165 MEMB     136      SAPC     O32      OBL     -0.630000       15.9994           0
      5166 MEMB     136      SAPC     C32      CTL2    -0.220000       12.0110           0
      5167 MEMB     136      SAPC     H2X      HAL2     0.900000E-01   1.00800           0
      5168 MEMB     136      SAPC     H2Y      HAL2     0.900000E-01   1.00800           0
      5169 MEMB     136      SAPC     C23      CTL2    -0.180000       12.0110           0
      5170 MEMB     136      SAPC     H3R      HAL2     0.900000E-01   1.00800           0
      5171 MEMB     136      SAPC     H3S      HAL2     0.900000E-01   1.00800           0
      5172 MEMB     136      SAPC     C24      CTL2    -0.180000       12.0110           0
      5173 MEMB     136      SAPC     H4R      HAL2     0.900000E-01   1.00800           0
      5174 MEMB     136      SAPC     H4S      HAL2     0.900000E-01   1.00800           0
      5175 MEMB     136      SAPC     C25      CEL1    -0.150000       12.0110           0
      5176 MEMB     136      SAPC     H5R      HEL1     0.150000       1.00800           0
      5177 MEMB     136      SAPC     C26      CEL1    -0.150000       12.0110           0
      5178 MEMB     136      SAPC     H6R      HEL1     0.150000       1.00800           0
      5179 MEMB     136      SAPC     C27      CTL2    -0.180000       12.0110           0
      5180 MEMB     136      SAPC     H7R      HAL2     0.900000E-01   1.00800           0
      5181 MEMB     136      SAPC     H7S      HAL2     0.900000E-01   1.00800           0
      5182 MEMB     136      SAPC     C28      CEL1    -0.150000       12.0110           0
      5183 MEMB     136      SAPC     H8R      HEL1     0.150000       1.00800           0
      5184 MEMB     136      SAPC     C29      CEL1    -0.150000       12.0110           0
      5185 MEMB     136      SAPC     H9R      HEL1     0.150000       1.00800           0
      5186 MEMB     136      SAPC     C210     CTL2    -0.180000       12.0110           0
      5187 MEMB     136      SAPC     H10R     HAL2     0.900000E-01   1.00800           0
      5188 MEMB     136      SAPC     H10S     HAL2     0.900000E-01   1.00800           0
      5189 MEMB     136      SAPC     C211     CEL1    -0.150000       12.0110           0
      5190 MEMB     136      SAPC     H11R     HEL1     0.150000       1.00800           0
      5191 MEMB     136      SAPC     C212     CEL1    -0.150000       12.0110           0
      5192 MEMB     136      SAPC     H12R     HEL1     0.150000       1.00800           0
      5193 MEMB     136      SAPC     C213     CTL2    -0.180000       12.0110           0
      5194 MEMB     136      SAPC     H13R     HAL2     0.900000E-01   1.00800           0
      5195 MEMB     136      SAPC     H13S     HAL2     0.900000E-01   1.00800           0
      5196 MEMB     136      SAPC     C214     CEL1    -0.150000       12.0110           0
      5197 MEMB     136      SAPC     H14R     HEL1     0.150000       1.00800           0
      5198 MEMB     136      SAPC     C215     CEL1    -0.150000       12.0110           0
      5199 MEMB     136      SAPC     H15R     HEL1     0.150000       1.00800           0
      5200 MEMB     136      SAPC     C216     CTL2    -0.180000       12.0110           0
      5201 MEMB     136      SAPC     H16R     HAL2     0.900000E-01   1.00800           0
      5202 MEMB     136      SAPC     H16S     HAL2     0.900000E-01   1.00800           0
      5203 MEMB     136      SAPC     C217     CTL2    -0.180000       12.0110           0
      5204 MEMB     136      SAPC     H17R     HAL2     0.900000E-01   1.00800           0
      5205 MEMB     136      SAPC     H17S     HAL2     0.900000E-01   1.00800           0
      5206 MEMB     136      SAPC     C218     CTL2    -0.270000       12.0110           0
      5207 MEMB     136      SAPC     H18R     HAL2     0.900000E-01   1.00800           0
      5208 MEMB     136      SAPC     H18S     HAL2     0.900000E-01   1.00800           0
      5209 MEMB     136      SAPC     C219     CTL2    -0.180000       12.0110           0
      5210 MEMB     136      SAPC     H19R     HAL2     0.900000E-01   1.00800           0
      5211 MEMB     136      SAPC     H19S     HAL2     0.900000E-01   1.00800           0
      5212 MEMB     136      SAPC     C220     CTL3    -0.180000       12.0110           0
      5213 MEMB     136      SAPC     H20R     HAL3     0.900000E-01   1.00800           0
      5214 MEMB     136      SAPC     H20S     HAL3     0.900000E-01   1.00800           0
      5215 MEMB     136      SAPC     H20T     HAL3     0.900000E-01   1.00800           0
      5216 MEMB     136      SAPC     C33      CTL2    -0.180000       12.0110           0
      5217 MEMB     136      SAPC     H3X      HAL2     0.900000E-01   1.00800           0
      5218 MEMB     136      SAPC     H3Y      HAL2     0.900000E-01   1.00800           0
      5219 MEMB     136      SAPC     C34      CTL2    -0.180000       12.0110           0
      5220 MEMB     136      SAPC     H4X      HAL2     0.900000E-01   1.00800           0
      5221 MEMB     136      SAPC     H4Y      HAL2     0.900000E-01   1.00800           0
      5222 MEMB     136      SAPC     C35      CTL2    -0.180000       12.0110           0
      5223 MEMB     136      SAPC     H5X      HAL2     0.900000E-01   1.00800           0
      5224 MEMB     136      SAPC     H5Y      HAL2     0.900000E-01   1.00800           0
      5225 MEMB     136      SAPC     C36      CTL2    -0.180000       12.0110           0
      5226 MEMB     136      SAPC     H6X      HAL2     0.900000E-01   1.00800           0
      5227 MEMB     136      SAPC     H6Y      HAL2     0.900000E-01   1.00800           0
      5228 MEMB     136      SAPC     C37      CTL2    -0.180000       12.0110           0
      5229 MEMB     136      SAPC     H7X      HAL2     0.900000E-01   1.00800           0
      5230 MEMB     136      SAPC     H7Y      HAL2     0.900000E-01   1.00800           0
      5231 MEMB     136      SAPC     C38      CTL2    -0.180000       12.0110           0
      5232 MEMB     136      SAPC     H8X      HAL2     0.900000E-01   1.00800           0
      5233 MEMB     136      SAPC     H8Y      HAL2     0.900000E-01   1.00800           0
      5234 MEMB     136      SAPC     C39      CTL2    -0.180000       12.0110           0
      5235 MEMB     136      SAPC     H9X      HAL2     0.900000E-01   1.00800           0
      5236 MEMB     136      SAPC     H9Y      HAL2     0.900000E-01   1.00800           0
      5237 MEMB     136      SAPC     C310     CTL2    -0.180000       12.0110           0
      5238 MEMB     136      SAPC     H10X     HAL2     0.900000E-01   1.00800           0
      5239 MEMB     136      SAPC     H10Y     HAL2     0.900000E-01   1.00800           0
      5240 MEMB     136      SAPC     C311     CTL2    -0.180000       12.0110           0
      5241 MEMB     136      SAPC     H11X     HAL2     0.900000E-01   1.00800           0
      5242 MEMB     136      SAPC     H11Y     HAL2     0.900000E-01   1.00800           0
      5243 MEMB     136      SAPC     C312     CTL2    -0.180000       12.0110           0
      5244 MEMB     136      SAPC     H12X     HAL2     0.900000E-01   1.00800           0
      5245 MEMB     136      SAPC     H12Y     HAL2     0.900000E-01   1.00800           0
      5246 MEMB     136      SAPC     C313     CTL2    -0.180000       12.0110           0
      5247 MEMB     136      SAPC     H13X     HAL2     0.900000E-01   1.00800           0
      5248 MEMB     136      SAPC     H13Y     HAL2     0.900000E-01   1.00800           0
      5249 MEMB     136      SAPC     C314     CTL2    -0.180000       12.0110           0
      5250 MEMB     136      SAPC     H14X     HAL2     0.900000E-01   1.00800           0
      5251 MEMB     136      SAPC     H14Y     HAL2     0.900000E-01   1.00800           0
      5252 MEMB     136      SAPC     C315     CTL2    -0.180000       12.0110           0
      5253 MEMB     136      SAPC     H15X     HAL2     0.900000E-01   1.00800           0
      5254 MEMB     136      SAPC     H15Y     HAL2     0.900000E-01   1.00800           0
      5255 MEMB     136      SAPC     C316     CTL2    -0.180000       12.0110           0
      5256 MEMB     136      SAPC     H16X     HAL2     0.900000E-01   1.00800           0
      5257 MEMB     136      SAPC     H16Y     HAL2     0.900000E-01   1.00800           0
      5258 MEMB     136      SAPC     C317     CTL2    -0.180000       12.0110           0
      5259 MEMB     136      SAPC     H17X     HAL2     0.900000E-01   1.00800           0
      5260 MEMB     136      SAPC     H17Y     HAL2     0.900000E-01   1.00800           0
      5261 MEMB     136      SAPC     C318     CTL3    -0.270000       12.0110           0
      5262 MEMB     136      SAPC     H18X     HAL3     0.900000E-01   1.00800           0
      5263 MEMB     136      SAPC     H18Y     HAL3     0.900000E-01   1.00800           0
      5264 MEMB     136      SAPC     H18Z     HAL3     0.900000E-01   1.00800           0
      5265 MEMB     141      SAPC     N        NTL     -0.600000       14.0070           0
      5266 MEMB     141      SAPC     C12      CTL2    -0.100000       12.0110           0
      5267 MEMB     141      SAPC     H12A     HL       0.250000       1.00800           0
      5268 MEMB     141      SAPC     H12B     HL       0.250000       1.00800           0
      5269 MEMB     141      SAPC     C13      CTL5    -0.350000       12.0110           0
      5270 MEMB     141      SAPC     H13A     HL       0.250000       1.00800           0
      5271 MEMB     141      SAPC     H13B     HL       0.250000       1.00800           0
      5272 MEMB     141      SAPC     H13C     HL       0.250000       1.00800           0
      5273 MEMB     141      SAPC     C14      CTL5    -0.350000       12.0110           0
      5274 MEMB     141      SAPC     H14A     HL       0.250000       1.00800           0
      5275 MEMB     141      SAPC     H14B     HL       0.250000       1.00800           0
      5276 MEMB     141      SAPC     H14C     HL       0.250000       1.00800           0
      5277 MEMB     141      SAPC     C15      CTL5    -0.350000       12.0110           0
      5278 MEMB     141      SAPC     H15A     HL       0.250000       1.00800           0
      5279 MEMB     141      SAPC     H15B     HL       0.250000       1.00800           0
      5280 MEMB     141      SAPC     H15C     HL       0.250000       1.00800           0
      5281 MEMB     141      SAPC     C11      CTL2    -0.800000E-01   12.0110           0
      5282 MEMB     141      SAPC     H11A     HAL2     0.900000E-01   1.00800           0
      5283 MEMB     141      SAPC     H11B     HAL2     0.900000E-01   1.00800           0
      5284 MEMB     141      SAPC     P        PL       1.500000       30.9740           0
      5285 MEMB     141      SAPC     O13      O2L     -0.780000       15.9994           0
      5286 MEMB     141      SAPC     O14      O2L     -0.780000       15.9994           0
      5287 MEMB     141      SAPC     O12      OSLP    -0.570000       15.9994           0
      5288 MEMB     141      SAPC     O11      OSLP    -0.570000       15.9994           0
      5289 MEMB     141      SAPC     C1       CTL2    -0.800000E-01   12.0110           0
      5290 MEMB     141      SAPC     HA       HAL2     0.900000E-01   1.00800           0
      5291 MEMB     141      SAPC     HB       HAL2     0.900000E-01   1.00800           0
      5292 MEMB     141      SAPC     C2       CTL1     0.170000       12.0110           0
      5293 MEMB     141      SAPC     HS       HAL1     0.900000E-01   1.00800           0
      5294 MEMB     141      SAPC     O21      OSL     -0.490000       15.9994           0
      5295 MEMB     141      SAPC     C21      CL       0.900000       12.0110           0
      5296 MEMB     141      SAPC     O22      OBL     -0.630000       15.9994           0
      5297 MEMB     141      SAPC     C22      CTL2    -0.220000       12.0110           0
      5298 MEMB     141      SAPC     H2R      HAL2     0.900000E-01   1.00800           0
      5299 MEMB     141      SAPC     H2S      HAL2     0.900000E-01   1.00800           0
      5300 MEMB     141      SAPC     C3       CTL2     0.800000E-01   12.0110           0
      5301 MEMB     141      SAPC     HX       HAL2     0.900000E-01   1.00800           0
      5302 MEMB     141      SAPC     HY       HAL2     0.900000E-01   1.00800           0
      5303 MEMB     141      SAPC     O31      OSL     -0.490000       15.9994           0
      5304 MEMB     141      SAPC     C31      CL       0.900000       12.0110           0
      5305 MEMB     141      SAPC     O32      OBL     -0.630000       15.9994           0
      5306 MEMB     141      SAPC     C32      CTL2    -0.220000       12.0110           0
      5307 MEMB     141      SAPC     H2X      HAL2     0.900000E-01   1.00800           0
      5308 MEMB     141      SAPC     H2Y      HAL2     0.900000E-01   1.00800           0
      5309 MEMB     141      SAPC     C23      CTL2    -0.180000       12.0110           0
      5310 MEMB     141      SAPC     H3R      HAL2     0.900000E-01   1.00800           0
      5311 MEMB     141      SAPC     H3S      HAL2     0.900000E-01   1.00800           0
      5312 MEMB     141      SAPC     C24      CTL2    -0.180000       12.0110           0
      5313 MEMB     141      SAPC     H4R      HAL2     0.900000E-01   1.00800           0
      5314 MEMB     141      SAPC     H4S      HAL2     0.900000E-01   1.00800           0
      5315 MEMB     141      SAPC     C25      CEL1    -0.150000       12.0110           0
      5316 MEMB     141      SAPC     H5R      HEL1     0.150000       1.00800           0
      5317 MEMB     141      SAPC     C26      CEL1    -0.150000       12.0110           0
      5318 MEMB     141      SAPC     H6R      HEL1     0.150000       1.00800           0
      5319 MEMB     141      SAPC     C27      CTL2    -0.180000       12.0110           0
      5320 MEMB     141      SAPC     H7R      HAL2     0.900000E-01   1.00800           0
      5321 MEMB     141      SAPC     H7S      HAL2     0.900000E-01   1.00800           0
      5322 MEMB     141      SAPC     C28      CEL1    -0.150000       12.0110           0
      5323 MEMB     141      SAPC     H8R      HEL1     0.150000       1.00800           0
      5324 MEMB     141      SAPC     C29      CEL1    -0.150000       12.0110           0
      5325 MEMB     141      SAPC     H9R      HEL1     0.150000       1.00800           0
      5326 MEMB     141      SAPC     C210     CTL2    -0.180000       12.0110           0
      5327 MEMB     141      SAPC     H10R     HAL2     0.900000E-01   1.00800           0
      5328 MEMB     141      SAPC     H10S     HAL2     0.900000E-01   1.00800           0
      5329 MEMB     141      SAPC     C211     CEL1    -0.150000       12.0110           0
      5330 MEMB     141      SAPC     H11R     HEL1     0.150000       1.00800           0
      5331 MEMB     141      SAPC     C212     CEL1    -0.150000       12.0110           0
      5332 MEMB     141      SAPC     H12R     HEL1     0.150000       1.00800           0
      5333 MEMB     141      SAPC     C213     CTL2    -0.180000       12.0110           0
      5334 MEMB     141      SAPC     H13R     HAL2     0.900000E-01   1.00800           0
      5335 MEMB     141      SAPC     H13S     HAL2     0.900000E-01   1.00800           0
      5336 MEMB     141      SAPC     C214     CEL1    -0.150000       12.0110           0
      5337 MEMB     141      SAPC     H14R     HEL1     0.150000       1.00800           0
      5338 MEMB     141      SAPC     C215     CEL1    -0.150000       12.0110           0
      5339 MEMB     141      SAPC     H15R     HEL1     0.150000       1.00800           0
      5340 MEMB     141      SAPC     C216     CTL2    -0.180000       12.0110           0
      5341 MEMB     141      SAPC     H16R     HAL2     0.900000E-01   1.00800           0
      5342 MEMB     141      SAPC     H16S     HAL2     0.900000E-01   1.00800           0
      5343 MEMB     141      SAPC     C217     CTL2    -0.180000       12.0110           0
      5344 MEMB     141      SAPC     H17R     HAL2     0.900000E-01   1.00800           0
      5345 MEMB     141      SAPC     H17S     HAL2     0.900000E-01   1.00800           0
      5346 MEMB     141      SAPC     C218     CTL2    -0.270000       12.0110           0
      5347 MEMB     141      SAPC     H18R     HAL2     0.900000E-01   1.00800           0
      5348 MEMB     141      SAPC     H18S     HAL2     0.900000E-01   1.00800           0
      5349 MEMB     141      SAPC     C219     CTL2    -0.180000       12.0110           0
      5350 MEMB     141      SAPC     H19R     HAL2     0.900000E-01   1.00800           0
      5351 MEMB     141      SAPC     H19S     HAL2     0.900000E-01   1.00800           0
      5352 MEMB     141      SAPC     C220     CTL3    -0.180000       12.0110           0
      5353 MEMB     141      SAPC     H20R     HAL3     0.900000E-01   1.00800           0
      5354 MEMB     141      SAPC     H20S     HAL3     0.900000E-01   1.00800           0
      5355 MEMB     141      SAPC     H20T     HAL3     0.900000E-01   1.00800           0
      5356 MEMB     141      SAPC     C33      CTL2    -0.180000       12.0110           0
      5357 MEMB     141      SAPC     H3X      HAL2     0.900000E-01   1.00800           0
      5358 MEMB     141      SAPC     H3Y      HAL2     0.900000E-01   1.00800           0
      5359 MEMB     141      SAPC     C34      CTL2    -0.180000       12.0110           0
      5360 MEMB     141      SAPC     H4X      HAL2     0.900000E-01   1.00800           0
      5361 MEMB     141      SAPC     H4Y      HAL2     0.900000E-01   1.00800           0
      5362 MEMB     141      SAPC     C35      CTL2    -0.180000       12.0110           0
      5363 MEMB     141      SAPC     H5X      HAL2     0.900000E-01   1.00800           0
      5364 MEMB     141      SAPC     H5Y      HAL2     0.900000E-01   1.00800           0
      5365 MEMB     141      SAPC     C36      CTL2    -0.180000       12.0110           0
      5366 MEMB     141      SAPC     H6X      HAL2     0.900000E-01   1.00800           0
      5367 MEMB     141      SAPC     H6Y      HAL2     0.900000E-01   1.00800           0
      5368 MEMB     141      SAPC     C37      CTL2    -0.180000       12.0110           0
      5369 MEMB     141      SAPC     H7X      HAL2     0.900000E-01   1.00800           0
      5370 MEMB     141      SAPC     H7Y      HAL2     0.900000E-01   1.00800           0
      5371 MEMB     141      SAPC     C38      CTL2    -0.180000       12.0110           0
      5372 MEMB     141      SAPC     H8X      HAL2     0.900000E-01   1.00800           0
      5373 MEMB     141      SAPC     H8Y      HAL2     0.900000E-01   1.00800           0
      5374 MEMB     141      SAPC     C39      CTL2    -0.180000       12.0110           0
      5375 MEMB     141      SAPC     H9X      HAL2     0.900000E-01   1.00800           0
      5376 MEMB     141      SAPC     H9Y      HAL2     0.900000E-01   1.00800           0
      5377 MEMB     141      SAPC     C310     CTL2    -0.180000       12.0110           0
      5378 MEMB     141      SAPC     H10X     HAL2     0.900000E-01   1.00800           0
      5379 MEMB     141      SAPC     H10Y     HAL2     0.900000E-01   1.00800           0
      5380 MEMB     141      SAPC     C311     CTL2    -0.180000       12.0110           0
      5381 MEMB     141      SAPC     H11X     HAL2     0.900000E-01   1.00800           0
      5382 MEMB     141      SAPC     H11Y     HAL2     0.900000E-01   1.00800           0
      5383 MEMB     141      SAPC     C312     CTL2    -0.180000       12.0110           0
      5384 MEMB     141      SAPC     H12X     HAL2     0.900000E-01   1.00800           0
      5385 MEMB     141      SAPC     H12Y     HAL2     0.900000E-01   1.00800           0
      5386 MEMB     141      SAPC     C313     CTL2    -0.180000       12.0110           0
      5387 MEMB     141      SAPC     H13X     HAL2     0.900000E-01   1.00800           0
      5388 MEMB     141      SAPC     H13Y     HAL2     0.900000E-01   1.00800           0
      5389 MEMB     141      SAPC     C314     CTL2    -0.180000       12.0110           0
      5390 MEMB     141      SAPC     H14X     HAL2     0.900000E-01   1.00800           0
      5391 MEMB     141      SAPC     H14Y     HAL2     0.900000E-01   1.00800           0
      5392 MEMB     141      SAPC     C315     CTL2    -0.180000       12.0110           0
      5393 MEMB     141      SAPC     H15X     HAL2     0.900000E-01   1.00800           0
      5394 MEMB     141      SAPC     H15Y     HAL2     0.900000E-01   1.00800           0
      5395 MEMB     141      SAPC     C316     CTL2    -0.180000       12.0110           0
      5396 MEMB     141      SAPC     H16X     HAL2     0.900000E-01   1.00800           0
      5397 MEMB     141      SAPC     H16Y     HAL2     0.900000E-01   1.00800           0
      5398 MEMB     141      SAPC     C317     CTL2    -0.180000       12.0110           0
      5399 MEMB     141      SAPC     H17X     HAL2     0.900000E-01   1.00800           0
      5400 MEMB     141      SAPC     H17Y     HAL2     0.900000E-01   1.00800           0
      5401 MEMB     141      SAPC     C318     CTL3    -0.270000       12.0110           0
      5402 MEMB     141      SAPC     H18X     HAL3     0.900000E-01   1.00800           0
      5403 MEMB     141      SAPC     H18Y     HAL3     0.900000E-01   1.00800           0
      5404 MEMB     141      SAPC     H18Z     HAL3     0.900000E-01   1.00800           0
      5405 MEMB     145      SAPC     N        NTL     -0.600000       14.0070           0
      5406 MEMB     145      SAPC     C12      CTL2    -0.100000       12.0110           0
      5407 MEMB     145      SAPC     H12A     HL       0.250000       1.00800           0
      5408 MEMB     145      SAPC     H12B     HL       0.250000       1.00800           0
      5409 MEMB     145      SAPC     C13      CTL5    -0.350000       12.0110           0
      5410 MEMB     145      SAPC     H13A     HL       0.250000       1.00800           0
      5411 MEMB     145      SAPC     H13B     HL       0.250000       1.00800           0
      5412 MEMB     145      SAPC     H13C     HL       0.250000       1.00800           0
      5413 MEMB     145      SAPC     C14      CTL5    -0.350000       12.0110           0
      5414 MEMB     145      SAPC     H14A     HL       0.250000       1.00800           0
      5415 MEMB     145      SAPC     H14B     HL       0.250000       1.00800           0
      5416 MEMB     145      SAPC     H14C     HL       0.250000       1.00800           0
      5417 MEMB     145      SAPC     C15      CTL5    -0.350000       12.0110           0
      5418 MEMB     145      SAPC     H15A     HL       0.250000       1.00800           0
      5419 MEMB     145      SAPC     H15B     HL       0.250000       1.00800           0
      5420 MEMB     145      SAPC     H15C     HL       0.250000       1.00800           0
      5421 MEMB     145      SAPC     C11      CTL2    -0.800000E-01   12.0110           0
      5422 MEMB     145      SAPC     H11A     HAL2     0.900000E-01   1.00800           0
      5423 MEMB     145      SAPC     H11B     HAL2     0.900000E-01   1.00800           0
      5424 MEMB     145      SAPC     P        PL       1.500000       30.9740           0
      5425 MEMB     145      SAPC     O13      O2L     -0.780000       15.9994           0
      5426 MEMB     145      SAPC     O14      O2L     -0.780000       15.9994           0
      5427 MEMB     145      SAPC     O12      OSLP    -0.570000       15.9994           0
      5428 MEMB     145      SAPC     O11      OSLP    -0.570000       15.9994           0
      5429 MEMB     145      SAPC     C1       CTL2    -0.800000E-01   12.0110           0
      5430 MEMB     145      SAPC     HA       HAL2     0.900000E-01   1.00800           0
      5431 MEMB     145      SAPC     HB       HAL2     0.900000E-01   1.00800           0
      5432 MEMB     145      SAPC     C2       CTL1     0.170000       12.0110           0
      5433 MEMB     145      SAPC     HS       HAL1     0.900000E-01   1.00800           0
      5434 MEMB     145      SAPC     O21      OSL     -0.490000       15.9994           0
      5435 MEMB     145      SAPC     C21      CL       0.900000       12.0110           0
      5436 MEMB     145      SAPC     O22      OBL     -0.630000       15.9994           0
      5437 MEMB     145      SAPC     C22      CTL2    -0.220000       12.0110           0
      5438 MEMB     145      SAPC     H2R      HAL2     0.900000E-01   1.00800           0
      5439 MEMB     145      SAPC     H2S      HAL2     0.900000E-01   1.00800           0
      5440 MEMB     145      SAPC     C3       CTL2     0.800000E-01   12.0110           0
      5441 MEMB     145      SAPC     HX       HAL2     0.900000E-01   1.00800           0
      5442 MEMB     145      SAPC     HY       HAL2     0.900000E-01   1.00800           0
      5443 MEMB     145      SAPC     O31      OSL     -0.490000       15.9994           0
      5444 MEMB     145      SAPC     C31      CL       0.900000       12.0110           0
      5445 MEMB     145      SAPC     O32      OBL     -0.630000       15.9994           0
      5446 MEMB     145      SAPC     C32      CTL2    -0.220000       12.0110           0
      5447 MEMB     145      SAPC     H2X      HAL2     0.900000E-01   1.00800           0
      5448 MEMB     145      SAPC     H2Y      HAL2     0.900000E-01   1.00800           0
      5449 MEMB     145      SAPC     C23      CTL2    -0.180000       12.0110           0
      5450 MEMB     145      SAPC     H3R      HAL2     0.900000E-01   1.00800           0
      5451 MEMB     145      SAPC     H3S      HAL2     0.900000E-01   1.00800           0
      5452 MEMB     145      SAPC     C24      CTL2    -0.180000       12.0110           0
      5453 MEMB     145      SAPC     H4R      HAL2     0.900000E-01   1.00800           0
      5454 MEMB     145      SAPC     H4S      HAL2     0.900000E-01   1.00800           0
      5455 MEMB     145      SAPC     C25      CEL1    -0.150000       12.0110           0
      5456 MEMB     145      SAPC     H5R      HEL1     0.150000       1.00800           0
      5457 MEMB     145      SAPC     C26      CEL1    -0.150000       12.0110           0
      5458 MEMB     145      SAPC     H6R      HEL1     0.150000       1.00800           0
      5459 MEMB     145      SAPC     C27      CTL2    -0.180000       12.0110           0
      5460 MEMB     145      SAPC     H7R      HAL2     0.900000E-01   1.00800           0
      5461 MEMB     145      SAPC     H7S      HAL2     0.900000E-01   1.00800           0
      5462 MEMB     145      SAPC     C28      CEL1    -0.150000       12.0110           0
      5463 MEMB     145      SAPC     H8R      HEL1     0.150000       1.00800           0
      5464 MEMB     145      SAPC     C29      CEL1    -0.150000       12.0110           0
      5465 MEMB     145      SAPC     H9R      HEL1     0.150000       1.00800           0
      5466 MEMB     145      SAPC     C210     CTL2    -0.180000       12.0110           0
      5467 MEMB     145      SAPC     H10R     HAL2     0.900000E-01   1.00800           0
      5468 MEMB     145      SAPC     H10S     HAL2     0.900000E-01   1.00800           0
      5469 MEMB     145      SAPC     C211     CEL1    -0.150000       12.0110           0
      5470 MEMB     145      SAPC     H11R     HEL1     0.150000       1.00800           0
      5471 MEMB     145      SAPC     C212     CEL1    -0.150000       12.0110           0
      5472 MEMB     145      SAPC     H12R     HEL1     0.150000       1.00800           0
      5473 MEMB     145      SAPC     C213     CTL2    -0.180000       12.0110           0
      5474 MEMB     145      SAPC     H13R     HAL2     0.900000E-01   1.00800           0
      5475 MEMB     145      SAPC     H13S     HAL2     0.900000E-01   1.00800           0
      5476 MEMB     145      SAPC     C214     CEL1    -0.150000       12.0110           0
      5477 MEMB     145      SAPC     H14R     HEL1     0.150000       1.00800           0
      5478 MEMB     145      SAPC     C215     CEL1    -0.150000       12.0110           0
      5479 MEMB     145      SAPC     H15R     HEL1     0.150000       1.00800           0
      5480 MEMB     145      SAPC     C216     CTL2    -0.180000       12.0110           0
      5481 MEMB     145      SAPC     H16R     HAL2     0.900000E-01   1.00800           0
      5482 MEMB     145      SAPC     H16S     HAL2     0.900000E-01   1.00800           0
      5483 MEMB     145      SAPC     C217     CTL2    -0.180000       12.0110           0
      5484 MEMB     145      SAPC     H17R     HAL2     0.900000E-01   1.00800           0
      5485 MEMB     145      SAPC     H17S     HAL2     0.900000E-01   1.00800           0
      5486 MEMB     145      SAPC     C218     CTL2    -0.270000       12.0110           0
      5487 MEMB     145      SAPC     H18R     HAL2     0.900000E-01   1.00800           0
      5488 MEMB     145      SAPC     H18S     HAL2     0.900000E-01   1.00800           0
      5489 MEMB     145      SAPC     C219     CTL2    -0.180000       12.0110           0
      5490 MEMB     145      SAPC     H19R     HAL2     0.900000E-01   1.00800           0
      5491 MEMB     145      SAPC     H19S     HAL2     0.900000E-01   1.00800           0
      5492 MEMB     145      SAPC     C220     CTL3    -0.180000       12.0110           0
      5493 MEMB     145      SAPC     H20R     HAL3     0.900000E-01   1.00800           0
      5494 MEMB     145      SAPC     H20S     HAL3     0.900000E-01   1.00800           0
      5495 MEMB     145      SAPC     H20T     HAL3     0.900000E-01   1.00800           0
      5496 MEMB     145      SAPC     C33      CTL2    -0.180000       12.0110           0
      5497 MEMB     145      SAPC     H3X      HAL2     0.900000E-01   1.00800           0
      5498 MEMB     145      SAPC     H3Y      HAL2     0.900000E-01   1.00800           0
      5499 MEMB     145      SAPC     C34      CTL2    -0.180000       12.0110           0
      5500 MEMB     145      SAPC     H4X      HAL2     0.900000E-01   1.00800           0
      5501 MEMB     145      SAPC     H4Y      HAL2     0.900000E-01   1.00800           0
      5502 MEMB     145      SAPC     C35      CTL2    -0.180000       12.0110           0
      5503 MEMB     145      SAPC     H5X      HAL2     0.900000E-01   1.00800           0
      5504 MEMB     145      SAPC     H5Y      HAL2     0.900000E-01   1.00800           0
      5505 MEMB     145      SAPC     C36      CTL2    -0.180000       12.0110           0
      5506 MEMB     145      SAPC     H6X      HAL2     0.900000E-01   1.00800           0
      5507 MEMB     145      SAPC     H6Y      HAL2     0.900000E-01   1.00800           0
      5508 MEMB     145      SAPC     C37      CTL2    -0.180000       12.0110           0
      5509 MEMB     145      SAPC     H7X      HAL2     0.900000E-01   1.00800           0
      5510 MEMB     145      SAPC     H7Y      HAL2     0.900000E-01   1.00800           0
      5511 MEMB     145      SAPC     C38      CTL2    -0.180000       12.0110           0
      5512 MEMB     145      SAPC     H8X      HAL2     0.900000E-01   1.00800           0
      5513 MEMB     145      SAPC     H8Y      HAL2     0.900000E-01   1.00800           0
      5514 MEMB     145      SAPC     C39      CTL2    -0.180000       12.0110           0
      5515 MEMB     145      SAPC     H9X      HAL2     0.900000E-01   1.00800           0
      5516 MEMB     145      SAPC     H9Y      HAL2     0.900000E-01   1.00800           0
      5517 MEMB     145      SAPC     C310     CTL2    -0.180000       12.0110           0
      5518 MEMB     145      SAPC     H10X     HAL2     0.900000E-01   1.00800           0
      5519 MEMB     145      SAPC     H10Y     HAL2     0.900000E-01   1.00800           0
      5520 MEMB     145      SAPC     C311     CTL2    -0.180000       12.0110           0
      5521 MEMB     145      SAPC     H11X     HAL2     0.900000E-01   1.00800           0
      5522 MEMB     145      SAPC     H11Y     HAL2     0.900000E-01   1.00800           0
      5523 MEMB     145      SAPC     C312     CTL2    -0.180000       12.0110           0
      5524 MEMB     145      SAPC     H12X     HAL2     0.900000E-01   1.00800           0
      5525 MEMB     145      SAPC     H12Y     HAL2     0.900000E-01   1.00800           0
      5526 MEMB     145      SAPC     C313     CTL2    -0.180000       12.0110           0
      5527 MEMB     145      SAPC     H13X     HAL2     0.900000E-01   1.00800           0
      5528 MEMB     145      SAPC     H13Y     HAL2     0.900000E-01   1.00800           0
      5529 MEMB     145      SAPC     C314     CTL2    -0.180000       12.0110           0
      5530 MEMB     145      SAPC     H14X     HAL2     0.900000E-01   1.00800           0
      5531 MEMB     145      SAPC     H14Y     HAL2     0.900000E-01   1.00800           0
      5532 MEMB     145      SAPC     C315     CTL2    -0.180000       12.0110           0
      5533 MEMB     145      SAPC     H15X     HAL2     0.900000E-01   1.00800           0
      5534 MEMB     145      SAPC     H15Y     HAL2     0.900000E-01   1.00800           0
      5535 MEMB     145      SAPC     C316     CTL2    -0.180000       12.0110           0
      5536 MEMB     145      SAPC     H16X     HAL2     0.900000E-01   1.00800           0
      5537 MEMB     145      SAPC     H16Y     HAL2     0.900000E-01   1.00800           0
      5538 MEMB     145      SAPC     C317     CTL2    -0.180000       12.0110           0
      5539 MEMB     145      SAPC     H17X     HAL2     0.900000E-01   1.00800           0
      5540 MEMB     145      SAPC     H17Y     HAL2     0.900000E-01   1.00800           0
      5541 MEMB     145      SAPC     C318     CTL3    -0.270000       12.0110           0
      5542 MEMB     145      SAPC     H18X     HAL3     0.900000E-01   1.00800           0
      5543 MEMB     145      SAPC     H18Y     HAL3     0.900000E-01   1.00800           0
      5544 MEMB     145      SAPC     H18Z     HAL3     0.900000E-01   1.00800           0
      5545 MEMB     163      SAPC     N        NTL     -0.600000       14.0070           0
      5546 MEMB     163      SAPC     C12      CTL2    -0.100000       12.0110           0
      5547 MEMB     163      SAPC     H12A     HL       0.250000       1.00800           0
      5548 MEMB     163      SAPC     H12B     HL       0.250000       1.00800           0
      5549 MEMB     163      SAPC     C13      CTL5    -0.350000       12.0110           0
      5550 MEMB     163      SAPC     H13A     HL       0.250000       1.00800           0
      5551 MEMB     163      SAPC     H13B     HL       0.250000       1.00800           0
      5552 MEMB     163      SAPC     H13C     HL       0.250000       1.00800           0
      5553 MEMB     163      SAPC     C14      CTL5    -0.350000       12.0110           0
      5554 MEMB     163      SAPC     H14A     HL       0.250000       1.00800           0
      5555 MEMB     163      SAPC     H14B     HL       0.250000       1.00800           0
      5556 MEMB     163      SAPC     H14C     HL       0.250000       1.00800           0
      5557 MEMB     163      SAPC     C15      CTL5    -0.350000       12.0110           0
      5558 MEMB     163      SAPC     H15A     HL       0.250000       1.00800           0
      5559 MEMB     163      SAPC     H15B     HL       0.250000       1.00800           0
      5560 MEMB     163      SAPC     H15C     HL       0.250000       1.00800           0
      5561 MEMB     163      SAPC     C11      CTL2    -0.800000E-01   12.0110           0
      5562 MEMB     163      SAPC     H11A     HAL2     0.900000E-01   1.00800           0
      5563 MEMB     163      SAPC     H11B     HAL2     0.900000E-01   1.00800           0
      5564 MEMB     163      SAPC     P        PL       1.500000       30.9740           0
      5565 MEMB     163      SAPC     O13      O2L     -0.780000       15.9994           0
      5566 MEMB     163      SAPC     O14      O2L     -0.780000       15.9994           0
      5567 MEMB     163      SAPC     O12      OSLP    -0.570000       15.9994           0
      5568 MEMB     163      SAPC     O11      OSLP    -0.570000       15.9994           0
      5569 MEMB     163      SAPC     C1       CTL2    -0.800000E-01   12.0110           0
      5570 MEMB     163      SAPC     HA       HAL2     0.900000E-01   1.00800           0
      5571 MEMB     163      SAPC     HB       HAL2     0.900000E-01   1.00800           0
      5572 MEMB     163      SAPC     C2       CTL1     0.170000       12.0110           0
      5573 MEMB     163      SAPC     HS       HAL1     0.900000E-01   1.00800           0
      5574 MEMB     163      SAPC     O21      OSL     -0.490000       15.9994           0
      5575 MEMB     163      SAPC     C21      CL       0.900000       12.0110           0
      5576 MEMB     163      SAPC     O22      OBL     -0.630000       15.9994           0
      5577 MEMB     163      SAPC     C22      CTL2    -0.220000       12.0110           0
      5578 MEMB     163      SAPC     H2R      HAL2     0.900000E-01   1.00800           0
      5579 MEMB     163      SAPC     H2S      HAL2     0.900000E-01   1.00800           0
      5580 MEMB     163      SAPC     C3       CTL2     0.800000E-01   12.0110           0
      5581 MEMB     163      SAPC     HX       HAL2     0.900000E-01   1.00800           0
      5582 MEMB     163      SAPC     HY       HAL2     0.900000E-01   1.00800           0
      5583 MEMB     163      SAPC     O31      OSL     -0.490000       15.9994           0
      5584 MEMB     163      SAPC     C31      CL       0.900000       12.0110           0
      5585 MEMB     163      SAPC     O32      OBL     -0.630000       15.9994           0
      5586 MEMB     163      SAPC     C32      CTL2    -0.220000       12.0110           0
      5587 MEMB     163      SAPC     H2X      HAL2     0.900000E-01   1.00800           0
      5588 MEMB     163      SAPC     H2Y      HAL2     0.900000E-01   1.00800           0
      5589 MEMB     163      SAPC     C23      CTL2    -0.180000       12.0110           0
      5590 MEMB     163      SAPC     H3R      HAL2     0.900000E-01   1.00800           0
      5591 MEMB     163      SAPC     H3S      HAL2     0.900000E-01   1.00800           0
      5592 MEMB     163      SAPC     C24      CTL2    -0.180000       12.0110           0
      5593 MEMB     163      SAPC     H4R      HAL2     0.900000E-01   1.00800           0
      5594 MEMB     163      SAPC     H4S      HAL2     0.900000E-01   1.00800           0
      5595 MEMB     163      SAPC     C25      CEL1    -0.150000       12.0110           0
      5596 MEMB     163      SAPC     H5R      HEL1     0.150000       1.00800           0
      5597 MEMB     163      SAPC     C26      CEL1    -0.150000       12.0110           0
      5598 MEMB     163      SAPC     H6R      HEL1     0.150000       1.00800           0
      5599 MEMB     163      SAPC     C27      CTL2    -0.180000       12.0110           0
      5600 MEMB     163      SAPC     H7R      HAL2     0.900000E-01   1.00800           0
      5601 MEMB     163      SAPC     H7S      HAL2     0.900000E-01   1.00800           0
      5602 MEMB     163      SAPC     C28      CEL1    -0.150000       12.0110           0
      5603 MEMB     163      SAPC     H8R      HEL1     0.150000       1.00800           0
      5604 MEMB     163      SAPC     C29      CEL1    -0.150000       12.0110           0
      5605 MEMB     163      SAPC     H9R      HEL1     0.150000       1.00800           0
      5606 MEMB     163      SAPC     C210     CTL2    -0.180000       12.0110           0
      5607 MEMB     163      SAPC     H10R     HAL2     0.900000E-01   1.00800           0
      5608 MEMB     163      SAPC     H10S     HAL2     0.900000E-01   1.00800           0
      5609 MEMB     163      SAPC     C211     CEL1    -0.150000       12.0110           0
      5610 MEMB     163      SAPC     H11R     HEL1     0.150000       1.00800           0
      5611 MEMB     163      SAPC     C212     CEL1    -0.150000       12.0110           0
      5612 MEMB     163      SAPC     H12R     HEL1     0.150000       1.00800           0
      5613 MEMB     163      SAPC     C213     CTL2    -0.180000       12.0110           0
      5614 MEMB     163      SAPC     H13R     HAL2     0.900000E-01   1.00800           0
      5615 MEMB     163      SAPC     H13S     HAL2     0.900000E-01   1.00800           0
      5616 MEMB     163      SAPC     C214     CEL1    -0.150000       12.0110           0
      5617 MEMB     163      SAPC     H14R     HEL1     0.150000       1.00800           0
      5618 MEMB     163      SAPC     C215     CEL1    -0.150000       12.0110           0
      5619 MEMB     163      SAPC     H15R     HEL1     0.150000       1.00800           0
      5620 MEMB     163      SAPC     C216     CTL2    -0.180000       12.0110           0
      5621 MEMB     163      SAPC     H16R     HAL2     0.900000E-01   1.00800           0
      5622 MEMB     163      SAPC     H16S     HAL2     0.900000E-01   1.00800           0
      5623 MEMB     163      SAPC     C217     CTL2    -0.180000       12.0110           0
      5624 MEMB     163      SAPC     H17R     HAL2     0.900000E-01   1.00800           0
      5625 MEMB     163      SAPC     H17S     HAL2     0.900000E-01   1.00800           0
      5626 MEMB     163      SAPC     C218     CTL2    -0.270000       12.0110           0
      5627 MEMB     163      SAPC     H18R     HAL2     0.900000E-01   1.00800           0
      5628 MEMB     163      SAPC     H18S     HAL2     0.900000E-01   1.00800           0
      5629 MEMB     163      SAPC     C219     CTL2    -0.180000       12.0110           0
      5630 MEMB     163      SAPC     H19R     HAL2     0.900000E-01   1.00800           0
      5631 MEMB     163      SAPC     H19S     HAL2     0.900000E-01   1.00800           0
      5632 MEMB     163      SAPC     C220     CTL3    -0.180000       12.0110           0
      5633 MEMB     163      SAPC     H20R     HAL3     0.900000E-01   1.00800           0
      5634 MEMB     163      SAPC     H20S     HAL3     0.900000E-01   1.00800           0
      5635 MEMB     163      SAPC     H20T     HAL3     0.900000E-01   1.00800           0
      5636 MEMB     163      SAPC     C33      CTL2    -0.180000       12.0110           0
      5637 MEMB     163      SAPC     H3X      HAL2     0.900000E-01   1.00800           0
      5638 MEMB     163      SAPC     H3Y      HAL2     0.900000E-01   1.00800           0
      5639 MEMB     163      SAPC     C34      CTL2    -0.180000       12.0110           0
      5640 MEMB     163      SAPC     H4X      HAL2     0.900000E-01   1.00800           0
      5641 MEMB     163      SAPC     H4Y      HAL2     0.900000E-01   1.00800           0
      5642 MEMB     163      SAPC     C35      CTL2    -0.180000       12.0110           0
      5643 MEMB     163      SAPC     H5X      HAL2     0.900000E-01   1.00800           0
      5644 MEMB     163      SAPC     H5Y      HAL2     0.900000E-01   1.00800           0
      5645 MEMB     163      SAPC     C36      CTL2    -0.180000       12.0110           0
      5646 MEMB     163      SAPC     H6X      HAL2     0.900000E-01   1.00800           0
      5647 MEMB     163      SAPC     H6Y      HAL2     0.900000E-01   1.00800           0
      5648 MEMB     163      SAPC     C37      CTL2    -0.180000       12.0110           0
      5649 MEMB     163      SAPC     H7X      HAL2     0.900000E-01   1.00800           0
      5650 MEMB     163      SAPC     H7Y      HAL2     0.900000E-01   1.00800           0
      5651 MEMB     163      SAPC     C38      CTL2    -0.180000       12.0110           0
      5652 MEMB     163      SAPC     H8X      HAL2     0.900000E-01   1.00800           0
      5653 MEMB     163      SAPC     H8Y      HAL2     0.900000E-01   1.00800           0
      5654 MEMB     163      SAPC     C39      CTL2    -0.180000       12.0110           0
      5655 MEMB     163      SAPC     H9X      HAL2     0.900000E-01   1.00800           0
      5656 MEMB     163      SAPC     H9Y      HAL2     0.900000E-01   1.00800           0
      5657 MEMB     163      SAPC     C310     CTL2    -0.180000       12.0110           0
      5658 MEMB     163      SAPC     H10X     HAL2     0.900000E-01   1.00800           0
      5659 MEMB     163      SAPC     H10Y     HAL2     0.900000E-01   1.00800           0
      5660 MEMB     163      SAPC     C311     CTL2    -0.180000       12.0110           0
      5661 MEMB     163      SAPC     H11X     HAL2     0.900000E-01   1.00800           0
      5662 MEMB     163      SAPC     H11Y     HAL2     0.900000E-01   1.00800           0
      5663 MEMB     163      SAPC     C312     CTL2    -0.180000       12.0110           0
      5664 MEMB     163      SAPC     H12X     HAL2     0.900000E-01   1.00800           0
      5665 MEMB     163      SAPC     H12Y     HAL2     0.900000E-01   1.00800           0
      5666 MEMB     163      SAPC     C313     CTL2    -0.180000       12.0110           0
      5667 MEMB     163      SAPC     H13X     HAL2     0.900000E-01   1.00800           0
      5668 MEMB     163      SAPC     H13Y     HAL2     0.900000E-01   1.00800           0
      5669 MEMB     163      SAPC     C314     CTL2    -0.180000       12.0110           0
      5670 MEMB     163      SAPC     H14X     HAL2     0.900000E-01   1.00800           0
      5671 MEMB     163      SAPC     H14Y     HAL2     0.900000E-01   1.00800           0
      5672 MEMB     163      SAPC     C315     CTL2    -0.180000       12.0110           0
      5673 MEMB     163      SAPC     H15X     HAL2     0.900000E-01   1.00800           0
      5674 MEMB     163      SAPC     H15Y     HAL2     0.900000E-01   1.00800           0
      5675 MEMB     163      SAPC     C316     CTL2    -0.180000       12.0110           0
      5676 MEMB     163      SAPC     H16X     HAL2     0.900000E-01   1.00800           0
      5677 MEMB     163      SAPC     H16Y     HAL2     0.900000E-01   1.00800           0
      5678 MEMB     163      SAPC     C317     CTL2    -0.180000       12.0110           0
      5679 MEMB     163      SAPC     H17X     HAL2     0.900000E-01   1.00800           0
      5680 MEMB     163      SAPC     H17Y     HAL2     0.900000E-01   1.00800           0
      5681 MEMB     163      SAPC     C318     CTL3    -0.270000       12.0110           0
      5682 MEMB     163      SAPC     H18X     HAL3     0.900000E-01   1.00800           0
      5683 MEMB     163      SAPC     H18Y     HAL3     0.900000E-01   1.00800           0
      5684 MEMB     163      SAPC     H18Z     HAL3     0.900000E-01   1.00800           0
      5685 MEMB     171      SAPC     N        NTL     -0.600000       14.0070           0
      5686 MEMB     171      SAPC     C12      CTL2    -0.100000       12.0110           0
      5687 MEMB     171      SAPC     H12A     HL       0.250000       1.00800           0
      5688 MEMB     171      SAPC     H12B     HL       0.250000       1.00800           0
      5689 MEMB     171      SAPC     C13      CTL5    -0.350000       12.0110           0
      5690 MEMB     171      SAPC     H13A     HL       0.250000       1.00800           0
      5691 MEMB     171      SAPC     H13B     HL       0.250000       1.00800           0
      5692 MEMB     171      SAPC     H13C     HL       0.250000       1.00800           0
      5693 MEMB     171      SAPC     C14      CTL5    -0.350000       12.0110           0
      5694 MEMB     171      SAPC     H14A     HL       0.250000       1.00800           0
      5695 MEMB     171      SAPC     H14B     HL       0.250000       1.00800           0
      5696 MEMB     171      SAPC     H14C     HL       0.250000       1.00800           0
      5697 MEMB     171      SAPC     C15      CTL5    -0.350000       12.0110           0
      5698 MEMB     171      SAPC     H15A     HL       0.250000       1.00800           0
      5699 MEMB     171      SAPC     H15B     HL       0.250000       1.00800           0
      5700 MEMB     171      SAPC     H15C     HL       0.250000       1.00800           0
      5701 MEMB     171      SAPC     C11      CTL2    -0.800000E-01   12.0110           0
      5702 MEMB     171      SAPC     H11A     HAL2     0.900000E-01   1.00800           0
      5703 MEMB     171      SAPC     H11B     HAL2     0.900000E-01   1.00800           0
      5704 MEMB     171      SAPC     P        PL       1.500000       30.9740           0
      5705 MEMB     171      SAPC     O13      O2L     -0.780000       15.9994           0
      5706 MEMB     171      SAPC     O14      O2L     -0.780000       15.9994           0
      5707 MEMB     171      SAPC     O12      OSLP    -0.570000       15.9994           0
      5708 MEMB     171      SAPC     O11      OSLP    -0.570000       15.9994           0
      5709 MEMB     171      SAPC     C1       CTL2    -0.800000E-01   12.0110           0
      5710 MEMB     171      SAPC     HA       HAL2     0.900000E-01   1.00800           0
      5711 MEMB     171      SAPC     HB       HAL2     0.900000E-01   1.00800           0
      5712 MEMB     171      SAPC     C2       CTL1     0.170000       12.0110           0
      5713 MEMB     171      SAPC     HS       HAL1     0.900000E-01   1.00800           0
      5714 MEMB     171      SAPC     O21      OSL     -0.490000       15.9994           0
      5715 MEMB     171      SAPC     C21      CL       0.900000       12.0110           0
      5716 MEMB     171      SAPC     O22      OBL     -0.630000       15.9994           0
      5717 MEMB     171      SAPC     C22      CTL2    -0.220000       12.0110           0
      5718 MEMB     171      SAPC     H2R      HAL2     0.900000E-01   1.00800           0
      5719 MEMB     171      SAPC     H2S      HAL2     0.900000E-01   1.00800           0
      5720 MEMB     171      SAPC     C3       CTL2     0.800000E-01   12.0110           0
      5721 MEMB     171      SAPC     HX       HAL2     0.900000E-01   1.00800           0
      5722 MEMB     171      SAPC     HY       HAL2     0.900000E-01   1.00800           0
      5723 MEMB     171      SAPC     O31      OSL     -0.490000       15.9994           0
      5724 MEMB     171      SAPC     C31      CL       0.900000       12.0110           0
      5725 MEMB     171      SAPC     O32      OBL     -0.630000       15.9994           0
      5726 MEMB     171      SAPC     C32      CTL2    -0.220000       12.0110           0
      5727 MEMB     171      SAPC     H2X      HAL2     0.900000E-01   1.00800           0
      5728 MEMB     171      SAPC     H2Y      HAL2     0.900000E-01   1.00800           0
      5729 MEMB     171      SAPC     C23      CTL2    -0.180000       12.0110           0
      5730 MEMB     171      SAPC     H3R      HAL2     0.900000E-01   1.00800           0
      5731 MEMB     171      SAPC     H3S      HAL2     0.900000E-01   1.00800           0
      5732 MEMB     171      SAPC     C24      CTL2    -0.180000       12.0110           0
      5733 MEMB     171      SAPC     H4R      HAL2     0.900000E-01   1.00800           0
      5734 MEMB     171      SAPC     H4S      HAL2     0.900000E-01   1.00800           0
      5735 MEMB     171      SAPC     C25      CEL1    -0.150000       12.0110           0
      5736 MEMB     171      SAPC     H5R      HEL1     0.150000       1.00800           0
      5737 MEMB     171      SAPC     C26      CEL1    -0.150000       12.0110           0
      5738 MEMB     171      SAPC     H6R      HEL1     0.150000       1.00800           0
      5739 MEMB     171      SAPC     C27      CTL2    -0.180000       12.0110           0
      5740 MEMB     171      SAPC     H7R      HAL2     0.900000E-01   1.00800           0
      5741 MEMB     171      SAPC     H7S      HAL2     0.900000E-01   1.00800           0
      5742 MEMB     171      SAPC     C28      CEL1    -0.150000       12.0110           0
      5743 MEMB     171      SAPC     H8R      HEL1     0.150000       1.00800           0
      5744 MEMB     171      SAPC     C29      CEL1    -0.150000       12.0110           0
      5745 MEMB     171      SAPC     H9R      HEL1     0.150000       1.00800           0
      5746 MEMB     171      SAPC     C210     CTL2    -0.180000       12.0110           0
      5747 MEMB     171      SAPC     H10R     HAL2     0.900000E-01   1.00800           0
      5748 MEMB     171      SAPC     H10S     HAL2     0.900000E-01   1.00800           0
      5749 MEMB     171      SAPC     C211     CEL1    -0.150000       12.0110           0
      5750 MEMB     171      SAPC     H11R     HEL1     0.150000       1.00800           0
      5751 MEMB     171      SAPC     C212     CEL1    -0.150000       12.0110           0
      5752 MEMB     171      SAPC     H12R     HEL1     0.150000       1.00800           0
      5753 MEMB     171      SAPC     C213     CTL2    -0.180000       12.0110           0
      5754 MEMB     171      SAPC     H13R     HAL2     0.900000E-01   1.00800           0
      5755 MEMB     171      SAPC     H13S     HAL2     0.900000E-01   1.00800           0
      5756 MEMB     171      SAPC     C214     CEL1    -0.150000       12.0110           0
      5757 MEMB     171      SAPC     H14R     HEL1     0.150000       1.00800           0
      5758 MEMB     171      SAPC     C215     CEL1    -0.150000       12.0110           0
      5759 MEMB     171      SAPC     H15R     HEL1     0.150000       1.00800           0
      5760 MEMB     171      SAPC     C216     CTL2    -0.180000       12.0110           0
      5761 MEMB     171      SAPC     H16R     HAL2     0.900000E-01   1.00800           0
      5762 MEMB     171      SAPC     H16S     HAL2     0.900000E-01   1.00800           0
      5763 MEMB     171      SAPC     C217     CTL2    -0.180000       12.0110           0
      5764 MEMB     171      SAPC     H17R     HAL2     0.900000E-01   1.00800           0
      5765 MEMB     171      SAPC     H17S     HAL2     0.900000E-01   1.00800           0
      5766 MEMB     171      SAPC     C218     CTL2    -0.270000       12.0110           0
      5767 MEMB     171      SAPC     H18R     HAL2     0.900000E-01   1.00800           0
      5768 MEMB     171      SAPC     H18S     HAL2     0.900000E-01   1.00800           0
      5769 MEMB     171      SAPC     C219     CTL2    -0.180000       12.0110           0
      5770 MEMB     171      SAPC     H19R     HAL2     0.900000E-01   1.00800           0
      5771 MEMB     171      SAPC     H19S     HAL2     0.900000E-01   1.00800           0
      5772 MEMB     171      SAPC     C220     CTL3    -0.180000       12.0110           0
      5773 MEMB     171      SAPC     H20R     HAL3     0.900000E-01   1.00800           0
      5774 MEMB     171      SAPC     H20S     HAL3     0.900000E-01   1.00800           0
      5775 MEMB     171      SAPC     H20T     HAL3     0.900000E-01   1.00800           0
      5776 MEMB     171      SAPC     C33      CTL2    -0.180000       12.0110           0
      5777 MEMB     171      SAPC     H3X      HAL2     0.900000E-01   1.00800           0
      5778 MEMB     171      SAPC     H3Y      HAL2     0.900000E-01   1.00800           0
      5779 MEMB     171      SAPC     C34      CTL2    -0.180000       12.0110           0
      5780 MEMB     171      SAPC     H4X      HAL2     0.900000E-01   1.00800           0
      5781 MEMB     171      SAPC     H4Y      HAL2     0.900000E-01   1.00800           0
      5782 MEMB     171      SAPC     C35      CTL2    -0.180000       12.0110           0
      5783 MEMB     171      SAPC     H5X      HAL2     0.900000E-01   1.00800           0
      5784 MEMB     171      SAPC     H5Y      HAL2     0.900000E-01   1.00800           0
      5785 MEMB     171      SAPC     C36      CTL2    -0.180000       12.0110           0
      5786 MEMB     171      SAPC     H6X      HAL2     0.900000E-01   1.00800           0
      5787 MEMB     171      SAPC     H6Y      HAL2     0.900000E-01   1.00800           0
      5788 MEMB     171      SAPC     C37      CTL2    -0.180000       12.0110           0
      5789 MEMB     171      SAPC     H7X      HAL2     0.900000E-01   1.00800           0
      5790 MEMB     171      SAPC     H7Y      HAL2     0.900000E-01   1.00800           0
      5791 MEMB     171      SAPC     C38      CTL2    -0.180000       12.0110           0
      5792 MEMB     171      SAPC     H8X      HAL2     0.900000E-01   1.00800           0
      5793 MEMB     171      SAPC     H8Y      HAL2     0.900000E-01   1.00800           0
      5794 MEMB     171      SAPC     C39      CTL2    -0.180000       12.0110           0
      5795 MEMB     171      SAPC     H9X      HAL2     0.900000E-01   1.00800           0
      5796 MEMB     171      SAPC     H9Y      HAL2     0.900000E-01   1.00800           0
      5797 MEMB     171      SAPC     C310     CTL2    -0.180000       12.0110           0
      5798 MEMB     171      SAPC     H10X     HAL2     0.900000E-01   1.00800           0
      5799 MEMB     171      SAPC     H10Y     HAL2     0.900000E-01   1.00800           0
      5800 MEMB     171      SAPC     C311     CTL2    -0.180000       12.0110           0
      5801 MEMB     171      SAPC     H11X     HAL2     0.900000E-01   1.00800           0
      5802 MEMB     171      SAPC     H11Y     HAL2     0.900000E-01   1.00800           0
      5803 MEMB     171      SAPC     C312     CTL2    -0.180000       12.0110           0
      5804 MEMB     171      SAPC     H12X     HAL2     0.900000E-01   1.00800           0
      5805 MEMB     171      SAPC     H12Y     HAL2     0.900000E-01   1.00800           0
      5806 MEMB     171      SAPC     C313     CTL2    -0.180000       12.0110           0
      5807 MEMB     171      SAPC     H13X     HAL2     0.900000E-01   1.00800           0
      5808 MEMB     171      SAPC     H13Y     HAL2     0.900000E-01   1.00800           0
      5809 MEMB     171      SAPC     C314     CTL2    -0.180000       12.0110           0
      5810 MEMB     171      SAPC     H14X     HAL2     0.900000E-01   1.00800           0
      5811 MEMB     171      SAPC     H14Y     HAL2     0.900000E-01   1.00800           0
      5812 MEMB     171      SAPC     C315     CTL2    -0.180000       12.0110           0
      5813 MEMB     171      SAPC     H15X     HAL2     0.900000E-01   1.00800           0
      5814 MEMB     171      SAPC     H15Y     HAL2     0.900000E-01   1.00800           0
      5815 MEMB     171      SAPC     C316     CTL2    -0.180000       12.0110           0
      5816 MEMB     171      SAPC     H16X     HAL2     0.900000E-01   1.00800           0
      5817 MEMB     171      SAPC     H16Y     HAL2     0.900000E-01   1.00800           0
      5818 MEMB     171      SAPC     C317     CTL2    -0.180000       12.0110           0
      5819 MEMB     171      SAPC     H17X     HAL2     0.900000E-01   1.00800           0
      5820 MEMB     171      SAPC     H17Y     HAL2     0.900000E-01   1.00800           0
      5821 MEMB     171      SAPC     C318     CTL3    -0.270000       12.0110           0
      5822 MEMB     171      SAPC     H18X     HAL3     0.900000E-01   1.00800           0
      5823 MEMB     171      SAPC     H18Y     HAL3     0.900000E-01   1.00800           0
      5824 MEMB     171      SAPC     H18Z     HAL3     0.900000E-01   1.00800           0
      5825 MEMB     3        SLPC     N        NTL     -0.600000       14.0070           0
      5826 MEMB     3        SLPC     C13      CTL5    -0.350000       12.0110           0
      5827 MEMB     3        SLPC     H13A     HL       0.250000       1.00800           0
      5828 MEMB     3        SLPC     H13B     HL       0.250000       1.00800           0
      5829 MEMB     3        SLPC     H13C     HL       0.250000       1.00800           0
      5830 MEMB     3        SLPC     C14      CTL5    -0.350000       12.0110           0
      5831 MEMB     3        SLPC     H14A     HL       0.250000       1.00800           0
      5832 MEMB     3        SLPC     H14B     HL       0.250000       1.00800           0
      5833 MEMB     3        SLPC     H14C     HL       0.250000       1.00800           0
      5834 MEMB     3        SLPC     C15      CTL5    -0.350000       12.0110           0
      5835 MEMB     3        SLPC     H15A     HL       0.250000       1.00800           0
      5836 MEMB     3        SLPC     H15B     HL       0.250000       1.00800           0
      5837 MEMB     3        SLPC     H15C     HL       0.250000       1.00800           0
      5838 MEMB     3        SLPC     C12      CTL2    -0.100000       12.0110           0
      5839 MEMB     3        SLPC     H12A     HL       0.250000       1.00800           0
      5840 MEMB     3        SLPC     H12B     HL       0.250000       1.00800           0
      5841 MEMB     3        SLPC     C11      CTL2    -0.800000E-01   12.0110           0
      5842 MEMB     3        SLPC     H11A     HAL2     0.900000E-01   1.00800           0
      5843 MEMB     3        SLPC     H11B     HAL2     0.900000E-01   1.00800           0
      5844 MEMB     3        SLPC     P        PL       1.500000       30.9740           0
      5845 MEMB     3        SLPC     O13      O2L     -0.780000       15.9994           0
      5846 MEMB     3        SLPC     O14      O2L     -0.780000       15.9994           0
      5847 MEMB     3        SLPC     O12      OSLP    -0.570000       15.9994           0
      5848 MEMB     3        SLPC     O11      OSLP    -0.570000       15.9994           0
      5849 MEMB     3        SLPC     C1       CTL2    -0.800000E-01   12.0110           0
      5850 MEMB     3        SLPC     HA       HAL2     0.900000E-01   1.00800           0
      5851 MEMB     3        SLPC     HB       HAL2     0.900000E-01   1.00800           0
      5852 MEMB     3        SLPC     C2       CTL1     0.170000       12.0110           0
      5853 MEMB     3        SLPC     HS       HAL1     0.900000E-01   1.00800           0
      5854 MEMB     3        SLPC     O21      OSL     -0.490000       15.9994           0
      5855 MEMB     3        SLPC     C21      CL       0.900000       12.0110           0
      5856 MEMB     3        SLPC     O22      OBL     -0.630000       15.9994           0
      5857 MEMB     3        SLPC     C22      CTL2    -0.220000       12.0110           0
      5858 MEMB     3        SLPC     H2R      HAL2     0.900000E-01   1.00800           0
      5859 MEMB     3        SLPC     H2S      HAL2     0.900000E-01   1.00800           0
      5860 MEMB     3        SLPC     C3       CTL2     0.800000E-01   12.0110           0
      5861 MEMB     3        SLPC     HX       HAL2     0.900000E-01   1.00800           0
      5862 MEMB     3        SLPC     HY       HAL2     0.900000E-01   1.00800           0
      5863 MEMB     3        SLPC     O31      OSL     -0.490000       15.9994           0
      5864 MEMB     3        SLPC     C31      CL       0.900000       12.0110           0
      5865 MEMB     3        SLPC     O32      OBL     -0.630000       15.9994           0
      5866 MEMB     3        SLPC     C32      CTL2    -0.220000       12.0110           0
      5867 MEMB     3        SLPC     H2X      HAL2     0.900000E-01   1.00800           0
      5868 MEMB     3        SLPC     H2Y      HAL2     0.900000E-01   1.00800           0
      5869 MEMB     3        SLPC     C23      CTL2    -0.180000       12.0110           0
      5870 MEMB     3        SLPC     H3R      HAL2     0.900000E-01   1.00800           0
      5871 MEMB     3        SLPC     H3S      HAL2     0.900000E-01   1.00800           0
      5872 MEMB     3        SLPC     C24      CTL2    -0.180000       12.0110           0
      5873 MEMB     3        SLPC     H4R      HAL2     0.900000E-01   1.00800           0
      5874 MEMB     3        SLPC     H4S      HAL2     0.900000E-01   1.00800           0
      5875 MEMB     3        SLPC     C25      CTL2    -0.180000       12.0110           0
      5876 MEMB     3        SLPC     H5R      HAL2     0.900000E-01   1.00800           0
      5877 MEMB     3        SLPC     H5S      HAL2     0.900000E-01   1.00800           0
      5878 MEMB     3        SLPC     C26      CTL2    -0.180000       12.0110           0
      5879 MEMB     3        SLPC     H6R      HAL2     0.900000E-01   1.00800           0
      5880 MEMB     3        SLPC     H6S      HAL2     0.900000E-01   1.00800           0
      5881 MEMB     3        SLPC     C27      CTL2    -0.180000       12.0110           0
      5882 MEMB     3        SLPC     H7R      HAL2     0.900000E-01   1.00800           0
      5883 MEMB     3        SLPC     H7S      HAL2     0.900000E-01   1.00800           0
      5884 MEMB     3        SLPC     C28      CTL2    -0.180000       12.0110           0
      5885 MEMB     3        SLPC     H8R      HAL2     0.900000E-01   1.00800           0
      5886 MEMB     3        SLPC     H8S      HAL2     0.900000E-01   1.00800           0
      5887 MEMB     3        SLPC     C29      CEL1    -0.150000       12.0110           0
      5888 MEMB     3        SLPC     H9R      HEL1     0.150000       1.00800           0
      5889 MEMB     3        SLPC     C210     CEL1    -0.150000       12.0110           0
      5890 MEMB     3        SLPC     H10R     HEL1     0.150000       1.00800           0
      5891 MEMB     3        SLPC     C211     CTL2    -0.180000       12.0110           0
      5892 MEMB     3        SLPC     H11R     HAL2     0.900000E-01   1.00800           0
      5893 MEMB     3        SLPC     H11S     HAL2     0.900000E-01   1.00800           0
      5894 MEMB     3        SLPC     C212     CEL1    -0.150000       12.0110           0
      5895 MEMB     3        SLPC     H12R     HEL1     0.150000       1.00800           0
      5896 MEMB     3        SLPC     C213     CEL1    -0.150000       12.0110           0
      5897 MEMB     3        SLPC     H13R     HEL1     0.150000       1.00800           0
      5898 MEMB     3        SLPC     C214     CTL2    -0.180000       12.0110           0
      5899 MEMB     3        SLPC     H14R     HAL2     0.900000E-01   1.00800           0
      5900 MEMB     3        SLPC     H14S     HAL2     0.900000E-01   1.00800           0
      5901 MEMB     3        SLPC     C215     CTL2    -0.180000       12.0110           0
      5902 MEMB     3        SLPC     H15R     HAL2     0.900000E-01   1.00800           0
      5903 MEMB     3        SLPC     H15S     HAL2     0.900000E-01   1.00800           0
      5904 MEMB     3        SLPC     C216     CTL2    -0.180000       12.0110           0
      5905 MEMB     3        SLPC     H16R     HAL2     0.900000E-01   1.00800           0
      5906 MEMB     3        SLPC     H16S     HAL2     0.900000E-01   1.00800           0
      5907 MEMB     3        SLPC     C217     CTL2    -0.180000       12.0110           0
      5908 MEMB     3        SLPC     H17R     HAL2     0.900000E-01   1.00800           0
      5909 MEMB     3        SLPC     H17S     HAL2     0.900000E-01   1.00800           0
      5910 MEMB     3        SLPC     C218     CTL3    -0.270000       12.0110           0
      5911 MEMB     3        SLPC     H18R     HAL3     0.900000E-01   1.00800           0
      5912 MEMB     3        SLPC     H18S     HAL3     0.900000E-01   1.00800           0
      5913 MEMB     3        SLPC     H18T     HAL3     0.900000E-01   1.00800           0
      5914 MEMB     3        SLPC     C33      CTL2    -0.180000       12.0110           0
      5915 MEMB     3        SLPC     H3X      HAL2     0.900000E-01   1.00800           0
      5916 MEMB     3        SLPC     H3Y      HAL2     0.900000E-01   1.00800           0
      5917 MEMB     3        SLPC     C34      CTL2    -0.180000       12.0110           0
      5918 MEMB     3        SLPC     H4X      HAL2     0.900000E-01   1.00800           0
      5919 MEMB     3        SLPC     H4Y      HAL2     0.900000E-01   1.00800           0
      5920 MEMB     3        SLPC     C35      CTL2    -0.180000       12.0110           0
      5921 MEMB     3        SLPC     H5X      HAL2     0.900000E-01   1.00800           0
      5922 MEMB     3        SLPC     H5Y      HAL2     0.900000E-01   1.00800           0
      5923 MEMB     3        SLPC     C36      CTL2    -0.180000       12.0110           0
      5924 MEMB     3        SLPC     H6X      HAL2     0.900000E-01   1.00800           0
      5925 MEMB     3        SLPC     H6Y      HAL2     0.900000E-01   1.00800           0
      5926 MEMB     3        SLPC     C37      CTL2    -0.180000       12.0110           0
      5927 MEMB     3        SLPC     H7X      HAL2     0.900000E-01   1.00800           0
      5928 MEMB     3        SLPC     H7Y      HAL2     0.900000E-01   1.00800           0
      5929 MEMB     3        SLPC     C38      CTL2    -0.180000       12.0110           0
      5930 MEMB     3        SLPC     H8X      HAL2     0.900000E-01   1.00800           0
      5931 MEMB     3        SLPC     H8Y      HAL2     0.900000E-01   1.00800           0
      5932 MEMB     3        SLPC     C39      CTL2    -0.180000       12.0110           0
      5933 MEMB     3        SLPC     H9X      HAL2     0.900000E-01   1.00800           0
      5934 MEMB     3        SLPC     H9Y      HAL2     0.900000E-01   1.00800           0
      5935 MEMB     3        SLPC     C310     CTL2    -0.180000       12.0110           0
      5936 MEMB     3        SLPC     H10X     HAL2     0.900000E-01   1.00800           0
      5937 MEMB     3        SLPC     H10Y     HAL2     0.900000E-01   1.00800           0
      5938 MEMB     3        SLPC     C311     CTL2    -0.180000       12.0110           0
      5939 MEMB     3        SLPC     H11X     HAL2     0.900000E-01   1.00800           0
      5940 MEMB     3        SLPC     H11Y     HAL2     0.900000E-01   1.00800           0
      5941 MEMB     3        SLPC     C312     CTL2    -0.180000       12.0110           0
      5942 MEMB     3        SLPC     H12X     HAL2     0.900000E-01   1.00800           0
      5943 MEMB     3        SLPC     H12Y     HAL2     0.900000E-01   1.00800           0
      5944 MEMB     3        SLPC     C313     CTL2    -0.180000       12.0110           0
      5945 MEMB     3        SLPC     H13X     HAL2     0.900000E-01   1.00800           0
      5946 MEMB     3        SLPC     H13Y     HAL2     0.900000E-01   1.00800           0
      5947 MEMB     3        SLPC     C314     CTL2    -0.180000       12.0110           0
      5948 MEMB     3        SLPC     H14X     HAL2     0.900000E-01   1.00800           0
      5949 MEMB     3        SLPC     H14Y     HAL2     0.900000E-01   1.00800           0
      5950 MEMB     3        SLPC     C315     CTL2    -0.180000       12.0110           0
      5951 MEMB     3        SLPC     H15X     HAL2     0.900000E-01   1.00800           0
      5952 MEMB     3        SLPC     H15Y     HAL2     0.900000E-01   1.00800           0
      5953 MEMB     3        SLPC     C316     CTL2    -0.180000       12.0110           0
      5954 MEMB     3        SLPC     H16X     HAL2     0.900000E-01   1.00800           0
      5955 MEMB     3        SLPC     H16Y     HAL2     0.900000E-01   1.00800           0
      5956 MEMB     3        SLPC     C317     CTL2    -0.180000       12.0110           0
      5957 MEMB     3        SLPC     H17X     HAL2     0.900000E-01   1.00800           0
      5958 MEMB     3        SLPC     H17Y     HAL2     0.900000E-01   1.00800           0
      5959 MEMB     3        SLPC     C318     CTL3    -0.270000       12.0110           0
      5960 MEMB     3        SLPC     H18X     HAL3     0.900000E-01   1.00800           0
      5961 MEMB     3        SLPC     H18Y     HAL3     0.900000E-01   1.00800           0
      5962 MEMB     3        SLPC     H18Z     HAL3     0.900000E-01   1.00800           0
      5963 MEMB     7        SLPC     N        NTL     -0.600000       14.0070           0
      5964 MEMB     7        SLPC     C13      CTL5    -0.350000       12.0110           0
      5965 MEMB     7        SLPC     H13A     HL       0.250000       1.00800           0
      5966 MEMB     7        SLPC     H13B     HL       0.250000       1.00800           0
      5967 MEMB     7        SLPC     H13C     HL       0.250000       1.00800           0
      5968 MEMB     7        SLPC     C14      CTL5    -0.350000       12.0110           0
      5969 MEMB     7        SLPC     H14A     HL       0.250000       1.00800           0
      5970 MEMB     7        SLPC     H14B     HL       0.250000       1.00800           0
      5971 MEMB     7        SLPC     H14C     HL       0.250000       1.00800           0
      5972 MEMB     7        SLPC     C15      CTL5    -0.350000       12.0110           0
      5973 MEMB     7        SLPC     H15A     HL       0.250000       1.00800           0
      5974 MEMB     7        SLPC     H15B     HL       0.250000       1.00800           0
      5975 MEMB     7        SLPC     H15C     HL       0.250000       1.00800           0
      5976 MEMB     7        SLPC     C12      CTL2    -0.100000       12.0110           0
      5977 MEMB     7        SLPC     H12A     HL       0.250000       1.00800           0
      5978 MEMB     7        SLPC     H12B     HL       0.250000       1.00800           0
      5979 MEMB     7        SLPC     C11      CTL2    -0.800000E-01   12.0110           0
      5980 MEMB     7        SLPC     H11A     HAL2     0.900000E-01   1.00800           0
      5981 MEMB     7        SLPC     H11B     HAL2     0.900000E-01   1.00800           0
      5982 MEMB     7        SLPC     P        PL       1.500000       30.9740           0
      5983 MEMB     7        SLPC     O13      O2L     -0.780000       15.9994           0
      5984 MEMB     7        SLPC     O14      O2L     -0.780000       15.9994           0
      5985 MEMB     7        SLPC     O12      OSLP    -0.570000       15.9994           0
      5986 MEMB     7        SLPC     O11      OSLP    -0.570000       15.9994           0
      5987 MEMB     7        SLPC     C1       CTL2    -0.800000E-01   12.0110           0
      5988 MEMB     7        SLPC     HA       HAL2     0.900000E-01   1.00800           0
      5989 MEMB     7        SLPC     HB       HAL2     0.900000E-01   1.00800           0
      5990 MEMB     7        SLPC     C2       CTL1     0.170000       12.0110           0
      5991 MEMB     7        SLPC     HS       HAL1     0.900000E-01   1.00800           0
      5992 MEMB     7        SLPC     O21      OSL     -0.490000       15.9994           0
      5993 MEMB     7        SLPC     C21      CL       0.900000       12.0110           0
      5994 MEMB     7        SLPC     O22      OBL     -0.630000       15.9994           0
      5995 MEMB     7        SLPC     C22      CTL2    -0.220000       12.0110           0
      5996 MEMB     7        SLPC     H2R      HAL2     0.900000E-01   1.00800           0
      5997 MEMB     7        SLPC     H2S      HAL2     0.900000E-01   1.00800           0
      5998 MEMB     7        SLPC     C3       CTL2     0.800000E-01   12.0110           0
      5999 MEMB     7        SLPC     HX       HAL2     0.900000E-01   1.00800           0
      6000 MEMB     7        SLPC     HY       HAL2     0.900000E-01   1.00800           0
      6001 MEMB     7        SLPC     O31      OSL     -0.490000       15.9994           0
      6002 MEMB     7        SLPC     C31      CL       0.900000       12.0110           0
      6003 MEMB     7        SLPC     O32      OBL     -0.630000       15.9994           0
      6004 MEMB     7        SLPC     C32      CTL2    -0.220000       12.0110           0
      6005 MEMB     7        SLPC     H2X      HAL2     0.900000E-01   1.00800           0
      6006 MEMB     7        SLPC     H2Y      HAL2     0.900000E-01   1.00800           0
      6007 MEMB     7        SLPC     C23      CTL2    -0.180000       12.0110           0
      6008 MEMB     7        SLPC     H3R      HAL2     0.900000E-01   1.00800           0
      6009 MEMB     7        SLPC     H3S      HAL2     0.900000E-01   1.00800           0
      6010 MEMB     7        SLPC     C24      CTL2    -0.180000       12.0110           0
      6011 MEMB     7        SLPC     H4R      HAL2     0.900000E-01   1.00800           0
      6012 MEMB     7        SLPC     H4S      HAL2     0.900000E-01   1.00800           0
      6013 MEMB     7        SLPC     C25      CTL2    -0.180000       12.0110           0
      6014 MEMB     7        SLPC     H5R      HAL2     0.900000E-01   1.00800           0
      6015 MEMB     7        SLPC     H5S      HAL2     0.900000E-01   1.00800           0
      6016 MEMB     7        SLPC     C26      CTL2    -0.180000       12.0110           0
      6017 MEMB     7        SLPC     H6R      HAL2     0.900000E-01   1.00800           0
      6018 MEMB     7        SLPC     H6S      HAL2     0.900000E-01   1.00800           0
      6019 MEMB     7        SLPC     C27      CTL2    -0.180000       12.0110           0
      6020 MEMB     7        SLPC     H7R      HAL2     0.900000E-01   1.00800           0
      6021 MEMB     7        SLPC     H7S      HAL2     0.900000E-01   1.00800           0
      6022 MEMB     7        SLPC     C28      CTL2    -0.180000       12.0110           0
      6023 MEMB     7        SLPC     H8R      HAL2     0.900000E-01   1.00800           0
      6024 MEMB     7        SLPC     H8S      HAL2     0.900000E-01   1.00800           0
      6025 MEMB     7        SLPC     C29      CEL1    -0.150000       12.0110           0
      6026 MEMB     7        SLPC     H9R      HEL1     0.150000       1.00800           0
      6027 MEMB     7        SLPC     C210     CEL1    -0.150000       12.0110           0
      6028 MEMB     7        SLPC     H10R     HEL1     0.150000       1.00800           0
      6029 MEMB     7        SLPC     C211     CTL2    -0.180000       12.0110           0
      6030 MEMB     7        SLPC     H11R     HAL2     0.900000E-01   1.00800           0
      6031 MEMB     7        SLPC     H11S     HAL2     0.900000E-01   1.00800           0
      6032 MEMB     7        SLPC     C212     CEL1    -0.150000       12.0110           0
      6033 MEMB     7        SLPC     H12R     HEL1     0.150000       1.00800           0
      6034 MEMB     7        SLPC     C213     CEL1    -0.150000       12.0110           0
      6035 MEMB     7        SLPC     H13R     HEL1     0.150000       1.00800           0
      6036 MEMB     7        SLPC     C214     CTL2    -0.180000       12.0110           0
      6037 MEMB     7        SLPC     H14R     HAL2     0.900000E-01   1.00800           0
      6038 MEMB     7        SLPC     H14S     HAL2     0.900000E-01   1.00800           0
      6039 MEMB     7        SLPC     C215     CTL2    -0.180000       12.0110           0
      6040 MEMB     7        SLPC     H15R     HAL2     0.900000E-01   1.00800           0
      6041 MEMB     7        SLPC     H15S     HAL2     0.900000E-01   1.00800           0
      6042 MEMB     7        SLPC     C216     CTL2    -0.180000       12.0110           0
      6043 MEMB     7        SLPC     H16R     HAL2     0.900000E-01   1.00800           0
      6044 MEMB     7        SLPC     H16S     HAL2     0.900000E-01   1.00800           0
      6045 MEMB     7        SLPC     C217     CTL2    -0.180000       12.0110           0
      6046 MEMB     7        SLPC     H17R     HAL2     0.900000E-01   1.00800           0
      6047 MEMB     7        SLPC     H17S     HAL2     0.900000E-01   1.00800           0
      6048 MEMB     7        SLPC     C218     CTL3    -0.270000       12.0110           0
      6049 MEMB     7        SLPC     H18R     HAL3     0.900000E-01   1.00800           0
      6050 MEMB     7        SLPC     H18S     HAL3     0.900000E-01   1.00800           0
      6051 MEMB     7        SLPC     H18T     HAL3     0.900000E-01   1.00800           0
      6052 MEMB     7        SLPC     C33      CTL2    -0.180000       12.0110           0
      6053 MEMB     7        SLPC     H3X      HAL2     0.900000E-01   1.00800           0
      6054 MEMB     7        SLPC     H3Y      HAL2     0.900000E-01   1.00800           0
      6055 MEMB     7        SLPC     C34      CTL2    -0.180000       12.0110           0
      6056 MEMB     7        SLPC     H4X      HAL2     0.900000E-01   1.00800           0
      6057 MEMB     7        SLPC     H4Y      HAL2     0.900000E-01   1.00800           0
      6058 MEMB     7        SLPC     C35      CTL2    -0.180000       12.0110           0
      6059 MEMB     7        SLPC     H5X      HAL2     0.900000E-01   1.00800           0
      6060 MEMB     7        SLPC     H5Y      HAL2     0.900000E-01   1.00800           0
      6061 MEMB     7        SLPC     C36      CTL2    -0.180000       12.0110           0
      6062 MEMB     7        SLPC     H6X      HAL2     0.900000E-01   1.00800           0
      6063 MEMB     7        SLPC     H6Y      HAL2     0.900000E-01   1.00800           0
      6064 MEMB     7        SLPC     C37      CTL2    -0.180000       12.0110           0
      6065 MEMB     7        SLPC     H7X      HAL2     0.900000E-01   1.00800           0
      6066 MEMB     7        SLPC     H7Y      HAL2     0.900000E-01   1.00800           0
      6067 MEMB     7        SLPC     C38      CTL2    -0.180000       12.0110           0
      6068 MEMB     7        SLPC     H8X      HAL2     0.900000E-01   1.00800           0
      6069 MEMB     7        SLPC     H8Y      HAL2     0.900000E-01   1.00800           0
      6070 MEMB     7        SLPC     C39      CTL2    -0.180000       12.0110           0
      6071 MEMB     7        SLPC     H9X      HAL2     0.900000E-01   1.00800           0
      6072 MEMB     7        SLPC     H9Y      HAL2     0.900000E-01   1.00800           0
      6073 MEMB     7        SLPC     C310     CTL2    -0.180000       12.0110           0
      6074 MEMB     7        SLPC     H10X     HAL2     0.900000E-01   1.00800           0
      6075 MEMB     7        SLPC     H10Y     HAL2     0.900000E-01   1.00800           0
      6076 MEMB     7        SLPC     C311     CTL2    -0.180000       12.0110           0
      6077 MEMB     7        SLPC     H11X     HAL2     0.900000E-01   1.00800           0
      6078 MEMB     7        SLPC     H11Y     HAL2     0.900000E-01   1.00800           0
      6079 MEMB     7        SLPC     C312     CTL2    -0.180000       12.0110           0
      6080 MEMB     7        SLPC     H12X     HAL2     0.900000E-01   1.00800           0
      6081 MEMB     7        SLPC     H12Y     HAL2     0.900000E-01   1.00800           0
      6082 MEMB     7        SLPC     C313     CTL2    -0.180000       12.0110           0
      6083 MEMB     7        SLPC     H13X     HAL2     0.900000E-01   1.00800           0
      6084 MEMB     7        SLPC     H13Y     HAL2     0.900000E-01   1.00800           0
      6085 MEMB     7        SLPC     C314     CTL2    -0.180000       12.0110           0
      6086 MEMB     7        SLPC     H14X     HAL2     0.900000E-01   1.00800           0
      6087 MEMB     7        SLPC     H14Y     HAL2     0.900000E-01   1.00800           0
      6088 MEMB     7        SLPC     C315     CTL2    -0.180000       12.0110           0
      6089 MEMB     7        SLPC     H15X     HAL2     0.900000E-01   1.00800           0
      6090 MEMB     7        SLPC     H15Y     HAL2     0.900000E-01   1.00800           0
      6091 MEMB     7        SLPC     C316     CTL2    -0.180000       12.0110           0
      6092 MEMB     7        SLPC     H16X     HAL2     0.900000E-01   1.00800           0
      6093 MEMB     7        SLPC     H16Y     HAL2     0.900000E-01   1.00800           0
      6094 MEMB     7        SLPC     C317     CTL2    -0.180000       12.0110           0
      6095 MEMB     7        SLPC     H17X     HAL2     0.900000E-01   1.00800           0
      6096 MEMB     7        SLPC     H17Y     HAL2     0.900000E-01   1.00800           0
      6097 MEMB     7        SLPC     C318     CTL3    -0.270000       12.0110           0
      6098 MEMB     7        SLPC     H18X     HAL3     0.900000E-01   1.00800           0
      6099 MEMB     7        SLPC     H18Y     HAL3     0.900000E-01   1.00800           0
      6100 MEMB     7        SLPC     H18Z     HAL3     0.900000E-01   1.00800           0
      6101 MEMB     19       SLPC     N        NTL     -0.600000       14.0070           0
      6102 MEMB     19       SLPC     C13      CTL5    -0.350000       12.0110           0
      6103 MEMB     19       SLPC     H13A     HL       0.250000       1.00800           0
      6104 MEMB     19       SLPC     H13B     HL       0.250000       1.00800           0
      6105 MEMB     19       SLPC     H13C     HL       0.250000       1.00800           0
      6106 MEMB     19       SLPC     C14      CTL5    -0.350000       12.0110           0
      6107 MEMB     19       SLPC     H14A     HL       0.250000       1.00800           0
      6108 MEMB     19       SLPC     H14B     HL       0.250000       1.00800           0
      6109 MEMB     19       SLPC     H14C     HL       0.250000       1.00800           0
      6110 MEMB     19       SLPC     C15      CTL5    -0.350000       12.0110           0
      6111 MEMB     19       SLPC     H15A     HL       0.250000       1.00800           0
      6112 MEMB     19       SLPC     H15B     HL       0.250000       1.00800           0
      6113 MEMB     19       SLPC     H15C     HL       0.250000       1.00800           0
      6114 MEMB     19       SLPC     C12      CTL2    -0.100000       12.0110           0
      6115 MEMB     19       SLPC     H12A     HL       0.250000       1.00800           0
      6116 MEMB     19       SLPC     H12B     HL       0.250000       1.00800           0
      6117 MEMB     19       SLPC     C11      CTL2    -0.800000E-01   12.0110           0
      6118 MEMB     19       SLPC     H11A     HAL2     0.900000E-01   1.00800           0
      6119 MEMB     19       SLPC     H11B     HAL2     0.900000E-01   1.00800           0
      6120 MEMB     19       SLPC     P        PL       1.500000       30.9740           0
      6121 MEMB     19       SLPC     O13      O2L     -0.780000       15.9994           0
      6122 MEMB     19       SLPC     O14      O2L     -0.780000       15.9994           0
      6123 MEMB     19       SLPC     O12      OSLP    -0.570000       15.9994           0
      6124 MEMB     19       SLPC     O11      OSLP    -0.570000       15.9994           0
      6125 MEMB     19       SLPC     C1       CTL2    -0.800000E-01   12.0110           0
      6126 MEMB     19       SLPC     HA       HAL2     0.900000E-01   1.00800           0
      6127 MEMB     19       SLPC     HB       HAL2     0.900000E-01   1.00800           0
      6128 MEMB     19       SLPC     C2       CTL1     0.170000       12.0110           0
      6129 MEMB     19       SLPC     HS       HAL1     0.900000E-01   1.00800           0
      6130 MEMB     19       SLPC     O21      OSL     -0.490000       15.9994           0
      6131 MEMB     19       SLPC     C21      CL       0.900000       12.0110           0
      6132 MEMB     19       SLPC     O22      OBL     -0.630000       15.9994           0
      6133 MEMB     19       SLPC     C22      CTL2    -0.220000       12.0110           0
      6134 MEMB     19       SLPC     H2R      HAL2     0.900000E-01   1.00800           0
      6135 MEMB     19       SLPC     H2S      HAL2     0.900000E-01   1.00800           0
      6136 MEMB     19       SLPC     C3       CTL2     0.800000E-01   12.0110           0
      6137 MEMB     19       SLPC     HX       HAL2     0.900000E-01   1.00800           0
      6138 MEMB     19       SLPC     HY       HAL2     0.900000E-01   1.00800           0
      6139 MEMB     19       SLPC     O31      OSL     -0.490000       15.9994           0
      6140 MEMB     19       SLPC     C31      CL       0.900000       12.0110           0
      6141 MEMB     19       SLPC     O32      OBL     -0.630000       15.9994           0
      6142 MEMB     19       SLPC     C32      CTL2    -0.220000       12.0110           0
      6143 MEMB     19       SLPC     H2X      HAL2     0.900000E-01   1.00800           0
      6144 MEMB     19       SLPC     H2Y      HAL2     0.900000E-01   1.00800           0
      6145 MEMB     19       SLPC     C23      CTL2    -0.180000       12.0110           0
      6146 MEMB     19       SLPC     H3R      HAL2     0.900000E-01   1.00800           0
      6147 MEMB     19       SLPC     H3S      HAL2     0.900000E-01   1.00800           0
      6148 MEMB     19       SLPC     C24      CTL2    -0.180000       12.0110           0
      6149 MEMB     19       SLPC     H4R      HAL2     0.900000E-01   1.00800           0
      6150 MEMB     19       SLPC     H4S      HAL2     0.900000E-01   1.00800           0
      6151 MEMB     19       SLPC     C25      CTL2    -0.180000       12.0110           0
      6152 MEMB     19       SLPC     H5R      HAL2     0.900000E-01   1.00800           0
      6153 MEMB     19       SLPC     H5S      HAL2     0.900000E-01   1.00800           0
      6154 MEMB     19       SLPC     C26      CTL2    -0.180000       12.0110           0
      6155 MEMB     19       SLPC     H6R      HAL2     0.900000E-01   1.00800           0
      6156 MEMB     19       SLPC     H6S      HAL2     0.900000E-01   1.00800           0
      6157 MEMB     19       SLPC     C27      CTL2    -0.180000       12.0110           0
      6158 MEMB     19       SLPC     H7R      HAL2     0.900000E-01   1.00800           0
      6159 MEMB     19       SLPC     H7S      HAL2     0.900000E-01   1.00800           0
      6160 MEMB     19       SLPC     C28      CTL2    -0.180000       12.0110           0
      6161 MEMB     19       SLPC     H8R      HAL2     0.900000E-01   1.00800           0
      6162 MEMB     19       SLPC     H8S      HAL2     0.900000E-01   1.00800           0
      6163 MEMB     19       SLPC     C29      CEL1    -0.150000       12.0110           0
      6164 MEMB     19       SLPC     H9R      HEL1     0.150000       1.00800           0
      6165 MEMB     19       SLPC     C210     CEL1    -0.150000       12.0110           0
      6166 MEMB     19       SLPC     H10R     HEL1     0.150000       1.00800           0
      6167 MEMB     19       SLPC     C211     CTL2    -0.180000       12.0110           0
      6168 MEMB     19       SLPC     H11R     HAL2     0.900000E-01   1.00800           0
      6169 MEMB     19       SLPC     H11S     HAL2     0.900000E-01   1.00800           0
      6170 MEMB     19       SLPC     C212     CEL1    -0.150000       12.0110           0
      6171 MEMB     19       SLPC     H12R     HEL1     0.150000       1.00800           0
      6172 MEMB     19       SLPC     C213     CEL1    -0.150000       12.0110           0
      6173 MEMB     19       SLPC     H13R     HEL1     0.150000       1.00800           0
      6174 MEMB     19       SLPC     C214     CTL2    -0.180000       12.0110           0
      6175 MEMB     19       SLPC     H14R     HAL2     0.900000E-01   1.00800           0
      6176 MEMB     19       SLPC     H14S     HAL2     0.900000E-01   1.00800           0
      6177 MEMB     19       SLPC     C215     CTL2    -0.180000       12.0110           0
      6178 MEMB     19       SLPC     H15R     HAL2     0.900000E-01   1.00800           0
      6179 MEMB     19       SLPC     H15S     HAL2     0.900000E-01   1.00800           0
      6180 MEMB     19       SLPC     C216     CTL2    -0.180000       12.0110           0
      6181 MEMB     19       SLPC     H16R     HAL2     0.900000E-01   1.00800           0
      6182 MEMB     19       SLPC     H16S     HAL2     0.900000E-01   1.00800           0
      6183 MEMB     19       SLPC     C217     CTL2    -0.180000       12.0110           0
      6184 MEMB     19       SLPC     H17R     HAL2     0.900000E-01   1.00800           0
      6185 MEMB     19       SLPC     H17S     HAL2     0.900000E-01   1.00800           0
      6186 MEMB     19       SLPC     C218     CTL3    -0.270000       12.0110           0
      6187 MEMB     19       SLPC     H18R     HAL3     0.900000E-01   1.00800           0
      6188 MEMB     19       SLPC     H18S     HAL3     0.900000E-01   1.00800           0
      6189 MEMB     19       SLPC     H18T     HAL3     0.900000E-01   1.00800           0
      6190 MEMB     19       SLPC     C33      CTL2    -0.180000       12.0110           0
      6191 MEMB     19       SLPC     H3X      HAL2     0.900000E-01   1.00800           0
      6192 MEMB     19       SLPC     H3Y      HAL2     0.900000E-01   1.00800           0
      6193 MEMB     19       SLPC     C34      CTL2    -0.180000       12.0110           0
      6194 MEMB     19       SLPC     H4X      HAL2     0.900000E-01   1.00800           0
      6195 MEMB     19       SLPC     H4Y      HAL2     0.900000E-01   1.00800           0
      6196 MEMB     19       SLPC     C35      CTL2    -0.180000       12.0110           0
      6197 MEMB     19       SLPC     H5X      HAL2     0.900000E-01   1.00800           0
      6198 MEMB     19       SLPC     H5Y      HAL2     0.900000E-01   1.00800           0
      6199 MEMB     19       SLPC     C36      CTL2    -0.180000       12.0110           0
      6200 MEMB     19       SLPC     H6X      HAL2     0.900000E-01   1.00800           0
      6201 MEMB     19       SLPC     H6Y      HAL2     0.900000E-01   1.00800           0
      6202 MEMB     19       SLPC     C37      CTL2    -0.180000       12.0110           0
      6203 MEMB     19       SLPC     H7X      HAL2     0.900000E-01   1.00800           0
      6204 MEMB     19       SLPC     H7Y      HAL2     0.900000E-01   1.00800           0
      6205 MEMB     19       SLPC     C38      CTL2    -0.180000       12.0110           0
      6206 MEMB     19       SLPC     H8X      HAL2     0.900000E-01   1.00800           0
      6207 MEMB     19       SLPC     H8Y      HAL2     0.900000E-01   1.00800           0
      6208 MEMB     19       SLPC     C39      CTL2    -0.180000       12.0110           0
      6209 MEMB     19       SLPC     H9X      HAL2     0.900000E-01   1.00800           0
      6210 MEMB     19       SLPC     H9Y      HAL2     0.900000E-01   1.00800           0
      6211 MEMB     19       SLPC     C310     CTL2    -0.180000       12.0110           0
      6212 MEMB     19       SLPC     H10X     HAL2     0.900000E-01   1.00800           0
      6213 MEMB     19       SLPC     H10Y     HAL2     0.900000E-01   1.00800           0
      6214 MEMB     19       SLPC     C311     CTL2    -0.180000       12.0110           0
      6215 MEMB     19       SLPC     H11X     HAL2     0.900000E-01   1.00800           0
      6216 MEMB     19       SLPC     H11Y     HAL2     0.900000E-01   1.00800           0
      6217 MEMB     19       SLPC     C312     CTL2    -0.180000       12.0110           0
      6218 MEMB     19       SLPC     H12X     HAL2     0.900000E-01   1.00800           0
      6219 MEMB     19       SLPC     H12Y     HAL2     0.900000E-01   1.00800           0
      6220 MEMB     19       SLPC     C313     CTL2    -0.180000       12.0110           0
      6221 MEMB     19       SLPC     H13X     HAL2     0.900000E-01   1.00800           0
      6222 MEMB     19       SLPC     H13Y     HAL2     0.900000E-01   1.00800           0
      6223 MEMB     19       SLPC     C314     CTL2    -0.180000       12.0110           0
      6224 MEMB     19       SLPC     H14X     HAL2     0.900000E-01   1.00800           0
      6225 MEMB     19       SLPC     H14Y     HAL2     0.900000E-01   1.00800           0
      6226 MEMB     19       SLPC     C315     CTL2    -0.180000       12.0110           0
      6227 MEMB     19       SLPC     H15X     HAL2     0.900000E-01   1.00800           0
      6228 MEMB     19       SLPC     H15Y     HAL2     0.900000E-01   1.00800           0
      6229 MEMB     19       SLPC     C316     CTL2    -0.180000       12.0110           0
      6230 MEMB     19       SLPC     H16X     HAL2     0.900000E-01   1.00800           0
      6231 MEMB     19       SLPC     H16Y     HAL2     0.900000E-01   1.00800           0
      6232 MEMB     19       SLPC     C317     CTL2    -0.180000       12.0110           0
      6233 MEMB     19       SLPC     H17X     HAL2     0.900000E-01   1.00800           0
      6234 MEMB     19       SLPC     H17Y     HAL2     0.900000E-01   1.00800           0
      6235 MEMB     19       SLPC     C318     CTL3    -0.270000       12.0110           0
      6236 MEMB     19       SLPC     H18X     HAL3     0.900000E-01   1.00800           0
      6237 MEMB     19       SLPC     H18Y     HAL3     0.900000E-01   1.00800           0
      6238 MEMB     19       SLPC     H18Z     HAL3     0.900000E-01   1.00800           0
      6239 MEMB     72       SLPC     N        NTL     -0.600000       14.0070           0
      6240 MEMB     72       SLPC     C13      CTL5    -0.350000       12.0110           0
      6241 MEMB     72       SLPC     H13A     HL       0.250000       1.00800           0
      6242 MEMB     72       SLPC     H13B     HL       0.250000       1.00800           0
      6243 MEMB     72       SLPC     H13C     HL       0.250000       1.00800           0
      6244 MEMB     72       SLPC     C14      CTL5    -0.350000       12.0110           0
      6245 MEMB     72       SLPC     H14A     HL       0.250000       1.00800           0
      6246 MEMB     72       SLPC     H14B     HL       0.250000       1.00800           0
      6247 MEMB     72       SLPC     H14C     HL       0.250000       1.00800           0
      6248 MEMB     72       SLPC     C15      CTL5    -0.350000       12.0110           0
      6249 MEMB     72       SLPC     H15A     HL       0.250000       1.00800           0
      6250 MEMB     72       SLPC     H15B     HL       0.250000       1.00800           0
      6251 MEMB     72       SLPC     H15C     HL       0.250000       1.00800           0
      6252 MEMB     72       SLPC     C12      CTL2    -0.100000       12.0110           0
      6253 MEMB     72       SLPC     H12A     HL       0.250000       1.00800           0
      6254 MEMB     72       SLPC     H12B     HL       0.250000       1.00800           0
      6255 MEMB     72       SLPC     C11      CTL2    -0.800000E-01   12.0110           0
      6256 MEMB     72       SLPC     H11A     HAL2     0.900000E-01   1.00800           0
      6257 MEMB     72       SLPC     H11B     HAL2     0.900000E-01   1.00800           0
      6258 MEMB     72       SLPC     P        PL       1.500000       30.9740           0
      6259 MEMB     72       SLPC     O13      O2L     -0.780000       15.9994           0
      6260 MEMB     72       SLPC     O14      O2L     -0.780000       15.9994           0
      6261 MEMB     72       SLPC     O12      OSLP    -0.570000       15.9994           0
      6262 MEMB     72       SLPC     O11      OSLP    -0.570000       15.9994           0
      6263 MEMB     72       SLPC     C1       CTL2    -0.800000E-01   12.0110           0
      6264 MEMB     72       SLPC     HA       HAL2     0.900000E-01   1.00800           0
      6265 MEMB     72       SLPC     HB       HAL2     0.900000E-01   1.00800           0
      6266 MEMB     72       SLPC     C2       CTL1     0.170000       12.0110           0
      6267 MEMB     72       SLPC     HS       HAL1     0.900000E-01   1.00800           0
      6268 MEMB     72       SLPC     O21      OSL     -0.490000       15.9994           0
      6269 MEMB     72       SLPC     C21      CL       0.900000       12.0110           0
      6270 MEMB     72       SLPC     O22      OBL     -0.630000       15.9994           0
      6271 MEMB     72       SLPC     C22      CTL2    -0.220000       12.0110           0
      6272 MEMB     72       SLPC     H2R      HAL2     0.900000E-01   1.00800           0
      6273 MEMB     72       SLPC     H2S      HAL2     0.900000E-01   1.00800           0
      6274 MEMB     72       SLPC     C3       CTL2     0.800000E-01   12.0110           0
      6275 MEMB     72       SLPC     HX       HAL2     0.900000E-01   1.00800           0
      6276 MEMB     72       SLPC     HY       HAL2     0.900000E-01   1.00800           0
      6277 MEMB     72       SLPC     O31      OSL     -0.490000       15.9994           0
      6278 MEMB     72       SLPC     C31      CL       0.900000       12.0110           0
      6279 MEMB     72       SLPC     O32      OBL     -0.630000       15.9994           0
      6280 MEMB     72       SLPC     C32      CTL2    -0.220000       12.0110           0
      6281 MEMB     72       SLPC     H2X      HAL2     0.900000E-01   1.00800           0
      6282 MEMB     72       SLPC     H2Y      HAL2     0.900000E-01   1.00800           0
      6283 MEMB     72       SLPC     C23      CTL2    -0.180000       12.0110           0
      6284 MEMB     72       SLPC     H3R      HAL2     0.900000E-01   1.00800           0
      6285 MEMB     72       SLPC     H3S      HAL2     0.900000E-01   1.00800           0
      6286 MEMB     72       SLPC     C24      CTL2    -0.180000       12.0110           0
      6287 MEMB     72       SLPC     H4R      HAL2     0.900000E-01   1.00800           0
      6288 MEMB     72       SLPC     H4S      HAL2     0.900000E-01   1.00800           0
      6289 MEMB     72       SLPC     C25      CTL2    -0.180000       12.0110           0
      6290 MEMB     72       SLPC     H5R      HAL2     0.900000E-01   1.00800           0
      6291 MEMB     72       SLPC     H5S      HAL2     0.900000E-01   1.00800           0
      6292 MEMB     72       SLPC     C26      CTL2    -0.180000       12.0110           0
      6293 MEMB     72       SLPC     H6R      HAL2     0.900000E-01   1.00800           0
      6294 MEMB     72       SLPC     H6S      HAL2     0.900000E-01   1.00800           0
      6295 MEMB     72       SLPC     C27      CTL2    -0.180000       12.0110           0
      6296 MEMB     72       SLPC     H7R      HAL2     0.900000E-01   1.00800           0
      6297 MEMB     72       SLPC     H7S      HAL2     0.900000E-01   1.00800           0
      6298 MEMB     72       SLPC     C28      CTL2    -0.180000       12.0110           0
      6299 MEMB     72       SLPC     H8R      HAL2     0.900000E-01   1.00800           0
      6300 MEMB     72       SLPC     H8S      HAL2     0.900000E-01   1.00800           0
      6301 MEMB     72       SLPC     C29      CEL1    -0.150000       12.0110           0
      6302 MEMB     72       SLPC     H9R      HEL1     0.150000       1.00800           0
      6303 MEMB     72       SLPC     C210     CEL1    -0.150000       12.0110           0
      6304 MEMB     72       SLPC     H10R     HEL1     0.150000       1.00800           0
      6305 MEMB     72       SLPC     C211     CTL2    -0.180000       12.0110           0
      6306 MEMB     72       SLPC     H11R     HAL2     0.900000E-01   1.00800           0
      6307 MEMB     72       SLPC     H11S     HAL2     0.900000E-01   1.00800           0
      6308 MEMB     72       SLPC     C212     CEL1    -0.150000       12.0110           0
      6309 MEMB     72       SLPC     H12R     HEL1     0.150000       1.00800           0
      6310 MEMB     72       SLPC     C213     CEL1    -0.150000       12.0110           0
      6311 MEMB     72       SLPC     H13R     HEL1     0.150000       1.00800           0
      6312 MEMB     72       SLPC     C214     CTL2    -0.180000       12.0110           0
      6313 MEMB     72       SLPC     H14R     HAL2     0.900000E-01   1.00800           0
      6314 MEMB     72       SLPC     H14S     HAL2     0.900000E-01   1.00800           0
      6315 MEMB     72       SLPC     C215     CTL2    -0.180000       12.0110           0
      6316 MEMB     72       SLPC     H15R     HAL2     0.900000E-01   1.00800           0
      6317 MEMB     72       SLPC     H15S     HAL2     0.900000E-01   1.00800           0
      6318 MEMB     72       SLPC     C216     CTL2    -0.180000       12.0110           0
      6319 MEMB     72       SLPC     H16R     HAL2     0.900000E-01   1.00800           0
      6320 MEMB     72       SLPC     H16S     HAL2     0.900000E-01   1.00800           0
      6321 MEMB     72       SLPC     C217     CTL2    -0.180000       12.0110           0
      6322 MEMB     72       SLPC     H17R     HAL2     0.900000E-01   1.00800           0
      6323 MEMB     72       SLPC     H17S     HAL2     0.900000E-01   1.00800           0
      6324 MEMB     72       SLPC     C218     CTL3    -0.270000       12.0110           0
      6325 MEMB     72       SLPC     H18R     HAL3     0.900000E-01   1.00800           0
      6326 MEMB     72       SLPC     H18S     HAL3     0.900000E-01   1.00800           0
      6327 MEMB     72       SLPC     H18T     HAL3     0.900000E-01   1.00800           0
      6328 MEMB     72       SLPC     C33      CTL2    -0.180000       12.0110           0
      6329 MEMB     72       SLPC     H3X      HAL2     0.900000E-01   1.00800           0
      6330 MEMB     72       SLPC     H3Y      HAL2     0.900000E-01   1.00800           0
      6331 MEMB     72       SLPC     C34      CTL2    -0.180000       12.0110           0
      6332 MEMB     72       SLPC     H4X      HAL2     0.900000E-01   1.00800           0
      6333 MEMB     72       SLPC     H4Y      HAL2     0.900000E-01   1.00800           0
      6334 MEMB     72       SLPC     C35      CTL2    -0.180000       12.0110           0
      6335 MEMB     72       SLPC     H5X      HAL2     0.900000E-01   1.00800           0
      6336 MEMB     72       SLPC     H5Y      HAL2     0.900000E-01   1.00800           0
      6337 MEMB     72       SLPC     C36      CTL2    -0.180000       12.0110           0
      6338 MEMB     72       SLPC     H6X      HAL2     0.900000E-01   1.00800           0
      6339 MEMB     72       SLPC     H6Y      HAL2     0.900000E-01   1.00800           0
      6340 MEMB     72       SLPC     C37      CTL2    -0.180000       12.0110           0
      6341 MEMB     72       SLPC     H7X      HAL2     0.900000E-01   1.00800           0
      6342 MEMB     72       SLPC     H7Y      HAL2     0.900000E-01   1.00800           0
      6343 MEMB     72       SLPC     C38      CTL2    -0.180000       12.0110           0
      6344 MEMB     72       SLPC     H8X      HAL2     0.900000E-01   1.00800           0
      6345 MEMB     72       SLPC     H8Y      HAL2     0.900000E-01   1.00800           0
      6346 MEMB     72       SLPC     C39      CTL2    -0.180000       12.0110           0
      6347 MEMB     72       SLPC     H9X      HAL2     0.900000E-01   1.00800           0
      6348 MEMB     72       SLPC     H9Y      HAL2     0.900000E-01   1.00800           0
      6349 MEMB     72       SLPC     C310     CTL2    -0.180000       12.0110           0
      6350 MEMB     72       SLPC     H10X     HAL2     0.900000E-01   1.00800           0
      6351 MEMB     72       SLPC     H10Y     HAL2     0.900000E-01   1.00800           0
      6352 MEMB     72       SLPC     C311     CTL2    -0.180000       12.0110           0
      6353 MEMB     72       SLPC     H11X     HAL2     0.900000E-01   1.00800           0
      6354 MEMB     72       SLPC     H11Y     HAL2     0.900000E-01   1.00800           0
      6355 MEMB     72       SLPC     C312     CTL2    -0.180000       12.0110           0
      6356 MEMB     72       SLPC     H12X     HAL2     0.900000E-01   1.00800           0
      6357 MEMB     72       SLPC     H12Y     HAL2     0.900000E-01   1.00800           0
      6358 MEMB     72       SLPC     C313     CTL2    -0.180000       12.0110           0
      6359 MEMB     72       SLPC     H13X     HAL2     0.900000E-01   1.00800           0
      6360 MEMB     72       SLPC     H13Y     HAL2     0.900000E-01   1.00800           0
      6361 MEMB     72       SLPC     C314     CTL2    -0.180000       12.0110           0
      6362 MEMB     72       SLPC     H14X     HAL2     0.900000E-01   1.00800           0
      6363 MEMB     72       SLPC     H14Y     HAL2     0.900000E-01   1.00800           0
      6364 MEMB     72       SLPC     C315     CTL2    -0.180000       12.0110           0
      6365 MEMB     72       SLPC     H15X     HAL2     0.900000E-01   1.00800           0
      6366 MEMB     72       SLPC     H15Y     HAL2     0.900000E-01   1.00800           0
      6367 MEMB     72       SLPC     C316     CTL2    -0.180000       12.0110           0
      6368 MEMB     72       SLPC     H16X     HAL2     0.900000E-01   1.00800           0
      6369 MEMB     72       SLPC     H16Y     HAL2     0.900000E-01   1.00800           0
      6370 MEMB     72       SLPC     C317     CTL2    -0.180000       12.0110           0
      6371 MEMB     72       SLPC     H17X     HAL2     0.900000E-01   1.00800           0
      6372 MEMB     72       SLPC     H17Y     HAL2     0.900000E-01   1.00800           0
      6373 MEMB     72       SLPC     C318     CTL3    -0.270000       12.0110           0
      6374 MEMB     72       SLPC     H18X     HAL3     0.900000E-01   1.00800           0
      6375 MEMB     72       SLPC     H18Y     HAL3     0.900000E-01   1.00800           0
      6376 MEMB     72       SLPC     H18Z     HAL3     0.900000E-01   1.00800           0
      6377 MEMB     73       SLPC     N        NTL     -0.600000       14.0070           0
      6378 MEMB     73       SLPC     C13      CTL5    -0.350000       12.0110           0
      6379 MEMB     73       SLPC     H13A     HL       0.250000       1.00800           0
      6380 MEMB     73       SLPC     H13B     HL       0.250000       1.00800           0
      6381 MEMB     73       SLPC     H13C     HL       0.250000       1.00800           0
      6382 MEMB     73       SLPC     C14      CTL5    -0.350000       12.0110           0
      6383 MEMB     73       SLPC     H14A     HL       0.250000       1.00800           0
      6384 MEMB     73       SLPC     H14B     HL       0.250000       1.00800           0
      6385 MEMB     73       SLPC     H14C     HL       0.250000       1.00800           0
      6386 MEMB     73       SLPC     C15      CTL5    -0.350000       12.0110           0
      6387 MEMB     73       SLPC     H15A     HL       0.250000       1.00800           0
      6388 MEMB     73       SLPC     H15B     HL       0.250000       1.00800           0
      6389 MEMB     73       SLPC     H15C     HL       0.250000       1.00800           0
      6390 MEMB     73       SLPC     C12      CTL2    -0.100000       12.0110           0
      6391 MEMB     73       SLPC     H12A     HL       0.250000       1.00800           0
      6392 MEMB     73       SLPC     H12B     HL       0.250000       1.00800           0
      6393 MEMB     73       SLPC     C11      CTL2    -0.800000E-01   12.0110           0
      6394 MEMB     73       SLPC     H11A     HAL2     0.900000E-01   1.00800           0
      6395 MEMB     73       SLPC     H11B     HAL2     0.900000E-01   1.00800           0
      6396 MEMB     73       SLPC     P        PL       1.500000       30.9740           0
      6397 MEMB     73       SLPC     O13      O2L     -0.780000       15.9994           0
      6398 MEMB     73       SLPC     O14      O2L     -0.780000       15.9994           0
      6399 MEMB     73       SLPC     O12      OSLP    -0.570000       15.9994           0
      6400 MEMB     73       SLPC     O11      OSLP    -0.570000       15.9994           0
      6401 MEMB     73       SLPC     C1       CTL2    -0.800000E-01   12.0110           0
      6402 MEMB     73       SLPC     HA       HAL2     0.900000E-01   1.00800           0
      6403 MEMB     73       SLPC     HB       HAL2     0.900000E-01   1.00800           0
      6404 MEMB     73       SLPC     C2       CTL1     0.170000       12.0110           0
      6405 MEMB     73       SLPC     HS       HAL1     0.900000E-01   1.00800           0
      6406 MEMB     73       SLPC     O21      OSL     -0.490000       15.9994           0
      6407 MEMB     73       SLPC     C21      CL       0.900000       12.0110           0
      6408 MEMB     73       SLPC     O22      OBL     -0.630000       15.9994           0
      6409 MEMB     73       SLPC     C22      CTL2    -0.220000       12.0110           0
      6410 MEMB     73       SLPC     H2R      HAL2     0.900000E-01   1.00800           0
      6411 MEMB     73       SLPC     H2S      HAL2     0.900000E-01   1.00800           0
      6412 MEMB     73       SLPC     C3       CTL2     0.800000E-01   12.0110           0
      6413 MEMB     73       SLPC     HX       HAL2     0.900000E-01   1.00800           0
      6414 MEMB     73       SLPC     HY       HAL2     0.900000E-01   1.00800           0
      6415 MEMB     73       SLPC     O31      OSL     -0.490000       15.9994           0
      6416 MEMB     73       SLPC     C31      CL       0.900000       12.0110           0
      6417 MEMB     73       SLPC     O32      OBL     -0.630000       15.9994           0
      6418 MEMB     73       SLPC     C32      CTL2    -0.220000       12.0110           0
      6419 MEMB     73       SLPC     H2X      HAL2     0.900000E-01   1.00800           0
      6420 MEMB     73       SLPC     H2Y      HAL2     0.900000E-01   1.00800           0
      6421 MEMB     73       SLPC     C23      CTL2    -0.180000       12.0110           0
      6422 MEMB     73       SLPC     H3R      HAL2     0.900000E-01   1.00800           0
      6423 MEMB     73       SLPC     H3S      HAL2     0.900000E-01   1.00800           0
      6424 MEMB     73       SLPC     C24      CTL2    -0.180000       12.0110           0
      6425 MEMB     73       SLPC     H4R      HAL2     0.900000E-01   1.00800           0
      6426 MEMB     73       SLPC     H4S      HAL2     0.900000E-01   1.00800           0
      6427 MEMB     73       SLPC     C25      CTL2    -0.180000       12.0110           0
      6428 MEMB     73       SLPC     H5R      HAL2     0.900000E-01   1.00800           0
      6429 MEMB     73       SLPC     H5S      HAL2     0.900000E-01   1.00800           0
      6430 MEMB     73       SLPC     C26      CTL2    -0.180000       12.0110           0
      6431 MEMB     73       SLPC     H6R      HAL2     0.900000E-01   1.00800           0
      6432 MEMB     73       SLPC     H6S      HAL2     0.900000E-01   1.00800           0
      6433 MEMB     73       SLPC     C27      CTL2    -0.180000       12.0110           0
      6434 MEMB     73       SLPC     H7R      HAL2     0.900000E-01   1.00800           0
      6435 MEMB     73       SLPC     H7S      HAL2     0.900000E-01   1.00800           0
      6436 MEMB     73       SLPC     C28      CTL2    -0.180000       12.0110           0
      6437 MEMB     73       SLPC     H8R      HAL2     0.900000E-01   1.00800           0
      6438 MEMB     73       SLPC     H8S      HAL2     0.900000E-01   1.00800           0
      6439 MEMB     73       SLPC     C29      CEL1    -0.150000       12.0110           0
      6440 MEMB     73       SLPC     H9R      HEL1     0.150000       1.00800           0
      6441 MEMB     73       SLPC     C210     CEL1    -0.150000       12.0110           0
      6442 MEMB     73       SLPC     H10R     HEL1     0.150000       1.00800           0
      6443 MEMB     73       SLPC     C211     CTL2    -0.180000       12.0110           0
      6444 MEMB     73       SLPC     H11R     HAL2     0.900000E-01   1.00800           0
      6445 MEMB     73       SLPC     H11S     HAL2     0.900000E-01   1.00800           0
      6446 MEMB     73       SLPC     C212     CEL1    -0.150000       12.0110           0
      6447 MEMB     73       SLPC     H12R     HEL1     0.150000       1.00800           0
      6448 MEMB     73       SLPC     C213     CEL1    -0.150000       12.0110           0
      6449 MEMB     73       SLPC     H13R     HEL1     0.150000       1.00800           0
      6450 MEMB     73       SLPC     C214     CTL2    -0.180000       12.0110           0
      6451 MEMB     73       SLPC     H14R     HAL2     0.900000E-01   1.00800           0
      6452 MEMB     73       SLPC     H14S     HAL2     0.900000E-01   1.00800           0
      6453 MEMB     73       SLPC     C215     CTL2    -0.180000       12.0110           0
      6454 MEMB     73       SLPC     H15R     HAL2     0.900000E-01   1.00800           0
      6455 MEMB     73       SLPC     H15S     HAL2     0.900000E-01   1.00800           0
      6456 MEMB     73       SLPC     C216     CTL2    -0.180000       12.0110           0
      6457 MEMB     73       SLPC     H16R     HAL2     0.900000E-01   1.00800           0
      6458 MEMB     73       SLPC     H16S     HAL2     0.900000E-01   1.00800           0
      6459 MEMB     73       SLPC     C217     CTL2    -0.180000       12.0110           0
      6460 MEMB     73       SLPC     H17R     HAL2     0.900000E-01   1.00800           0
      6461 MEMB     73       SLPC     H17S     HAL2     0.900000E-01   1.00800           0
      6462 MEMB     73       SLPC     C218     CTL3    -0.270000       12.0110           0
      6463 MEMB     73       SLPC     H18R     HAL3     0.900000E-01   1.00800           0
      6464 MEMB     73       SLPC     H18S     HAL3     0.900000E-01   1.00800           0
      6465 MEMB     73       SLPC     H18T     HAL3     0.900000E-01   1.00800           0
      6466 MEMB     73       SLPC     C33      CTL2    -0.180000       12.0110           0
      6467 MEMB     73       SLPC     H3X      HAL2     0.900000E-01   1.00800           0
      6468 MEMB     73       SLPC     H3Y      HAL2     0.900000E-01   1.00800           0
      6469 MEMB     73       SLPC     C34      CTL2    -0.180000       12.0110           0
      6470 MEMB     73       SLPC     H4X      HAL2     0.900000E-01   1.00800           0
      6471 MEMB     73       SLPC     H4Y      HAL2     0.900000E-01   1.00800           0
      6472 MEMB     73       SLPC     C35      CTL2    -0.180000       12.0110           0
      6473 MEMB     73       SLPC     H5X      HAL2     0.900000E-01   1.00800           0
      6474 MEMB     73       SLPC     H5Y      HAL2     0.900000E-01   1.00800           0
      6475 MEMB     73       SLPC     C36      CTL2    -0.180000       12.0110           0
      6476 MEMB     73       SLPC     H6X      HAL2     0.900000E-01   1.00800           0
      6477 MEMB     73       SLPC     H6Y      HAL2     0.900000E-01   1.00800           0
      6478 MEMB     73       SLPC     C37      CTL2    -0.180000       12.0110           0
      6479 MEMB     73       SLPC     H7X      HAL2     0.900000E-01   1.00800           0
      6480 MEMB     73       SLPC     H7Y      HAL2     0.900000E-01   1.00800           0
      6481 MEMB     73       SLPC     C38      CTL2    -0.180000       12.0110           0
      6482 MEMB     73       SLPC     H8X      HAL2     0.900000E-01   1.00800           0
      6483 MEMB     73       SLPC     H8Y      HAL2     0.900000E-01   1.00800           0
      6484 MEMB     73       SLPC     C39      CTL2    -0.180000       12.0110           0
      6485 MEMB     73       SLPC     H9X      HAL2     0.900000E-01   1.00800           0
      6486 MEMB     73       SLPC     H9Y      HAL2     0.900000E-01   1.00800           0
      6487 MEMB     73       SLPC     C310     CTL2    -0.180000       12.0110           0
      6488 MEMB     73       SLPC     H10X     HAL2     0.900000E-01   1.00800           0
      6489 MEMB     73       SLPC     H10Y     HAL2     0.900000E-01   1.00800           0
      6490 MEMB     73       SLPC     C311     CTL2    -0.180000       12.0110           0
      6491 MEMB     73       SLPC     H11X     HAL2     0.900000E-01   1.00800           0
      6492 MEMB     73       SLPC     H11Y     HAL2     0.900000E-01   1.00800           0
      6493 MEMB     73       SLPC     C312     CTL2    -0.180000       12.0110           0
      6494 MEMB     73       SLPC     H12X     HAL2     0.900000E-01   1.00800           0
      6495 MEMB     73       SLPC     H12Y     HAL2     0.900000E-01   1.00800           0
      6496 MEMB     73       SLPC     C313     CTL2    -0.180000       12.0110           0
      6497 MEMB     73       SLPC     H13X     HAL2     0.900000E-01   1.00800           0
      6498 MEMB     73       SLPC     H13Y     HAL2     0.900000E-01   1.00800           0
      6499 MEMB     73       SLPC     C314     CTL2    -0.180000       12.0110           0
      6500 MEMB     73       SLPC     H14X     HAL2     0.900000E-01   1.00800           0
      6501 MEMB     73       SLPC     H14Y     HAL2     0.900000E-01   1.00800           0
      6502 MEMB     73       SLPC     C315     CTL2    -0.180000       12.0110           0
      6503 MEMB     73       SLPC     H15X     HAL2     0.900000E-01   1.00800           0
      6504 MEMB     73       SLPC     H15Y     HAL2     0.900000E-01   1.00800           0
      6505 MEMB     73       SLPC     C316     CTL2    -0.180000       12.0110           0
      6506 MEMB     73       SLPC     H16X     HAL2     0.900000E-01   1.00800           0
      6507 MEMB     73       SLPC     H16Y     HAL2     0.900000E-01   1.00800           0
      6508 MEMB     73       SLPC     C317     CTL2    -0.180000       12.0110           0
      6509 MEMB     73       SLPC     H17X     HAL2     0.900000E-01   1.00800           0
      6510 MEMB     73       SLPC     H17Y     HAL2     0.900000E-01   1.00800           0
      6511 MEMB     73       SLPC     C318     CTL3    -0.270000       12.0110           0
      6512 MEMB     73       SLPC     H18X     HAL3     0.900000E-01   1.00800           0
      6513 MEMB     73       SLPC     H18Y     HAL3     0.900000E-01   1.00800           0
      6514 MEMB     73       SLPC     H18Z     HAL3     0.900000E-01   1.00800           0
      6515 MEMB     96       SLPC     N        NTL     -0.600000       14.0070           0
      6516 MEMB     96       SLPC     C13      CTL5    -0.350000       12.0110           0
      6517 MEMB     96       SLPC     H13A     HL       0.250000       1.00800           0
      6518 MEMB     96       SLPC     H13B     HL       0.250000       1.00800           0
      6519 MEMB     96       SLPC     H13C     HL       0.250000       1.00800           0
      6520 MEMB     96       SLPC     C14      CTL5    -0.350000       12.0110           0
      6521 MEMB     96       SLPC     H14A     HL       0.250000       1.00800           0
      6522 MEMB     96       SLPC     H14B     HL       0.250000       1.00800           0
      6523 MEMB     96       SLPC     H14C     HL       0.250000       1.00800           0
      6524 MEMB     96       SLPC     C15      CTL5    -0.350000       12.0110           0
      6525 MEMB     96       SLPC     H15A     HL       0.250000       1.00800           0
      6526 MEMB     96       SLPC     H15B     HL       0.250000       1.00800           0
      6527 MEMB     96       SLPC     H15C     HL       0.250000       1.00800           0
      6528 MEMB     96       SLPC     C12      CTL2    -0.100000       12.0110           0
      6529 MEMB     96       SLPC     H12A     HL       0.250000       1.00800           0
      6530 MEMB     96       SLPC     H12B     HL       0.250000       1.00800           0
      6531 MEMB     96       SLPC     C11      CTL2    -0.800000E-01   12.0110           0
      6532 MEMB     96       SLPC     H11A     HAL2     0.900000E-01   1.00800           0
      6533 MEMB     96       SLPC     H11B     HAL2     0.900000E-01   1.00800           0
      6534 MEMB     96       SLPC     P        PL       1.500000       30.9740           0
      6535 MEMB     96       SLPC     O13      O2L     -0.780000       15.9994           0
      6536 MEMB     96       SLPC     O14      O2L     -0.780000       15.9994           0
      6537 MEMB     96       SLPC     O12      OSLP    -0.570000       15.9994           0
      6538 MEMB     96       SLPC     O11      OSLP    -0.570000       15.9994           0
      6539 MEMB     96       SLPC     C1       CTL2    -0.800000E-01   12.0110           0
      6540 MEMB     96       SLPC     HA       HAL2     0.900000E-01   1.00800           0
      6541 MEMB     96       SLPC     HB       HAL2     0.900000E-01   1.00800           0
      6542 MEMB     96       SLPC     C2       CTL1     0.170000       12.0110           0
      6543 MEMB     96       SLPC     HS       HAL1     0.900000E-01   1.00800           0
      6544 MEMB     96       SLPC     O21      OSL     -0.490000       15.9994           0
      6545 MEMB     96       SLPC     C21      CL       0.900000       12.0110           0
      6546 MEMB     96       SLPC     O22      OBL     -0.630000       15.9994           0
      6547 MEMB     96       SLPC     C22      CTL2    -0.220000       12.0110           0
      6548 MEMB     96       SLPC     H2R      HAL2     0.900000E-01   1.00800           0
      6549 MEMB     96       SLPC     H2S      HAL2     0.900000E-01   1.00800           0
      6550 MEMB     96       SLPC     C3       CTL2     0.800000E-01   12.0110           0
      6551 MEMB     96       SLPC     HX       HAL2     0.900000E-01   1.00800           0
      6552 MEMB     96       SLPC     HY       HAL2     0.900000E-01   1.00800           0
      6553 MEMB     96       SLPC     O31      OSL     -0.490000       15.9994           0
      6554 MEMB     96       SLPC     C31      CL       0.900000       12.0110           0
      6555 MEMB     96       SLPC     O32      OBL     -0.630000       15.9994           0
      6556 MEMB     96       SLPC     C32      CTL2    -0.220000       12.0110           0
      6557 MEMB     96       SLPC     H2X      HAL2     0.900000E-01   1.00800           0
      6558 MEMB     96       SLPC     H2Y      HAL2     0.900000E-01   1.00800           0
      6559 MEMB     96       SLPC     C23      CTL2    -0.180000       12.0110           0
      6560 MEMB     96       SLPC     H3R      HAL2     0.900000E-01   1.00800           0
      6561 MEMB     96       SLPC     H3S      HAL2     0.900000E-01   1.00800           0
      6562 MEMB     96       SLPC     C24      CTL2    -0.180000       12.0110           0
      6563 MEMB     96       SLPC     H4R      HAL2     0.900000E-01   1.00800           0
      6564 MEMB     96       SLPC     H4S      HAL2     0.900000E-01   1.00800           0
      6565 MEMB     96       SLPC     C25      CTL2    -0.180000       12.0110           0
      6566 MEMB     96       SLPC     H5R      HAL2     0.900000E-01   1.00800           0
      6567 MEMB     96       SLPC     H5S      HAL2     0.900000E-01   1.00800           0
      6568 MEMB     96       SLPC     C26      CTL2    -0.180000       12.0110           0
      6569 MEMB     96       SLPC     H6R      HAL2     0.900000E-01   1.00800           0
      6570 MEMB     96       SLPC     H6S      HAL2     0.900000E-01   1.00800           0
      6571 MEMB     96       SLPC     C27      CTL2    -0.180000       12.0110           0
      6572 MEMB     96       SLPC     H7R      HAL2     0.900000E-01   1.00800           0
      6573 MEMB     96       SLPC     H7S      HAL2     0.900000E-01   1.00800           0
      6574 MEMB     96       SLPC     C28      CTL2    -0.180000       12.0110           0
      6575 MEMB     96       SLPC     H8R      HAL2     0.900000E-01   1.00800           0
      6576 MEMB     96       SLPC     H8S      HAL2     0.900000E-01   1.00800           0
      6577 MEMB     96       SLPC     C29      CEL1    -0.150000       12.0110           0
      6578 MEMB     96       SLPC     H9R      HEL1     0.150000       1.00800           0
      6579 MEMB     96       SLPC     C210     CEL1    -0.150000       12.0110           0
      6580 MEMB     96       SLPC     H10R     HEL1     0.150000       1.00800           0
      6581 MEMB     96       SLPC     C211     CTL2    -0.180000       12.0110           0
      6582 MEMB     96       SLPC     H11R     HAL2     0.900000E-01   1.00800           0
      6583 MEMB     96       SLPC     H11S     HAL2     0.900000E-01   1.00800           0
      6584 MEMB     96       SLPC     C212     CEL1    -0.150000       12.0110           0
      6585 MEMB     96       SLPC     H12R     HEL1     0.150000       1.00800           0
      6586 MEMB     96       SLPC     C213     CEL1    -0.150000       12.0110           0
      6587 MEMB     96       SLPC     H13R     HEL1     0.150000       1.00800           0
      6588 MEMB     96       SLPC     C214     CTL2    -0.180000       12.0110           0
      6589 MEMB     96       SLPC     H14R     HAL2     0.900000E-01   1.00800           0
      6590 MEMB     96       SLPC     H14S     HAL2     0.900000E-01   1.00800           0
      6591 MEMB     96       SLPC     C215     CTL2    -0.180000       12.0110           0
      6592 MEMB     96       SLPC     H15R     HAL2     0.900000E-01   1.00800           0
      6593 MEMB     96       SLPC     H15S     HAL2     0.900000E-01   1.00800           0
      6594 MEMB     96       SLPC     C216     CTL2    -0.180000       12.0110           0
      6595 MEMB     96       SLPC     H16R     HAL2     0.900000E-01   1.00800           0
      6596 MEMB     96       SLPC     H16S     HAL2     0.900000E-01   1.00800           0
      6597 MEMB     96       SLPC     C217     CTL2    -0.180000       12.0110           0
      6598 MEMB     96       SLPC     H17R     HAL2     0.900000E-01   1.00800           0
      6599 MEMB     96       SLPC     H17S     HAL2     0.900000E-01   1.00800           0
      6600 MEMB     96       SLPC     C218     CTL3    -0.270000       12.0110           0
      6601 MEMB     96       SLPC     H18R     HAL3     0.900000E-01   1.00800           0
      6602 MEMB     96       SLPC     H18S     HAL3     0.900000E-01   1.00800           0
      6603 MEMB     96       SLPC     H18T     HAL3     0.900000E-01   1.00800           0
      6604 MEMB     96       SLPC     C33      CTL2    -0.180000       12.0110           0
      6605 MEMB     96       SLPC     H3X      HAL2     0.900000E-01   1.00800           0
      6606 MEMB     96       SLPC     H3Y      HAL2     0.900000E-01   1.00800           0
      6607 MEMB     96       SLPC     C34      CTL2    -0.180000       12.0110           0
      6608 MEMB     96       SLPC     H4X      HAL2     0.900000E-01   1.00800           0
      6609 MEMB     96       SLPC     H4Y      HAL2     0.900000E-01   1.00800           0
      6610 MEMB     96       SLPC     C35      CTL2    -0.180000       12.0110           0
      6611 MEMB     96       SLPC     H5X      HAL2     0.900000E-01   1.00800           0
      6612 MEMB     96       SLPC     H5Y      HAL2     0.900000E-01   1.00800           0
      6613 MEMB     96       SLPC     C36      CTL2    -0.180000       12.0110           0
      6614 MEMB     96       SLPC     H6X      HAL2     0.900000E-01   1.00800           0
      6615 MEMB     96       SLPC     H6Y      HAL2     0.900000E-01   1.00800           0
      6616 MEMB     96       SLPC     C37      CTL2    -0.180000       12.0110           0
      6617 MEMB     96       SLPC     H7X      HAL2     0.900000E-01   1.00800           0
      6618 MEMB     96       SLPC     H7Y      HAL2     0.900000E-01   1.00800           0
      6619 MEMB     96       SLPC     C38      CTL2    -0.180000       12.0110           0
      6620 MEMB     96       SLPC     H8X      HAL2     0.900000E-01   1.00800           0
      6621 MEMB     96       SLPC     H8Y      HAL2     0.900000E-01   1.00800           0
      6622 MEMB     96       SLPC     C39      CTL2    -0.180000       12.0110           0
      6623 MEMB     96       SLPC     H9X      HAL2     0.900000E-01   1.00800           0
      6624 MEMB     96       SLPC     H9Y      HAL2     0.900000E-01   1.00800           0
      6625 MEMB     96       SLPC     C310     CTL2    -0.180000       12.0110           0
      6626 MEMB     96       SLPC     H10X     HAL2     0.900000E-01   1.00800           0
      6627 MEMB     96       SLPC     H10Y     HAL2     0.900000E-01   1.00800           0
      6628 MEMB     96       SLPC     C311     CTL2    -0.180000       12.0110           0
      6629 MEMB     96       SLPC     H11X     HAL2     0.900000E-01   1.00800           0
      6630 MEMB     96       SLPC     H11Y     HAL2     0.900000E-01   1.00800           0
      6631 MEMB     96       SLPC     C312     CTL2    -0.180000       12.0110           0
      6632 MEMB     96       SLPC     H12X     HAL2     0.900000E-01   1.00800           0
      6633 MEMB     96       SLPC     H12Y     HAL2     0.900000E-01   1.00800           0
      6634 MEMB     96       SLPC     C313     CTL2    -0.180000       12.0110           0
      6635 MEMB     96       SLPC     H13X     HAL2     0.900000E-01   1.00800           0
      6636 MEMB     96       SLPC     H13Y     HAL2     0.900000E-01   1.00800           0
      6637 MEMB     96       SLPC     C314     CTL2    -0.180000       12.0110           0
      6638 MEMB     96       SLPC     H14X     HAL2     0.900000E-01   1.00800           0
      6639 MEMB     96       SLPC     H14Y     HAL2     0.900000E-01   1.00800           0
      6640 MEMB     96       SLPC     C315     CTL2    -0.180000       12.0110           0
      6641 MEMB     96       SLPC     H15X     HAL2     0.900000E-01   1.00800           0
      6642 MEMB     96       SLPC     H15Y     HAL2     0.900000E-01   1.00800           0
      6643 MEMB     96       SLPC     C316     CTL2    -0.180000       12.0110           0
      6644 MEMB     96       SLPC     H16X     HAL2     0.900000E-01   1.00800           0
      6645 MEMB     96       SLPC     H16Y     HAL2     0.900000E-01   1.00800           0
      6646 MEMB     96       SLPC     C317     CTL2    -0.180000       12.0110           0
      6647 MEMB     96       SLPC     H17X     HAL2     0.900000E-01   1.00800           0
      6648 MEMB     96       SLPC     H17Y     HAL2     0.900000E-01   1.00800           0
      6649 MEMB     96       SLPC     C318     CTL3    -0.270000       12.0110           0
      6650 MEMB     96       SLPC     H18X     HAL3     0.900000E-01   1.00800           0
      6651 MEMB     96       SLPC     H18Y     HAL3     0.900000E-01   1.00800           0
      6652 MEMB     96       SLPC     H18Z     HAL3     0.900000E-01   1.00800           0
      6653 MEMB     134      SLPC     N        NTL     -0.600000       14.0070           0
      6654 MEMB     134      SLPC     C13      CTL5    -0.350000       12.0110           0
      6655 MEMB     134      SLPC     H13A     HL       0.250000       1.00800           0
      6656 MEMB     134      SLPC     H13B     HL       0.250000       1.00800           0
      6657 MEMB     134      SLPC     H13C     HL       0.250000       1.00800           0
      6658 MEMB     134      SLPC     C14      CTL5    -0.350000       12.0110           0
      6659 MEMB     134      SLPC     H14A     HL       0.250000       1.00800           0
      6660 MEMB     134      SLPC     H14B     HL       0.250000       1.00800           0
      6661 MEMB     134      SLPC     H14C     HL       0.250000       1.00800           0
      6662 MEMB     134      SLPC     C15      CTL5    -0.350000       12.0110           0
      6663 MEMB     134      SLPC     H15A     HL       0.250000       1.00800           0
      6664 MEMB     134      SLPC     H15B     HL       0.250000       1.00800           0
      6665 MEMB     134      SLPC     H15C     HL       0.250000       1.00800           0
      6666 MEMB     134      SLPC     C12      CTL2    -0.100000       12.0110           0
      6667 MEMB     134      SLPC     H12A     HL       0.250000       1.00800           0
      6668 MEMB     134      SLPC     H12B     HL       0.250000       1.00800           0
      6669 MEMB     134      SLPC     C11      CTL2    -0.800000E-01   12.0110           0
      6670 MEMB     134      SLPC     H11A     HAL2     0.900000E-01   1.00800           0
      6671 MEMB     134      SLPC     H11B     HAL2     0.900000E-01   1.00800           0
      6672 MEMB     134      SLPC     P        PL       1.500000       30.9740           0
      6673 MEMB     134      SLPC     O13      O2L     -0.780000       15.9994           0
      6674 MEMB     134      SLPC     O14      O2L     -0.780000       15.9994           0
      6675 MEMB     134      SLPC     O12      OSLP    -0.570000       15.9994           0
      6676 MEMB     134      SLPC     O11      OSLP    -0.570000       15.9994           0
      6677 MEMB     134      SLPC     C1       CTL2    -0.800000E-01   12.0110           0
      6678 MEMB     134      SLPC     HA       HAL2     0.900000E-01   1.00800           0
      6679 MEMB     134      SLPC     HB       HAL2     0.900000E-01   1.00800           0
      6680 MEMB     134      SLPC     C2       CTL1     0.170000       12.0110           0
      6681 MEMB     134      SLPC     HS       HAL1     0.900000E-01   1.00800           0
      6682 MEMB     134      SLPC     O21      OSL     -0.490000       15.9994           0
      6683 MEMB     134      SLPC     C21      CL       0.900000       12.0110           0
      6684 MEMB     134      SLPC     O22      OBL     -0.630000       15.9994           0
      6685 MEMB     134      SLPC     C22      CTL2    -0.220000       12.0110           0
      6686 MEMB     134      SLPC     H2R      HAL2     0.900000E-01   1.00800           0
      6687 MEMB     134      SLPC     H2S      HAL2     0.900000E-01   1.00800           0
      6688 MEMB     134      SLPC     C3       CTL2     0.800000E-01   12.0110           0
      6689 MEMB     134      SLPC     HX       HAL2     0.900000E-01   1.00800           0
      6690 MEMB     134      SLPC     HY       HAL2     0.900000E-01   1.00800           0
      6691 MEMB     134      SLPC     O31      OSL     -0.490000       15.9994           0
      6692 MEMB     134      SLPC     C31      CL       0.900000       12.0110           0
      6693 MEMB     134      SLPC     O32      OBL     -0.630000       15.9994           0
      6694 MEMB     134      SLPC     C32      CTL2    -0.220000       12.0110           0
      6695 MEMB     134      SLPC     H2X      HAL2     0.900000E-01   1.00800           0
      6696 MEMB     134      SLPC     H2Y      HAL2     0.900000E-01   1.00800           0
      6697 MEMB     134      SLPC     C23      CTL2    -0.180000       12.0110           0
      6698 MEMB     134      SLPC     H3R      HAL2     0.900000E-01   1.00800           0
      6699 MEMB     134      SLPC     H3S      HAL2     0.900000E-01   1.00800           0
      6700 MEMB     134      SLPC     C24      CTL2    -0.180000       12.0110           0
      6701 MEMB     134      SLPC     H4R      HAL2     0.900000E-01   1.00800           0
      6702 MEMB     134      SLPC     H4S      HAL2     0.900000E-01   1.00800           0
      6703 MEMB     134      SLPC     C25      CTL2    -0.180000       12.0110           0
      6704 MEMB     134      SLPC     H5R      HAL2     0.900000E-01   1.00800           0
      6705 MEMB     134      SLPC     H5S      HAL2     0.900000E-01   1.00800           0
      6706 MEMB     134      SLPC     C26      CTL2    -0.180000       12.0110           0
      6707 MEMB     134      SLPC     H6R      HAL2     0.900000E-01   1.00800           0
      6708 MEMB     134      SLPC     H6S      HAL2     0.900000E-01   1.00800           0
      6709 MEMB     134      SLPC     C27      CTL2    -0.180000       12.0110           0
      6710 MEMB     134      SLPC     H7R      HAL2     0.900000E-01   1.00800           0
      6711 MEMB     134      SLPC     H7S      HAL2     0.900000E-01   1.00800           0
      6712 MEMB     134      SLPC     C28      CTL2    -0.180000       12.0110           0
      6713 MEMB     134      SLPC     H8R      HAL2     0.900000E-01   1.00800           0
      6714 MEMB     134      SLPC     H8S      HAL2     0.900000E-01   1.00800           0
      6715 MEMB     134      SLPC     C29      CEL1    -0.150000       12.0110           0
      6716 MEMB     134      SLPC     H9R      HEL1     0.150000       1.00800           0
      6717 MEMB     134      SLPC     C210     CEL1    -0.150000       12.0110           0
      6718 MEMB     134      SLPC     H10R     HEL1     0.150000       1.00800           0
      6719 MEMB     134      SLPC     C211     CTL2    -0.180000       12.0110           0
      6720 MEMB     134      SLPC     H11R     HAL2     0.900000E-01   1.00800           0
      6721 MEMB     134      SLPC     H11S     HAL2     0.900000E-01   1.00800           0
      6722 MEMB     134      SLPC     C212     CEL1    -0.150000       12.0110           0
      6723 MEMB     134      SLPC     H12R     HEL1     0.150000       1.00800           0
      6724 MEMB     134      SLPC     C213     CEL1    -0.150000       12.0110           0
      6725 MEMB     134      SLPC     H13R     HEL1     0.150000       1.00800           0
      6726 MEMB     134      SLPC     C214     CTL2    -0.180000       12.0110           0
      6727 MEMB     134      SLPC     H14R     HAL2     0.900000E-01   1.00800           0
      6728 MEMB     134      SLPC     H14S     HAL2     0.900000E-01   1.00800           0
      6729 MEMB     134      SLPC     C215     CTL2    -0.180000       12.0110           0
      6730 MEMB     134      SLPC     H15R     HAL2     0.900000E-01   1.00800           0
      6731 MEMB     134      SLPC     H15S     HAL2     0.900000E-01   1.00800           0
      6732 MEMB     134      SLPC     C216     CTL2    -0.180000       12.0110           0
      6733 MEMB     134      SLPC     H16R     HAL2     0.900000E-01   1.00800           0
      6734 MEMB     134      SLPC     H16S     HAL2     0.900000E-01   1.00800           0
      6735 MEMB     134      SLPC     C217     CTL2    -0.180000       12.0110           0
      6736 MEMB     134      SLPC     H17R     HAL2     0.900000E-01   1.00800           0
      6737 MEMB     134      SLPC     H17S     HAL2     0.900000E-01   1.00800           0
      6738 MEMB     134      SLPC     C218     CTL3    -0.270000       12.0110           0
      6739 MEMB     134      SLPC     H18R     HAL3     0.900000E-01   1.00800           0
      6740 MEMB     134      SLPC     H18S     HAL3     0.900000E-01   1.00800           0
      6741 MEMB     134      SLPC     H18T     HAL3     0.900000E-01   1.00800           0
      6742 MEMB     134      SLPC     C33      CTL2    -0.180000       12.0110           0
      6743 MEMB     134      SLPC     H3X      HAL2     0.900000E-01   1.00800           0
      6744 MEMB     134      SLPC     H3Y      HAL2     0.900000E-01   1.00800           0
      6745 MEMB     134      SLPC     C34      CTL2    -0.180000       12.0110           0
      6746 MEMB     134      SLPC     H4X      HAL2     0.900000E-01   1.00800           0
      6747 MEMB     134      SLPC     H4Y      HAL2     0.900000E-01   1.00800           0
      6748 MEMB     134      SLPC     C35      CTL2    -0.180000       12.0110           0
      6749 MEMB     134      SLPC     H5X      HAL2     0.900000E-01   1.00800           0
      6750 MEMB     134      SLPC     H5Y      HAL2     0.900000E-01   1.00800           0
      6751 MEMB     134      SLPC     C36      CTL2    -0.180000       12.0110           0
      6752 MEMB     134      SLPC     H6X      HAL2     0.900000E-01   1.00800           0
      6753 MEMB     134      SLPC     H6Y      HAL2     0.900000E-01   1.00800           0
      6754 MEMB     134      SLPC     C37      CTL2    -0.180000       12.0110           0
      6755 MEMB     134      SLPC     H7X      HAL2     0.900000E-01   1.00800           0
      6756 MEMB     134      SLPC     H7Y      HAL2     0.900000E-01   1.00800           0
      6757 MEMB     134      SLPC     C38      CTL2    -0.180000       12.0110           0
      6758 MEMB     134      SLPC     H8X      HAL2     0.900000E-01   1.00800           0
      6759 MEMB     134      SLPC     H8Y      HAL2     0.900000E-01   1.00800           0
      6760 MEMB     134      SLPC     C39      CTL2    -0.180000       12.0110           0
      6761 MEMB     134      SLPC     H9X      HAL2     0.900000E-01   1.00800           0
      6762 MEMB     134      SLPC     H9Y      HAL2     0.900000E-01   1.00800           0
      6763 MEMB     134      SLPC     C310     CTL2    -0.180000       12.0110           0
      6764 MEMB     134      SLPC     H10X     HAL2     0.900000E-01   1.00800           0
      6765 MEMB     134      SLPC     H10Y     HAL2     0.900000E-01   1.00800           0
      6766 MEMB     134      SLPC     C311     CTL2    -0.180000       12.0110           0
      6767 MEMB     134      SLPC     H11X     HAL2     0.900000E-01   1.00800           0
      6768 MEMB     134      SLPC     H11Y     HAL2     0.900000E-01   1.00800           0
      6769 MEMB     134      SLPC     C312     CTL2    -0.180000       12.0110           0
      6770 MEMB     134      SLPC     H12X     HAL2     0.900000E-01   1.00800           0
      6771 MEMB     134      SLPC     H12Y     HAL2     0.900000E-01   1.00800           0
      6772 MEMB     134      SLPC     C313     CTL2    -0.180000       12.0110           0
      6773 MEMB     134      SLPC     H13X     HAL2     0.900000E-01   1.00800           0
      6774 MEMB     134      SLPC     H13Y     HAL2     0.900000E-01   1.00800           0
      6775 MEMB     134      SLPC     C314     CTL2    -0.180000       12.0110           0
      6776 MEMB     134      SLPC     H14X     HAL2     0.900000E-01   1.00800           0
      6777 MEMB     134      SLPC     H14Y     HAL2     0.900000E-01   1.00800           0
      6778 MEMB     134      SLPC     C315     CTL2    -0.180000       12.0110           0
      6779 MEMB     134      SLPC     H15X     HAL2     0.900000E-01   1.00800           0
      6780 MEMB     134      SLPC     H15Y     HAL2     0.900000E-01   1.00800           0
      6781 MEMB     134      SLPC     C316     CTL2    -0.180000       12.0110           0
      6782 MEMB     134      SLPC     H16X     HAL2     0.900000E-01   1.00800           0
      6783 MEMB     134      SLPC     H16Y     HAL2     0.900000E-01   1.00800           0
      6784 MEMB     134      SLPC     C317     CTL2    -0.180000       12.0110           0
      6785 MEMB     134      SLPC     H17X     HAL2     0.900000E-01   1.00800           0
      6786 MEMB     134      SLPC     H17Y     HAL2     0.900000E-01   1.00800           0
      6787 MEMB     134      SLPC     C318     CTL3    -0.270000       12.0110           0
      6788 MEMB     134      SLPC     H18X     HAL3     0.900000E-01   1.00800           0
      6789 MEMB     134      SLPC     H18Y     HAL3     0.900000E-01   1.00800           0
      6790 MEMB     134      SLPC     H18Z     HAL3     0.900000E-01   1.00800           0
      6791 MEMB     143      SLPC     N        NTL     -0.600000       14.0070           0
      6792 MEMB     143      SLPC     C13      CTL5    -0.350000       12.0110           0
      6793 MEMB     143      SLPC     H13A     HL       0.250000       1.00800           0
      6794 MEMB     143      SLPC     H13B     HL       0.250000       1.00800           0
      6795 MEMB     143      SLPC     H13C     HL       0.250000       1.00800           0
      6796 MEMB     143      SLPC     C14      CTL5    -0.350000       12.0110           0
      6797 MEMB     143      SLPC     H14A     HL       0.250000       1.00800           0
      6798 MEMB     143      SLPC     H14B     HL       0.250000       1.00800           0
      6799 MEMB     143      SLPC     H14C     HL       0.250000       1.00800           0
      6800 MEMB     143      SLPC     C15      CTL5    -0.350000       12.0110           0
      6801 MEMB     143      SLPC     H15A     HL       0.250000       1.00800           0
      6802 MEMB     143      SLPC     H15B     HL       0.250000       1.00800           0
      6803 MEMB     143      SLPC     H15C     HL       0.250000       1.00800           0
      6804 MEMB     143      SLPC     C12      CTL2    -0.100000       12.0110           0
      6805 MEMB     143      SLPC     H12A     HL       0.250000       1.00800           0
      6806 MEMB     143      SLPC     H12B     HL       0.250000       1.00800           0
      6807 MEMB     143      SLPC     C11      CTL2    -0.800000E-01   12.0110           0
      6808 MEMB     143      SLPC     H11A     HAL2     0.900000E-01   1.00800           0
      6809 MEMB     143      SLPC     H11B     HAL2     0.900000E-01   1.00800           0
      6810 MEMB     143      SLPC     P        PL       1.500000       30.9740           0
      6811 MEMB     143      SLPC     O13      O2L     -0.780000       15.9994           0
      6812 MEMB     143      SLPC     O14      O2L     -0.780000       15.9994           0
      6813 MEMB     143      SLPC     O12      OSLP    -0.570000       15.9994           0
      6814 MEMB     143      SLPC     O11      OSLP    -0.570000       15.9994           0
      6815 MEMB     143      SLPC     C1       CTL2    -0.800000E-01   12.0110           0
      6816 MEMB     143      SLPC     HA       HAL2     0.900000E-01   1.00800           0
      6817 MEMB     143      SLPC     HB       HAL2     0.900000E-01   1.00800           0
      6818 MEMB     143      SLPC     C2       CTL1     0.170000       12.0110           0
      6819 MEMB     143      SLPC     HS       HAL1     0.900000E-01   1.00800           0
      6820 MEMB     143      SLPC     O21      OSL     -0.490000       15.9994           0
      6821 MEMB     143      SLPC     C21      CL       0.900000       12.0110           0
      6822 MEMB     143      SLPC     O22      OBL     -0.630000       15.9994           0
      6823 MEMB     143      SLPC     C22      CTL2    -0.220000       12.0110           0
      6824 MEMB     143      SLPC     H2R      HAL2     0.900000E-01   1.00800           0
      6825 MEMB     143      SLPC     H2S      HAL2     0.900000E-01   1.00800           0
      6826 MEMB     143      SLPC     C3       CTL2     0.800000E-01   12.0110           0
      6827 MEMB     143      SLPC     HX       HAL2     0.900000E-01   1.00800           0
      6828 MEMB     143      SLPC     HY       HAL2     0.900000E-01   1.00800           0
      6829 MEMB     143      SLPC     O31      OSL     -0.490000       15.9994           0
      6830 MEMB     143      SLPC     C31      CL       0.900000       12.0110           0
      6831 MEMB     143      SLPC     O32      OBL     -0.630000       15.9994           0
      6832 MEMB     143      SLPC     C32      CTL2    -0.220000       12.0110           0
      6833 MEMB     143      SLPC     H2X      HAL2     0.900000E-01   1.00800           0
      6834 MEMB     143      SLPC     H2Y      HAL2     0.900000E-01   1.00800           0
      6835 MEMB     143      SLPC     C23      CTL2    -0.180000       12.0110           0
      6836 MEMB     143      SLPC     H3R      HAL2     0.900000E-01   1.00800           0
      6837 MEMB     143      SLPC     H3S      HAL2     0.900000E-01   1.00800           0
      6838 MEMB     143      SLPC     C24      CTL2    -0.180000       12.0110           0
      6839 MEMB     143      SLPC     H4R      HAL2     0.900000E-01   1.00800           0
      6840 MEMB     143      SLPC     H4S      HAL2     0.900000E-01   1.00800           0
      6841 MEMB     143      SLPC     C25      CTL2    -0.180000       12.0110           0
      6842 MEMB     143      SLPC     H5R      HAL2     0.900000E-01   1.00800           0
      6843 MEMB     143      SLPC     H5S      HAL2     0.900000E-01   1.00800           0
      6844 MEMB     143      SLPC     C26      CTL2    -0.180000       12.0110           0
      6845 MEMB     143      SLPC     H6R      HAL2     0.900000E-01   1.00800           0
      6846 MEMB     143      SLPC     H6S      HAL2     0.900000E-01   1.00800           0
      6847 MEMB     143      SLPC     C27      CTL2    -0.180000       12.0110           0
      6848 MEMB     143      SLPC     H7R      HAL2     0.900000E-01   1.00800           0
      6849 MEMB     143      SLPC     H7S      HAL2     0.900000E-01   1.00800           0
      6850 MEMB     143      SLPC     C28      CTL2    -0.180000       12.0110           0
      6851 MEMB     143      SLPC     H8R      HAL2     0.900000E-01   1.00800           0
      6852 MEMB     143      SLPC     H8S      HAL2     0.900000E-01   1.00800           0
      6853 MEMB     143      SLPC     C29      CEL1    -0.150000       12.0110           0
      6854 MEMB     143      SLPC     H9R      HEL1     0.150000       1.00800           0
      6855 MEMB     143      SLPC     C210     CEL1    -0.150000       12.0110           0
      6856 MEMB     143      SLPC     H10R     HEL1     0.150000       1.00800           0
      6857 MEMB     143      SLPC     C211     CTL2    -0.180000       12.0110           0
      6858 MEMB     143      SLPC     H11R     HAL2     0.900000E-01   1.00800           0
      6859 MEMB     143      SLPC     H11S     HAL2     0.900000E-01   1.00800           0
      6860 MEMB     143      SLPC     C212     CEL1    -0.150000       12.0110           0
      6861 MEMB     143      SLPC     H12R     HEL1     0.150000       1.00800           0
      6862 MEMB     143      SLPC     C213     CEL1    -0.150000       12.0110           0
      6863 MEMB     143      SLPC     H13R     HEL1     0.150000       1.00800           0
      6864 MEMB     143      SLPC     C214     CTL2    -0.180000       12.0110           0
      6865 MEMB     143      SLPC     H14R     HAL2     0.900000E-01   1.00800           0
      6866 MEMB     143      SLPC     H14S     HAL2     0.900000E-01   1.00800           0
      6867 MEMB     143      SLPC     C215     CTL2    -0.180000       12.0110           0
      6868 MEMB     143      SLPC     H15R     HAL2     0.900000E-01   1.00800           0
      6869 MEMB     143      SLPC     H15S     HAL2     0.900000E-01   1.00800           0
      6870 MEMB     143      SLPC     C216     CTL2    -0.180000       12.0110           0
      6871 MEMB     143      SLPC     H16R     HAL2     0.900000E-01   1.00800           0
      6872 MEMB     143      SLPC     H16S     HAL2     0.900000E-01   1.00800           0
      6873 MEMB     143      SLPC     C217     CTL2    -0.180000       12.0110           0
      6874 MEMB     143      SLPC     H17R     HAL2     0.900000E-01   1.00800           0
      6875 MEMB     143      SLPC     H17S     HAL2     0.900000E-01   1.00800           0
      6876 MEMB     143      SLPC     C218     CTL3    -0.270000       12.0110           0
      6877 MEMB     143      SLPC     H18R     HAL3     0.900000E-01   1.00800           0
      6878 MEMB     143      SLPC     H18S     HAL3     0.900000E-01   1.00800           0
      6879 MEMB     143      SLPC     H18T     HAL3     0.900000E-01   1.00800           0
      6880 MEMB     143      SLPC     C33      CTL2    -0.180000       12.0110           0
      6881 MEMB     143      SLPC     H3X      HAL2     0.900000E-01   1.00800           0
      6882 MEMB     143      SLPC     H3Y      HAL2     0.900000E-01   1.00800           0
      6883 MEMB     143      SLPC     C34      CTL2    -0.180000       12.0110           0
      6884 MEMB     143      SLPC     H4X      HAL2     0.900000E-01   1.00800           0
      6885 MEMB     143      SLPC     H4Y      HAL2     0.900000E-01   1.00800           0
      6886 MEMB     143      SLPC     C35      CTL2    -0.180000       12.0110           0
      6887 MEMB     143      SLPC     H5X      HAL2     0.900000E-01   1.00800           0
      6888 MEMB     143      SLPC     H5Y      HAL2     0.900000E-01   1.00800           0
      6889 MEMB     143      SLPC     C36      CTL2    -0.180000       12.0110           0
      6890 MEMB     143      SLPC     H6X      HAL2     0.900000E-01   1.00800           0
      6891 MEMB     143      SLPC     H6Y      HAL2     0.900000E-01   1.00800           0
      6892 MEMB     143      SLPC     C37      CTL2    -0.180000       12.0110           0
      6893 MEMB     143      SLPC     H7X      HAL2     0.900000E-01   1.00800           0
      6894 MEMB     143      SLPC     H7Y      HAL2     0.900000E-01   1.00800           0
      6895 MEMB     143      SLPC     C38      CTL2    -0.180000       12.0110           0
      6896 MEMB     143      SLPC     H8X      HAL2     0.900000E-01   1.00800           0
      6897 MEMB     143      SLPC     H8Y      HAL2     0.900000E-01   1.00800           0
      6898 MEMB     143      SLPC     C39      CTL2    -0.180000       12.0110           0
      6899 MEMB     143      SLPC     H9X      HAL2     0.900000E-01   1.00800           0
      6900 MEMB     143      SLPC     H9Y      HAL2     0.900000E-01   1.00800           0
      6901 MEMB     143      SLPC     C310     CTL2    -0.180000       12.0110           0
      6902 MEMB     143      SLPC     H10X     HAL2     0.900000E-01   1.00800           0
      6903 MEMB     143      SLPC     H10Y     HAL2     0.900000E-01   1.00800           0
      6904 MEMB     143      SLPC     C311     CTL2    -0.180000       12.0110           0
      6905 MEMB     143      SLPC     H11X     HAL2     0.900000E-01   1.00800           0
      6906 MEMB     143      SLPC     H11Y     HAL2     0.900000E-01   1.00800           0
      6907 MEMB     143      SLPC     C312     CTL2    -0.180000       12.0110           0
      6908 MEMB     143      SLPC     H12X     HAL2     0.900000E-01   1.00800           0
      6909 MEMB     143      SLPC     H12Y     HAL2     0.900000E-01   1.00800           0
      6910 MEMB     143      SLPC     C313     CTL2    -0.180000       12.0110           0
      6911 MEMB     143      SLPC     H13X     HAL2     0.900000E-01   1.00800           0
      6912 MEMB     143      SLPC     H13Y     HAL2     0.900000E-01   1.00800           0
      6913 MEMB     143      SLPC     C314     CTL2    -0.180000       12.0110           0
      6914 MEMB     143      SLPC     H14X     HAL2     0.900000E-01   1.00800           0
      6915 MEMB     143      SLPC     H14Y     HAL2     0.900000E-01   1.00800           0
      6916 MEMB     143      SLPC     C315     CTL2    -0.180000       12.0110           0
      6917 MEMB     143      SLPC     H15X     HAL2     0.900000E-01   1.00800           0
      6918 MEMB     143      SLPC     H15Y     HAL2     0.900000E-01   1.00800           0
      6919 MEMB     143      SLPC     C316     CTL2    -0.180000       12.0110           0
      6920 MEMB     143      SLPC     H16X     HAL2     0.900000E-01   1.00800           0
      6921 MEMB     143      SLPC     H16Y     HAL2     0.900000E-01   1.00800           0
      6922 MEMB     143      SLPC     C317     CTL2    -0.180000       12.0110           0
      6923 MEMB     143      SLPC     H17X     HAL2     0.900000E-01   1.00800           0
      6924 MEMB     143      SLPC     H17Y     HAL2     0.900000E-01   1.00800           0
      6925 MEMB     143      SLPC     C318     CTL3    -0.270000       12.0110           0
      6926 MEMB     143      SLPC     H18X     HAL3     0.900000E-01   1.00800           0
      6927 MEMB     143      SLPC     H18Y     HAL3     0.900000E-01   1.00800           0
      6928 MEMB     143      SLPC     H18Z     HAL3     0.900000E-01   1.00800           0
      6929 MEMB     158      SLPC     N        NTL     -0.600000       14.0070           0
      6930 MEMB     158      SLPC     C13      CTL5    -0.350000       12.0110           0
      6931 MEMB     158      SLPC     H13A     HL       0.250000       1.00800           0
      6932 MEMB     158      SLPC     H13B     HL       0.250000       1.00800           0
      6933 MEMB     158      SLPC     H13C     HL       0.250000       1.00800           0
      6934 MEMB     158      SLPC     C14      CTL5    -0.350000       12.0110           0
      6935 MEMB     158      SLPC     H14A     HL       0.250000       1.00800           0
      6936 MEMB     158      SLPC     H14B     HL       0.250000       1.00800           0
      6937 MEMB     158      SLPC     H14C     HL       0.250000       1.00800           0
      6938 MEMB     158      SLPC     C15      CTL5    -0.350000       12.0110           0
      6939 MEMB     158      SLPC     H15A     HL       0.250000       1.00800           0
      6940 MEMB     158      SLPC     H15B     HL       0.250000       1.00800           0
      6941 MEMB     158      SLPC     H15C     HL       0.250000       1.00800           0
      6942 MEMB     158      SLPC     C12      CTL2    -0.100000       12.0110           0
      6943 MEMB     158      SLPC     H12A     HL       0.250000       1.00800           0
      6944 MEMB     158      SLPC     H12B     HL       0.250000       1.00800           0
      6945 MEMB     158      SLPC     C11      CTL2    -0.800000E-01   12.0110           0
      6946 MEMB     158      SLPC     H11A     HAL2     0.900000E-01   1.00800           0
      6947 MEMB     158      SLPC     H11B     HAL2     0.900000E-01   1.00800           0
      6948 MEMB     158      SLPC     P        PL       1.500000       30.9740           0
      6949 MEMB     158      SLPC     O13      O2L     -0.780000       15.9994           0
      6950 MEMB     158      SLPC     O14      O2L     -0.780000       15.9994           0
      6951 MEMB     158      SLPC     O12      OSLP    -0.570000       15.9994           0
      6952 MEMB     158      SLPC     O11      OSLP    -0.570000       15.9994           0
      6953 MEMB     158      SLPC     C1       CTL2    -0.800000E-01   12.0110           0
      6954 MEMB     158      SLPC     HA       HAL2     0.900000E-01   1.00800           0
      6955 MEMB     158      SLPC     HB       HAL2     0.900000E-01   1.00800           0
      6956 MEMB     158      SLPC     C2       CTL1     0.170000       12.0110           0
      6957 MEMB     158      SLPC     HS       HAL1     0.900000E-01   1.00800           0
      6958 MEMB     158      SLPC     O21      OSL     -0.490000       15.9994           0
      6959 MEMB     158      SLPC     C21      CL       0.900000       12.0110           0
      6960 MEMB     158      SLPC     O22      OBL     -0.630000       15.9994           0
      6961 MEMB     158      SLPC     C22      CTL2    -0.220000       12.0110           0
      6962 MEMB     158      SLPC     H2R      HAL2     0.900000E-01   1.00800           0
      6963 MEMB     158      SLPC     H2S      HAL2     0.900000E-01   1.00800           0
      6964 MEMB     158      SLPC     C3       CTL2     0.800000E-01   12.0110           0
      6965 MEMB     158      SLPC     HX       HAL2     0.900000E-01   1.00800           0
      6966 MEMB     158      SLPC     HY       HAL2     0.900000E-01   1.00800           0
      6967 MEMB     158      SLPC     O31      OSL     -0.490000       15.9994           0
      6968 MEMB     158      SLPC     C31      CL       0.900000       12.0110           0
      6969 MEMB     158      SLPC     O32      OBL     -0.630000       15.9994           0
      6970 MEMB     158      SLPC     C32      CTL2    -0.220000       12.0110           0
      6971 MEMB     158      SLPC     H2X      HAL2     0.900000E-01   1.00800           0
      6972 MEMB     158      SLPC     H2Y      HAL2     0.900000E-01   1.00800           0
      6973 MEMB     158      SLPC     C23      CTL2    -0.180000       12.0110           0
      6974 MEMB     158      SLPC     H3R      HAL2     0.900000E-01   1.00800           0
      6975 MEMB     158      SLPC     H3S      HAL2     0.900000E-01   1.00800           0
      6976 MEMB     158      SLPC     C24      CTL2    -0.180000       12.0110           0
      6977 MEMB     158      SLPC     H4R      HAL2     0.900000E-01   1.00800           0
      6978 MEMB     158      SLPC     H4S      HAL2     0.900000E-01   1.00800           0
      6979 MEMB     158      SLPC     C25      CTL2    -0.180000       12.0110           0
      6980 MEMB     158      SLPC     H5R      HAL2     0.900000E-01   1.00800           0
      6981 MEMB     158      SLPC     H5S      HAL2     0.900000E-01   1.00800           0
      6982 MEMB     158      SLPC     C26      CTL2    -0.180000       12.0110           0
      6983 MEMB     158      SLPC     H6R      HAL2     0.900000E-01   1.00800           0
      6984 MEMB     158      SLPC     H6S      HAL2     0.900000E-01   1.00800           0
      6985 MEMB     158      SLPC     C27      CTL2    -0.180000       12.0110           0
      6986 MEMB     158      SLPC     H7R      HAL2     0.900000E-01   1.00800           0
      6987 MEMB     158      SLPC     H7S      HAL2     0.900000E-01   1.00800           0
      6988 MEMB     158      SLPC     C28      CTL2    -0.180000       12.0110           0
      6989 MEMB     158      SLPC     H8R      HAL2     0.900000E-01   1.00800           0
      6990 MEMB     158      SLPC     H8S      HAL2     0.900000E-01   1.00800           0
      6991 MEMB     158      SLPC     C29      CEL1    -0.150000       12.0110           0
      6992 MEMB     158      SLPC     H9R      HEL1     0.150000       1.00800           0
      6993 MEMB     158      SLPC     C210     CEL1    -0.150000       12.0110           0
      6994 MEMB     158      SLPC     H10R     HEL1     0.150000       1.00800           0
      6995 MEMB     158      SLPC     C211     CTL2    -0.180000       12.0110           0
      6996 MEMB     158      SLPC     H11R     HAL2     0.900000E-01   1.00800           0
      6997 MEMB     158      SLPC     H11S     HAL2     0.900000E-01   1.00800           0
      6998 MEMB     158      SLPC     C212     CEL1    -0.150000       12.0110           0
      6999 MEMB     158      SLPC     H12R     HEL1     0.150000       1.00800           0
      7000 MEMB     158      SLPC     C213     CEL1    -0.150000       12.0110           0
      7001 MEMB     158      SLPC     H13R     HEL1     0.150000       1.00800           0
      7002 MEMB     158      SLPC     C214     CTL2    -0.180000       12.0110           0
      7003 MEMB     158      SLPC     H14R     HAL2     0.900000E-01   1.00800           0
      7004 MEMB     158      SLPC     H14S     HAL2     0.900000E-01   1.00800           0
      7005 MEMB     158      SLPC     C215     CTL2    -0.180000       12.0110           0
      7006 MEMB     158      SLPC     H15R     HAL2     0.900000E-01   1.00800           0
      7007 MEMB     158      SLPC     H15S     HAL2     0.900000E-01   1.00800           0
      7008 MEMB     158      SLPC     C216     CTL2    -0.180000       12.0110           0
      7009 MEMB     158      SLPC     H16R     HAL2     0.900000E-01   1.00800           0
      7010 MEMB     158      SLPC     H16S     HAL2     0.900000E-01   1.00800           0
      7011 MEMB     158      SLPC     C217     CTL2    -0.180000       12.0110           0
      7012 MEMB     158      SLPC     H17R     HAL2     0.900000E-01   1.00800           0
      7013 MEMB     158      SLPC     H17S     HAL2     0.900000E-01   1.00800           0
      7014 MEMB     158      SLPC     C218     CTL3    -0.270000       12.0110           0
      7015 MEMB     158      SLPC     H18R     HAL3     0.900000E-01   1.00800           0
      7016 MEMB     158      SLPC     H18S     HAL3     0.900000E-01   1.00800           0
      7017 MEMB     158      SLPC     H18T     HAL3     0.900000E-01   1.00800           0
      7018 MEMB     158      SLPC     C33      CTL2    -0.180000       12.0110           0
      7019 MEMB     158      SLPC     H3X      HAL2     0.900000E-01   1.00800           0
      7020 MEMB     158      SLPC     H3Y      HAL2     0.900000E-01   1.00800           0
      7021 MEMB     158      SLPC     C34      CTL2    -0.180000       12.0110           0
      7022 MEMB     158      SLPC     H4X      HAL2     0.900000E-01   1.00800           0
      7023 MEMB     158      SLPC     H4Y      HAL2     0.900000E-01   1.00800           0
      7024 MEMB     158      SLPC     C35      CTL2    -0.180000       12.0110           0
      7025 MEMB     158      SLPC     H5X      HAL2     0.900000E-01   1.00800           0
      7026 MEMB     158      SLPC     H5Y      HAL2     0.900000E-01   1.00800           0
      7027 MEMB     158      SLPC     C36      CTL2    -0.180000       12.0110           0
      7028 MEMB     158      SLPC     H6X      HAL2     0.900000E-01   1.00800           0
      7029 MEMB     158      SLPC     H6Y      HAL2     0.900000E-01   1.00800           0
      7030 MEMB     158      SLPC     C37      CTL2    -0.180000       12.0110           0
      7031 MEMB     158      SLPC     H7X      HAL2     0.900000E-01   1.00800           0
      7032 MEMB     158      SLPC     H7Y      HAL2     0.900000E-01   1.00800           0
      7033 MEMB     158      SLPC     C38      CTL2    -0.180000       12.0110           0
      7034 MEMB     158      SLPC     H8X      HAL2     0.900000E-01   1.00800           0
      7035 MEMB     158      SLPC     H8Y      HAL2     0.900000E-01   1.00800           0
      7036 MEMB     158      SLPC     C39      CTL2    -0.180000       12.0110           0
      7037 MEMB     158      SLPC     H9X      HAL2     0.900000E-01   1.00800           0
      7038 MEMB     158      SLPC     H9Y      HAL2     0.900000E-01   1.00800           0
      7039 MEMB     158      SLPC     C310     CTL2    -0.180000       12.0110           0
      7040 MEMB     158      SLPC     H10X     HAL2     0.900000E-01   1.00800           0
      7041 MEMB     158      SLPC     H10Y     HAL2     0.900000E-01   1.00800           0
      7042 MEMB     158      SLPC     C311     CTL2    -0.180000       12.0110           0
      7043 MEMB     158      SLPC     H11X     HAL2     0.900000E-01   1.00800           0
      7044 MEMB     158      SLPC     H11Y     HAL2     0.900000E-01   1.00800           0
      7045 MEMB     158      SLPC     C312     CTL2    -0.180000       12.0110           0
      7046 MEMB     158      SLPC     H12X     HAL2     0.900000E-01   1.00800           0
      7047 MEMB     158      SLPC     H12Y     HAL2     0.900000E-01   1.00800           0
      7048 MEMB     158      SLPC     C313     CTL2    -0.180000       12.0110           0
      7049 MEMB     158      SLPC     H13X     HAL2     0.900000E-01   1.00800           0
      7050 MEMB     158      SLPC     H13Y     HAL2     0.900000E-01   1.00800           0
      7051 MEMB     158      SLPC     C314     CTL2    -0.180000       12.0110           0
      7052 MEMB     158      SLPC     H14X     HAL2     0.900000E-01   1.00800           0
      7053 MEMB     158      SLPC     H14Y     HAL2     0.900000E-01   1.00800           0
      7054 MEMB     158      SLPC     C315     CTL2    -0.180000       12.0110           0
      7055 MEMB     158      SLPC     H15X     HAL2     0.900000E-01   1.00800           0
      7056 MEMB     158      SLPC     H15Y     HAL2     0.900000E-01   1.00800           0
      7057 MEMB     158      SLPC     C316     CTL2    -0.180000       12.0110           0
      7058 MEMB     158      SLPC     H16X     HAL2     0.900000E-01   1.00800           0
      7059 MEMB     158      SLPC     H16Y     HAL2     0.900000E-01   1.00800           0
      7060 MEMB     158      SLPC     C317     CTL2    -0.180000       12.0110           0
      7061 MEMB     158      SLPC     H17X     HAL2     0.900000E-01   1.00800           0
      7062 MEMB     158      SLPC     H17Y     HAL2     0.900000E-01   1.00800           0
      7063 MEMB     158      SLPC     C318     CTL3    -0.270000       12.0110           0
      7064 MEMB     158      SLPC     H18X     HAL3     0.900000E-01   1.00800           0
      7065 MEMB     158      SLPC     H18Y     HAL3     0.900000E-01   1.00800           0
      7066 MEMB     158      SLPC     H18Z     HAL3     0.900000E-01   1.00800           0
      7067 MEMB     170      SLPC     N        NTL     -0.600000       14.0070           0
      7068 MEMB     170      SLPC     C13      CTL5    -0.350000       12.0110           0
      7069 MEMB     170      SLPC     H13A     HL       0.250000       1.00800           0
      7070 MEMB     170      SLPC     H13B     HL       0.250000       1.00800           0
      7071 MEMB     170      SLPC     H13C     HL       0.250000       1.00800           0
      7072 MEMB     170      SLPC     C14      CTL5    -0.350000       12.0110           0
      7073 MEMB     170      SLPC     H14A     HL       0.250000       1.00800           0
      7074 MEMB     170      SLPC     H14B     HL       0.250000       1.00800           0
      7075 MEMB     170      SLPC     H14C     HL       0.250000       1.00800           0
      7076 MEMB     170      SLPC     C15      CTL5    -0.350000       12.0110           0
      7077 MEMB     170      SLPC     H15A     HL       0.250000       1.00800           0
      7078 MEMB     170      SLPC     H15B     HL       0.250000       1.00800           0
      7079 MEMB     170      SLPC     H15C     HL       0.250000       1.00800           0
      7080 MEMB     170      SLPC     C12      CTL2    -0.100000       12.0110           0
      7081 MEMB     170      SLPC     H12A     HL       0.250000       1.00800           0
      7082 MEMB     170      SLPC     H12B     HL       0.250000       1.00800           0
      7083 MEMB     170      SLPC     C11      CTL2    -0.800000E-01   12.0110           0
      7084 MEMB     170      SLPC     H11A     HAL2     0.900000E-01   1.00800           0
      7085 MEMB     170      SLPC     H11B     HAL2     0.900000E-01   1.00800           0
      7086 MEMB     170      SLPC     P        PL       1.500000       30.9740           0
      7087 MEMB     170      SLPC     O13      O2L     -0.780000       15.9994           0
      7088 MEMB     170      SLPC     O14      O2L     -0.780000       15.9994           0
      7089 MEMB     170      SLPC     O12      OSLP    -0.570000       15.9994           0
      7090 MEMB     170      SLPC     O11      OSLP    -0.570000       15.9994           0
      7091 MEMB     170      SLPC     C1       CTL2    -0.800000E-01   12.0110           0
      7092 MEMB     170      SLPC     HA       HAL2     0.900000E-01   1.00800           0
      7093 MEMB     170      SLPC     HB       HAL2     0.900000E-01   1.00800           0
      7094 MEMB     170      SLPC     C2       CTL1     0.170000       12.0110           0
      7095 MEMB     170      SLPC     HS       HAL1     0.900000E-01   1.00800           0
      7096 MEMB     170      SLPC     O21      OSL     -0.490000       15.9994           0
      7097 MEMB     170      SLPC     C21      CL       0.900000       12.0110           0
      7098 MEMB     170      SLPC     O22      OBL     -0.630000       15.9994           0
      7099 MEMB     170      SLPC     C22      CTL2    -0.220000       12.0110           0
      7100 MEMB     170      SLPC     H2R      HAL2     0.900000E-01   1.00800           0
      7101 MEMB     170      SLPC     H2S      HAL2     0.900000E-01   1.00800           0
      7102 MEMB     170      SLPC     C3       CTL2     0.800000E-01   12.0110           0
      7103 MEMB     170      SLPC     HX       HAL2     0.900000E-01   1.00800           0
      7104 MEMB     170      SLPC     HY       HAL2     0.900000E-01   1.00800           0
      7105 MEMB     170      SLPC     O31      OSL     -0.490000       15.9994           0
      7106 MEMB     170      SLPC     C31      CL       0.900000       12.0110           0
      7107 MEMB     170      SLPC     O32      OBL     -0.630000       15.9994           0
      7108 MEMB     170      SLPC     C32      CTL2    -0.220000       12.0110           0
      7109 MEMB     170      SLPC     H2X      HAL2     0.900000E-01   1.00800           0
      7110 MEMB     170      SLPC     H2Y      HAL2     0.900000E-01   1.00800           0
      7111 MEMB     170      SLPC     C23      CTL2    -0.180000       12.0110           0
      7112 MEMB     170      SLPC     H3R      HAL2     0.900000E-01   1.00800           0
      7113 MEMB     170      SLPC     H3S      HAL2     0.900000E-01   1.00800           0
      7114 MEMB     170      SLPC     C24      CTL2    -0.180000       12.0110           0
      7115 MEMB     170      SLPC     H4R      HAL2     0.900000E-01   1.00800           0
      7116 MEMB     170      SLPC     H4S      HAL2     0.900000E-01   1.00800           0
      7117 MEMB     170      SLPC     C25      CTL2    -0.180000       12.0110           0
      7118 MEMB     170      SLPC     H5R      HAL2     0.900000E-01   1.00800           0
      7119 MEMB     170      SLPC     H5S      HAL2     0.900000E-01   1.00800           0
      7120 MEMB     170      SLPC     C26      CTL2    -0.180000       12.0110           0
      7121 MEMB     170      SLPC     H6R      HAL2     0.900000E-01   1.00800           0
      7122 MEMB     170      SLPC     H6S      HAL2     0.900000E-01   1.00800           0
      7123 MEMB     170      SLPC     C27      CTL2    -0.180000       12.0110           0
      7124 MEMB     170      SLPC     H7R      HAL2     0.900000E-01   1.00800           0
      7125 MEMB     170      SLPC     H7S      HAL2     0.900000E-01   1.00800           0
      7126 MEMB     170      SLPC     C28      CTL2    -0.180000       12.0110           0
      7127 MEMB     170      SLPC     H8R      HAL2     0.900000E-01   1.00800           0
      7128 MEMB     170      SLPC     H8S      HAL2     0.900000E-01   1.00800           0
      7129 MEMB     170      SLPC     C29      CEL1    -0.150000       12.0110           0
      7130 MEMB     170      SLPC     H9R      HEL1     0.150000       1.00800           0
      7131 MEMB     170      SLPC     C210     CEL1    -0.150000       12.0110           0
      7132 MEMB     170      SLPC     H10R     HEL1     0.150000       1.00800           0
      7133 MEMB     170      SLPC     C211     CTL2    -0.180000       12.0110           0
      7134 MEMB     170      SLPC     H11R     HAL2     0.900000E-01   1.00800           0
      7135 MEMB     170      SLPC     H11S     HAL2     0.900000E-01   1.00800           0
      7136 MEMB     170      SLPC     C212     CEL1    -0.150000       12.0110           0
      7137 MEMB     170      SLPC     H12R     HEL1     0.150000       1.00800           0
      7138 MEMB     170      SLPC     C213     CEL1    -0.150000       12.0110           0
      7139 MEMB     170      SLPC     H13R     HEL1     0.150000       1.00800           0
      7140 MEMB     170      SLPC     C214     CTL2    -0.180000       12.0110           0
      7141 MEMB     170      SLPC     H14R     HAL2     0.900000E-01   1.00800           0
      7142 MEMB     170      SLPC     H14S     HAL2     0.900000E-01   1.00800           0
      7143 MEMB     170      SLPC     C215     CTL2    -0.180000       12.0110           0
      7144 MEMB     170      SLPC     H15R     HAL2     0.900000E-01   1.00800           0
      7145 MEMB     170      SLPC     H15S     HAL2     0.900000E-01   1.00800           0
      7146 MEMB     170      SLPC     C216     CTL2    -0.180000       12.0110           0
      7147 MEMB     170      SLPC     H16R     HAL2     0.900000E-01   1.00800           0
      7148 MEMB     170      SLPC     H16S     HAL2     0.900000E-01   1.00800           0
      7149 MEMB     170      SLPC     C217     CTL2    -0.180000       12.0110           0
      7150 MEMB     170      SLPC     H17R     HAL2     0.900000E-01   1.00800           0
      7151 MEMB     170      SLPC     H17S     HAL2     0.900000E-01   1.00800           0
      7152 MEMB     170      SLPC     C218     CTL3    -0.270000       12.0110           0
      7153 MEMB     170      SLPC     H18R     HAL3     0.900000E-01   1.00800           0
      7154 MEMB     170      SLPC     H18S     HAL3     0.900000E-01   1.00800           0
      7155 MEMB     170      SLPC     H18T     HAL3     0.900000E-01   1.00800           0
      7156 MEMB     170      SLPC     C33      CTL2    -0.180000       12.0110           0
      7157 MEMB     170      SLPC     H3X      HAL2     0.900000E-01   1.00800           0
      7158 MEMB     170      SLPC     H3Y      HAL2     0.900000E-01   1.00800           0
      7159 MEMB     170      SLPC     C34      CTL2    -0.180000       12.0110           0
      7160 MEMB     170      SLPC     H4X      HAL2     0.900000E-01   1.00800           0
      7161 MEMB     170      SLPC     H4Y      HAL2     0.900000E-01   1.00800           0
      7162 MEMB     170      SLPC     C35      CTL2    -0.180000       12.0110           0
      7163 MEMB     170      SLPC     H5X      HAL2     0.900000E-01   1.00800           0
      7164 MEMB     170      SLPC     H5Y      HAL2     0.900000E-01   1.00800           0
      7165 MEMB     170      SLPC     C36      CTL2    -0.180000       12.0110           0
      7166 MEMB     170      SLPC     H6X      HAL2     0.900000E-01   1.00800           0
      7167 MEMB     170      SLPC     H6Y      HAL2     0.900000E-01   1.00800           0
      7168 MEMB     170      SLPC     C37      CTL2    -0.180000       12.0110           0
      7169 MEMB     170      SLPC     H7X      HAL2     0.900000E-01   1.00800           0
      7170 MEMB     170      SLPC     H7Y      HAL2     0.900000E-01   1.00800           0
      7171 MEMB     170      SLPC     C38      CTL2    -0.180000       12.0110           0
      7172 MEMB     170      SLPC     H8X      HAL2     0.900000E-01   1.00800           0
      7173 MEMB     170      SLPC     H8Y      HAL2     0.900000E-01   1.00800           0
      7174 MEMB     170      SLPC     C39      CTL2    -0.180000       12.0110           0
      7175 MEMB     170      SLPC     H9X      HAL2     0.900000E-01   1.00800           0
      7176 MEMB     170      SLPC     H9Y      HAL2     0.900000E-01   1.00800           0
      7177 MEMB     170      SLPC     C310     CTL2    -0.180000       12.0110           0
      7178 MEMB     170      SLPC     H10X     HAL2     0.900000E-01   1.00800           0
      7179 MEMB     170      SLPC     H10Y     HAL2     0.900000E-01   1.00800           0
      7180 MEMB     170      SLPC     C311     CTL2    -0.180000       12.0110           0
      7181 MEMB     170      SLPC     H11X     HAL2     0.900000E-01   1.00800           0
      7182 MEMB     170      SLPC     H11Y     HAL2     0.900000E-01   1.00800           0
      7183 MEMB     170      SLPC     C312     CTL2    -0.180000       12.0110           0
      7184 MEMB     170      SLPC     H12X     HAL2     0.900000E-01   1.00800           0
      7185 MEMB     170      SLPC     H12Y     HAL2     0.900000E-01   1.00800           0
      7186 MEMB     170      SLPC     C313     CTL2    -0.180000       12.0110           0
      7187 MEMB     170      SLPC     H13X     HAL2     0.900000E-01   1.00800           0
      7188 MEMB     170      SLPC     H13Y     HAL2     0.900000E-01   1.00800           0
      7189 MEMB     170      SLPC     C314     CTL2    -0.180000       12.0110           0
      7190 MEMB     170      SLPC     H14X     HAL2     0.900000E-01   1.00800           0
      7191 MEMB     170      SLPC     H14Y     HAL2     0.900000E-01   1.00800           0
      7192 MEMB     170      SLPC     C315     CTL2    -0.180000       12.0110           0
      7193 MEMB     170      SLPC     H15X     HAL2     0.900000E-01   1.00800           0
      7194 MEMB     170      SLPC     H15Y     HAL2     0.900000E-01   1.00800           0
      7195 MEMB     170      SLPC     C316     CTL2    -0.180000       12.0110           0
      7196 MEMB     170      SLPC     H16X     HAL2     0.900000E-01   1.00800           0
      7197 MEMB     170      SLPC     H16Y     HAL2     0.900000E-01   1.00800           0
      7198 MEMB     170      SLPC     C317     CTL2    -0.180000       12.0110           0
      7199 MEMB     170      SLPC     H17X     HAL2     0.900000E-01   1.00800           0
      7200 MEMB     170      SLPC     H17Y     HAL2     0.900000E-01   1.00800           0
      7201 MEMB     170      SLPC     C318     CTL3    -0.270000       12.0110           0
      7202 MEMB     170      SLPC     H18X     HAL3     0.900000E-01   1.00800           0
      7203 MEMB     170      SLPC     H18Y     HAL3     0.900000E-01   1.00800           0
      7204 MEMB     170      SLPC     H18Z     HAL3     0.900000E-01   1.00800           0
      7205 MEMB     172      SLPC     N        NTL     -0.600000       14.0070           0
      7206 MEMB     172      SLPC     C13      CTL5    -0.350000       12.0110           0
      7207 MEMB     172      SLPC     H13A     HL       0.250000       1.00800           0
      7208 MEMB     172      SLPC     H13B     HL       0.250000       1.00800           0
      7209 MEMB     172      SLPC     H13C     HL       0.250000       1.00800           0
      7210 MEMB     172      SLPC     C14      CTL5    -0.350000       12.0110           0
      7211 MEMB     172      SLPC     H14A     HL       0.250000       1.00800           0
      7212 MEMB     172      SLPC     H14B     HL       0.250000       1.00800           0
      7213 MEMB     172      SLPC     H14C     HL       0.250000       1.00800           0
      7214 MEMB     172      SLPC     C15      CTL5    -0.350000       12.0110           0
      7215 MEMB     172      SLPC     H15A     HL       0.250000       1.00800           0
      7216 MEMB     172      SLPC     H15B     HL       0.250000       1.00800           0
      7217 MEMB     172      SLPC     H15C     HL       0.250000       1.00800           0
      7218 MEMB     172      SLPC     C12      CTL2    -0.100000       12.0110           0
      7219 MEMB     172      SLPC     H12A     HL       0.250000       1.00800           0
      7220 MEMB     172      SLPC     H12B     HL       0.250000       1.00800           0
      7221 MEMB     172      SLPC     C11      CTL2    -0.800000E-01   12.0110           0
      7222 MEMB     172      SLPC     H11A     HAL2     0.900000E-01   1.00800           0
      7223 MEMB     172      SLPC     H11B     HAL2     0.900000E-01   1.00800           0
      7224 MEMB     172      SLPC     P        PL       1.500000       30.9740           0
      7225 MEMB     172      SLPC     O13      O2L     -0.780000       15.9994           0
      7226 MEMB     172      SLPC     O14      O2L     -0.780000       15.9994           0
      7227 MEMB     172      SLPC     O12      OSLP    -0.570000       15.9994           0
      7228 MEMB     172      SLPC     O11      OSLP    -0.570000       15.9994           0
      7229 MEMB     172      SLPC     C1       CTL2    -0.800000E-01   12.0110           0
      7230 MEMB     172      SLPC     HA       HAL2     0.900000E-01   1.00800           0
      7231 MEMB     172      SLPC     HB       HAL2     0.900000E-01   1.00800           0
      7232 MEMB     172      SLPC     C2       CTL1     0.170000       12.0110           0
      7233 MEMB     172      SLPC     HS       HAL1     0.900000E-01   1.00800           0
      7234 MEMB     172      SLPC     O21      OSL     -0.490000       15.9994           0
      7235 MEMB     172      SLPC     C21      CL       0.900000       12.0110           0
      7236 MEMB     172      SLPC     O22      OBL     -0.630000       15.9994           0
      7237 MEMB     172      SLPC     C22      CTL2    -0.220000       12.0110           0
      7238 MEMB     172      SLPC     H2R      HAL2     0.900000E-01   1.00800           0
      7239 MEMB     172      SLPC     H2S      HAL2     0.900000E-01   1.00800           0
      7240 MEMB     172      SLPC     C3       CTL2     0.800000E-01   12.0110           0
      7241 MEMB     172      SLPC     HX       HAL2     0.900000E-01   1.00800           0
      7242 MEMB     172      SLPC     HY       HAL2     0.900000E-01   1.00800           0
      7243 MEMB     172      SLPC     O31      OSL     -0.490000       15.9994           0
      7244 MEMB     172      SLPC     C31      CL       0.900000       12.0110           0
      7245 MEMB     172      SLPC     O32      OBL     -0.630000       15.9994           0
      7246 MEMB     172      SLPC     C32      CTL2    -0.220000       12.0110           0
      7247 MEMB     172      SLPC     H2X      HAL2     0.900000E-01   1.00800           0
      7248 MEMB     172      SLPC     H2Y      HAL2     0.900000E-01   1.00800           0
      7249 MEMB     172      SLPC     C23      CTL2    -0.180000       12.0110           0
      7250 MEMB     172      SLPC     H3R      HAL2     0.900000E-01   1.00800           0
      7251 MEMB     172      SLPC     H3S      HAL2     0.900000E-01   1.00800           0
      7252 MEMB     172      SLPC     C24      CTL2    -0.180000       12.0110           0
      7253 MEMB     172      SLPC     H4R      HAL2     0.900000E-01   1.00800           0
      7254 MEMB     172      SLPC     H4S      HAL2     0.900000E-01   1.00800           0
      7255 MEMB     172      SLPC     C25      CTL2    -0.180000       12.0110           0
      7256 MEMB     172      SLPC     H5R      HAL2     0.900000E-01   1.00800           0
      7257 MEMB     172      SLPC     H5S      HAL2     0.900000E-01   1.00800           0
      7258 MEMB     172      SLPC     C26      CTL2    -0.180000       12.0110           0
      7259 MEMB     172      SLPC     H6R      HAL2     0.900000E-01   1.00800           0
      7260 MEMB     172      SLPC     H6S      HAL2     0.900000E-01   1.00800           0
      7261 MEMB     172      SLPC     C27      CTL2    -0.180000       12.0110           0
      7262 MEMB     172      SLPC     H7R      HAL2     0.900000E-01   1.00800           0
      7263 MEMB     172      SLPC     H7S      HAL2     0.900000E-01   1.00800           0
      7264 MEMB     172      SLPC     C28      CTL2    -0.180000       12.0110           0
      7265 MEMB     172      SLPC     H8R      HAL2     0.900000E-01   1.00800           0
      7266 MEMB     172      SLPC     H8S      HAL2     0.900000E-01   1.00800           0
      7267 MEMB     172      SLPC     C29      CEL1    -0.150000       12.0110           0
      7268 MEMB     172      SLPC     H9R      HEL1     0.150000       1.00800           0
      7269 MEMB     172      SLPC     C210     CEL1    -0.150000       12.0110           0
      7270 MEMB     172      SLPC     H10R     HEL1     0.150000       1.00800           0
      7271 MEMB     172      SLPC     C211     CTL2    -0.180000       12.0110           0
      7272 MEMB     172      SLPC     H11R     HAL2     0.900000E-01   1.00800           0
      7273 MEMB     172      SLPC     H11S     HAL2     0.900000E-01   1.00800           0
      7274 MEMB     172      SLPC     C212     CEL1    -0.150000       12.0110           0
      7275 MEMB     172      SLPC     H12R     HEL1     0.150000       1.00800           0
      7276 MEMB     172      SLPC     C213     CEL1    -0.150000       12.0110           0
      7277 MEMB     172      SLPC     H13R     HEL1     0.150000       1.00800           0
      7278 MEMB     172      SLPC     C214     CTL2    -0.180000       12.0110           0
      7279 MEMB     172      SLPC     H14R     HAL2     0.900000E-01   1.00800           0
      7280 MEMB     172      SLPC     H14S     HAL2     0.900000E-01   1.00800           0
      7281 MEMB     172      SLPC     C215     CTL2    -0.180000       12.0110           0
      7282 MEMB     172      SLPC     H15R     HAL2     0.900000E-01   1.00800           0
      7283 MEMB     172      SLPC     H15S     HAL2     0.900000E-01   1.00800           0
      7284 MEMB     172      SLPC     C216     CTL2    -0.180000       12.0110           0
      7285 MEMB     172      SLPC     H16R     HAL2     0.900000E-01   1.00800           0
      7286 MEMB     172      SLPC     H16S     HAL2     0.900000E-01   1.00800           0
      7287 MEMB     172      SLPC     C217     CTL2    -0.180000       12.0110           0
      7288 MEMB     172      SLPC     H17R     HAL2     0.900000E-01   1.00800           0
      7289 MEMB     172      SLPC     H17S     HAL2     0.900000E-01   1.00800           0
      7290 MEMB     172      SLPC     C218     CTL3    -0.270000       12.0110           0
      7291 MEMB     172      SLPC     H18R     HAL3     0.900000E-01   1.00800           0
      7292 MEMB     172      SLPC     H18S     HAL3     0.900000E-01   1.00800           0
      7293 MEMB     172      SLPC     H18T     HAL3     0.900000E-01   1.00800           0
      7294 MEMB     172      SLPC     C33      CTL2    -0.180000       12.0110           0
      7295 MEMB     172      SLPC     H3X      HAL2     0.900000E-01   1.00800           0
      7296 MEMB     172      SLPC     H3Y      HAL2     0.900000E-01   1.00800           0
      7297 MEMB     172      SLPC     C34      CTL2    -0.180000       12.0110           0
      7298 MEMB     172      SLPC     H4X      HAL2     0.900000E-01   1.00800           0
      7299 MEMB     172      SLPC     H4Y      HAL2     0.900000E-01   1.00800           0
      7300 MEMB     172      SLPC     C35      CTL2    -0.180000       12.0110           0
      7301 MEMB     172      SLPC     H5X      HAL2     0.900000E-01   1.00800           0
      7302 MEMB     172      SLPC     H5Y      HAL2     0.900000E-01   1.00800           0
      7303 MEMB     172      SLPC     C36      CTL2    -0.180000       12.0110           0
      7304 MEMB     172      SLPC     H6X      HAL2     0.900000E-01   1.00800           0
      7305 MEMB     172      SLPC     H6Y      HAL2     0.900000E-01   1.00800           0
      7306 MEMB     172      SLPC     C37      CTL2    -0.180000       12.0110           0
      7307 MEMB     172      SLPC     H7X      HAL2     0.900000E-01   1.00800           0
      7308 MEMB     172      SLPC     H7Y      HAL2     0.900000E-01   1.00800           0
      7309 MEMB     172      SLPC     C38      CTL2    -0.180000       12.0110           0
      7310 MEMB     172      SLPC     H8X      HAL2     0.900000E-01   1.00800           0
      7311 MEMB     172      SLPC     H8Y      HAL2     0.900000E-01   1.00800           0
      7312 MEMB     172      SLPC     C39      CTL2    -0.180000       12.0110           0
      7313 MEMB     172      SLPC     H9X      HAL2     0.900000E-01   1.00800           0
      7314 MEMB     172      SLPC     H9Y      HAL2     0.900000E-01   1.00800           0
      7315 MEMB     172      SLPC     C310     CTL2    -0.180000       12.0110           0
      7316 MEMB     172      SLPC     H10X     HAL2     0.900000E-01   1.00800           0
      7317 MEMB     172      SLPC     H10Y     HAL2     0.900000E-01   1.00800           0
      7318 MEMB     172      SLPC     C311     CTL2    -0.180000       12.0110           0
      7319 MEMB     172      SLPC     H11X     HAL2     0.900000E-01   1.00800           0
      7320 MEMB     172      SLPC     H11Y     HAL2     0.900000E-01   1.00800           0
      7321 MEMB     172      SLPC     C312     CTL2    -0.180000       12.0110           0
      7322 MEMB     172      SLPC     H12X     HAL2     0.900000E-01   1.00800           0
      7323 MEMB     172      SLPC     H12Y     HAL2     0.900000E-01   1.00800           0
      7324 MEMB     172      SLPC     C313     CTL2    -0.180000       12.0110           0
      7325 MEMB     172      SLPC     H13X     HAL2     0.900000E-01   1.00800           0
      7326 MEMB     172      SLPC     H13Y     HAL2     0.900000E-01   1.00800           0
      7327 MEMB     172      SLPC     C314     CTL2    -0.180000       12.0110           0
      7328 MEMB     172      SLPC     H14X     HAL2     0.900000E-01   1.00800           0
      7329 MEMB     172      SLPC     H14Y     HAL2     0.900000E-01   1.00800           0
      7330 MEMB     172      SLPC     C315     CTL2    -0.180000       12.0110           0
      7331 MEMB     172      SLPC     H15X     HAL2     0.900000E-01   1.00800           0
      7332 MEMB     172      SLPC     H15Y     HAL2     0.900000E-01   1.00800           0
      7333 MEMB     172      SLPC     C316     CTL2    -0.180000       12.0110           0
      7334 MEMB     172      SLPC     H16X     HAL2     0.900000E-01   1.00800           0
      7335 MEMB     172      SLPC     H16Y     HAL2     0.900000E-01   1.00800           0
      7336 MEMB     172      SLPC     C317     CTL2    -0.180000       12.0110           0
      7337 MEMB     172      SLPC     H17X     HAL2     0.900000E-01   1.00800           0
      7338 MEMB     172      SLPC     H17Y     HAL2     0.900000E-01   1.00800           0
      7339 MEMB     172      SLPC     C318     CTL3    -0.270000       12.0110           0
      7340 MEMB     172      SLPC     H18X     HAL3     0.900000E-01   1.00800           0
      7341 MEMB     172      SLPC     H18Y     HAL3     0.900000E-01   1.00800           0
      7342 MEMB     172      SLPC     H18Z     HAL3     0.900000E-01   1.00800           0
      7343 MEMB     182      SLPC     N        NTL     -0.600000       14.0070           0
      7344 MEMB     182      SLPC     C13      CTL5    -0.350000       12.0110           0
      7345 MEMB     182      SLPC     H13A     HL       0.250000       1.00800           0
      7346 MEMB     182      SLPC     H13B     HL       0.250000       1.00800           0
      7347 MEMB     182      SLPC     H13C     HL       0.250000       1.00800           0
      7348 MEMB     182      SLPC     C14      CTL5    -0.350000       12.0110           0
      7349 MEMB     182      SLPC     H14A     HL       0.250000       1.00800           0
      7350 MEMB     182      SLPC     H14B     HL       0.250000       1.00800           0
      7351 MEMB     182      SLPC     H14C     HL       0.250000       1.00800           0
      7352 MEMB     182      SLPC     C15      CTL5    -0.350000       12.0110           0
      7353 MEMB     182      SLPC     H15A     HL       0.250000       1.00800           0
      7354 MEMB     182      SLPC     H15B     HL       0.250000       1.00800           0
      7355 MEMB     182      SLPC     H15C     HL       0.250000       1.00800           0
      7356 MEMB     182      SLPC     C12      CTL2    -0.100000       12.0110           0
      7357 MEMB     182      SLPC     H12A     HL       0.250000       1.00800           0
      7358 MEMB     182      SLPC     H12B     HL       0.250000       1.00800           0
      7359 MEMB     182      SLPC     C11      CTL2    -0.800000E-01   12.0110           0
      7360 MEMB     182      SLPC     H11A     HAL2     0.900000E-01   1.00800           0
      7361 MEMB     182      SLPC     H11B     HAL2     0.900000E-01   1.00800           0
      7362 MEMB     182      SLPC     P        PL       1.500000       30.9740           0
      7363 MEMB     182      SLPC     O13      O2L     -0.780000       15.9994           0
      7364 MEMB     182      SLPC     O14      O2L     -0.780000       15.9994           0
      7365 MEMB     182      SLPC     O12      OSLP    -0.570000       15.9994           0
      7366 MEMB     182      SLPC     O11      OSLP    -0.570000       15.9994           0
      7367 MEMB     182      SLPC     C1       CTL2    -0.800000E-01   12.0110           0
      7368 MEMB     182      SLPC     HA       HAL2     0.900000E-01   1.00800           0
      7369 MEMB     182      SLPC     HB       HAL2     0.900000E-01   1.00800           0
      7370 MEMB     182      SLPC     C2       CTL1     0.170000       12.0110           0
      7371 MEMB     182      SLPC     HS       HAL1     0.900000E-01   1.00800           0
      7372 MEMB     182      SLPC     O21      OSL     -0.490000       15.9994           0
      7373 MEMB     182      SLPC     C21      CL       0.900000       12.0110           0
      7374 MEMB     182      SLPC     O22      OBL     -0.630000       15.9994           0
      7375 MEMB     182      SLPC     C22      CTL2    -0.220000       12.0110           0
      7376 MEMB     182      SLPC     H2R      HAL2     0.900000E-01   1.00800           0
      7377 MEMB     182      SLPC     H2S      HAL2     0.900000E-01   1.00800           0
      7378 MEMB     182      SLPC     C3       CTL2     0.800000E-01   12.0110           0
      7379 MEMB     182      SLPC     HX       HAL2     0.900000E-01   1.00800           0
      7380 MEMB     182      SLPC     HY       HAL2     0.900000E-01   1.00800           0
      7381 MEMB     182      SLPC     O31      OSL     -0.490000       15.9994           0
      7382 MEMB     182      SLPC     C31      CL       0.900000       12.0110           0
      7383 MEMB     182      SLPC     O32      OBL     -0.630000       15.9994           0
      7384 MEMB     182      SLPC     C32      CTL2    -0.220000       12.0110           0
      7385 MEMB     182      SLPC     H2X      HAL2     0.900000E-01   1.00800           0
      7386 MEMB     182      SLPC     H2Y      HAL2     0.900000E-01   1.00800           0
      7387 MEMB     182      SLPC     C23      CTL2    -0.180000       12.0110           0
      7388 MEMB     182      SLPC     H3R      HAL2     0.900000E-01   1.00800           0
      7389 MEMB     182      SLPC     H3S      HAL2     0.900000E-01   1.00800           0
      7390 MEMB     182      SLPC     C24      CTL2    -0.180000       12.0110           0
      7391 MEMB     182      SLPC     H4R      HAL2     0.900000E-01   1.00800           0
      7392 MEMB     182      SLPC     H4S      HAL2     0.900000E-01   1.00800           0
      7393 MEMB     182      SLPC     C25      CTL2    -0.180000       12.0110           0
      7394 MEMB     182      SLPC     H5R      HAL2     0.900000E-01   1.00800           0
      7395 MEMB     182      SLPC     H5S      HAL2     0.900000E-01   1.00800           0
      7396 MEMB     182      SLPC     C26      CTL2    -0.180000       12.0110           0
      7397 MEMB     182      SLPC     H6R      HAL2     0.900000E-01   1.00800           0
      7398 MEMB     182      SLPC     H6S      HAL2     0.900000E-01   1.00800           0
      7399 MEMB     182      SLPC     C27      CTL2    -0.180000       12.0110           0
      7400 MEMB     182      SLPC     H7R      HAL2     0.900000E-01   1.00800           0
      7401 MEMB     182      SLPC     H7S      HAL2     0.900000E-01   1.00800           0
      7402 MEMB     182      SLPC     C28      CTL2    -0.180000       12.0110           0
      7403 MEMB     182      SLPC     H8R      HAL2     0.900000E-01   1.00800           0
      7404 MEMB     182      SLPC     H8S      HAL2     0.900000E-01   1.00800           0
      7405 MEMB     182      SLPC     C29      CEL1    -0.150000       12.0110           0
      7406 MEMB     182      SLPC     H9R      HEL1     0.150000       1.00800           0
      7407 MEMB     182      SLPC     C210     CEL1    -0.150000       12.0110           0
      7408 MEMB     182      SLPC     H10R     HEL1     0.150000       1.00800           0
      7409 MEMB     182      SLPC     C211     CTL2    -0.180000       12.0110           0
      7410 MEMB     182      SLPC     H11R     HAL2     0.900000E-01   1.00800           0
      7411 MEMB     182      SLPC     H11S     HAL2     0.900000E-01   1.00800           0
      7412 MEMB     182      SLPC     C212     CEL1    -0.150000       12.0110           0
      7413 MEMB     182      SLPC     H12R     HEL1     0.150000       1.00800           0
      7414 MEMB     182      SLPC     C213     CEL1    -0.150000       12.0110           0
      7415 MEMB     182      SLPC     H13R     HEL1     0.150000       1.00800           0
      7416 MEMB     182      SLPC     C214     CTL2    -0.180000       12.0110           0
      7417 MEMB     182      SLPC     H14R     HAL2     0.900000E-01   1.00800           0
      7418 MEMB     182      SLPC     H14S     HAL2     0.900000E-01   1.00800           0
      7419 MEMB     182      SLPC     C215     CTL2    -0.180000       12.0110           0
      7420 MEMB     182      SLPC     H15R     HAL2     0.900000E-01   1.00800           0
      7421 MEMB     182      SLPC     H15S     HAL2     0.900000E-01   1.00800           0
      7422 MEMB     182      SLPC     C216     CTL2    -0.180000       12.0110           0
      7423 MEMB     182      SLPC     H16R     HAL2     0.900000E-01   1.00800           0
      7424 MEMB     182      SLPC     H16S     HAL2     0.900000E-01   1.00800           0
      7425 MEMB     182      SLPC     C217     CTL2    -0.180000       12.0110           0
      7426 MEMB     182      SLPC     H17R     HAL2     0.900000E-01   1.00800           0
      7427 MEMB     182      SLPC     H17S     HAL2     0.900000E-01   1.00800           0
      7428 MEMB     182      SLPC     C218     CTL3    -0.270000       12.0110           0
      7429 MEMB     182      SLPC     H18R     HAL3     0.900000E-01   1.00800           0
      7430 MEMB     182      SLPC     H18S     HAL3     0.900000E-01   1.00800           0
      7431 MEMB     182      SLPC     H18T     HAL3     0.900000E-01   1.00800           0
      7432 MEMB     182      SLPC     C33      CTL2    -0.180000       12.0110           0
      7433 MEMB     182      SLPC     H3X      HAL2     0.900000E-01   1.00800           0
      7434 MEMB     182      SLPC     H3Y      HAL2     0.900000E-01   1.00800           0
      7435 MEMB     182      SLPC     C34      CTL2    -0.180000       12.0110           0
      7436 MEMB     182      SLPC     H4X      HAL2     0.900000E-01   1.00800           0
      7437 MEMB     182      SLPC     H4Y      HAL2     0.900000E-01   1.00800           0
      7438 MEMB     182      SLPC     C35      CTL2    -0.180000       12.0110           0
      7439 MEMB     182      SLPC     H5X      HAL2     0.900000E-01   1.00800           0
      7440 MEMB     182      SLPC     H5Y      HAL2     0.900000E-01   1.00800           0
      7441 MEMB     182      SLPC     C36      CTL2    -0.180000       12.0110           0
      7442 MEMB     182      SLPC     H6X      HAL2     0.900000E-01   1.00800           0
      7443 MEMB     182      SLPC     H6Y      HAL2     0.900000E-01   1.00800           0
      7444 MEMB     182      SLPC     C37      CTL2    -0.180000       12.0110           0
      7445 MEMB     182      SLPC     H7X      HAL2     0.900000E-01   1.00800           0
      7446 MEMB     182      SLPC     H7Y      HAL2     0.900000E-01   1.00800           0
      7447 MEMB     182      SLPC     C38      CTL2    -0.180000       12.0110           0
      7448 MEMB     182      SLPC     H8X      HAL2     0.900000E-01   1.00800           0
      7449 MEMB     182      SLPC     H8Y      HAL2     0.900000E-01   1.00800           0
      7450 MEMB     182      SLPC     C39      CTL2    -0.180000       12.0110           0
      7451 MEMB     182      SLPC     H9X      HAL2     0.900000E-01   1.00800           0
      7452 MEMB     182      SLPC     H9Y      HAL2     0.900000E-01   1.00800           0
      7453 MEMB     182      SLPC     C310     CTL2    -0.180000       12.0110           0
      7454 MEMB     182      SLPC     H10X     HAL2     0.900000E-01   1.00800           0
      7455 MEMB     182      SLPC     H10Y     HAL2     0.900000E-01   1.00800           0
      7456 MEMB     182      SLPC     C311     CTL2    -0.180000       12.0110           0
      7457 MEMB     182      SLPC     H11X     HAL2     0.900000E-01   1.00800           0
      7458 MEMB     182      SLPC     H11Y     HAL2     0.900000E-01   1.00800           0
      7459 MEMB     182      SLPC     C312     CTL2    -0.180000       12.0110           0
      7460 MEMB     182      SLPC     H12X     HAL2     0.900000E-01   1.00800           0
      7461 MEMB     182      SLPC     H12Y     HAL2     0.900000E-01   1.00800           0
      7462 MEMB     182      SLPC     C313     CTL2    -0.180000       12.0110           0
      7463 MEMB     182      SLPC     H13X     HAL2     0.900000E-01   1.00800           0
      7464 MEMB     182      SLPC     H13Y     HAL2     0.900000E-01   1.00800           0
      7465 MEMB     182      SLPC     C314     CTL2    -0.180000       12.0110           0
      7466 MEMB     182      SLPC     H14X     HAL2     0.900000E-01   1.00800           0
      7467 MEMB     182      SLPC     H14Y     HAL2     0.900000E-01   1.00800           0
      7468 MEMB     182      SLPC     C315     CTL2    -0.180000       12.0110           0
      7469 MEMB     182      SLPC     H15X     HAL2     0.900000E-01   1.00800           0
      7470 MEMB     182      SLPC     H15Y     HAL2     0.900000E-01   1.00800           0
      7471 MEMB     182      SLPC     C316     CTL2    -0.180000       12.0110           0
      7472 MEMB     182      SLPC     H16X     HAL2     0.900000E-01   1.00800           0
      7473 MEMB     182      SLPC     H16Y     HAL2     0.900000E-01   1.00800           0
      7474 MEMB     182      SLPC     C317     CTL2    -0.180000       12.0110           0
      7475 MEMB     182      SLPC     H17X     HAL2     0.900000E-01   1.00800           0
      7476 MEMB     182      SLPC     H17Y     HAL2     0.900000E-01   1.00800           0
      7477 MEMB     182      SLPC     C318     CTL3    -0.270000       12.0110           0
      7478 MEMB     182      SLPC     H18X     HAL3     0.900000E-01   1.00800           0
      7479 MEMB     182      SLPC     H18Y     HAL3     0.900000E-01   1.00800           0
      7480 MEMB     182      SLPC     H18Z     HAL3     0.900000E-01   1.00800           0
      7481 MEMB     4        SAPS     N        NH3L    -0.300000       14.0070           0
      7482 MEMB     4        SAPS     HN1      HCL      0.330000       1.00800           0
      7483 MEMB     4        SAPS     HN2      HCL      0.330000       1.00800           0
      7484 MEMB     4        SAPS     HN3      HCL      0.330000       1.00800           0
      7485 MEMB     4        SAPS     C12      CTL1     0.210000       12.0110           0
      7486 MEMB     4        SAPS     H12A     HBL      0.100000       1.00800           0
      7487 MEMB     4        SAPS     C13      CCL      0.340000       12.0110           0
      7488 MEMB     4        SAPS     O13A     OCL     -0.670000       15.9994           0
      7489 MEMB     4        SAPS     O13B     OCL     -0.670000       15.9994           0
      7490 MEMB     4        SAPS     C11      CTL2    -0.800000E-01   12.0110           0
      7491 MEMB     4        SAPS     H11A     HAL2     0.900000E-01   1.00800           0
      7492 MEMB     4        SAPS     H11B     HAL2     0.900000E-01   1.00800           0
      7493 MEMB     4        SAPS     P        PL       1.500000       30.9740           0
      7494 MEMB     4        SAPS     O13      O2L     -0.780000       15.9994           0
      7495 MEMB     4        SAPS     O14      O2L     -0.780000       15.9994           0
      7496 MEMB     4        SAPS     O12      OSLP    -0.570000       15.9994           0
      7497 MEMB     4        SAPS     O11      OSLP    -0.570000       15.9994           0
      7498 MEMB     4        SAPS     C1       CTL2    -0.800000E-01   12.0110           0
      7499 MEMB     4        SAPS     HA       HAL2     0.900000E-01   1.00800           0
      7500 MEMB     4        SAPS     HB       HAL2     0.900000E-01   1.00800           0
      7501 MEMB     4        SAPS     C2       CTL1     0.170000       12.0110           0
      7502 MEMB     4        SAPS     HS       HAL1     0.900000E-01   1.00800           0
      7503 MEMB     4        SAPS     O21      OSL     -0.490000       15.9994           0
      7504 MEMB     4        SAPS     C21      CL       0.900000       12.0110           0
      7505 MEMB     4        SAPS     O22      OBL     -0.630000       15.9994           0
      7506 MEMB     4        SAPS     C22      CTL2    -0.220000       12.0110           0
      7507 MEMB     4        SAPS     H2R      HAL2     0.900000E-01   1.00800           0
      7508 MEMB     4        SAPS     H2S      HAL2     0.900000E-01   1.00800           0
      7509 MEMB     4        SAPS     C3       CTL2     0.800000E-01   12.0110           0
      7510 MEMB     4        SAPS     HX       HAL2     0.900000E-01   1.00800           0
      7511 MEMB     4        SAPS     HY       HAL2     0.900000E-01   1.00800           0
      7512 MEMB     4        SAPS     O31      OSL     -0.490000       15.9994           0
      7513 MEMB     4        SAPS     C31      CL       0.900000       12.0110           0
      7514 MEMB     4        SAPS     O32      OBL     -0.630000       15.9994           0
      7515 MEMB     4        SAPS     C32      CTL2    -0.220000       12.0110           0
      7516 MEMB     4        SAPS     H2X      HAL2     0.900000E-01   1.00800           0
      7517 MEMB     4        SAPS     H2Y      HAL2     0.900000E-01   1.00800           0
      7518 MEMB     4        SAPS     C23      CTL2    -0.180000       12.0110           0
      7519 MEMB     4        SAPS     H3R      HAL2     0.900000E-01   1.00800           0
      7520 MEMB     4        SAPS     H3S      HAL2     0.900000E-01   1.00800           0
      7521 MEMB     4        SAPS     C24      CTL2    -0.180000       12.0110           0
      7522 MEMB     4        SAPS     H4R      HAL2     0.900000E-01   1.00800           0
      7523 MEMB     4        SAPS     H4S      HAL2     0.900000E-01   1.00800           0
      7524 MEMB     4        SAPS     C25      CEL1    -0.150000       12.0110           0
      7525 MEMB     4        SAPS     H5R      HEL1     0.150000       1.00800           0
      7526 MEMB     4        SAPS     C26      CEL1    -0.150000       12.0110           0
      7527 MEMB     4        SAPS     H6R      HEL1     0.150000       1.00800           0
      7528 MEMB     4        SAPS     C27      CTL2    -0.180000       12.0110           0
      7529 MEMB     4        SAPS     H7R      HAL2     0.900000E-01   1.00800           0
      7530 MEMB     4        SAPS     H7S      HAL2     0.900000E-01   1.00800           0
      7531 MEMB     4        SAPS     C28      CEL1    -0.150000       12.0110           0
      7532 MEMB     4        SAPS     H8R      HEL1     0.150000       1.00800           0
      7533 MEMB     4        SAPS     C29      CEL1    -0.150000       12.0110           0
      7534 MEMB     4        SAPS     H9R      HEL1     0.150000       1.00800           0
      7535 MEMB     4        SAPS     C210     CTL2    -0.180000       12.0110           0
      7536 MEMB     4        SAPS     H10R     HAL2     0.900000E-01   1.00800           0
      7537 MEMB     4        SAPS     H10S     HAL2     0.900000E-01   1.00800           0
      7538 MEMB     4        SAPS     C211     CEL1    -0.150000       12.0110           0
      7539 MEMB     4        SAPS     H11R     HEL1     0.150000       1.00800           0
      7540 MEMB     4        SAPS     C212     CEL1    -0.150000       12.0110           0
      7541 MEMB     4        SAPS     H12R     HEL1     0.150000       1.00800           0
      7542 MEMB     4        SAPS     C213     CTL2    -0.180000       12.0110           0
      7543 MEMB     4        SAPS     H13R     HAL2     0.900000E-01   1.00800           0
      7544 MEMB     4        SAPS     H13S     HAL2     0.900000E-01   1.00800           0
      7545 MEMB     4        SAPS     C214     CEL1    -0.150000       12.0110           0
      7546 MEMB     4        SAPS     H14R     HEL1     0.150000       1.00800           0
      7547 MEMB     4        SAPS     C215     CEL1    -0.150000       12.0110           0
      7548 MEMB     4        SAPS     H15R     HEL1     0.150000       1.00800           0
      7549 MEMB     4        SAPS     C216     CTL2    -0.180000       12.0110           0
      7550 MEMB     4        SAPS     H16R     HAL2     0.900000E-01   1.00800           0
      7551 MEMB     4        SAPS     H16S     HAL2     0.900000E-01   1.00800           0
      7552 MEMB     4        SAPS     C217     CTL2    -0.180000       12.0110           0
      7553 MEMB     4        SAPS     H17R     HAL2     0.900000E-01   1.00800           0
      7554 MEMB     4        SAPS     H17S     HAL2     0.900000E-01   1.00800           0
      7555 MEMB     4        SAPS     C218     CTL2    -0.180000       12.0110           0
      7556 MEMB     4        SAPS     H18R     HAL2     0.900000E-01   1.00800           0
      7557 MEMB     4        SAPS     H18S     HAL2     0.900000E-01   1.00800           0
      7558 MEMB     4        SAPS     C219     CTL2    -0.180000       12.0110           0
      7559 MEMB     4        SAPS     H19R     HAL2     0.900000E-01   1.00800           0
      7560 MEMB     4        SAPS     H19S     HAL2     0.900000E-01   1.00800           0
      7561 MEMB     4        SAPS     C220     CTL3    -0.270000       12.0110           0
      7562 MEMB     4        SAPS     H20R     HAL3     0.900000E-01   1.00800           0
      7563 MEMB     4        SAPS     H20S     HAL3     0.900000E-01   1.00800           0
      7564 MEMB     4        SAPS     H20T     HAL3     0.900000E-01   1.00800           0
      7565 MEMB     4        SAPS     C33      CTL2    -0.180000       12.0110           0
      7566 MEMB     4        SAPS     H3X      HAL2     0.900000E-01   1.00800           0
      7567 MEMB     4        SAPS     H3Y      HAL2     0.900000E-01   1.00800           0
      7568 MEMB     4        SAPS     C34      CTL2    -0.180000       12.0110           0
      7569 MEMB     4        SAPS     H4X      HAL2     0.900000E-01   1.00800           0
      7570 MEMB     4        SAPS     H4Y      HAL2     0.900000E-01   1.00800           0
      7571 MEMB     4        SAPS     C35      CTL2    -0.180000       12.0110           0
      7572 MEMB     4        SAPS     H5X      HAL2     0.900000E-01   1.00800           0
      7573 MEMB     4        SAPS     H5Y      HAL2     0.900000E-01   1.00800           0
      7574 MEMB     4        SAPS     C36      CTL2    -0.180000       12.0110           0
      7575 MEMB     4        SAPS     H6X      HAL2     0.900000E-01   1.00800           0
      7576 MEMB     4        SAPS     H6Y      HAL2     0.900000E-01   1.00800           0
      7577 MEMB     4        SAPS     C37      CTL2    -0.180000       12.0110           0
      7578 MEMB     4        SAPS     H7X      HAL2     0.900000E-01   1.00800           0
      7579 MEMB     4        SAPS     H7Y      HAL2     0.900000E-01   1.00800           0
      7580 MEMB     4        SAPS     C38      CTL2    -0.180000       12.0110           0
      7581 MEMB     4        SAPS     H8X      HAL2     0.900000E-01   1.00800           0
      7582 MEMB     4        SAPS     H8Y      HAL2     0.900000E-01   1.00800           0
      7583 MEMB     4        SAPS     C39      CTL2    -0.180000       12.0110           0
      7584 MEMB     4        SAPS     H9X      HAL2     0.900000E-01   1.00800           0
      7585 MEMB     4        SAPS     H9Y      HAL2     0.900000E-01   1.00800           0
      7586 MEMB     4        SAPS     C310     CTL2    -0.180000       12.0110           0
      7587 MEMB     4        SAPS     H10X     HAL2     0.900000E-01   1.00800           0
      7588 MEMB     4        SAPS     H10Y     HAL2     0.900000E-01   1.00800           0
      7589 MEMB     4        SAPS     C311     CTL2    -0.180000       12.0110           0
      7590 MEMB     4        SAPS     H11X     HAL2     0.900000E-01   1.00800           0
      7591 MEMB     4        SAPS     H11Y     HAL2     0.900000E-01   1.00800           0
      7592 MEMB     4        SAPS     C312     CTL2    -0.180000       12.0110           0
      7593 MEMB     4        SAPS     H12X     HAL2     0.900000E-01   1.00800           0
      7594 MEMB     4        SAPS     H12Y     HAL2     0.900000E-01   1.00800           0
      7595 MEMB     4        SAPS     C313     CTL2    -0.180000       12.0110           0
      7596 MEMB     4        SAPS     H13X     HAL2     0.900000E-01   1.00800           0
      7597 MEMB     4        SAPS     H13Y     HAL2     0.900000E-01   1.00800           0
      7598 MEMB     4        SAPS     C314     CTL2    -0.180000       12.0110           0
      7599 MEMB     4        SAPS     H14X     HAL2     0.900000E-01   1.00800           0
      7600 MEMB     4        SAPS     H14Y     HAL2     0.900000E-01   1.00800           0
      7601 MEMB     4        SAPS     C315     CTL2    -0.180000       12.0110           0
      7602 MEMB     4        SAPS     H15X     HAL2     0.900000E-01   1.00800           0
      7603 MEMB     4        SAPS     H15Y     HAL2     0.900000E-01   1.00800           0
      7604 MEMB     4        SAPS     C316     CTL2    -0.180000       12.0110           0
      7605 MEMB     4        SAPS     H16X     HAL2     0.900000E-01   1.00800           0
      7606 MEMB     4        SAPS     H16Y     HAL2     0.900000E-01   1.00800           0
      7607 MEMB     4        SAPS     C317     CTL2    -0.180000       12.0110           0
      7608 MEMB     4        SAPS     H17X     HAL2     0.900000E-01   1.00800           0
      7609 MEMB     4        SAPS     H17Y     HAL2     0.900000E-01   1.00800           0
      7610 MEMB     4        SAPS     C318     CTL3    -0.270000       12.0110           0
      7611 MEMB     4        SAPS     H18X     HAL3     0.900000E-01   1.00800           0
      7612 MEMB     4        SAPS     H18Y     HAL3     0.900000E-01   1.00800           0
      7613 MEMB     4        SAPS     H18Z     HAL3     0.900000E-01   1.00800           0
      7614 MEMB     5        SAPS     N        NH3L    -0.300000       14.0070           0
      7615 MEMB     5        SAPS     HN1      HCL      0.330000       1.00800           0
      7616 MEMB     5        SAPS     HN2      HCL      0.330000       1.00800           0
      7617 MEMB     5        SAPS     HN3      HCL      0.330000       1.00800           0
      7618 MEMB     5        SAPS     C12      CTL1     0.210000       12.0110           0
      7619 MEMB     5        SAPS     H12A     HBL      0.100000       1.00800           0
      7620 MEMB     5        SAPS     C13      CCL      0.340000       12.0110           0
      7621 MEMB     5        SAPS     O13A     OCL     -0.670000       15.9994           0
      7622 MEMB     5        SAPS     O13B     OCL     -0.670000       15.9994           0
      7623 MEMB     5        SAPS     C11      CTL2    -0.800000E-01   12.0110           0
      7624 MEMB     5        SAPS     H11A     HAL2     0.900000E-01   1.00800           0
      7625 MEMB     5        SAPS     H11B     HAL2     0.900000E-01   1.00800           0
      7626 MEMB     5        SAPS     P        PL       1.500000       30.9740           0
      7627 MEMB     5        SAPS     O13      O2L     -0.780000       15.9994           0
      7628 MEMB     5        SAPS     O14      O2L     -0.780000       15.9994           0
      7629 MEMB     5        SAPS     O12      OSLP    -0.570000       15.9994           0
      7630 MEMB     5        SAPS     O11      OSLP    -0.570000       15.9994           0
      7631 MEMB     5        SAPS     C1       CTL2    -0.800000E-01   12.0110           0
      7632 MEMB     5        SAPS     HA       HAL2     0.900000E-01   1.00800           0
      7633 MEMB     5        SAPS     HB       HAL2     0.900000E-01   1.00800           0
      7634 MEMB     5        SAPS     C2       CTL1     0.170000       12.0110           0
      7635 MEMB     5        SAPS     HS       HAL1     0.900000E-01   1.00800           0
      7636 MEMB     5        SAPS     O21      OSL     -0.490000       15.9994           0
      7637 MEMB     5        SAPS     C21      CL       0.900000       12.0110           0
      7638 MEMB     5        SAPS     O22      OBL     -0.630000       15.9994           0
      7639 MEMB     5        SAPS     C22      CTL2    -0.220000       12.0110           0
      7640 MEMB     5        SAPS     H2R      HAL2     0.900000E-01   1.00800           0
      7641 MEMB     5        SAPS     H2S      HAL2     0.900000E-01   1.00800           0
      7642 MEMB     5        SAPS     C3       CTL2     0.800000E-01   12.0110           0
      7643 MEMB     5        SAPS     HX       HAL2     0.900000E-01   1.00800           0
      7644 MEMB     5        SAPS     HY       HAL2     0.900000E-01   1.00800           0
      7645 MEMB     5        SAPS     O31      OSL     -0.490000       15.9994           0
      7646 MEMB     5        SAPS     C31      CL       0.900000       12.0110           0
      7647 MEMB     5        SAPS     O32      OBL     -0.630000       15.9994           0
      7648 MEMB     5        SAPS     C32      CTL2    -0.220000       12.0110           0
      7649 MEMB     5        SAPS     H2X      HAL2     0.900000E-01   1.00800           0
      7650 MEMB     5        SAPS     H2Y      HAL2     0.900000E-01   1.00800           0
      7651 MEMB     5        SAPS     C23      CTL2    -0.180000       12.0110           0
      7652 MEMB     5        SAPS     H3R      HAL2     0.900000E-01   1.00800           0
      7653 MEMB     5        SAPS     H3S      HAL2     0.900000E-01   1.00800           0
      7654 MEMB     5        SAPS     C24      CTL2    -0.180000       12.0110           0
      7655 MEMB     5        SAPS     H4R      HAL2     0.900000E-01   1.00800           0
      7656 MEMB     5        SAPS     H4S      HAL2     0.900000E-01   1.00800           0
      7657 MEMB     5        SAPS     C25      CEL1    -0.150000       12.0110           0
      7658 MEMB     5        SAPS     H5R      HEL1     0.150000       1.00800           0
      7659 MEMB     5        SAPS     C26      CEL1    -0.150000       12.0110           0
      7660 MEMB     5        SAPS     H6R      HEL1     0.150000       1.00800           0
      7661 MEMB     5        SAPS     C27      CTL2    -0.180000       12.0110           0
      7662 MEMB     5        SAPS     H7R      HAL2     0.900000E-01   1.00800           0
      7663 MEMB     5        SAPS     H7S      HAL2     0.900000E-01   1.00800           0
      7664 MEMB     5        SAPS     C28      CEL1    -0.150000       12.0110           0
      7665 MEMB     5        SAPS     H8R      HEL1     0.150000       1.00800           0
      7666 MEMB     5        SAPS     C29      CEL1    -0.150000       12.0110           0
      7667 MEMB     5        SAPS     H9R      HEL1     0.150000       1.00800           0
      7668 MEMB     5        SAPS     C210     CTL2    -0.180000       12.0110           0
      7669 MEMB     5        SAPS     H10R     HAL2     0.900000E-01   1.00800           0
      7670 MEMB     5        SAPS     H10S     HAL2     0.900000E-01   1.00800           0
      7671 MEMB     5        SAPS     C211     CEL1    -0.150000       12.0110           0
      7672 MEMB     5        SAPS     H11R     HEL1     0.150000       1.00800           0
      7673 MEMB     5        SAPS     C212     CEL1    -0.150000       12.0110           0
      7674 MEMB     5        SAPS     H12R     HEL1     0.150000       1.00800           0
      7675 MEMB     5        SAPS     C213     CTL2    -0.180000       12.0110           0
      7676 MEMB     5        SAPS     H13R     HAL2     0.900000E-01   1.00800           0
      7677 MEMB     5        SAPS     H13S     HAL2     0.900000E-01   1.00800           0
      7678 MEMB     5        SAPS     C214     CEL1    -0.150000       12.0110           0
      7679 MEMB     5        SAPS     H14R     HEL1     0.150000       1.00800           0
      7680 MEMB     5        SAPS     C215     CEL1    -0.150000       12.0110           0
      7681 MEMB     5        SAPS     H15R     HEL1     0.150000       1.00800           0
      7682 MEMB     5        SAPS     C216     CTL2    -0.180000       12.0110           0
      7683 MEMB     5        SAPS     H16R     HAL2     0.900000E-01   1.00800           0
      7684 MEMB     5        SAPS     H16S     HAL2     0.900000E-01   1.00800           0
      7685 MEMB     5        SAPS     C217     CTL2    -0.180000       12.0110           0
      7686 MEMB     5        SAPS     H17R     HAL2     0.900000E-01   1.00800           0
      7687 MEMB     5        SAPS     H17S     HAL2     0.900000E-01   1.00800           0
      7688 MEMB     5        SAPS     C218     CTL2    -0.180000       12.0110           0
      7689 MEMB     5        SAPS     H18R     HAL2     0.900000E-01   1.00800           0
      7690 MEMB     5        SAPS     H18S     HAL2     0.900000E-01   1.00800           0
      7691 MEMB     5        SAPS     C219     CTL2    -0.180000       12.0110           0
      7692 MEMB     5        SAPS     H19R     HAL2     0.900000E-01   1.00800           0
      7693 MEMB     5        SAPS     H19S     HAL2     0.900000E-01   1.00800           0
      7694 MEMB     5        SAPS     C220     CTL3    -0.270000       12.0110           0
      7695 MEMB     5        SAPS     H20R     HAL3     0.900000E-01   1.00800           0
      7696 MEMB     5        SAPS     H20S     HAL3     0.900000E-01   1.00800           0
      7697 MEMB     5        SAPS     H20T     HAL3     0.900000E-01   1.00800           0
      7698 MEMB     5        SAPS     C33      CTL2    -0.180000       12.0110           0
      7699 MEMB     5        SAPS     H3X      HAL2     0.900000E-01   1.00800           0
      7700 MEMB     5        SAPS     H3Y      HAL2     0.900000E-01   1.00800           0
      7701 MEMB     5        SAPS     C34      CTL2    -0.180000       12.0110           0
      7702 MEMB     5        SAPS     H4X      HAL2     0.900000E-01   1.00800           0
      7703 MEMB     5        SAPS     H4Y      HAL2     0.900000E-01   1.00800           0
      7704 MEMB     5        SAPS     C35      CTL2    -0.180000       12.0110           0
      7705 MEMB     5        SAPS     H5X      HAL2     0.900000E-01   1.00800           0
      7706 MEMB     5        SAPS     H5Y      HAL2     0.900000E-01   1.00800           0
      7707 MEMB     5        SAPS     C36      CTL2    -0.180000       12.0110           0
      7708 MEMB     5        SAPS     H6X      HAL2     0.900000E-01   1.00800           0
      7709 MEMB     5        SAPS     H6Y      HAL2     0.900000E-01   1.00800           0
      7710 MEMB     5        SAPS     C37      CTL2    -0.180000       12.0110           0
      7711 MEMB     5        SAPS     H7X      HAL2     0.900000E-01   1.00800           0
      7712 MEMB     5        SAPS     H7Y      HAL2     0.900000E-01   1.00800           0
      7713 MEMB     5        SAPS     C38      CTL2    -0.180000       12.0110           0
      7714 MEMB     5        SAPS     H8X      HAL2     0.900000E-01   1.00800           0
      7715 MEMB     5        SAPS     H8Y      HAL2     0.900000E-01   1.00800           0
      7716 MEMB     5        SAPS     C39      CTL2    -0.180000       12.0110           0
      7717 MEMB     5        SAPS     H9X      HAL2     0.900000E-01   1.00800           0
      7718 MEMB     5        SAPS     H9Y      HAL2     0.900000E-01   1.00800           0
      7719 MEMB     5        SAPS     C310     CTL2    -0.180000       12.0110           0
      7720 MEMB     5        SAPS     H10X     HAL2     0.900000E-01   1.00800           0
      7721 MEMB     5        SAPS     H10Y     HAL2     0.900000E-01   1.00800           0
      7722 MEMB     5        SAPS     C311     CTL2    -0.180000       12.0110           0
      7723 MEMB     5        SAPS     H11X     HAL2     0.900000E-01   1.00800           0
      7724 MEMB     5        SAPS     H11Y     HAL2     0.900000E-01   1.00800           0
      7725 MEMB     5        SAPS     C312     CTL2    -0.180000       12.0110           0
      7726 MEMB     5        SAPS     H12X     HAL2     0.900000E-01   1.00800           0
      7727 MEMB     5        SAPS     H12Y     HAL2     0.900000E-01   1.00800           0
      7728 MEMB     5        SAPS     C313     CTL2    -0.180000       12.0110           0
      7729 MEMB     5        SAPS     H13X     HAL2     0.900000E-01   1.00800           0
      7730 MEMB     5        SAPS     H13Y     HAL2     0.900000E-01   1.00800           0
      7731 MEMB     5        SAPS     C314     CTL2    -0.180000       12.0110           0
      7732 MEMB     5        SAPS     H14X     HAL2     0.900000E-01   1.00800           0
      7733 MEMB     5        SAPS     H14Y     HAL2     0.900000E-01   1.00800           0
      7734 MEMB     5        SAPS     C315     CTL2    -0.180000       12.0110           0
      7735 MEMB     5        SAPS     H15X     HAL2     0.900000E-01   1.00800           0
      7736 MEMB     5        SAPS     H15Y     HAL2     0.900000E-01   1.00800           0
      7737 MEMB     5        SAPS     C316     CTL2    -0.180000       12.0110           0
      7738 MEMB     5        SAPS     H16X     HAL2     0.900000E-01   1.00800           0
      7739 MEMB     5        SAPS     H16Y     HAL2     0.900000E-01   1.00800           0
      7740 MEMB     5        SAPS     C317     CTL2    -0.180000       12.0110           0
      7741 MEMB     5        SAPS     H17X     HAL2     0.900000E-01   1.00800           0
      7742 MEMB     5        SAPS     H17Y     HAL2     0.900000E-01   1.00800           0
      7743 MEMB     5        SAPS     C318     CTL3    -0.270000       12.0110           0
      7744 MEMB     5        SAPS     H18X     HAL3     0.900000E-01   1.00800           0
      7745 MEMB     5        SAPS     H18Y     HAL3     0.900000E-01   1.00800           0
      7746 MEMB     5        SAPS     H18Z     HAL3     0.900000E-01   1.00800           0
      7747 MEMB     15       SAPS     N        NH3L    -0.300000       14.0070           0
      7748 MEMB     15       SAPS     HN1      HCL      0.330000       1.00800           0
      7749 MEMB     15       SAPS     HN2      HCL      0.330000       1.00800           0
      7750 MEMB     15       SAPS     HN3      HCL      0.330000       1.00800           0
      7751 MEMB     15       SAPS     C12      CTL1     0.210000       12.0110           0
      7752 MEMB     15       SAPS     H12A     HBL      0.100000       1.00800           0
      7753 MEMB     15       SAPS     C13      CCL      0.340000       12.0110           0
      7754 MEMB     15       SAPS     O13A     OCL     -0.670000       15.9994           0
      7755 MEMB     15       SAPS     O13B     OCL     -0.670000       15.9994           0
      7756 MEMB     15       SAPS     C11      CTL2    -0.800000E-01   12.0110           0
      7757 MEMB     15       SAPS     H11A     HAL2     0.900000E-01   1.00800           0
      7758 MEMB     15       SAPS     H11B     HAL2     0.900000E-01   1.00800           0
      7759 MEMB     15       SAPS     P        PL       1.500000       30.9740           0
      7760 MEMB     15       SAPS     O13      O2L     -0.780000       15.9994           0
      7761 MEMB     15       SAPS     O14      O2L     -0.780000       15.9994           0
      7762 MEMB     15       SAPS     O12      OSLP    -0.570000       15.9994           0
      7763 MEMB     15       SAPS     O11      OSLP    -0.570000       15.9994           0
      7764 MEMB     15       SAPS     C1       CTL2    -0.800000E-01   12.0110           0
      7765 MEMB     15       SAPS     HA       HAL2     0.900000E-01   1.00800           0
      7766 MEMB     15       SAPS     HB       HAL2     0.900000E-01   1.00800           0
      7767 MEMB     15       SAPS     C2       CTL1     0.170000       12.0110           0
      7768 MEMB     15       SAPS     HS       HAL1     0.900000E-01   1.00800           0
      7769 MEMB     15       SAPS     O21      OSL     -0.490000       15.9994           0
      7770 MEMB     15       SAPS     C21      CL       0.900000       12.0110           0
      7771 MEMB     15       SAPS     O22      OBL     -0.630000       15.9994           0
      7772 MEMB     15       SAPS     C22      CTL2    -0.220000       12.0110           0
      7773 MEMB     15       SAPS     H2R      HAL2     0.900000E-01   1.00800           0
      7774 MEMB     15       SAPS     H2S      HAL2     0.900000E-01   1.00800           0
      7775 MEMB     15       SAPS     C3       CTL2     0.800000E-01   12.0110           0
      7776 MEMB     15       SAPS     HX       HAL2     0.900000E-01   1.00800           0
      7777 MEMB     15       SAPS     HY       HAL2     0.900000E-01   1.00800           0
      7778 MEMB     15       SAPS     O31      OSL     -0.490000       15.9994           0
      7779 MEMB     15       SAPS     C31      CL       0.900000       12.0110           0
      7780 MEMB     15       SAPS     O32      OBL     -0.630000       15.9994           0
      7781 MEMB     15       SAPS     C32      CTL2    -0.220000       12.0110           0
      7782 MEMB     15       SAPS     H2X      HAL2     0.900000E-01   1.00800           0
      7783 MEMB     15       SAPS     H2Y      HAL2     0.900000E-01   1.00800           0
      7784 MEMB     15       SAPS     C23      CTL2    -0.180000       12.0110           0
      7785 MEMB     15       SAPS     H3R      HAL2     0.900000E-01   1.00800           0
      7786 MEMB     15       SAPS     H3S      HAL2     0.900000E-01   1.00800           0
      7787 MEMB     15       SAPS     C24      CTL2    -0.180000       12.0110           0
      7788 MEMB     15       SAPS     H4R      HAL2     0.900000E-01   1.00800           0
      7789 MEMB     15       SAPS     H4S      HAL2     0.900000E-01   1.00800           0
      7790 MEMB     15       SAPS     C25      CEL1    -0.150000       12.0110           0
      7791 MEMB     15       SAPS     H5R      HEL1     0.150000       1.00800           0
      7792 MEMB     15       SAPS     C26      CEL1    -0.150000       12.0110           0
      7793 MEMB     15       SAPS     H6R      HEL1     0.150000       1.00800           0
      7794 MEMB     15       SAPS     C27      CTL2    -0.180000       12.0110           0
      7795 MEMB     15       SAPS     H7R      HAL2     0.900000E-01   1.00800           0
      7796 MEMB     15       SAPS     H7S      HAL2     0.900000E-01   1.00800           0
      7797 MEMB     15       SAPS     C28      CEL1    -0.150000       12.0110           0
      7798 MEMB     15       SAPS     H8R      HEL1     0.150000       1.00800           0
      7799 MEMB     15       SAPS     C29      CEL1    -0.150000       12.0110           0
      7800 MEMB     15       SAPS     H9R      HEL1     0.150000       1.00800           0
      7801 MEMB     15       SAPS     C210     CTL2    -0.180000       12.0110           0
      7802 MEMB     15       SAPS     H10R     HAL2     0.900000E-01   1.00800           0
      7803 MEMB     15       SAPS     H10S     HAL2     0.900000E-01   1.00800           0
      7804 MEMB     15       SAPS     C211     CEL1    -0.150000       12.0110           0
      7805 MEMB     15       SAPS     H11R     HEL1     0.150000       1.00800           0
      7806 MEMB     15       SAPS     C212     CEL1    -0.150000       12.0110           0
      7807 MEMB     15       SAPS     H12R     HEL1     0.150000       1.00800           0
      7808 MEMB     15       SAPS     C213     CTL2    -0.180000       12.0110           0
      7809 MEMB     15       SAPS     H13R     HAL2     0.900000E-01   1.00800           0
      7810 MEMB     15       SAPS     H13S     HAL2     0.900000E-01   1.00800           0
      7811 MEMB     15       SAPS     C214     CEL1    -0.150000       12.0110           0
      7812 MEMB     15       SAPS     H14R     HEL1     0.150000       1.00800           0
      7813 MEMB     15       SAPS     C215     CEL1    -0.150000       12.0110           0
      7814 MEMB     15       SAPS     H15R     HEL1     0.150000       1.00800           0
      7815 MEMB     15       SAPS     C216     CTL2    -0.180000       12.0110           0
      7816 MEMB     15       SAPS     H16R     HAL2     0.900000E-01   1.00800           0
      7817 MEMB     15       SAPS     H16S     HAL2     0.900000E-01   1.00800           0
      7818 MEMB     15       SAPS     C217     CTL2    -0.180000       12.0110           0
      7819 MEMB     15       SAPS     H17R     HAL2     0.900000E-01   1.00800           0
      7820 MEMB     15       SAPS     H17S     HAL2     0.900000E-01   1.00800           0
      7821 MEMB     15       SAPS     C218     CTL2    -0.180000       12.0110           0
      7822 MEMB     15       SAPS     H18R     HAL2     0.900000E-01   1.00800           0
      7823 MEMB     15       SAPS     H18S     HAL2     0.900000E-01   1.00800           0
      7824 MEMB     15       SAPS     C219     CTL2    -0.180000       12.0110           0
      7825 MEMB     15       SAPS     H19R     HAL2     0.900000E-01   1.00800           0
      7826 MEMB     15       SAPS     H19S     HAL2     0.900000E-01   1.00800           0
      7827 MEMB     15       SAPS     C220     CTL3    -0.270000       12.0110           0
      7828 MEMB     15       SAPS     H20R     HAL3     0.900000E-01   1.00800           0
      7829 MEMB     15       SAPS     H20S     HAL3     0.900000E-01   1.00800           0
      7830 MEMB     15       SAPS     H20T     HAL3     0.900000E-01   1.00800           0
      7831 MEMB     15       SAPS     C33      CTL2    -0.180000       12.0110           0
      7832 MEMB     15       SAPS     H3X      HAL2     0.900000E-01   1.00800           0
      7833 MEMB     15       SAPS     H3Y      HAL2     0.900000E-01   1.00800           0
      7834 MEMB     15       SAPS     C34      CTL2    -0.180000       12.0110           0
      7835 MEMB     15       SAPS     H4X      HAL2     0.900000E-01   1.00800           0
      7836 MEMB     15       SAPS     H4Y      HAL2     0.900000E-01   1.00800           0
      7837 MEMB     15       SAPS     C35      CTL2    -0.180000       12.0110           0
      7838 MEMB     15       SAPS     H5X      HAL2     0.900000E-01   1.00800           0
      7839 MEMB     15       SAPS     H5Y      HAL2     0.900000E-01   1.00800           0
      7840 MEMB     15       SAPS     C36      CTL2    -0.180000       12.0110           0
      7841 MEMB     15       SAPS     H6X      HAL2     0.900000E-01   1.00800           0
      7842 MEMB     15       SAPS     H6Y      HAL2     0.900000E-01   1.00800           0
      7843 MEMB     15       SAPS     C37      CTL2    -0.180000       12.0110           0
      7844 MEMB     15       SAPS     H7X      HAL2     0.900000E-01   1.00800           0
      7845 MEMB     15       SAPS     H7Y      HAL2     0.900000E-01   1.00800           0
      7846 MEMB     15       SAPS     C38      CTL2    -0.180000       12.0110           0
      7847 MEMB     15       SAPS     H8X      HAL2     0.900000E-01   1.00800           0
      7848 MEMB     15       SAPS     H8Y      HAL2     0.900000E-01   1.00800           0
      7849 MEMB     15       SAPS     C39      CTL2    -0.180000       12.0110           0
      7850 MEMB     15       SAPS     H9X      HAL2     0.900000E-01   1.00800           0
      7851 MEMB     15       SAPS     H9Y      HAL2     0.900000E-01   1.00800           0
      7852 MEMB     15       SAPS     C310     CTL2    -0.180000       12.0110           0
      7853 MEMB     15       SAPS     H10X     HAL2     0.900000E-01   1.00800           0
      7854 MEMB     15       SAPS     H10Y     HAL2     0.900000E-01   1.00800           0
      7855 MEMB     15       SAPS     C311     CTL2    -0.180000       12.0110           0
      7856 MEMB     15       SAPS     H11X     HAL2     0.900000E-01   1.00800           0
      7857 MEMB     15       SAPS     H11Y     HAL2     0.900000E-01   1.00800           0
      7858 MEMB     15       SAPS     C312     CTL2    -0.180000       12.0110           0
      7859 MEMB     15       SAPS     H12X     HAL2     0.900000E-01   1.00800           0
      7860 MEMB     15       SAPS     H12Y     HAL2     0.900000E-01   1.00800           0
      7861 MEMB     15       SAPS     C313     CTL2    -0.180000       12.0110           0
      7862 MEMB     15       SAPS     H13X     HAL2     0.900000E-01   1.00800           0
      7863 MEMB     15       SAPS     H13Y     HAL2     0.900000E-01   1.00800           0
      7864 MEMB     15       SAPS     C314     CTL2    -0.180000       12.0110           0
      7865 MEMB     15       SAPS     H14X     HAL2     0.900000E-01   1.00800           0
      7866 MEMB     15       SAPS     H14Y     HAL2     0.900000E-01   1.00800           0
      7867 MEMB     15       SAPS     C315     CTL2    -0.180000       12.0110           0
      7868 MEMB     15       SAPS     H15X     HAL2     0.900000E-01   1.00800           0
      7869 MEMB     15       SAPS     H15Y     HAL2     0.900000E-01   1.00800           0
      7870 MEMB     15       SAPS     C316     CTL2    -0.180000       12.0110           0
      7871 MEMB     15       SAPS     H16X     HAL2     0.900000E-01   1.00800           0
      7872 MEMB     15       SAPS     H16Y     HAL2     0.900000E-01   1.00800           0
      7873 MEMB     15       SAPS     C317     CTL2    -0.180000       12.0110           0
      7874 MEMB     15       SAPS     H17X     HAL2     0.900000E-01   1.00800           0
      7875 MEMB     15       SAPS     H17Y     HAL2     0.900000E-01   1.00800           0
      7876 MEMB     15       SAPS     C318     CTL3    -0.270000       12.0110           0
      7877 MEMB     15       SAPS     H18X     HAL3     0.900000E-01   1.00800           0
      7878 MEMB     15       SAPS     H18Y     HAL3     0.900000E-01   1.00800           0
      7879 MEMB     15       SAPS     H18Z     HAL3     0.900000E-01   1.00800           0
      7880 MEMB     33       SAPS     N        NH3L    -0.300000       14.0070           0
      7881 MEMB     33       SAPS     HN1      HCL      0.330000       1.00800           0
      7882 MEMB     33       SAPS     HN2      HCL      0.330000       1.00800           0
      7883 MEMB     33       SAPS     HN3      HCL      0.330000       1.00800           0
      7884 MEMB     33       SAPS     C12      CTL1     0.210000       12.0110           0
      7885 MEMB     33       SAPS     H12A     HBL      0.100000       1.00800           0
      7886 MEMB     33       SAPS     C13      CCL      0.340000       12.0110           0
      7887 MEMB     33       SAPS     O13A     OCL     -0.670000       15.9994           0
      7888 MEMB     33       SAPS     O13B     OCL     -0.670000       15.9994           0
      7889 MEMB     33       SAPS     C11      CTL2    -0.800000E-01   12.0110           0
      7890 MEMB     33       SAPS     H11A     HAL2     0.900000E-01   1.00800           0
      7891 MEMB     33       SAPS     H11B     HAL2     0.900000E-01   1.00800           0
      7892 MEMB     33       SAPS     P        PL       1.500000       30.9740           0
      7893 MEMB     33       SAPS     O13      O2L     -0.780000       15.9994           0
      7894 MEMB     33       SAPS     O14      O2L     -0.780000       15.9994           0
      7895 MEMB     33       SAPS     O12      OSLP    -0.570000       15.9994           0
      7896 MEMB     33       SAPS     O11      OSLP    -0.570000       15.9994           0
      7897 MEMB     33       SAPS     C1       CTL2    -0.800000E-01   12.0110           0
      7898 MEMB     33       SAPS     HA       HAL2     0.900000E-01   1.00800           0
      7899 MEMB     33       SAPS     HB       HAL2     0.900000E-01   1.00800           0
      7900 MEMB     33       SAPS     C2       CTL1     0.170000       12.0110           0
      7901 MEMB     33       SAPS     HS       HAL1     0.900000E-01   1.00800           0
      7902 MEMB     33       SAPS     O21      OSL     -0.490000       15.9994           0
      7903 MEMB     33       SAPS     C21      CL       0.900000       12.0110           0
      7904 MEMB     33       SAPS     O22      OBL     -0.630000       15.9994           0
      7905 MEMB     33       SAPS     C22      CTL2    -0.220000       12.0110           0
      7906 MEMB     33       SAPS     H2R      HAL2     0.900000E-01   1.00800           0
      7907 MEMB     33       SAPS     H2S      HAL2     0.900000E-01   1.00800           0
      7908 MEMB     33       SAPS     C3       CTL2     0.800000E-01   12.0110           0
      7909 MEMB     33       SAPS     HX       HAL2     0.900000E-01   1.00800           0
      7910 MEMB     33       SAPS     HY       HAL2     0.900000E-01   1.00800           0
      7911 MEMB     33       SAPS     O31      OSL     -0.490000       15.9994           0
      7912 MEMB     33       SAPS     C31      CL       0.900000       12.0110           0
      7913 MEMB     33       SAPS     O32      OBL     -0.630000       15.9994           0
      7914 MEMB     33       SAPS     C32      CTL2    -0.220000       12.0110           0
      7915 MEMB     33       SAPS     H2X      HAL2     0.900000E-01   1.00800           0
      7916 MEMB     33       SAPS     H2Y      HAL2     0.900000E-01   1.00800           0
      7917 MEMB     33       SAPS     C23      CTL2    -0.180000       12.0110           0
      7918 MEMB     33       SAPS     H3R      HAL2     0.900000E-01   1.00800           0
      7919 MEMB     33       SAPS     H3S      HAL2     0.900000E-01   1.00800           0
      7920 MEMB     33       SAPS     C24      CTL2    -0.180000       12.0110           0
      7921 MEMB     33       SAPS     H4R      HAL2     0.900000E-01   1.00800           0
      7922 MEMB     33       SAPS     H4S      HAL2     0.900000E-01   1.00800           0
      7923 MEMB     33       SAPS     C25      CEL1    -0.150000       12.0110           0
      7924 MEMB     33       SAPS     H5R      HEL1     0.150000       1.00800           0
      7925 MEMB     33       SAPS     C26      CEL1    -0.150000       12.0110           0
      7926 MEMB     33       SAPS     H6R      HEL1     0.150000       1.00800           0
      7927 MEMB     33       SAPS     C27      CTL2    -0.180000       12.0110           0
      7928 MEMB     33       SAPS     H7R      HAL2     0.900000E-01   1.00800           0
      7929 MEMB     33       SAPS     H7S      HAL2     0.900000E-01   1.00800           0
      7930 MEMB     33       SAPS     C28      CEL1    -0.150000       12.0110           0
      7931 MEMB     33       SAPS     H8R      HEL1     0.150000       1.00800           0
      7932 MEMB     33       SAPS     C29      CEL1    -0.150000       12.0110           0
      7933 MEMB     33       SAPS     H9R      HEL1     0.150000       1.00800           0
      7934 MEMB     33       SAPS     C210     CTL2    -0.180000       12.0110           0
      7935 MEMB     33       SAPS     H10R     HAL2     0.900000E-01   1.00800           0
      7936 MEMB     33       SAPS     H10S     HAL2     0.900000E-01   1.00800           0
      7937 MEMB     33       SAPS     C211     CEL1    -0.150000       12.0110           0
      7938 MEMB     33       SAPS     H11R     HEL1     0.150000       1.00800           0
      7939 MEMB     33       SAPS     C212     CEL1    -0.150000       12.0110           0
      7940 MEMB     33       SAPS     H12R     HEL1     0.150000       1.00800           0
      7941 MEMB     33       SAPS     C213     CTL2    -0.180000       12.0110           0
      7942 MEMB     33       SAPS     H13R     HAL2     0.900000E-01   1.00800           0
      7943 MEMB     33       SAPS     H13S     HAL2     0.900000E-01   1.00800           0
      7944 MEMB     33       SAPS     C214     CEL1    -0.150000       12.0110           0
      7945 MEMB     33       SAPS     H14R     HEL1     0.150000       1.00800           0
      7946 MEMB     33       SAPS     C215     CEL1    -0.150000       12.0110           0
      7947 MEMB     33       SAPS     H15R     HEL1     0.150000       1.00800           0
      7948 MEMB     33       SAPS     C216     CTL2    -0.180000       12.0110           0
      7949 MEMB     33       SAPS     H16R     HAL2     0.900000E-01   1.00800           0
      7950 MEMB     33       SAPS     H16S     HAL2     0.900000E-01   1.00800           0
      7951 MEMB     33       SAPS     C217     CTL2    -0.180000       12.0110           0
      7952 MEMB     33       SAPS     H17R     HAL2     0.900000E-01   1.00800           0
      7953 MEMB     33       SAPS     H17S     HAL2     0.900000E-01   1.00800           0
      7954 MEMB     33       SAPS     C218     CTL2    -0.180000       12.0110           0
      7955 MEMB     33       SAPS     H18R     HAL2     0.900000E-01   1.00800           0
      7956 MEMB     33       SAPS     H18S     HAL2     0.900000E-01   1.00800           0
      7957 MEMB     33       SAPS     C219     CTL2    -0.180000       12.0110           0
      7958 MEMB     33       SAPS     H19R     HAL2     0.900000E-01   1.00800           0
      7959 MEMB     33       SAPS     H19S     HAL2     0.900000E-01   1.00800           0
      7960 MEMB     33       SAPS     C220     CTL3    -0.270000       12.0110           0
      7961 MEMB     33       SAPS     H20R     HAL3     0.900000E-01   1.00800           0
      7962 MEMB     33       SAPS     H20S     HAL3     0.900000E-01   1.00800           0
      7963 MEMB     33       SAPS     H20T     HAL3     0.900000E-01   1.00800           0
      7964 MEMB     33       SAPS     C33      CTL2    -0.180000       12.0110           0
      7965 MEMB     33       SAPS     H3X      HAL2     0.900000E-01   1.00800           0
      7966 MEMB     33       SAPS     H3Y      HAL2     0.900000E-01   1.00800           0
      7967 MEMB     33       SAPS     C34      CTL2    -0.180000       12.0110           0
      7968 MEMB     33       SAPS     H4X      HAL2     0.900000E-01   1.00800           0
      7969 MEMB     33       SAPS     H4Y      HAL2     0.900000E-01   1.00800           0
      7970 MEMB     33       SAPS     C35      CTL2    -0.180000       12.0110           0
      7971 MEMB     33       SAPS     H5X      HAL2     0.900000E-01   1.00800           0
      7972 MEMB     33       SAPS     H5Y      HAL2     0.900000E-01   1.00800           0
      7973 MEMB     33       SAPS     C36      CTL2    -0.180000       12.0110           0
      7974 MEMB     33       SAPS     H6X      HAL2     0.900000E-01   1.00800           0
      7975 MEMB     33       SAPS     H6Y      HAL2     0.900000E-01   1.00800           0
      7976 MEMB     33       SAPS     C37      CTL2    -0.180000       12.0110           0
      7977 MEMB     33       SAPS     H7X      HAL2     0.900000E-01   1.00800           0
      7978 MEMB     33       SAPS     H7Y      HAL2     0.900000E-01   1.00800           0
      7979 MEMB     33       SAPS     C38      CTL2    -0.180000       12.0110           0
      7980 MEMB     33       SAPS     H8X      HAL2     0.900000E-01   1.00800           0
      7981 MEMB     33       SAPS     H8Y      HAL2     0.900000E-01   1.00800           0
      7982 MEMB     33       SAPS     C39      CTL2    -0.180000       12.0110           0
      7983 MEMB     33       SAPS     H9X      HAL2     0.900000E-01   1.00800           0
      7984 MEMB     33       SAPS     H9Y      HAL2     0.900000E-01   1.00800           0
      7985 MEMB     33       SAPS     C310     CTL2    -0.180000       12.0110           0
      7986 MEMB     33       SAPS     H10X     HAL2     0.900000E-01   1.00800           0
      7987 MEMB     33       SAPS     H10Y     HAL2     0.900000E-01   1.00800           0
      7988 MEMB     33       SAPS     C311     CTL2    -0.180000       12.0110           0
      7989 MEMB     33       SAPS     H11X     HAL2     0.900000E-01   1.00800           0
      7990 MEMB     33       SAPS     H11Y     HAL2     0.900000E-01   1.00800           0
      7991 MEMB     33       SAPS     C312     CTL2    -0.180000       12.0110           0
      7992 MEMB     33       SAPS     H12X     HAL2     0.900000E-01   1.00800           0
      7993 MEMB     33       SAPS     H12Y     HAL2     0.900000E-01   1.00800           0
      7994 MEMB     33       SAPS     C313     CTL2    -0.180000       12.0110           0
      7995 MEMB     33       SAPS     H13X     HAL2     0.900000E-01   1.00800           0
      7996 MEMB     33       SAPS     H13Y     HAL2     0.900000E-01   1.00800           0
      7997 MEMB     33       SAPS     C314     CTL2    -0.180000       12.0110           0
      7998 MEMB     33       SAPS     H14X     HAL2     0.900000E-01   1.00800           0
      7999 MEMB     33       SAPS     H14Y     HAL2     0.900000E-01   1.00800           0
      8000 MEMB     33       SAPS     C315     CTL2    -0.180000       12.0110           0
      8001 MEMB     33       SAPS     H15X     HAL2     0.900000E-01   1.00800           0
      8002 MEMB     33       SAPS     H15Y     HAL2     0.900000E-01   1.00800           0
      8003 MEMB     33       SAPS     C316     CTL2    -0.180000       12.0110           0
      8004 MEMB     33       SAPS     H16X     HAL2     0.900000E-01   1.00800           0
      8005 MEMB     33       SAPS     H16Y     HAL2     0.900000E-01   1.00800           0
      8006 MEMB     33       SAPS     C317     CTL2    -0.180000       12.0110           0
      8007 MEMB     33       SAPS     H17X     HAL2     0.900000E-01   1.00800           0
      8008 MEMB     33       SAPS     H17Y     HAL2     0.900000E-01   1.00800           0
      8009 MEMB     33       SAPS     C318     CTL3    -0.270000       12.0110           0
      8010 MEMB     33       SAPS     H18X     HAL3     0.900000E-01   1.00800           0
      8011 MEMB     33       SAPS     H18Y     HAL3     0.900000E-01   1.00800           0
      8012 MEMB     33       SAPS     H18Z     HAL3     0.900000E-01   1.00800           0
      8013 MEMB     47       SAPS     N        NH3L    -0.300000       14.0070           0
      8014 MEMB     47       SAPS     HN1      HCL      0.330000       1.00800           0
      8015 MEMB     47       SAPS     HN2      HCL      0.330000       1.00800           0
      8016 MEMB     47       SAPS     HN3      HCL      0.330000       1.00800           0
      8017 MEMB     47       SAPS     C12      CTL1     0.210000       12.0110           0
      8018 MEMB     47       SAPS     H12A     HBL      0.100000       1.00800           0
      8019 MEMB     47       SAPS     C13      CCL      0.340000       12.0110           0
      8020 MEMB     47       SAPS     O13A     OCL     -0.670000       15.9994           0
      8021 MEMB     47       SAPS     O13B     OCL     -0.670000       15.9994           0
      8022 MEMB     47       SAPS     C11      CTL2    -0.800000E-01   12.0110           0
      8023 MEMB     47       SAPS     H11A     HAL2     0.900000E-01   1.00800           0
      8024 MEMB     47       SAPS     H11B     HAL2     0.900000E-01   1.00800           0
      8025 MEMB     47       SAPS     P        PL       1.500000       30.9740           0
      8026 MEMB     47       SAPS     O13      O2L     -0.780000       15.9994           0
      8027 MEMB     47       SAPS     O14      O2L     -0.780000       15.9994           0
      8028 MEMB     47       SAPS     O12      OSLP    -0.570000       15.9994           0
      8029 MEMB     47       SAPS     O11      OSLP    -0.570000       15.9994           0
      8030 MEMB     47       SAPS     C1       CTL2    -0.800000E-01   12.0110           0
      8031 MEMB     47       SAPS     HA       HAL2     0.900000E-01   1.00800           0
      8032 MEMB     47       SAPS     HB       HAL2     0.900000E-01   1.00800           0
      8033 MEMB     47       SAPS     C2       CTL1     0.170000       12.0110           0
      8034 MEMB     47       SAPS     HS       HAL1     0.900000E-01   1.00800           0
      8035 MEMB     47       SAPS     O21      OSL     -0.490000       15.9994           0
      8036 MEMB     47       SAPS     C21      CL       0.900000       12.0110           0
      8037 MEMB     47       SAPS     O22      OBL     -0.630000       15.9994           0
      8038 MEMB     47       SAPS     C22      CTL2    -0.220000       12.0110           0
      8039 MEMB     47       SAPS     H2R      HAL2     0.900000E-01   1.00800           0
      8040 MEMB     47       SAPS     H2S      HAL2     0.900000E-01   1.00800           0
      8041 MEMB     47       SAPS     C3       CTL2     0.800000E-01   12.0110           0
      8042 MEMB     47       SAPS     HX       HAL2     0.900000E-01   1.00800           0
      8043 MEMB     47       SAPS     HY       HAL2     0.900000E-01   1.00800           0
      8044 MEMB     47       SAPS     O31      OSL     -0.490000       15.9994           0
      8045 MEMB     47       SAPS     C31      CL       0.900000       12.0110           0
      8046 MEMB     47       SAPS     O32      OBL     -0.630000       15.9994           0
      8047 MEMB     47       SAPS     C32      CTL2    -0.220000       12.0110           0
      8048 MEMB     47       SAPS     H2X      HAL2     0.900000E-01   1.00800           0
      8049 MEMB     47       SAPS     H2Y      HAL2     0.900000E-01   1.00800           0
      8050 MEMB     47       SAPS     C23      CTL2    -0.180000       12.0110           0
      8051 MEMB     47       SAPS     H3R      HAL2     0.900000E-01   1.00800           0
      8052 MEMB     47       SAPS     H3S      HAL2     0.900000E-01   1.00800           0
      8053 MEMB     47       SAPS     C24      CTL2    -0.180000       12.0110           0
      8054 MEMB     47       SAPS     H4R      HAL2     0.900000E-01   1.00800           0
      8055 MEMB     47       SAPS     H4S      HAL2     0.900000E-01   1.00800           0
      8056 MEMB     47       SAPS     C25      CEL1    -0.150000       12.0110           0
      8057 MEMB     47       SAPS     H5R      HEL1     0.150000       1.00800           0
      8058 MEMB     47       SAPS     C26      CEL1    -0.150000       12.0110           0
      8059 MEMB     47       SAPS     H6R      HEL1     0.150000       1.00800           0
      8060 MEMB     47       SAPS     C27      CTL2    -0.180000       12.0110           0
      8061 MEMB     47       SAPS     H7R      HAL2     0.900000E-01   1.00800           0
      8062 MEMB     47       SAPS     H7S      HAL2     0.900000E-01   1.00800           0
      8063 MEMB     47       SAPS     C28      CEL1    -0.150000       12.0110           0
      8064 MEMB     47       SAPS     H8R      HEL1     0.150000       1.00800           0
      8065 MEMB     47       SAPS     C29      CEL1    -0.150000       12.0110           0
      8066 MEMB     47       SAPS     H9R      HEL1     0.150000       1.00800           0
      8067 MEMB     47       SAPS     C210     CTL2    -0.180000       12.0110           0
      8068 MEMB     47       SAPS     H10R     HAL2     0.900000E-01   1.00800           0
      8069 MEMB     47       SAPS     H10S     HAL2     0.900000E-01   1.00800           0
      8070 MEMB     47       SAPS     C211     CEL1    -0.150000       12.0110           0
      8071 MEMB     47       SAPS     H11R     HEL1     0.150000       1.00800           0
      8072 MEMB     47       SAPS     C212     CEL1    -0.150000       12.0110           0
      8073 MEMB     47       SAPS     H12R     HEL1     0.150000       1.00800           0
      8074 MEMB     47       SAPS     C213     CTL2    -0.180000       12.0110           0
      8075 MEMB     47       SAPS     H13R     HAL2     0.900000E-01   1.00800           0
      8076 MEMB     47       SAPS     H13S     HAL2     0.900000E-01   1.00800           0
      8077 MEMB     47       SAPS     C214     CEL1    -0.150000       12.0110           0
      8078 MEMB     47       SAPS     H14R     HEL1     0.150000       1.00800           0
      8079 MEMB     47       SAPS     C215     CEL1    -0.150000       12.0110           0
      8080 MEMB     47       SAPS     H15R     HEL1     0.150000       1.00800           0
      8081 MEMB     47       SAPS     C216     CTL2    -0.180000       12.0110           0
      8082 MEMB     47       SAPS     H16R     HAL2     0.900000E-01   1.00800           0
      8083 MEMB     47       SAPS     H16S     HAL2     0.900000E-01   1.00800           0
      8084 MEMB     47       SAPS     C217     CTL2    -0.180000       12.0110           0
      8085 MEMB     47       SAPS     H17R     HAL2     0.900000E-01   1.00800           0
      8086 MEMB     47       SAPS     H17S     HAL2     0.900000E-01   1.00800           0
      8087 MEMB     47       SAPS     C218     CTL2    -0.180000       12.0110           0
      8088 MEMB     47       SAPS     H18R     HAL2     0.900000E-01   1.00800           0
      8089 MEMB     47       SAPS     H18S     HAL2     0.900000E-01   1.00800           0
      8090 MEMB     47       SAPS     C219     CTL2    -0.180000       12.0110           0
      8091 MEMB     47       SAPS     H19R     HAL2     0.900000E-01   1.00800           0
      8092 MEMB     47       SAPS     H19S     HAL2     0.900000E-01   1.00800           0
      8093 MEMB     47       SAPS     C220     CTL3    -0.270000       12.0110           0
      8094 MEMB     47       SAPS     H20R     HAL3     0.900000E-01   1.00800           0
      8095 MEMB     47       SAPS     H20S     HAL3     0.900000E-01   1.00800           0
      8096 MEMB     47       SAPS     H20T     HAL3     0.900000E-01   1.00800           0
      8097 MEMB     47       SAPS     C33      CTL2    -0.180000       12.0110           0
      8098 MEMB     47       SAPS     H3X      HAL2     0.900000E-01   1.00800           0
      8099 MEMB     47       SAPS     H3Y      HAL2     0.900000E-01   1.00800           0
      8100 MEMB     47       SAPS     C34      CTL2    -0.180000       12.0110           0
      8101 MEMB     47       SAPS     H4X      HAL2     0.900000E-01   1.00800           0
      8102 MEMB     47       SAPS     H4Y      HAL2     0.900000E-01   1.00800           0
      8103 MEMB     47       SAPS     C35      CTL2    -0.180000       12.0110           0
      8104 MEMB     47       SAPS     H5X      HAL2     0.900000E-01   1.00800           0
      8105 MEMB     47       SAPS     H5Y      HAL2     0.900000E-01   1.00800           0
      8106 MEMB     47       SAPS     C36      CTL2    -0.180000       12.0110           0
      8107 MEMB     47       SAPS     H6X      HAL2     0.900000E-01   1.00800           0
      8108 MEMB     47       SAPS     H6Y      HAL2     0.900000E-01   1.00800           0
      8109 MEMB     47       SAPS     C37      CTL2    -0.180000       12.0110           0
      8110 MEMB     47       SAPS     H7X      HAL2     0.900000E-01   1.00800           0
      8111 MEMB     47       SAPS     H7Y      HAL2     0.900000E-01   1.00800           0
      8112 MEMB     47       SAPS     C38      CTL2    -0.180000       12.0110           0
      8113 MEMB     47       SAPS     H8X      HAL2     0.900000E-01   1.00800           0
      8114 MEMB     47       SAPS     H8Y      HAL2     0.900000E-01   1.00800           0
      8115 MEMB     47       SAPS     C39      CTL2    -0.180000       12.0110           0
      8116 MEMB     47       SAPS     H9X      HAL2     0.900000E-01   1.00800           0
      8117 MEMB     47       SAPS     H9Y      HAL2     0.900000E-01   1.00800           0
      8118 MEMB     47       SAPS     C310     CTL2    -0.180000       12.0110           0
      8119 MEMB     47       SAPS     H10X     HAL2     0.900000E-01   1.00800           0
      8120 MEMB     47       SAPS     H10Y     HAL2     0.900000E-01   1.00800           0
      8121 MEMB     47       SAPS     C311     CTL2    -0.180000       12.0110           0
      8122 MEMB     47       SAPS     H11X     HAL2     0.900000E-01   1.00800           0
      8123 MEMB     47       SAPS     H11Y     HAL2     0.900000E-01   1.00800           0
      8124 MEMB     47       SAPS     C312     CTL2    -0.180000       12.0110           0
      8125 MEMB     47       SAPS     H12X     HAL2     0.900000E-01   1.00800           0
      8126 MEMB     47       SAPS     H12Y     HAL2     0.900000E-01   1.00800           0
      8127 MEMB     47       SAPS     C313     CTL2    -0.180000       12.0110           0
      8128 MEMB     47       SAPS     H13X     HAL2     0.900000E-01   1.00800           0
      8129 MEMB     47       SAPS     H13Y     HAL2     0.900000E-01   1.00800           0
      8130 MEMB     47       SAPS     C314     CTL2    -0.180000       12.0110           0
      8131 MEMB     47       SAPS     H14X     HAL2     0.900000E-01   1.00800           0
      8132 MEMB     47       SAPS     H14Y     HAL2     0.900000E-01   1.00800           0
      8133 MEMB     47       SAPS     C315     CTL2    -0.180000       12.0110           0
      8134 MEMB     47       SAPS     H15X     HAL2     0.900000E-01   1.00800           0
      8135 MEMB     47       SAPS     H15Y     HAL2     0.900000E-01   1.00800           0
      8136 MEMB     47       SAPS     C316     CTL2    -0.180000       12.0110           0
      8137 MEMB     47       SAPS     H16X     HAL2     0.900000E-01   1.00800           0
      8138 MEMB     47       SAPS     H16Y     HAL2     0.900000E-01   1.00800           0
      8139 MEMB     47       SAPS     C317     CTL2    -0.180000       12.0110           0
      8140 MEMB     47       SAPS     H17X     HAL2     0.900000E-01   1.00800           0
      8141 MEMB     47       SAPS     H17Y     HAL2     0.900000E-01   1.00800           0
      8142 MEMB     47       SAPS     C318     CTL3    -0.270000       12.0110           0
      8143 MEMB     47       SAPS     H18X     HAL3     0.900000E-01   1.00800           0
      8144 MEMB     47       SAPS     H18Y     HAL3     0.900000E-01   1.00800           0
      8145 MEMB     47       SAPS     H18Z     HAL3     0.900000E-01   1.00800           0
      8146 MEMB     49       SAPS     N        NH3L    -0.300000       14.0070           0
      8147 MEMB     49       SAPS     HN1      HCL      0.330000       1.00800           0
      8148 MEMB     49       SAPS     HN2      HCL      0.330000       1.00800           0
      8149 MEMB     49       SAPS     HN3      HCL      0.330000       1.00800           0
      8150 MEMB     49       SAPS     C12      CTL1     0.210000       12.0110           0
      8151 MEMB     49       SAPS     H12A     HBL      0.100000       1.00800           0
      8152 MEMB     49       SAPS     C13      CCL      0.340000       12.0110           0
      8153 MEMB     49       SAPS     O13A     OCL     -0.670000       15.9994           0
      8154 MEMB     49       SAPS     O13B     OCL     -0.670000       15.9994           0
      8155 MEMB     49       SAPS     C11      CTL2    -0.800000E-01   12.0110           0
      8156 MEMB     49       SAPS     H11A     HAL2     0.900000E-01   1.00800           0
      8157 MEMB     49       SAPS     H11B     HAL2     0.900000E-01   1.00800           0
      8158 MEMB     49       SAPS     P        PL       1.500000       30.9740           0
      8159 MEMB     49       SAPS     O13      O2L     -0.780000       15.9994           0
      8160 MEMB     49       SAPS     O14      O2L     -0.780000       15.9994           0
      8161 MEMB     49       SAPS     O12      OSLP    -0.570000       15.9994           0
      8162 MEMB     49       SAPS     O11      OSLP    -0.570000       15.9994           0
      8163 MEMB     49       SAPS     C1       CTL2    -0.800000E-01   12.0110           0
      8164 MEMB     49       SAPS     HA       HAL2     0.900000E-01   1.00800           0
      8165 MEMB     49       SAPS     HB       HAL2     0.900000E-01   1.00800           0
      8166 MEMB     49       SAPS     C2       CTL1     0.170000       12.0110           0
      8167 MEMB     49       SAPS     HS       HAL1     0.900000E-01   1.00800           0
      8168 MEMB     49       SAPS     O21      OSL     -0.490000       15.9994           0
      8169 MEMB     49       SAPS     C21      CL       0.900000       12.0110           0
      8170 MEMB     49       SAPS     O22      OBL     -0.630000       15.9994           0
      8171 MEMB     49       SAPS     C22      CTL2    -0.220000       12.0110           0
      8172 MEMB     49       SAPS     H2R      HAL2     0.900000E-01   1.00800           0
      8173 MEMB     49       SAPS     H2S      HAL2     0.900000E-01   1.00800           0
      8174 MEMB     49       SAPS     C3       CTL2     0.800000E-01   12.0110           0
      8175 MEMB     49       SAPS     HX       HAL2     0.900000E-01   1.00800           0
      8176 MEMB     49       SAPS     HY       HAL2     0.900000E-01   1.00800           0
      8177 MEMB     49       SAPS     O31      OSL     -0.490000       15.9994           0
      8178 MEMB     49       SAPS     C31      CL       0.900000       12.0110           0
      8179 MEMB     49       SAPS     O32      OBL     -0.630000       15.9994           0
      8180 MEMB     49       SAPS     C32      CTL2    -0.220000       12.0110           0
      8181 MEMB     49       SAPS     H2X      HAL2     0.900000E-01   1.00800           0
      8182 MEMB     49       SAPS     H2Y      HAL2     0.900000E-01   1.00800           0
      8183 MEMB     49       SAPS     C23      CTL2    -0.180000       12.0110           0
      8184 MEMB     49       SAPS     H3R      HAL2     0.900000E-01   1.00800           0
      8185 MEMB     49       SAPS     H3S      HAL2     0.900000E-01   1.00800           0
      8186 MEMB     49       SAPS     C24      CTL2    -0.180000       12.0110           0
      8187 MEMB     49       SAPS     H4R      HAL2     0.900000E-01   1.00800           0
      8188 MEMB     49       SAPS     H4S      HAL2     0.900000E-01   1.00800           0
      8189 MEMB     49       SAPS     C25      CEL1    -0.150000       12.0110           0
      8190 MEMB     49       SAPS     H5R      HEL1     0.150000       1.00800           0
      8191 MEMB     49       SAPS     C26      CEL1    -0.150000       12.0110           0
      8192 MEMB     49       SAPS     H6R      HEL1     0.150000       1.00800           0
      8193 MEMB     49       SAPS     C27      CTL2    -0.180000       12.0110           0
      8194 MEMB     49       SAPS     H7R      HAL2     0.900000E-01   1.00800           0
      8195 MEMB     49       SAPS     H7S      HAL2     0.900000E-01   1.00800           0
      8196 MEMB     49       SAPS     C28      CEL1    -0.150000       12.0110           0
      8197 MEMB     49       SAPS     H8R      HEL1     0.150000       1.00800           0
      8198 MEMB     49       SAPS     C29      CEL1    -0.150000       12.0110           0
      8199 MEMB     49       SAPS     H9R      HEL1     0.150000       1.00800           0
      8200 MEMB     49       SAPS     C210     CTL2    -0.180000       12.0110           0
      8201 MEMB     49       SAPS     H10R     HAL2     0.900000E-01   1.00800           0
      8202 MEMB     49       SAPS     H10S     HAL2     0.900000E-01   1.00800           0
      8203 MEMB     49       SAPS     C211     CEL1    -0.150000       12.0110           0
      8204 MEMB     49       SAPS     H11R     HEL1     0.150000       1.00800           0
      8205 MEMB     49       SAPS     C212     CEL1    -0.150000       12.0110           0
      8206 MEMB     49       SAPS     H12R     HEL1     0.150000       1.00800           0
      8207 MEMB     49       SAPS     C213     CTL2    -0.180000       12.0110           0
      8208 MEMB     49       SAPS     H13R     HAL2     0.900000E-01   1.00800           0
      8209 MEMB     49       SAPS     H13S     HAL2     0.900000E-01   1.00800           0
      8210 MEMB     49       SAPS     C214     CEL1    -0.150000       12.0110           0
      8211 MEMB     49       SAPS     H14R     HEL1     0.150000       1.00800           0
      8212 MEMB     49       SAPS     C215     CEL1    -0.150000       12.0110           0
      8213 MEMB     49       SAPS     H15R     HEL1     0.150000       1.00800           0
      8214 MEMB     49       SAPS     C216     CTL2    -0.180000       12.0110           0
      8215 MEMB     49       SAPS     H16R     HAL2     0.900000E-01   1.00800           0
      8216 MEMB     49       SAPS     H16S     HAL2     0.900000E-01   1.00800           0
      8217 MEMB     49       SAPS     C217     CTL2    -0.180000       12.0110           0
      8218 MEMB     49       SAPS     H17R     HAL2     0.900000E-01   1.00800           0
      8219 MEMB     49       SAPS     H17S     HAL2     0.900000E-01   1.00800           0
      8220 MEMB     49       SAPS     C218     CTL2    -0.180000       12.0110           0
      8221 MEMB     49       SAPS     H18R     HAL2     0.900000E-01   1.00800           0
      8222 MEMB     49       SAPS     H18S     HAL2     0.900000E-01   1.00800           0
      8223 MEMB     49       SAPS     C219     CTL2    -0.180000       12.0110           0
      8224 MEMB     49       SAPS     H19R     HAL2     0.900000E-01   1.00800           0
      8225 MEMB     49       SAPS     H19S     HAL2     0.900000E-01   1.00800           0
      8226 MEMB     49       SAPS     C220     CTL3    -0.270000       12.0110           0
      8227 MEMB     49       SAPS     H20R     HAL3     0.900000E-01   1.00800           0
      8228 MEMB     49       SAPS     H20S     HAL3     0.900000E-01   1.00800           0
      8229 MEMB     49       SAPS     H20T     HAL3     0.900000E-01   1.00800           0
      8230 MEMB     49       SAPS     C33      CTL2    -0.180000       12.0110           0
      8231 MEMB     49       SAPS     H3X      HAL2     0.900000E-01   1.00800           0
      8232 MEMB     49       SAPS     H3Y      HAL2     0.900000E-01   1.00800           0
      8233 MEMB     49       SAPS     C34      CTL2    -0.180000       12.0110           0
      8234 MEMB     49       SAPS     H4X      HAL2     0.900000E-01   1.00800           0
      8235 MEMB     49       SAPS     H4Y      HAL2     0.900000E-01   1.00800           0
      8236 MEMB     49       SAPS     C35      CTL2    -0.180000       12.0110           0
      8237 MEMB     49       SAPS     H5X      HAL2     0.900000E-01   1.00800           0
      8238 MEMB     49       SAPS     H5Y      HAL2     0.900000E-01   1.00800           0
      8239 MEMB     49       SAPS     C36      CTL2    -0.180000       12.0110           0
      8240 MEMB     49       SAPS     H6X      HAL2     0.900000E-01   1.00800           0
      8241 MEMB     49       SAPS     H6Y      HAL2     0.900000E-01   1.00800           0
      8242 MEMB     49       SAPS     C37      CTL2    -0.180000       12.0110           0
      8243 MEMB     49       SAPS     H7X      HAL2     0.900000E-01   1.00800           0
      8244 MEMB     49       SAPS     H7Y      HAL2     0.900000E-01   1.00800           0
      8245 MEMB     49       SAPS     C38      CTL2    -0.180000       12.0110           0
      8246 MEMB     49       SAPS     H8X      HAL2     0.900000E-01   1.00800           0
      8247 MEMB     49       SAPS     H8Y      HAL2     0.900000E-01   1.00800           0
      8248 MEMB     49       SAPS     C39      CTL2    -0.180000       12.0110           0
      8249 MEMB     49       SAPS     H9X      HAL2     0.900000E-01   1.00800           0
      8250 MEMB     49       SAPS     H9Y      HAL2     0.900000E-01   1.00800           0
      8251 MEMB     49       SAPS     C310     CTL2    -0.180000       12.0110           0
      8252 MEMB     49       SAPS     H10X     HAL2     0.900000E-01   1.00800           0
      8253 MEMB     49       SAPS     H10Y     HAL2     0.900000E-01   1.00800           0
      8254 MEMB     49       SAPS     C311     CTL2    -0.180000       12.0110           0
      8255 MEMB     49       SAPS     H11X     HAL2     0.900000E-01   1.00800           0
      8256 MEMB     49       SAPS     H11Y     HAL2     0.900000E-01   1.00800           0
      8257 MEMB     49       SAPS     C312     CTL2    -0.180000       12.0110           0
      8258 MEMB     49       SAPS     H12X     HAL2     0.900000E-01   1.00800           0
      8259 MEMB     49       SAPS     H12Y     HAL2     0.900000E-01   1.00800           0
      8260 MEMB     49       SAPS     C313     CTL2    -0.180000       12.0110           0
      8261 MEMB     49       SAPS     H13X     HAL2     0.900000E-01   1.00800           0
      8262 MEMB     49       SAPS     H13Y     HAL2     0.900000E-01   1.00800           0
      8263 MEMB     49       SAPS     C314     CTL2    -0.180000       12.0110           0
      8264 MEMB     49       SAPS     H14X     HAL2     0.900000E-01   1.00800           0
      8265 MEMB     49       SAPS     H14Y     HAL2     0.900000E-01   1.00800           0
      8266 MEMB     49       SAPS     C315     CTL2    -0.180000       12.0110           0
      8267 MEMB     49       SAPS     H15X     HAL2     0.900000E-01   1.00800           0
      8268 MEMB     49       SAPS     H15Y     HAL2     0.900000E-01   1.00800           0
      8269 MEMB     49       SAPS     C316     CTL2    -0.180000       12.0110           0
      8270 MEMB     49       SAPS     H16X     HAL2     0.900000E-01   1.00800           0
      8271 MEMB     49       SAPS     H16Y     HAL2     0.900000E-01   1.00800           0
      8272 MEMB     49       SAPS     C317     CTL2    -0.180000       12.0110           0
      8273 MEMB     49       SAPS     H17X     HAL2     0.900000E-01   1.00800           0
      8274 MEMB     49       SAPS     H17Y     HAL2     0.900000E-01   1.00800           0
      8275 MEMB     49       SAPS     C318     CTL3    -0.270000       12.0110           0
      8276 MEMB     49       SAPS     H18X     HAL3     0.900000E-01   1.00800           0
      8277 MEMB     49       SAPS     H18Y     HAL3     0.900000E-01   1.00800           0
      8278 MEMB     49       SAPS     H18Z     HAL3     0.900000E-01   1.00800           0
      8279 MEMB     78       SAPS     N        NH3L    -0.300000       14.0070           0
      8280 MEMB     78       SAPS     HN1      HCL      0.330000       1.00800           0
      8281 MEMB     78       SAPS     HN2      HCL      0.330000       1.00800           0
      8282 MEMB     78       SAPS     HN3      HCL      0.330000       1.00800           0
      8283 MEMB     78       SAPS     C12      CTL1     0.210000       12.0110           0
      8284 MEMB     78       SAPS     H12A     HBL      0.100000       1.00800           0
      8285 MEMB     78       SAPS     C13      CCL      0.340000       12.0110           0
      8286 MEMB     78       SAPS     O13A     OCL     -0.670000       15.9994           0
      8287 MEMB     78       SAPS     O13B     OCL     -0.670000       15.9994           0
      8288 MEMB     78       SAPS     C11      CTL2    -0.800000E-01   12.0110           0
      8289 MEMB     78       SAPS     H11A     HAL2     0.900000E-01   1.00800           0
      8290 MEMB     78       SAPS     H11B     HAL2     0.900000E-01   1.00800           0
      8291 MEMB     78       SAPS     P        PL       1.500000       30.9740           0
      8292 MEMB     78       SAPS     O13      O2L     -0.780000       15.9994           0
      8293 MEMB     78       SAPS     O14      O2L     -0.780000       15.9994           0
      8294 MEMB     78       SAPS     O12      OSLP    -0.570000       15.9994           0
      8295 MEMB     78       SAPS     O11      OSLP    -0.570000       15.9994           0
      8296 MEMB     78       SAPS     C1       CTL2    -0.800000E-01   12.0110           0
      8297 MEMB     78       SAPS     HA       HAL2     0.900000E-01   1.00800           0
      8298 MEMB     78       SAPS     HB       HAL2     0.900000E-01   1.00800           0
      8299 MEMB     78       SAPS     C2       CTL1     0.170000       12.0110           0
      8300 MEMB     78       SAPS     HS       HAL1     0.900000E-01   1.00800           0
      8301 MEMB     78       SAPS     O21      OSL     -0.490000       15.9994           0
      8302 MEMB     78       SAPS     C21      CL       0.900000       12.0110           0
      8303 MEMB     78       SAPS     O22      OBL     -0.630000       15.9994           0
      8304 MEMB     78       SAPS     C22      CTL2    -0.220000       12.0110           0
      8305 MEMB     78       SAPS     H2R      HAL2     0.900000E-01   1.00800           0
      8306 MEMB     78       SAPS     H2S      HAL2     0.900000E-01   1.00800           0
      8307 MEMB     78       SAPS     C3       CTL2     0.800000E-01   12.0110           0
      8308 MEMB     78       SAPS     HX       HAL2     0.900000E-01   1.00800           0
      8309 MEMB     78       SAPS     HY       HAL2     0.900000E-01   1.00800           0
      8310 MEMB     78       SAPS     O31      OSL     -0.490000       15.9994           0
      8311 MEMB     78       SAPS     C31      CL       0.900000       12.0110           0
      8312 MEMB     78       SAPS     O32      OBL     -0.630000       15.9994           0
      8313 MEMB     78       SAPS     C32      CTL2    -0.220000       12.0110           0
      8314 MEMB     78       SAPS     H2X      HAL2     0.900000E-01   1.00800           0
      8315 MEMB     78       SAPS     H2Y      HAL2     0.900000E-01   1.00800           0
      8316 MEMB     78       SAPS     C23      CTL2    -0.180000       12.0110           0
      8317 MEMB     78       SAPS     H3R      HAL2     0.900000E-01   1.00800           0
      8318 MEMB     78       SAPS     H3S      HAL2     0.900000E-01   1.00800           0
      8319 MEMB     78       SAPS     C24      CTL2    -0.180000       12.0110           0
      8320 MEMB     78       SAPS     H4R      HAL2     0.900000E-01   1.00800           0
      8321 MEMB     78       SAPS     H4S      HAL2     0.900000E-01   1.00800           0
      8322 MEMB     78       SAPS     C25      CEL1    -0.150000       12.0110           0
      8323 MEMB     78       SAPS     H5R      HEL1     0.150000       1.00800           0
      8324 MEMB     78       SAPS     C26      CEL1    -0.150000       12.0110           0
      8325 MEMB     78       SAPS     H6R      HEL1     0.150000       1.00800           0
      8326 MEMB     78       SAPS     C27      CTL2    -0.180000       12.0110           0
      8327 MEMB     78       SAPS     H7R      HAL2     0.900000E-01   1.00800           0
      8328 MEMB     78       SAPS     H7S      HAL2     0.900000E-01   1.00800           0
      8329 MEMB     78       SAPS     C28      CEL1    -0.150000       12.0110           0
      8330 MEMB     78       SAPS     H8R      HEL1     0.150000       1.00800           0
      8331 MEMB     78       SAPS     C29      CEL1    -0.150000       12.0110           0
      8332 MEMB     78       SAPS     H9R      HEL1     0.150000       1.00800           0
      8333 MEMB     78       SAPS     C210     CTL2    -0.180000       12.0110           0
      8334 MEMB     78       SAPS     H10R     HAL2     0.900000E-01   1.00800           0
      8335 MEMB     78       SAPS     H10S     HAL2     0.900000E-01   1.00800           0
      8336 MEMB     78       SAPS     C211     CEL1    -0.150000       12.0110           0
      8337 MEMB     78       SAPS     H11R     HEL1     0.150000       1.00800           0
      8338 MEMB     78       SAPS     C212     CEL1    -0.150000       12.0110           0
      8339 MEMB     78       SAPS     H12R     HEL1     0.150000       1.00800           0
      8340 MEMB     78       SAPS     C213     CTL2    -0.180000       12.0110           0
      8341 MEMB     78       SAPS     H13R     HAL2     0.900000E-01   1.00800           0
      8342 MEMB     78       SAPS     H13S     HAL2     0.900000E-01   1.00800           0
      8343 MEMB     78       SAPS     C214     CEL1    -0.150000       12.0110           0
      8344 MEMB     78       SAPS     H14R     HEL1     0.150000       1.00800           0
      8345 MEMB     78       SAPS     C215     CEL1    -0.150000       12.0110           0
      8346 MEMB     78       SAPS     H15R     HEL1     0.150000       1.00800           0
      8347 MEMB     78       SAPS     C216     CTL2    -0.180000       12.0110           0
      8348 MEMB     78       SAPS     H16R     HAL2     0.900000E-01   1.00800           0
      8349 MEMB     78       SAPS     H16S     HAL2     0.900000E-01   1.00800           0
      8350 MEMB     78       SAPS     C217     CTL2    -0.180000       12.0110           0
      8351 MEMB     78       SAPS     H17R     HAL2     0.900000E-01   1.00800           0
      8352 MEMB     78       SAPS     H17S     HAL2     0.900000E-01   1.00800           0
      8353 MEMB     78       SAPS     C218     CTL2    -0.180000       12.0110           0
      8354 MEMB     78       SAPS     H18R     HAL2     0.900000E-01   1.00800           0
      8355 MEMB     78       SAPS     H18S     HAL2     0.900000E-01   1.00800           0
      8356 MEMB     78       SAPS     C219     CTL2    -0.180000       12.0110           0
      8357 MEMB     78       SAPS     H19R     HAL2     0.900000E-01   1.00800           0
      8358 MEMB     78       SAPS     H19S     HAL2     0.900000E-01   1.00800           0
      8359 MEMB     78       SAPS     C220     CTL3    -0.270000       12.0110           0
      8360 MEMB     78       SAPS     H20R     HAL3     0.900000E-01   1.00800           0
      8361 MEMB     78       SAPS     H20S     HAL3     0.900000E-01   1.00800           0
      8362 MEMB     78       SAPS     H20T     HAL3     0.900000E-01   1.00800           0
      8363 MEMB     78       SAPS     C33      CTL2    -0.180000       12.0110           0
      8364 MEMB     78       SAPS     H3X      HAL2     0.900000E-01   1.00800           0
      8365 MEMB     78       SAPS     H3Y      HAL2     0.900000E-01   1.00800           0
      8366 MEMB     78       SAPS     C34      CTL2    -0.180000       12.0110           0
      8367 MEMB     78       SAPS     H4X      HAL2     0.900000E-01   1.00800           0
      8368 MEMB     78       SAPS     H4Y      HAL2     0.900000E-01   1.00800           0
      8369 MEMB     78       SAPS     C35      CTL2    -0.180000       12.0110           0
      8370 MEMB     78       SAPS     H5X      HAL2     0.900000E-01   1.00800           0
      8371 MEMB     78       SAPS     H5Y      HAL2     0.900000E-01   1.00800           0
      8372 MEMB     78       SAPS     C36      CTL2    -0.180000       12.0110           0
      8373 MEMB     78       SAPS     H6X      HAL2     0.900000E-01   1.00800           0
      8374 MEMB     78       SAPS     H6Y      HAL2     0.900000E-01   1.00800           0
      8375 MEMB     78       SAPS     C37      CTL2    -0.180000       12.0110           0
      8376 MEMB     78       SAPS     H7X      HAL2     0.900000E-01   1.00800           0
      8377 MEMB     78       SAPS     H7Y      HAL2     0.900000E-01   1.00800           0
      8378 MEMB     78       SAPS     C38      CTL2    -0.180000       12.0110           0
      8379 MEMB     78       SAPS     H8X      HAL2     0.900000E-01   1.00800           0
      8380 MEMB     78       SAPS     H8Y      HAL2     0.900000E-01   1.00800           0
      8381 MEMB     78       SAPS     C39      CTL2    -0.180000       12.0110           0
      8382 MEMB     78       SAPS     H9X      HAL2     0.900000E-01   1.00800           0
      8383 MEMB     78       SAPS     H9Y      HAL2     0.900000E-01   1.00800           0
      8384 MEMB     78       SAPS     C310     CTL2    -0.180000       12.0110           0
      8385 MEMB     78       SAPS     H10X     HAL2     0.900000E-01   1.00800           0
      8386 MEMB     78       SAPS     H10Y     HAL2     0.900000E-01   1.00800           0
      8387 MEMB     78       SAPS     C311     CTL2    -0.180000       12.0110           0
      8388 MEMB     78       SAPS     H11X     HAL2     0.900000E-01   1.00800           0
      8389 MEMB     78       SAPS     H11Y     HAL2     0.900000E-01   1.00800           0
      8390 MEMB     78       SAPS     C312     CTL2    -0.180000       12.0110           0
      8391 MEMB     78       SAPS     H12X     HAL2     0.900000E-01   1.00800           0
      8392 MEMB     78       SAPS     H12Y     HAL2     0.900000E-01   1.00800           0
      8393 MEMB     78       SAPS     C313     CTL2    -0.180000       12.0110           0
      8394 MEMB     78       SAPS     H13X     HAL2     0.900000E-01   1.00800           0
      8395 MEMB     78       SAPS     H13Y     HAL2     0.900000E-01   1.00800           0
      8396 MEMB     78       SAPS     C314     CTL2    -0.180000       12.0110           0
      8397 MEMB     78       SAPS     H14X     HAL2     0.900000E-01   1.00800           0
      8398 MEMB     78       SAPS     H14Y     HAL2     0.900000E-01   1.00800           0
      8399 MEMB     78       SAPS     C315     CTL2    -0.180000       12.0110           0
      8400 MEMB     78       SAPS     H15X     HAL2     0.900000E-01   1.00800           0
      8401 MEMB     78       SAPS     H15Y     HAL2     0.900000E-01   1.00800           0
      8402 MEMB     78       SAPS     C316     CTL2    -0.180000       12.0110           0
      8403 MEMB     78       SAPS     H16X     HAL2     0.900000E-01   1.00800           0
      8404 MEMB     78       SAPS     H16Y     HAL2     0.900000E-01   1.00800           0
      8405 MEMB     78       SAPS     C317     CTL2    -0.180000       12.0110           0
      8406 MEMB     78       SAPS     H17X     HAL2     0.900000E-01   1.00800           0
      8407 MEMB     78       SAPS     H17Y     HAL2     0.900000E-01   1.00800           0
      8408 MEMB     78       SAPS     C318     CTL3    -0.270000       12.0110           0
      8409 MEMB     78       SAPS     H18X     HAL3     0.900000E-01   1.00800           0
      8410 MEMB     78       SAPS     H18Y     HAL3     0.900000E-01   1.00800           0
      8411 MEMB     78       SAPS     H18Z     HAL3     0.900000E-01   1.00800           0
      8412 MEMB     79       SAPS     N        NH3L    -0.300000       14.0070           0
      8413 MEMB     79       SAPS     HN1      HCL      0.330000       1.00800           0
      8414 MEMB     79       SAPS     HN2      HCL      0.330000       1.00800           0
      8415 MEMB     79       SAPS     HN3      HCL      0.330000       1.00800           0
      8416 MEMB     79       SAPS     C12      CTL1     0.210000       12.0110           0
      8417 MEMB     79       SAPS     H12A     HBL      0.100000       1.00800           0
      8418 MEMB     79       SAPS     C13      CCL      0.340000       12.0110           0
      8419 MEMB     79       SAPS     O13A     OCL     -0.670000       15.9994           0
      8420 MEMB     79       SAPS     O13B     OCL     -0.670000       15.9994           0
      8421 MEMB     79       SAPS     C11      CTL2    -0.800000E-01   12.0110           0
      8422 MEMB     79       SAPS     H11A     HAL2     0.900000E-01   1.00800           0
      8423 MEMB     79       SAPS     H11B     HAL2     0.900000E-01   1.00800           0
      8424 MEMB     79       SAPS     P        PL       1.500000       30.9740           0
      8425 MEMB     79       SAPS     O13      O2L     -0.780000       15.9994           0
      8426 MEMB     79       SAPS     O14      O2L     -0.780000       15.9994           0
      8427 MEMB     79       SAPS     O12      OSLP    -0.570000       15.9994           0
      8428 MEMB     79       SAPS     O11      OSLP    -0.570000       15.9994           0
      8429 MEMB     79       SAPS     C1       CTL2    -0.800000E-01   12.0110           0
      8430 MEMB     79       SAPS     HA       HAL2     0.900000E-01   1.00800           0
      8431 MEMB     79       SAPS     HB       HAL2     0.900000E-01   1.00800           0
      8432 MEMB     79       SAPS     C2       CTL1     0.170000       12.0110           0
      8433 MEMB     79       SAPS     HS       HAL1     0.900000E-01   1.00800           0
      8434 MEMB     79       SAPS     O21      OSL     -0.490000       15.9994           0
      8435 MEMB     79       SAPS     C21      CL       0.900000       12.0110           0
      8436 MEMB     79       SAPS     O22      OBL     -0.630000       15.9994           0
      8437 MEMB     79       SAPS     C22      CTL2    -0.220000       12.0110           0
      8438 MEMB     79       SAPS     H2R      HAL2     0.900000E-01   1.00800           0
      8439 MEMB     79       SAPS     H2S      HAL2     0.900000E-01   1.00800           0
      8440 MEMB     79       SAPS     C3       CTL2     0.800000E-01   12.0110           0
      8441 MEMB     79       SAPS     HX       HAL2     0.900000E-01   1.00800           0
      8442 MEMB     79       SAPS     HY       HAL2     0.900000E-01   1.00800           0
      8443 MEMB     79       SAPS     O31      OSL     -0.490000       15.9994           0
      8444 MEMB     79       SAPS     C31      CL       0.900000       12.0110           0
      8445 MEMB     79       SAPS     O32      OBL     -0.630000       15.9994           0
      8446 MEMB     79       SAPS     C32      CTL2    -0.220000       12.0110           0
      8447 MEMB     79       SAPS     H2X      HAL2     0.900000E-01   1.00800           0
      8448 MEMB     79       SAPS     H2Y      HAL2     0.900000E-01   1.00800           0
      8449 MEMB     79       SAPS     C23      CTL2    -0.180000       12.0110           0
      8450 MEMB     79       SAPS     H3R      HAL2     0.900000E-01   1.00800           0
      8451 MEMB     79       SAPS     H3S      HAL2     0.900000E-01   1.00800           0
      8452 MEMB     79       SAPS     C24      CTL2    -0.180000       12.0110           0
      8453 MEMB     79       SAPS     H4R      HAL2     0.900000E-01   1.00800           0
      8454 MEMB     79       SAPS     H4S      HAL2     0.900000E-01   1.00800           0
      8455 MEMB     79       SAPS     C25      CEL1    -0.150000       12.0110           0
      8456 MEMB     79       SAPS     H5R      HEL1     0.150000       1.00800           0
      8457 MEMB     79       SAPS     C26      CEL1    -0.150000       12.0110           0
      8458 MEMB     79       SAPS     H6R      HEL1     0.150000       1.00800           0
      8459 MEMB     79       SAPS     C27      CTL2    -0.180000       12.0110           0
      8460 MEMB     79       SAPS     H7R      HAL2     0.900000E-01   1.00800           0
      8461 MEMB     79       SAPS     H7S      HAL2     0.900000E-01   1.00800           0
      8462 MEMB     79       SAPS     C28      CEL1    -0.150000       12.0110           0
      8463 MEMB     79       SAPS     H8R      HEL1     0.150000       1.00800           0
      8464 MEMB     79       SAPS     C29      CEL1    -0.150000       12.0110           0
      8465 MEMB     79       SAPS     H9R      HEL1     0.150000       1.00800           0
      8466 MEMB     79       SAPS     C210     CTL2    -0.180000       12.0110           0
      8467 MEMB     79       SAPS     H10R     HAL2     0.900000E-01   1.00800           0
      8468 MEMB     79       SAPS     H10S     HAL2     0.900000E-01   1.00800           0
      8469 MEMB     79       SAPS     C211     CEL1    -0.150000       12.0110           0
      8470 MEMB     79       SAPS     H11R     HEL1     0.150000       1.00800           0
      8471 MEMB     79       SAPS     C212     CEL1    -0.150000       12.0110           0
      8472 MEMB     79       SAPS     H12R     HEL1     0.150000       1.00800           0
      8473 MEMB     79       SAPS     C213     CTL2    -0.180000       12.0110           0
      8474 MEMB     79       SAPS     H13R     HAL2     0.900000E-01   1.00800           0
      8475 MEMB     79       SAPS     H13S     HAL2     0.900000E-01   1.00800           0
      8476 MEMB     79       SAPS     C214     CEL1    -0.150000       12.0110           0
      8477 MEMB     79       SAPS     H14R     HEL1     0.150000       1.00800           0
      8478 MEMB     79       SAPS     C215     CEL1    -0.150000       12.0110           0
      8479 MEMB     79       SAPS     H15R     HEL1     0.150000       1.00800           0
      8480 MEMB     79       SAPS     C216     CTL2    -0.180000       12.0110           0
      8481 MEMB     79       SAPS     H16R     HAL2     0.900000E-01   1.00800           0
      8482 MEMB     79       SAPS     H16S     HAL2     0.900000E-01   1.00800           0
      8483 MEMB     79       SAPS     C217     CTL2    -0.180000       12.0110           0
      8484 MEMB     79       SAPS     H17R     HAL2     0.900000E-01   1.00800           0
      8485 MEMB     79       SAPS     H17S     HAL2     0.900000E-01   1.00800           0
      8486 MEMB     79       SAPS     C218     CTL2    -0.180000       12.0110           0
      8487 MEMB     79       SAPS     H18R     HAL2     0.900000E-01   1.00800           0
      8488 MEMB     79       SAPS     H18S     HAL2     0.900000E-01   1.00800           0
      8489 MEMB     79       SAPS     C219     CTL2    -0.180000       12.0110           0
      8490 MEMB     79       SAPS     H19R     HAL2     0.900000E-01   1.00800           0
      8491 MEMB     79       SAPS     H19S     HAL2     0.900000E-01   1.00800           0
      8492 MEMB     79       SAPS     C220     CTL3    -0.270000       12.0110           0
      8493 MEMB     79       SAPS     H20R     HAL3     0.900000E-01   1.00800           0
      8494 MEMB     79       SAPS     H20S     HAL3     0.900000E-01   1.00800           0
      8495 MEMB     79       SAPS     H20T     HAL3     0.900000E-01   1.00800           0
      8496 MEMB     79       SAPS     C33      CTL2    -0.180000       12.0110           0
      8497 MEMB     79       SAPS     H3X      HAL2     0.900000E-01   1.00800           0
      8498 MEMB     79       SAPS     H3Y      HAL2     0.900000E-01   1.00800           0
      8499 MEMB     79       SAPS     C34      CTL2    -0.180000       12.0110           0
      8500 MEMB     79       SAPS     H4X      HAL2     0.900000E-01   1.00800           0
      8501 MEMB     79       SAPS     H4Y      HAL2     0.900000E-01   1.00800           0
      8502 MEMB     79       SAPS     C35      CTL2    -0.180000       12.0110           0
      8503 MEMB     79       SAPS     H5X      HAL2     0.900000E-01   1.00800           0
      8504 MEMB     79       SAPS     H5Y      HAL2     0.900000E-01   1.00800           0
      8505 MEMB     79       SAPS     C36      CTL2    -0.180000       12.0110           0
      8506 MEMB     79       SAPS     H6X      HAL2     0.900000E-01   1.00800           0
      8507 MEMB     79       SAPS     H6Y      HAL2     0.900000E-01   1.00800           0
      8508 MEMB     79       SAPS     C37      CTL2    -0.180000       12.0110           0
      8509 MEMB     79       SAPS     H7X      HAL2     0.900000E-01   1.00800           0
      8510 MEMB     79       SAPS     H7Y      HAL2     0.900000E-01   1.00800           0
      8511 MEMB     79       SAPS     C38      CTL2    -0.180000       12.0110           0
      8512 MEMB     79       SAPS     H8X      HAL2     0.900000E-01   1.00800           0
      8513 MEMB     79       SAPS     H8Y      HAL2     0.900000E-01   1.00800           0
      8514 MEMB     79       SAPS     C39      CTL2    -0.180000       12.0110           0
      8515 MEMB     79       SAPS     H9X      HAL2     0.900000E-01   1.00800           0
      8516 MEMB     79       SAPS     H9Y      HAL2     0.900000E-01   1.00800           0
      8517 MEMB     79       SAPS     C310     CTL2    -0.180000       12.0110           0
      8518 MEMB     79       SAPS     H10X     HAL2     0.900000E-01   1.00800           0
      8519 MEMB     79       SAPS     H10Y     HAL2     0.900000E-01   1.00800           0
      8520 MEMB     79       SAPS     C311     CTL2    -0.180000       12.0110           0
      8521 MEMB     79       SAPS     H11X     HAL2     0.900000E-01   1.00800           0
      8522 MEMB     79       SAPS     H11Y     HAL2     0.900000E-01   1.00800           0
      8523 MEMB     79       SAPS     C312     CTL2    -0.180000       12.0110           0
      8524 MEMB     79       SAPS     H12X     HAL2     0.900000E-01   1.00800           0
      8525 MEMB     79       SAPS     H12Y     HAL2     0.900000E-01   1.00800           0
      8526 MEMB     79       SAPS     C313     CTL2    -0.180000       12.0110           0
      8527 MEMB     79       SAPS     H13X     HAL2     0.900000E-01   1.00800           0
      8528 MEMB     79       SAPS     H13Y     HAL2     0.900000E-01   1.00800           0
      8529 MEMB     79       SAPS     C314     CTL2    -0.180000       12.0110           0
      8530 MEMB     79       SAPS     H14X     HAL2     0.900000E-01   1.00800           0
      8531 MEMB     79       SAPS     H14Y     HAL2     0.900000E-01   1.00800           0
      8532 MEMB     79       SAPS     C315     CTL2    -0.180000       12.0110           0
      8533 MEMB     79       SAPS     H15X     HAL2     0.900000E-01   1.00800           0
      8534 MEMB     79       SAPS     H15Y     HAL2     0.900000E-01   1.00800           0
      8535 MEMB     79       SAPS     C316     CTL2    -0.180000       12.0110           0
      8536 MEMB     79       SAPS     H16X     HAL2     0.900000E-01   1.00800           0
      8537 MEMB     79       SAPS     H16Y     HAL2     0.900000E-01   1.00800           0
      8538 MEMB     79       SAPS     C317     CTL2    -0.180000       12.0110           0
      8539 MEMB     79       SAPS     H17X     HAL2     0.900000E-01   1.00800           0
      8540 MEMB     79       SAPS     H17Y     HAL2     0.900000E-01   1.00800           0
      8541 MEMB     79       SAPS     C318     CTL3    -0.270000       12.0110           0
      8542 MEMB     79       SAPS     H18X     HAL3     0.900000E-01   1.00800           0
      8543 MEMB     79       SAPS     H18Y     HAL3     0.900000E-01   1.00800           0
      8544 MEMB     79       SAPS     H18Z     HAL3     0.900000E-01   1.00800           0
      8545 MEMB     91       SAPS     N        NH3L    -0.300000       14.0070           0
      8546 MEMB     91       SAPS     HN1      HCL      0.330000       1.00800           0
      8547 MEMB     91       SAPS     HN2      HCL      0.330000       1.00800           0
      8548 MEMB     91       SAPS     HN3      HCL      0.330000       1.00800           0
      8549 MEMB     91       SAPS     C12      CTL1     0.210000       12.0110           0
      8550 MEMB     91       SAPS     H12A     HBL      0.100000       1.00800           0
      8551 MEMB     91       SAPS     C13      CCL      0.340000       12.0110           0
      8552 MEMB     91       SAPS     O13A     OCL     -0.670000       15.9994           0
      8553 MEMB     91       SAPS     O13B     OCL     -0.670000       15.9994           0
      8554 MEMB     91       SAPS     C11      CTL2    -0.800000E-01   12.0110           0
      8555 MEMB     91       SAPS     H11A     HAL2     0.900000E-01   1.00800           0
      8556 MEMB     91       SAPS     H11B     HAL2     0.900000E-01   1.00800           0
      8557 MEMB     91       SAPS     P        PL       1.500000       30.9740           0
      8558 MEMB     91       SAPS     O13      O2L     -0.780000       15.9994           0
      8559 MEMB     91       SAPS     O14      O2L     -0.780000       15.9994           0
      8560 MEMB     91       SAPS     O12      OSLP    -0.570000       15.9994           0
      8561 MEMB     91       SAPS     O11      OSLP    -0.570000       15.9994           0
      8562 MEMB     91       SAPS     C1       CTL2    -0.800000E-01   12.0110           0
      8563 MEMB     91       SAPS     HA       HAL2     0.900000E-01   1.00800           0
      8564 MEMB     91       SAPS     HB       HAL2     0.900000E-01   1.00800           0
      8565 MEMB     91       SAPS     C2       CTL1     0.170000       12.0110           0
      8566 MEMB     91       SAPS     HS       HAL1     0.900000E-01   1.00800           0
      8567 MEMB     91       SAPS     O21      OSL     -0.490000       15.9994           0
      8568 MEMB     91       SAPS     C21      CL       0.900000       12.0110           0
      8569 MEMB     91       SAPS     O22      OBL     -0.630000       15.9994           0
      8570 MEMB     91       SAPS     C22      CTL2    -0.220000       12.0110           0
      8571 MEMB     91       SAPS     H2R      HAL2     0.900000E-01   1.00800           0
      8572 MEMB     91       SAPS     H2S      HAL2     0.900000E-01   1.00800           0
      8573 MEMB     91       SAPS     C3       CTL2     0.800000E-01   12.0110           0
      8574 MEMB     91       SAPS     HX       HAL2     0.900000E-01   1.00800           0
      8575 MEMB     91       SAPS     HY       HAL2     0.900000E-01   1.00800           0
      8576 MEMB     91       SAPS     O31      OSL     -0.490000       15.9994           0
      8577 MEMB     91       SAPS     C31      CL       0.900000       12.0110           0
      8578 MEMB     91       SAPS     O32      OBL     -0.630000       15.9994           0
      8579 MEMB     91       SAPS     C32      CTL2    -0.220000       12.0110           0
      8580 MEMB     91       SAPS     H2X      HAL2     0.900000E-01   1.00800           0
      8581 MEMB     91       SAPS     H2Y      HAL2     0.900000E-01   1.00800           0
      8582 MEMB     91       SAPS     C23      CTL2    -0.180000       12.0110           0
      8583 MEMB     91       SAPS     H3R      HAL2     0.900000E-01   1.00800           0
      8584 MEMB     91       SAPS     H3S      HAL2     0.900000E-01   1.00800           0
      8585 MEMB     91       SAPS     C24      CTL2    -0.180000       12.0110           0
      8586 MEMB     91       SAPS     H4R      HAL2     0.900000E-01   1.00800           0
      8587 MEMB     91       SAPS     H4S      HAL2     0.900000E-01   1.00800           0
      8588 MEMB     91       SAPS     C25      CEL1    -0.150000       12.0110           0
      8589 MEMB     91       SAPS     H5R      HEL1     0.150000       1.00800           0
      8590 MEMB     91       SAPS     C26      CEL1    -0.150000       12.0110           0
      8591 MEMB     91       SAPS     H6R      HEL1     0.150000       1.00800           0
      8592 MEMB     91       SAPS     C27      CTL2    -0.180000       12.0110           0
      8593 MEMB     91       SAPS     H7R      HAL2     0.900000E-01   1.00800           0
      8594 MEMB     91       SAPS     H7S      HAL2     0.900000E-01   1.00800           0
      8595 MEMB     91       SAPS     C28      CEL1    -0.150000       12.0110           0
      8596 MEMB     91       SAPS     H8R      HEL1     0.150000       1.00800           0
      8597 MEMB     91       SAPS     C29      CEL1    -0.150000       12.0110           0
      8598 MEMB     91       SAPS     H9R      HEL1     0.150000       1.00800           0
      8599 MEMB     91       SAPS     C210     CTL2    -0.180000       12.0110           0
      8600 MEMB     91       SAPS     H10R     HAL2     0.900000E-01   1.00800           0
      8601 MEMB     91       SAPS     H10S     HAL2     0.900000E-01   1.00800           0
      8602 MEMB     91       SAPS     C211     CEL1    -0.150000       12.0110           0
      8603 MEMB     91       SAPS     H11R     HEL1     0.150000       1.00800           0
      8604 MEMB     91       SAPS     C212     CEL1    -0.150000       12.0110           0
      8605 MEMB     91       SAPS     H12R     HEL1     0.150000       1.00800           0
      8606 MEMB     91       SAPS     C213     CTL2    -0.180000       12.0110           0
      8607 MEMB     91       SAPS     H13R     HAL2     0.900000E-01   1.00800           0
      8608 MEMB     91       SAPS     H13S     HAL2     0.900000E-01   1.00800           0
      8609 MEMB     91       SAPS     C214     CEL1    -0.150000       12.0110           0
      8610 MEMB     91       SAPS     H14R     HEL1     0.150000       1.00800           0
      8611 MEMB     91       SAPS     C215     CEL1    -0.150000       12.0110           0
      8612 MEMB     91       SAPS     H15R     HEL1     0.150000       1.00800           0
      8613 MEMB     91       SAPS     C216     CTL2    -0.180000       12.0110           0
      8614 MEMB     91       SAPS     H16R     HAL2     0.900000E-01   1.00800           0
      8615 MEMB     91       SAPS     H16S     HAL2     0.900000E-01   1.00800           0
      8616 MEMB     91       SAPS     C217     CTL2    -0.180000       12.0110           0
      8617 MEMB     91       SAPS     H17R     HAL2     0.900000E-01   1.00800           0
      8618 MEMB     91       SAPS     H17S     HAL2     0.900000E-01   1.00800           0
      8619 MEMB     91       SAPS     C218     CTL2    -0.180000       12.0110           0
      8620 MEMB     91       SAPS     H18R     HAL2     0.900000E-01   1.00800           0
      8621 MEMB     91       SAPS     H18S     HAL2     0.900000E-01   1.00800           0
      8622 MEMB     91       SAPS     C219     CTL2    -0.180000       12.0110           0
      8623 MEMB     91       SAPS     H19R     HAL2     0.900000E-01   1.00800           0
      8624 MEMB     91       SAPS     H19S     HAL2     0.900000E-01   1.00800           0
      8625 MEMB     91       SAPS     C220     CTL3    -0.270000       12.0110           0
      8626 MEMB     91       SAPS     H20R     HAL3     0.900000E-01   1.00800           0
      8627 MEMB     91       SAPS     H20S     HAL3     0.900000E-01   1.00800           0
      8628 MEMB     91       SAPS     H20T     HAL3     0.900000E-01   1.00800           0
      8629 MEMB     91       SAPS     C33      CTL2    -0.180000       12.0110           0
      8630 MEMB     91       SAPS     H3X      HAL2     0.900000E-01   1.00800           0
      8631 MEMB     91       SAPS     H3Y      HAL2     0.900000E-01   1.00800           0
      8632 MEMB     91       SAPS     C34      CTL2    -0.180000       12.0110           0
      8633 MEMB     91       SAPS     H4X      HAL2     0.900000E-01   1.00800           0
      8634 MEMB     91       SAPS     H4Y      HAL2     0.900000E-01   1.00800           0
      8635 MEMB     91       SAPS     C35      CTL2    -0.180000       12.0110           0
      8636 MEMB     91       SAPS     H5X      HAL2     0.900000E-01   1.00800           0
      8637 MEMB     91       SAPS     H5Y      HAL2     0.900000E-01   1.00800           0
      8638 MEMB     91       SAPS     C36      CTL2    -0.180000       12.0110           0
      8639 MEMB     91       SAPS     H6X      HAL2     0.900000E-01   1.00800           0
      8640 MEMB     91       SAPS     H6Y      HAL2     0.900000E-01   1.00800           0
      8641 MEMB     91       SAPS     C37      CTL2    -0.180000       12.0110           0
      8642 MEMB     91       SAPS     H7X      HAL2     0.900000E-01   1.00800           0
      8643 MEMB     91       SAPS     H7Y      HAL2     0.900000E-01   1.00800           0
      8644 MEMB     91       SAPS     C38      CTL2    -0.180000       12.0110           0
      8645 MEMB     91       SAPS     H8X      HAL2     0.900000E-01   1.00800           0
      8646 MEMB     91       SAPS     H8Y      HAL2     0.900000E-01   1.00800           0
      8647 MEMB     91       SAPS     C39      CTL2    -0.180000       12.0110           0
      8648 MEMB     91       SAPS     H9X      HAL2     0.900000E-01   1.00800           0
      8649 MEMB     91       SAPS     H9Y      HAL2     0.900000E-01   1.00800           0
      8650 MEMB     91       SAPS     C310     CTL2    -0.180000       12.0110           0
      8651 MEMB     91       SAPS     H10X     HAL2     0.900000E-01   1.00800           0
      8652 MEMB     91       SAPS     H10Y     HAL2     0.900000E-01   1.00800           0
      8653 MEMB     91       SAPS     C311     CTL2    -0.180000       12.0110           0
      8654 MEMB     91       SAPS     H11X     HAL2     0.900000E-01   1.00800           0
      8655 MEMB     91       SAPS     H11Y     HAL2     0.900000E-01   1.00800           0
      8656 MEMB     91       SAPS     C312     CTL2    -0.180000       12.0110           0
      8657 MEMB     91       SAPS     H12X     HAL2     0.900000E-01   1.00800           0
      8658 MEMB     91       SAPS     H12Y     HAL2     0.900000E-01   1.00800           0
      8659 MEMB     91       SAPS     C313     CTL2    -0.180000       12.0110           0
      8660 MEMB     91       SAPS     H13X     HAL2     0.900000E-01   1.00800           0
      8661 MEMB     91       SAPS     H13Y     HAL2     0.900000E-01   1.00800           0
      8662 MEMB     91       SAPS     C314     CTL2    -0.180000       12.0110           0
      8663 MEMB     91       SAPS     H14X     HAL2     0.900000E-01   1.00800           0
      8664 MEMB     91       SAPS     H14Y     HAL2     0.900000E-01   1.00800           0
      8665 MEMB     91       SAPS     C315     CTL2    -0.180000       12.0110           0
      8666 MEMB     91       SAPS     H15X     HAL2     0.900000E-01   1.00800           0
      8667 MEMB     91       SAPS     H15Y     HAL2     0.900000E-01   1.00800           0
      8668 MEMB     91       SAPS     C316     CTL2    -0.180000       12.0110           0
      8669 MEMB     91       SAPS     H16X     HAL2     0.900000E-01   1.00800           0
      8670 MEMB     91       SAPS     H16Y     HAL2     0.900000E-01   1.00800           0
      8671 MEMB     91       SAPS     C317     CTL2    -0.180000       12.0110           0
      8672 MEMB     91       SAPS     H17X     HAL2     0.900000E-01   1.00800           0
      8673 MEMB     91       SAPS     H17Y     HAL2     0.900000E-01   1.00800           0
      8674 MEMB     91       SAPS     C318     CTL3    -0.270000       12.0110           0
      8675 MEMB     91       SAPS     H18X     HAL3     0.900000E-01   1.00800           0
      8676 MEMB     91       SAPS     H18Y     HAL3     0.900000E-01   1.00800           0
      8677 MEMB     91       SAPS     H18Z     HAL3     0.900000E-01   1.00800           0
      8678 MEMB     94       SAPS     N        NH3L    -0.300000       14.0070           0
      8679 MEMB     94       SAPS     HN1      HCL      0.330000       1.00800           0
      8680 MEMB     94       SAPS     HN2      HCL      0.330000       1.00800           0
      8681 MEMB     94       SAPS     HN3      HCL      0.330000       1.00800           0
      8682 MEMB     94       SAPS     C12      CTL1     0.210000       12.0110           0
      8683 MEMB     94       SAPS     H12A     HBL      0.100000       1.00800           0
      8684 MEMB     94       SAPS     C13      CCL      0.340000       12.0110           0
      8685 MEMB     94       SAPS     O13A     OCL     -0.670000       15.9994           0
      8686 MEMB     94       SAPS     O13B     OCL     -0.670000       15.9994           0
      8687 MEMB     94       SAPS     C11      CTL2    -0.800000E-01   12.0110           0
      8688 MEMB     94       SAPS     H11A     HAL2     0.900000E-01   1.00800           0
      8689 MEMB     94       SAPS     H11B     HAL2     0.900000E-01   1.00800           0
      8690 MEMB     94       SAPS     P        PL       1.500000       30.9740           0
      8691 MEMB     94       SAPS     O13      O2L     -0.780000       15.9994           0
      8692 MEMB     94       SAPS     O14      O2L     -0.780000       15.9994           0
      8693 MEMB     94       SAPS     O12      OSLP    -0.570000       15.9994           0
      8694 MEMB     94       SAPS     O11      OSLP    -0.570000       15.9994           0
      8695 MEMB     94       SAPS     C1       CTL2    -0.800000E-01   12.0110           0
      8696 MEMB     94       SAPS     HA       HAL2     0.900000E-01   1.00800           0
      8697 MEMB     94       SAPS     HB       HAL2     0.900000E-01   1.00800           0
      8698 MEMB     94       SAPS     C2       CTL1     0.170000       12.0110           0
      8699 MEMB     94       SAPS     HS       HAL1     0.900000E-01   1.00800           0
      8700 MEMB     94       SAPS     O21      OSL     -0.490000       15.9994           0
      8701 MEMB     94       SAPS     C21      CL       0.900000       12.0110           0
      8702 MEMB     94       SAPS     O22      OBL     -0.630000       15.9994           0
      8703 MEMB     94       SAPS     C22      CTL2    -0.220000       12.0110           0
      8704 MEMB     94       SAPS     H2R      HAL2     0.900000E-01   1.00800           0
      8705 MEMB     94       SAPS     H2S      HAL2     0.900000E-01   1.00800           0
      8706 MEMB     94       SAPS     C3       CTL2     0.800000E-01   12.0110           0
      8707 MEMB     94       SAPS     HX       HAL2     0.900000E-01   1.00800           0
      8708 MEMB     94       SAPS     HY       HAL2     0.900000E-01   1.00800           0
      8709 MEMB     94       SAPS     O31      OSL     -0.490000       15.9994           0
      8710 MEMB     94       SAPS     C31      CL       0.900000       12.0110           0
      8711 MEMB     94       SAPS     O32      OBL     -0.630000       15.9994           0
      8712 MEMB     94       SAPS     C32      CTL2    -0.220000       12.0110           0
      8713 MEMB     94       SAPS     H2X      HAL2     0.900000E-01   1.00800           0
      8714 MEMB     94       SAPS     H2Y      HAL2     0.900000E-01   1.00800           0
      8715 MEMB     94       SAPS     C23      CTL2    -0.180000       12.0110           0
      8716 MEMB     94       SAPS     H3R      HAL2     0.900000E-01   1.00800           0
      8717 MEMB     94       SAPS     H3S      HAL2     0.900000E-01   1.00800           0
      8718 MEMB     94       SAPS     C24      CTL2    -0.180000       12.0110           0
      8719 MEMB     94       SAPS     H4R      HAL2     0.900000E-01   1.00800           0
      8720 MEMB     94       SAPS     H4S      HAL2     0.900000E-01   1.00800           0
      8721 MEMB     94       SAPS     C25      CEL1    -0.150000       12.0110           0
      8722 MEMB     94       SAPS     H5R      HEL1     0.150000       1.00800           0
      8723 MEMB     94       SAPS     C26      CEL1    -0.150000       12.0110           0
      8724 MEMB     94       SAPS     H6R      HEL1     0.150000       1.00800           0
      8725 MEMB     94       SAPS     C27      CTL2    -0.180000       12.0110           0
      8726 MEMB     94       SAPS     H7R      HAL2     0.900000E-01   1.00800           0
      8727 MEMB     94       SAPS     H7S      HAL2     0.900000E-01   1.00800           0
      8728 MEMB     94       SAPS     C28      CEL1    -0.150000       12.0110           0
      8729 MEMB     94       SAPS     H8R      HEL1     0.150000       1.00800           0
      8730 MEMB     94       SAPS     C29      CEL1    -0.150000       12.0110           0
      8731 MEMB     94       SAPS     H9R      HEL1     0.150000       1.00800           0
      8732 MEMB     94       SAPS     C210     CTL2    -0.180000       12.0110           0
      8733 MEMB     94       SAPS     H10R     HAL2     0.900000E-01   1.00800           0
      8734 MEMB     94       SAPS     H10S     HAL2     0.900000E-01   1.00800           0
      8735 MEMB     94       SAPS     C211     CEL1    -0.150000       12.0110           0
      8736 MEMB     94       SAPS     H11R     HEL1     0.150000       1.00800           0
      8737 MEMB     94       SAPS     C212     CEL1    -0.150000       12.0110           0
      8738 MEMB     94       SAPS     H12R     HEL1     0.150000       1.00800           0
      8739 MEMB     94       SAPS     C213     CTL2    -0.180000       12.0110           0
      8740 MEMB     94       SAPS     H13R     HAL2     0.900000E-01   1.00800           0
      8741 MEMB     94       SAPS     H13S     HAL2     0.900000E-01   1.00800           0
      8742 MEMB     94       SAPS     C214     CEL1    -0.150000       12.0110           0
      8743 MEMB     94       SAPS     H14R     HEL1     0.150000       1.00800           0
      8744 MEMB     94       SAPS     C215     CEL1    -0.150000       12.0110           0
      8745 MEMB     94       SAPS     H15R     HEL1     0.150000       1.00800           0
      8746 MEMB     94       SAPS     C216     CTL2    -0.180000       12.0110           0
      8747 MEMB     94       SAPS     H16R     HAL2     0.900000E-01   1.00800           0
      8748 MEMB     94       SAPS     H16S     HAL2     0.900000E-01   1.00800           0
      8749 MEMB     94       SAPS     C217     CTL2    -0.180000       12.0110           0
      8750 MEMB     94       SAPS     H17R     HAL2     0.900000E-01   1.00800           0
      8751 MEMB     94       SAPS     H17S     HAL2     0.900000E-01   1.00800           0
      8752 MEMB     94       SAPS     C218     CTL2    -0.180000       12.0110           0
      8753 MEMB     94       SAPS     H18R     HAL2     0.900000E-01   1.00800           0
      8754 MEMB     94       SAPS     H18S     HAL2     0.900000E-01   1.00800           0
      8755 MEMB     94       SAPS     C219     CTL2    -0.180000       12.0110           0
      8756 MEMB     94       SAPS     H19R     HAL2     0.900000E-01   1.00800           0
      8757 MEMB     94       SAPS     H19S     HAL2     0.900000E-01   1.00800           0
      8758 MEMB     94       SAPS     C220     CTL3    -0.270000       12.0110           0
      8759 MEMB     94       SAPS     H20R     HAL3     0.900000E-01   1.00800           0
      8760 MEMB     94       SAPS     H20S     HAL3     0.900000E-01   1.00800           0
      8761 MEMB     94       SAPS     H20T     HAL3     0.900000E-01   1.00800           0
      8762 MEMB     94       SAPS     C33      CTL2    -0.180000       12.0110           0
      8763 MEMB     94       SAPS     H3X      HAL2     0.900000E-01   1.00800           0
      8764 MEMB     94       SAPS     H3Y      HAL2     0.900000E-01   1.00800           0
      8765 MEMB     94       SAPS     C34      CTL2    -0.180000       12.0110           0
      8766 MEMB     94       SAPS     H4X      HAL2     0.900000E-01   1.00800           0
      8767 MEMB     94       SAPS     H4Y      HAL2     0.900000E-01   1.00800           0
      8768 MEMB     94       SAPS     C35      CTL2    -0.180000       12.0110           0
      8769 MEMB     94       SAPS     H5X      HAL2     0.900000E-01   1.00800           0
      8770 MEMB     94       SAPS     H5Y      HAL2     0.900000E-01   1.00800           0
      8771 MEMB     94       SAPS     C36      CTL2    -0.180000       12.0110           0
      8772 MEMB     94       SAPS     H6X      HAL2     0.900000E-01   1.00800           0
      8773 MEMB     94       SAPS     H6Y      HAL2     0.900000E-01   1.00800           0
      8774 MEMB     94       SAPS     C37      CTL2    -0.180000       12.0110           0
      8775 MEMB     94       SAPS     H7X      HAL2     0.900000E-01   1.00800           0
      8776 MEMB     94       SAPS     H7Y      HAL2     0.900000E-01   1.00800           0
      8777 MEMB     94       SAPS     C38      CTL2    -0.180000       12.0110           0
      8778 MEMB     94       SAPS     H8X      HAL2     0.900000E-01   1.00800           0
      8779 MEMB     94       SAPS     H8Y      HAL2     0.900000E-01   1.00800           0
      8780 MEMB     94       SAPS     C39      CTL2    -0.180000       12.0110           0
      8781 MEMB     94       SAPS     H9X      HAL2     0.900000E-01   1.00800           0
      8782 MEMB     94       SAPS     H9Y      HAL2     0.900000E-01   1.00800           0
      8783 MEMB     94       SAPS     C310     CTL2    -0.180000       12.0110           0
      8784 MEMB     94       SAPS     H10X     HAL2     0.900000E-01   1.00800           0
      8785 MEMB     94       SAPS     H10Y     HAL2     0.900000E-01   1.00800           0
      8786 MEMB     94       SAPS     C311     CTL2    -0.180000       12.0110           0
      8787 MEMB     94       SAPS     H11X     HAL2     0.900000E-01   1.00800           0
      8788 MEMB     94       SAPS     H11Y     HAL2     0.900000E-01   1.00800           0
      8789 MEMB     94       SAPS     C312     CTL2    -0.180000       12.0110           0
      8790 MEMB     94       SAPS     H12X     HAL2     0.900000E-01   1.00800           0
      8791 MEMB     94       SAPS     H12Y     HAL2     0.900000E-01   1.00800           0
      8792 MEMB     94       SAPS     C313     CTL2    -0.180000       12.0110           0
      8793 MEMB     94       SAPS     H13X     HAL2     0.900000E-01   1.00800           0
      8794 MEMB     94       SAPS     H13Y     HAL2     0.900000E-01   1.00800           0
      8795 MEMB     94       SAPS     C314     CTL2    -0.180000       12.0110           0
      8796 MEMB     94       SAPS     H14X     HAL2     0.900000E-01   1.00800           0
      8797 MEMB     94       SAPS     H14Y     HAL2     0.900000E-01   1.00800           0
      8798 MEMB     94       SAPS     C315     CTL2    -0.180000       12.0110           0
      8799 MEMB     94       SAPS     H15X     HAL2     0.900000E-01   1.00800           0
      8800 MEMB     94       SAPS     H15Y     HAL2     0.900000E-01   1.00800           0
      8801 MEMB     94       SAPS     C316     CTL2    -0.180000       12.0110           0
      8802 MEMB     94       SAPS     H16X     HAL2     0.900000E-01   1.00800           0
      8803 MEMB     94       SAPS     H16Y     HAL2     0.900000E-01   1.00800           0
      8804 MEMB     94       SAPS     C317     CTL2    -0.180000       12.0110           0
      8805 MEMB     94       SAPS     H17X     HAL2     0.900000E-01   1.00800           0
      8806 MEMB     94       SAPS     H17Y     HAL2     0.900000E-01   1.00800           0
      8807 MEMB     94       SAPS     C318     CTL3    -0.270000       12.0110           0
      8808 MEMB     94       SAPS     H18X     HAL3     0.900000E-01   1.00800           0
      8809 MEMB     94       SAPS     H18Y     HAL3     0.900000E-01   1.00800           0
      8810 MEMB     94       SAPS     H18Z     HAL3     0.900000E-01   1.00800           0
      8811 MEMB     97       SAPS     N        NH3L    -0.300000       14.0070           0
      8812 MEMB     97       SAPS     HN1      HCL      0.330000       1.00800           0
      8813 MEMB     97       SAPS     HN2      HCL      0.330000       1.00800           0
      8814 MEMB     97       SAPS     HN3      HCL      0.330000       1.00800           0
      8815 MEMB     97       SAPS     C12      CTL1     0.210000       12.0110           0
      8816 MEMB     97       SAPS     H12A     HBL      0.100000       1.00800           0
      8817 MEMB     97       SAPS     C13      CCL      0.340000       12.0110           0
      8818 MEMB     97       SAPS     O13A     OCL     -0.670000       15.9994           0
      8819 MEMB     97       SAPS     O13B     OCL     -0.670000       15.9994           0
      8820 MEMB     97       SAPS     C11      CTL2    -0.800000E-01   12.0110           0
      8821 MEMB     97       SAPS     H11A     HAL2     0.900000E-01   1.00800           0
      8822 MEMB     97       SAPS     H11B     HAL2     0.900000E-01   1.00800           0
      8823 MEMB     97       SAPS     P        PL       1.500000       30.9740           0
      8824 MEMB     97       SAPS     O13      O2L     -0.780000       15.9994           0
      8825 MEMB     97       SAPS     O14      O2L     -0.780000       15.9994           0
      8826 MEMB     97       SAPS     O12      OSLP    -0.570000       15.9994           0
      8827 MEMB     97       SAPS     O11      OSLP    -0.570000       15.9994           0
      8828 MEMB     97       SAPS     C1       CTL2    -0.800000E-01   12.0110           0
      8829 MEMB     97       SAPS     HA       HAL2     0.900000E-01   1.00800           0
      8830 MEMB     97       SAPS     HB       HAL2     0.900000E-01   1.00800           0
      8831 MEMB     97       SAPS     C2       CTL1     0.170000       12.0110           0
      8832 MEMB     97       SAPS     HS       HAL1     0.900000E-01   1.00800           0
      8833 MEMB     97       SAPS     O21      OSL     -0.490000       15.9994           0
      8834 MEMB     97       SAPS     C21      CL       0.900000       12.0110           0
      8835 MEMB     97       SAPS     O22      OBL     -0.630000       15.9994           0
      8836 MEMB     97       SAPS     C22      CTL2    -0.220000       12.0110           0
      8837 MEMB     97       SAPS     H2R      HAL2     0.900000E-01   1.00800           0
      8838 MEMB     97       SAPS     H2S      HAL2     0.900000E-01   1.00800           0
      8839 MEMB     97       SAPS     C3       CTL2     0.800000E-01   12.0110           0
      8840 MEMB     97       SAPS     HX       HAL2     0.900000E-01   1.00800           0
      8841 MEMB     97       SAPS     HY       HAL2     0.900000E-01   1.00800           0
      8842 MEMB     97       SAPS     O31      OSL     -0.490000       15.9994           0
      8843 MEMB     97       SAPS     C31      CL       0.900000       12.0110           0
      8844 MEMB     97       SAPS     O32      OBL     -0.630000       15.9994           0
      8845 MEMB     97       SAPS     C32      CTL2    -0.220000       12.0110           0
      8846 MEMB     97       SAPS     H2X      HAL2     0.900000E-01   1.00800           0
      8847 MEMB     97       SAPS     H2Y      HAL2     0.900000E-01   1.00800           0
      8848 MEMB     97       SAPS     C23      CTL2    -0.180000       12.0110           0
      8849 MEMB     97       SAPS     H3R      HAL2     0.900000E-01   1.00800           0
      8850 MEMB     97       SAPS     H3S      HAL2     0.900000E-01   1.00800           0
      8851 MEMB     97       SAPS     C24      CTL2    -0.180000       12.0110           0
      8852 MEMB     97       SAPS     H4R      HAL2     0.900000E-01   1.00800           0
      8853 MEMB     97       SAPS     H4S      HAL2     0.900000E-01   1.00800           0
      8854 MEMB     97       SAPS     C25      CEL1    -0.150000       12.0110           0
      8855 MEMB     97       SAPS     H5R      HEL1     0.150000       1.00800           0
      8856 MEMB     97       SAPS     C26      CEL1    -0.150000       12.0110           0
      8857 MEMB     97       SAPS     H6R      HEL1     0.150000       1.00800           0
      8858 MEMB     97       SAPS     C27      CTL2    -0.180000       12.0110           0
      8859 MEMB     97       SAPS     H7R      HAL2     0.900000E-01   1.00800           0
      8860 MEMB     97       SAPS     H7S      HAL2     0.900000E-01   1.00800           0
      8861 MEMB     97       SAPS     C28      CEL1    -0.150000       12.0110           0
      8862 MEMB     97       SAPS     H8R      HEL1     0.150000       1.00800           0
      8863 MEMB     97       SAPS     C29      CEL1    -0.150000       12.0110           0
      8864 MEMB     97       SAPS     H9R      HEL1     0.150000       1.00800           0
      8865 MEMB     97       SAPS     C210     CTL2    -0.180000       12.0110           0
      8866 MEMB     97       SAPS     H10R     HAL2     0.900000E-01   1.00800           0
      8867 MEMB     97       SAPS     H10S     HAL2     0.900000E-01   1.00800           0
      8868 MEMB     97       SAPS     C211     CEL1    -0.150000       12.0110           0
      8869 MEMB     97       SAPS     H11R     HEL1     0.150000       1.00800           0
      8870 MEMB     97       SAPS     C212     CEL1    -0.150000       12.0110           0
      8871 MEMB     97       SAPS     H12R     HEL1     0.150000       1.00800           0
      8872 MEMB     97       SAPS     C213     CTL2    -0.180000       12.0110           0
      8873 MEMB     97       SAPS     H13R     HAL2     0.900000E-01   1.00800           0
      8874 MEMB     97       SAPS     H13S     HAL2     0.900000E-01   1.00800           0
      8875 MEMB     97       SAPS     C214     CEL1    -0.150000       12.0110           0
      8876 MEMB     97       SAPS     H14R     HEL1     0.150000       1.00800           0
      8877 MEMB     97       SAPS     C215     CEL1    -0.150000       12.0110           0
      8878 MEMB     97       SAPS     H15R     HEL1     0.150000       1.00800           0
      8879 MEMB     97       SAPS     C216     CTL2    -0.180000       12.0110           0
      8880 MEMB     97       SAPS     H16R     HAL2     0.900000E-01   1.00800           0
      8881 MEMB     97       SAPS     H16S     HAL2     0.900000E-01   1.00800           0
      8882 MEMB     97       SAPS     C217     CTL2    -0.180000       12.0110           0
      8883 MEMB     97       SAPS     H17R     HAL2     0.900000E-01   1.00800           0
      8884 MEMB     97       SAPS     H17S     HAL2     0.900000E-01   1.00800           0
      8885 MEMB     97       SAPS     C218     CTL2    -0.180000       12.0110           0
      8886 MEMB     97       SAPS     H18R     HAL2     0.900000E-01   1.00800           0
      8887 MEMB     97       SAPS     H18S     HAL2     0.900000E-01   1.00800           0
      8888 MEMB     97       SAPS     C219     CTL2    -0.180000       12.0110           0
      8889 MEMB     97       SAPS     H19R     HAL2     0.900000E-01   1.00800           0
      8890 MEMB     97       SAPS     H19S     HAL2     0.900000E-01   1.00800           0
      8891 MEMB     97       SAPS     C220     CTL3    -0.270000       12.0110           0
      8892 MEMB     97       SAPS     H20R     HAL3     0.900000E-01   1.00800           0
      8893 MEMB     97       SAPS     H20S     HAL3     0.900000E-01   1.00800           0
      8894 MEMB     97       SAPS     H20T     HAL3     0.900000E-01   1.00800           0
      8895 MEMB     97       SAPS     C33      CTL2    -0.180000       12.0110           0
      8896 MEMB     97       SAPS     H3X      HAL2     0.900000E-01   1.00800           0
      8897 MEMB     97       SAPS     H3Y      HAL2     0.900000E-01   1.00800           0
      8898 MEMB     97       SAPS     C34      CTL2    -0.180000       12.0110           0
      8899 MEMB     97       SAPS     H4X      HAL2     0.900000E-01   1.00800           0
      8900 MEMB     97       SAPS     H4Y      HAL2     0.900000E-01   1.00800           0
      8901 MEMB     97       SAPS     C35      CTL2    -0.180000       12.0110           0
      8902 MEMB     97       SAPS     H5X      HAL2     0.900000E-01   1.00800           0
      8903 MEMB     97       SAPS     H5Y      HAL2     0.900000E-01   1.00800           0
      8904 MEMB     97       SAPS     C36      CTL2    -0.180000       12.0110           0
      8905 MEMB     97       SAPS     H6X      HAL2     0.900000E-01   1.00800           0
      8906 MEMB     97       SAPS     H6Y      HAL2     0.900000E-01   1.00800           0
      8907 MEMB     97       SAPS     C37      CTL2    -0.180000       12.0110           0
      8908 MEMB     97       SAPS     H7X      HAL2     0.900000E-01   1.00800           0
      8909 MEMB     97       SAPS     H7Y      HAL2     0.900000E-01   1.00800           0
      8910 MEMB     97       SAPS     C38      CTL2    -0.180000       12.0110           0
      8911 MEMB     97       SAPS     H8X      HAL2     0.900000E-01   1.00800           0
      8912 MEMB     97       SAPS     H8Y      HAL2     0.900000E-01   1.00800           0
      8913 MEMB     97       SAPS     C39      CTL2    -0.180000       12.0110           0
      8914 MEMB     97       SAPS     H9X      HAL2     0.900000E-01   1.00800           0
      8915 MEMB     97       SAPS     H9Y      HAL2     0.900000E-01   1.00800           0
      8916 MEMB     97       SAPS     C310     CTL2    -0.180000       12.0110           0
      8917 MEMB     97       SAPS     H10X     HAL2     0.900000E-01   1.00800           0
      8918 MEMB     97       SAPS     H10Y     HAL2     0.900000E-01   1.00800           0
      8919 MEMB     97       SAPS     C311     CTL2    -0.180000       12.0110           0
      8920 MEMB     97       SAPS     H11X     HAL2     0.900000E-01   1.00800           0
      8921 MEMB     97       SAPS     H11Y     HAL2     0.900000E-01   1.00800           0
      8922 MEMB     97       SAPS     C312     CTL2    -0.180000       12.0110           0
      8923 MEMB     97       SAPS     H12X     HAL2     0.900000E-01   1.00800           0
      8924 MEMB     97       SAPS     H12Y     HAL2     0.900000E-01   1.00800           0
      8925 MEMB     97       SAPS     C313     CTL2    -0.180000       12.0110           0
      8926 MEMB     97       SAPS     H13X     HAL2     0.900000E-01   1.00800           0
      8927 MEMB     97       SAPS     H13Y     HAL2     0.900000E-01   1.00800           0
      8928 MEMB     97       SAPS     C314     CTL2    -0.180000       12.0110           0
      8929 MEMB     97       SAPS     H14X     HAL2     0.900000E-01   1.00800           0
      8930 MEMB     97       SAPS     H14Y     HAL2     0.900000E-01   1.00800           0
      8931 MEMB     97       SAPS     C315     CTL2    -0.180000       12.0110           0
      8932 MEMB     97       SAPS     H15X     HAL2     0.900000E-01   1.00800           0
      8933 MEMB     97       SAPS     H15Y     HAL2     0.900000E-01   1.00800           0
      8934 MEMB     97       SAPS     C316     CTL2    -0.180000       12.0110           0
      8935 MEMB     97       SAPS     H16X     HAL2     0.900000E-01   1.00800           0
      8936 MEMB     97       SAPS     H16Y     HAL2     0.900000E-01   1.00800           0
      8937 MEMB     97       SAPS     C317     CTL2    -0.180000       12.0110           0
      8938 MEMB     97       SAPS     H17X     HAL2     0.900000E-01   1.00800           0
      8939 MEMB     97       SAPS     H17Y     HAL2     0.900000E-01   1.00800           0
      8940 MEMB     97       SAPS     C318     CTL3    -0.270000       12.0110           0
      8941 MEMB     97       SAPS     H18X     HAL3     0.900000E-01   1.00800           0
      8942 MEMB     97       SAPS     H18Y     HAL3     0.900000E-01   1.00800           0
      8943 MEMB     97       SAPS     H18Z     HAL3     0.900000E-01   1.00800           0
      8944 MEMB     102      SAPS     N        NH3L    -0.300000       14.0070           0
      8945 MEMB     102      SAPS     HN1      HCL      0.330000       1.00800           0
      8946 MEMB     102      SAPS     HN2      HCL      0.330000       1.00800           0
      8947 MEMB     102      SAPS     HN3      HCL      0.330000       1.00800           0
      8948 MEMB     102      SAPS     C12      CTL1     0.210000       12.0110           0
      8949 MEMB     102      SAPS     H12A     HBL      0.100000       1.00800           0
      8950 MEMB     102      SAPS     C13      CCL      0.340000       12.0110           0
      8951 MEMB     102      SAPS     O13A     OCL     -0.670000       15.9994           0
      8952 MEMB     102      SAPS     O13B     OCL     -0.670000       15.9994           0
      8953 MEMB     102      SAPS     C11      CTL2    -0.800000E-01   12.0110           0
      8954 MEMB     102      SAPS     H11A     HAL2     0.900000E-01   1.00800           0
      8955 MEMB     102      SAPS     H11B     HAL2     0.900000E-01   1.00800           0
      8956 MEMB     102      SAPS     P        PL       1.500000       30.9740           0
      8957 MEMB     102      SAPS     O13      O2L     -0.780000       15.9994           0
      8958 MEMB     102      SAPS     O14      O2L     -0.780000       15.9994           0
      8959 MEMB     102      SAPS     O12      OSLP    -0.570000       15.9994           0
      8960 MEMB     102      SAPS     O11      OSLP    -0.570000       15.9994           0
      8961 MEMB     102      SAPS     C1       CTL2    -0.800000E-01   12.0110           0
      8962 MEMB     102      SAPS     HA       HAL2     0.900000E-01   1.00800           0
      8963 MEMB     102      SAPS     HB       HAL2     0.900000E-01   1.00800           0
      8964 MEMB     102      SAPS     C2       CTL1     0.170000       12.0110           0
      8965 MEMB     102      SAPS     HS       HAL1     0.900000E-01   1.00800           0
      8966 MEMB     102      SAPS     O21      OSL     -0.490000       15.9994           0
      8967 MEMB     102      SAPS     C21      CL       0.900000       12.0110           0
      8968 MEMB     102      SAPS     O22      OBL     -0.630000       15.9994           0
      8969 MEMB     102      SAPS     C22      CTL2    -0.220000       12.0110           0
      8970 MEMB     102      SAPS     H2R      HAL2     0.900000E-01   1.00800           0
      8971 MEMB     102      SAPS     H2S      HAL2     0.900000E-01   1.00800           0
      8972 MEMB     102      SAPS     C3       CTL2     0.800000E-01   12.0110           0
      8973 MEMB     102      SAPS     HX       HAL2     0.900000E-01   1.00800           0
      8974 MEMB     102      SAPS     HY       HAL2     0.900000E-01   1.00800           0
      8975 MEMB     102      SAPS     O31      OSL     -0.490000       15.9994           0
      8976 MEMB     102      SAPS     C31      CL       0.900000       12.0110           0
      8977 MEMB     102      SAPS     O32      OBL     -0.630000       15.9994           0
      8978 MEMB     102      SAPS     C32      CTL2    -0.220000       12.0110           0
      8979 MEMB     102      SAPS     H2X      HAL2     0.900000E-01   1.00800           0
      8980 MEMB     102      SAPS     H2Y      HAL2     0.900000E-01   1.00800           0
      8981 MEMB     102      SAPS     C23      CTL2    -0.180000       12.0110           0
      8982 MEMB     102      SAPS     H3R      HAL2     0.900000E-01   1.00800           0
      8983 MEMB     102      SAPS     H3S      HAL2     0.900000E-01   1.00800           0
      8984 MEMB     102      SAPS     C24      CTL2    -0.180000       12.0110           0
      8985 MEMB     102      SAPS     H4R      HAL2     0.900000E-01   1.00800           0
      8986 MEMB     102      SAPS     H4S      HAL2     0.900000E-01   1.00800           0
      8987 MEMB     102      SAPS     C25      CEL1    -0.150000       12.0110           0
      8988 MEMB     102      SAPS     H5R      HEL1     0.150000       1.00800           0
      8989 MEMB     102      SAPS     C26      CEL1    -0.150000       12.0110           0
      8990 MEMB     102      SAPS     H6R      HEL1     0.150000       1.00800           0
      8991 MEMB     102      SAPS     C27      CTL2    -0.180000       12.0110           0
      8992 MEMB     102      SAPS     H7R      HAL2     0.900000E-01   1.00800           0
      8993 MEMB     102      SAPS     H7S      HAL2     0.900000E-01   1.00800           0
      8994 MEMB     102      SAPS     C28      CEL1    -0.150000       12.0110           0
      8995 MEMB     102      SAPS     H8R      HEL1     0.150000       1.00800           0
      8996 MEMB     102      SAPS     C29      CEL1    -0.150000       12.0110           0
      8997 MEMB     102      SAPS     H9R      HEL1     0.150000       1.00800           0
      8998 MEMB     102      SAPS     C210     CTL2    -0.180000       12.0110           0
      8999 MEMB     102      SAPS     H10R     HAL2     0.900000E-01   1.00800           0
      9000 MEMB     102      SAPS     H10S     HAL2     0.900000E-01   1.00800           0
      9001 MEMB     102      SAPS     C211     CEL1    -0.150000       12.0110           0
      9002 MEMB     102      SAPS     H11R     HEL1     0.150000       1.00800           0
      9003 MEMB     102      SAPS     C212     CEL1    -0.150000       12.0110           0
      9004 MEMB     102      SAPS     H12R     HEL1     0.150000       1.00800           0
      9005 MEMB     102      SAPS     C213     CTL2    -0.180000       12.0110           0
      9006 MEMB     102      SAPS     H13R     HAL2     0.900000E-01   1.00800           0
      9007 MEMB     102      SAPS     H13S     HAL2     0.900000E-01   1.00800           0
      9008 MEMB     102      SAPS     C214     CEL1    -0.150000       12.0110           0
      9009 MEMB     102      SAPS     H14R     HEL1     0.150000       1.00800           0
      9010 MEMB     102      SAPS     C215     CEL1    -0.150000       12.0110           0
      9011 MEMB     102      SAPS     H15R     HEL1     0.150000       1.00800           0
      9012 MEMB     102      SAPS     C216     CTL2    -0.180000       12.0110           0
      9013 MEMB     102      SAPS     H16R     HAL2     0.900000E-01   1.00800           0
      9014 MEMB     102      SAPS     H16S     HAL2     0.900000E-01   1.00800           0
      9015 MEMB     102      SAPS     C217     CTL2    -0.180000       12.0110           0
      9016 MEMB     102      SAPS     H17R     HAL2     0.900000E-01   1.00800           0
      9017 MEMB     102      SAPS     H17S     HAL2     0.900000E-01   1.00800           0
      9018 MEMB     102      SAPS     C218     CTL2    -0.180000       12.0110           0
      9019 MEMB     102      SAPS     H18R     HAL2     0.900000E-01   1.00800           0
      9020 MEMB     102      SAPS     H18S     HAL2     0.900000E-01   1.00800           0
      9021 MEMB     102      SAPS     C219     CTL2    -0.180000       12.0110           0
      9022 MEMB     102      SAPS     H19R     HAL2     0.900000E-01   1.00800           0
      9023 MEMB     102      SAPS     H19S     HAL2     0.900000E-01   1.00800           0
      9024 MEMB     102      SAPS     C220     CTL3    -0.270000       12.0110           0
      9025 MEMB     102      SAPS     H20R     HAL3     0.900000E-01   1.00800           0
      9026 MEMB     102      SAPS     H20S     HAL3     0.900000E-01   1.00800           0
      9027 MEMB     102      SAPS     H20T     HAL3     0.900000E-01   1.00800           0
      9028 MEMB     102      SAPS     C33      CTL2    -0.180000       12.0110           0
      9029 MEMB     102      SAPS     H3X      HAL2     0.900000E-01   1.00800           0
      9030 MEMB     102      SAPS     H3Y      HAL2     0.900000E-01   1.00800           0
      9031 MEMB     102      SAPS     C34      CTL2    -0.180000       12.0110           0
      9032 MEMB     102      SAPS     H4X      HAL2     0.900000E-01   1.00800           0
      9033 MEMB     102      SAPS     H4Y      HAL2     0.900000E-01   1.00800           0
      9034 MEMB     102      SAPS     C35      CTL2    -0.180000       12.0110           0
      9035 MEMB     102      SAPS     H5X      HAL2     0.900000E-01   1.00800           0
      9036 MEMB     102      SAPS     H5Y      HAL2     0.900000E-01   1.00800           0
      9037 MEMB     102      SAPS     C36      CTL2    -0.180000       12.0110           0
      9038 MEMB     102      SAPS     H6X      HAL2     0.900000E-01   1.00800           0
      9039 MEMB     102      SAPS     H6Y      HAL2     0.900000E-01   1.00800           0
      9040 MEMB     102      SAPS     C37      CTL2    -0.180000       12.0110           0
      9041 MEMB     102      SAPS     H7X      HAL2     0.900000E-01   1.00800           0
      9042 MEMB     102      SAPS     H7Y      HAL2     0.900000E-01   1.00800           0
      9043 MEMB     102      SAPS     C38      CTL2    -0.180000       12.0110           0
      9044 MEMB     102      SAPS     H8X      HAL2     0.900000E-01   1.00800           0
      9045 MEMB     102      SAPS     H8Y      HAL2     0.900000E-01   1.00800           0
      9046 MEMB     102      SAPS     C39      CTL2    -0.180000       12.0110           0
      9047 MEMB     102      SAPS     H9X      HAL2     0.900000E-01   1.00800           0
      9048 MEMB     102      SAPS     H9Y      HAL2     0.900000E-01   1.00800           0
      9049 MEMB     102      SAPS     C310     CTL2    -0.180000       12.0110           0
      9050 MEMB     102      SAPS     H10X     HAL2     0.900000E-01   1.00800           0
      9051 MEMB     102      SAPS     H10Y     HAL2     0.900000E-01   1.00800           0
      9052 MEMB     102      SAPS     C311     CTL2    -0.180000       12.0110           0
      9053 MEMB     102      SAPS     H11X     HAL2     0.900000E-01   1.00800           0
      9054 MEMB     102      SAPS     H11Y     HAL2     0.900000E-01   1.00800           0
      9055 MEMB     102      SAPS     C312     CTL2    -0.180000       12.0110           0
      9056 MEMB     102      SAPS     H12X     HAL2     0.900000E-01   1.00800           0
      9057 MEMB     102      SAPS     H12Y     HAL2     0.900000E-01   1.00800           0
      9058 MEMB     102      SAPS     C313     CTL2    -0.180000       12.0110           0
      9059 MEMB     102      SAPS     H13X     HAL2     0.900000E-01   1.00800           0
      9060 MEMB     102      SAPS     H13Y     HAL2     0.900000E-01   1.00800           0
      9061 MEMB     102      SAPS     C314     CTL2    -0.180000       12.0110           0
      9062 MEMB     102      SAPS     H14X     HAL2     0.900000E-01   1.00800           0
      9063 MEMB     102      SAPS     H14Y     HAL2     0.900000E-01   1.00800           0
      9064 MEMB     102      SAPS     C315     CTL2    -0.180000       12.0110           0
      9065 MEMB     102      SAPS     H15X     HAL2     0.900000E-01   1.00800           0
      9066 MEMB     102      SAPS     H15Y     HAL2     0.900000E-01   1.00800           0
      9067 MEMB     102      SAPS     C316     CTL2    -0.180000       12.0110           0
      9068 MEMB     102      SAPS     H16X     HAL2     0.900000E-01   1.00800           0
      9069 MEMB     102      SAPS     H16Y     HAL2     0.900000E-01   1.00800           0
      9070 MEMB     102      SAPS     C317     CTL2    -0.180000       12.0110           0
      9071 MEMB     102      SAPS     H17X     HAL2     0.900000E-01   1.00800           0
      9072 MEMB     102      SAPS     H17Y     HAL2     0.900000E-01   1.00800           0
      9073 MEMB     102      SAPS     C318     CTL3    -0.270000       12.0110           0
      9074 MEMB     102      SAPS     H18X     HAL3     0.900000E-01   1.00800           0
      9075 MEMB     102      SAPS     H18Y     HAL3     0.900000E-01   1.00800           0
      9076 MEMB     102      SAPS     H18Z     HAL3     0.900000E-01   1.00800           0
      9077 MEMB     105      SAPS     N        NH3L    -0.300000       14.0070           0
      9078 MEMB     105      SAPS     HN1      HCL      0.330000       1.00800           0
      9079 MEMB     105      SAPS     HN2      HCL      0.330000       1.00800           0
      9080 MEMB     105      SAPS     HN3      HCL      0.330000       1.00800           0
      9081 MEMB     105      SAPS     C12      CTL1     0.210000       12.0110           0
      9082 MEMB     105      SAPS     H12A     HBL      0.100000       1.00800           0
      9083 MEMB     105      SAPS     C13      CCL      0.340000       12.0110           0
      9084 MEMB     105      SAPS     O13A     OCL     -0.670000       15.9994           0
      9085 MEMB     105      SAPS     O13B     OCL     -0.670000       15.9994           0
      9086 MEMB     105      SAPS     C11      CTL2    -0.800000E-01   12.0110           0
      9087 MEMB     105      SAPS     H11A     HAL2     0.900000E-01   1.00800           0
      9088 MEMB     105      SAPS     H11B     HAL2     0.900000E-01   1.00800           0
      9089 MEMB     105      SAPS     P        PL       1.500000       30.9740           0
      9090 MEMB     105      SAPS     O13      O2L     -0.780000       15.9994           0
      9091 MEMB     105      SAPS     O14      O2L     -0.780000       15.9994           0
      9092 MEMB     105      SAPS     O12      OSLP    -0.570000       15.9994           0
      9093 MEMB     105      SAPS     O11      OSLP    -0.570000       15.9994           0
      9094 MEMB     105      SAPS     C1       CTL2    -0.800000E-01   12.0110           0
      9095 MEMB     105      SAPS     HA       HAL2     0.900000E-01   1.00800           0
      9096 MEMB     105      SAPS     HB       HAL2     0.900000E-01   1.00800           0
      9097 MEMB     105      SAPS     C2       CTL1     0.170000       12.0110           0
      9098 MEMB     105      SAPS     HS       HAL1     0.900000E-01   1.00800           0
      9099 MEMB     105      SAPS     O21      OSL     -0.490000       15.9994           0
      9100 MEMB     105      SAPS     C21      CL       0.900000       12.0110           0
      9101 MEMB     105      SAPS     O22      OBL     -0.630000       15.9994           0
      9102 MEMB     105      SAPS     C22      CTL2    -0.220000       12.0110           0
      9103 MEMB     105      SAPS     H2R      HAL2     0.900000E-01   1.00800           0
      9104 MEMB     105      SAPS     H2S      HAL2     0.900000E-01   1.00800           0
      9105 MEMB     105      SAPS     C3       CTL2     0.800000E-01   12.0110           0
      9106 MEMB     105      SAPS     HX       HAL2     0.900000E-01   1.00800           0
      9107 MEMB     105      SAPS     HY       HAL2     0.900000E-01   1.00800           0
      9108 MEMB     105      SAPS     O31      OSL     -0.490000       15.9994           0
      9109 MEMB     105      SAPS     C31      CL       0.900000       12.0110           0
      9110 MEMB     105      SAPS     O32      OBL     -0.630000       15.9994           0
      9111 MEMB     105      SAPS     C32      CTL2    -0.220000       12.0110           0
      9112 MEMB     105      SAPS     H2X      HAL2     0.900000E-01   1.00800           0
      9113 MEMB     105      SAPS     H2Y      HAL2     0.900000E-01   1.00800           0
      9114 MEMB     105      SAPS     C23      CTL2    -0.180000       12.0110           0
      9115 MEMB     105      SAPS     H3R      HAL2     0.900000E-01   1.00800           0
      9116 MEMB     105      SAPS     H3S      HAL2     0.900000E-01   1.00800           0
      9117 MEMB     105      SAPS     C24      CTL2    -0.180000       12.0110           0
      9118 MEMB     105      SAPS     H4R      HAL2     0.900000E-01   1.00800           0
      9119 MEMB     105      SAPS     H4S      HAL2     0.900000E-01   1.00800           0
      9120 MEMB     105      SAPS     C25      CEL1    -0.150000       12.0110           0
      9121 MEMB     105      SAPS     H5R      HEL1     0.150000       1.00800           0
      9122 MEMB     105      SAPS     C26      CEL1    -0.150000       12.0110           0
      9123 MEMB     105      SAPS     H6R      HEL1     0.150000       1.00800           0
      9124 MEMB     105      SAPS     C27      CTL2    -0.180000       12.0110           0
      9125 MEMB     105      SAPS     H7R      HAL2     0.900000E-01   1.00800           0
      9126 MEMB     105      SAPS     H7S      HAL2     0.900000E-01   1.00800           0
      9127 MEMB     105      SAPS     C28      CEL1    -0.150000       12.0110           0
      9128 MEMB     105      SAPS     H8R      HEL1     0.150000       1.00800           0
      9129 MEMB     105      SAPS     C29      CEL1    -0.150000       12.0110           0
      9130 MEMB     105      SAPS     H9R      HEL1     0.150000       1.00800           0
      9131 MEMB     105      SAPS     C210     CTL2    -0.180000       12.0110           0
      9132 MEMB     105      SAPS     H10R     HAL2     0.900000E-01   1.00800           0
      9133 MEMB     105      SAPS     H10S     HAL2     0.900000E-01   1.00800           0
      9134 MEMB     105      SAPS     C211     CEL1    -0.150000       12.0110           0
      9135 MEMB     105      SAPS     H11R     HEL1     0.150000       1.00800           0
      9136 MEMB     105      SAPS     C212     CEL1    -0.150000       12.0110           0
      9137 MEMB     105      SAPS     H12R     HEL1     0.150000       1.00800           0
      9138 MEMB     105      SAPS     C213     CTL2    -0.180000       12.0110           0
      9139 MEMB     105      SAPS     H13R     HAL2     0.900000E-01   1.00800           0
      9140 MEMB     105      SAPS     H13S     HAL2     0.900000E-01   1.00800           0
      9141 MEMB     105      SAPS     C214     CEL1    -0.150000       12.0110           0
      9142 MEMB     105      SAPS     H14R     HEL1     0.150000       1.00800           0
      9143 MEMB     105      SAPS     C215     CEL1    -0.150000       12.0110           0
      9144 MEMB     105      SAPS     H15R     HEL1     0.150000       1.00800           0
      9145 MEMB     105      SAPS     C216     CTL2    -0.180000       12.0110           0
      9146 MEMB     105      SAPS     H16R     HAL2     0.900000E-01   1.00800           0
      9147 MEMB     105      SAPS     H16S     HAL2     0.900000E-01   1.00800           0
      9148 MEMB     105      SAPS     C217     CTL2    -0.180000       12.0110           0
      9149 MEMB     105      SAPS     H17R     HAL2     0.900000E-01   1.00800           0
      9150 MEMB     105      SAPS     H17S     HAL2     0.900000E-01   1.00800           0
      9151 MEMB     105      SAPS     C218     CTL2    -0.180000       12.0110           0
      9152 MEMB     105      SAPS     H18R     HAL2     0.900000E-01   1.00800           0
      9153 MEMB     105      SAPS     H18S     HAL2     0.900000E-01   1.00800           0
      9154 MEMB     105      SAPS     C219     CTL2    -0.180000       12.0110           0
      9155 MEMB     105      SAPS     H19R     HAL2     0.900000E-01   1.00800           0
      9156 MEMB     105      SAPS     H19S     HAL2     0.900000E-01   1.00800           0
      9157 MEMB     105      SAPS     C220     CTL3    -0.270000       12.0110           0
      9158 MEMB     105      SAPS     H20R     HAL3     0.900000E-01   1.00800           0
      9159 MEMB     105      SAPS     H20S     HAL3     0.900000E-01   1.00800           0
      9160 MEMB     105      SAPS     H20T     HAL3     0.900000E-01   1.00800           0
      9161 MEMB     105      SAPS     C33      CTL2    -0.180000       12.0110           0
      9162 MEMB     105      SAPS     H3X      HAL2     0.900000E-01   1.00800           0
      9163 MEMB     105      SAPS     H3Y      HAL2     0.900000E-01   1.00800           0
      9164 MEMB     105      SAPS     C34      CTL2    -0.180000       12.0110           0
      9165 MEMB     105      SAPS     H4X      HAL2     0.900000E-01   1.00800           0
      9166 MEMB     105      SAPS     H4Y      HAL2     0.900000E-01   1.00800           0
      9167 MEMB     105      SAPS     C35      CTL2    -0.180000       12.0110           0
      9168 MEMB     105      SAPS     H5X      HAL2     0.900000E-01   1.00800           0
      9169 MEMB     105      SAPS     H5Y      HAL2     0.900000E-01   1.00800           0
      9170 MEMB     105      SAPS     C36      CTL2    -0.180000       12.0110           0
      9171 MEMB     105      SAPS     H6X      HAL2     0.900000E-01   1.00800           0
      9172 MEMB     105      SAPS     H6Y      HAL2     0.900000E-01   1.00800           0
      9173 MEMB     105      SAPS     C37      CTL2    -0.180000       12.0110           0
      9174 MEMB     105      SAPS     H7X      HAL2     0.900000E-01   1.00800           0
      9175 MEMB     105      SAPS     H7Y      HAL2     0.900000E-01   1.00800           0
      9176 MEMB     105      SAPS     C38      CTL2    -0.180000       12.0110           0
      9177 MEMB     105      SAPS     H8X      HAL2     0.900000E-01   1.00800           0
      9178 MEMB     105      SAPS     H8Y      HAL2     0.900000E-01   1.00800           0
      9179 MEMB     105      SAPS     C39      CTL2    -0.180000       12.0110           0
      9180 MEMB     105      SAPS     H9X      HAL2     0.900000E-01   1.00800           0
      9181 MEMB     105      SAPS     H9Y      HAL2     0.900000E-01   1.00800           0
      9182 MEMB     105      SAPS     C310     CTL2    -0.180000       12.0110           0
      9183 MEMB     105      SAPS     H10X     HAL2     0.900000E-01   1.00800           0
      9184 MEMB     105      SAPS     H10Y     HAL2     0.900000E-01   1.00800           0
      9185 MEMB     105      SAPS     C311     CTL2    -0.180000       12.0110           0
      9186 MEMB     105      SAPS     H11X     HAL2     0.900000E-01   1.00800           0
      9187 MEMB     105      SAPS     H11Y     HAL2     0.900000E-01   1.00800           0
      9188 MEMB     105      SAPS     C312     CTL2    -0.180000       12.0110           0
      9189 MEMB     105      SAPS     H12X     HAL2     0.900000E-01   1.00800           0
      9190 MEMB     105      SAPS     H12Y     HAL2     0.900000E-01   1.00800           0
      9191 MEMB     105      SAPS     C313     CTL2    -0.180000       12.0110           0
      9192 MEMB     105      SAPS     H13X     HAL2     0.900000E-01   1.00800           0
      9193 MEMB     105      SAPS     H13Y     HAL2     0.900000E-01   1.00800           0
      9194 MEMB     105      SAPS     C314     CTL2    -0.180000       12.0110           0
      9195 MEMB     105      SAPS     H14X     HAL2     0.900000E-01   1.00800           0
      9196 MEMB     105      SAPS     H14Y     HAL2     0.900000E-01   1.00800           0
      9197 MEMB     105      SAPS     C315     CTL2    -0.180000       12.0110           0
      9198 MEMB     105      SAPS     H15X     HAL2     0.900000E-01   1.00800           0
      9199 MEMB     105      SAPS     H15Y     HAL2     0.900000E-01   1.00800           0
      9200 MEMB     105      SAPS     C316     CTL2    -0.180000       12.0110           0
      9201 MEMB     105      SAPS     H16X     HAL2     0.900000E-01   1.00800           0
      9202 MEMB     105      SAPS     H16Y     HAL2     0.900000E-01   1.00800           0
      9203 MEMB     105      SAPS     C317     CTL2    -0.180000       12.0110           0
      9204 MEMB     105      SAPS     H17X     HAL2     0.900000E-01   1.00800           0
      9205 MEMB     105      SAPS     H17Y     HAL2     0.900000E-01   1.00800           0
      9206 MEMB     105      SAPS     C318     CTL3    -0.270000       12.0110           0
      9207 MEMB     105      SAPS     H18X     HAL3     0.900000E-01   1.00800           0
      9208 MEMB     105      SAPS     H18Y     HAL3     0.900000E-01   1.00800           0
      9209 MEMB     105      SAPS     H18Z     HAL3     0.900000E-01   1.00800           0
      9210 MEMB     108      SAPS     N        NH3L    -0.300000       14.0070           0
      9211 MEMB     108      SAPS     HN1      HCL      0.330000       1.00800           0
      9212 MEMB     108      SAPS     HN2      HCL      0.330000       1.00800           0
      9213 MEMB     108      SAPS     HN3      HCL      0.330000       1.00800           0
      9214 MEMB     108      SAPS     C12      CTL1     0.210000       12.0110           0
      9215 MEMB     108      SAPS     H12A     HBL      0.100000       1.00800           0
      9216 MEMB     108      SAPS     C13      CCL      0.340000       12.0110           0
      9217 MEMB     108      SAPS     O13A     OCL     -0.670000       15.9994           0
      9218 MEMB     108      SAPS     O13B     OCL     -0.670000       15.9994           0
      9219 MEMB     108      SAPS     C11      CTL2    -0.800000E-01   12.0110           0
      9220 MEMB     108      SAPS     H11A     HAL2     0.900000E-01   1.00800           0
      9221 MEMB     108      SAPS     H11B     HAL2     0.900000E-01   1.00800           0
      9222 MEMB     108      SAPS     P        PL       1.500000       30.9740           0
      9223 MEMB     108      SAPS     O13      O2L     -0.780000       15.9994           0
      9224 MEMB     108      SAPS     O14      O2L     -0.780000       15.9994           0
      9225 MEMB     108      SAPS     O12      OSLP    -0.570000       15.9994           0
      9226 MEMB     108      SAPS     O11      OSLP    -0.570000       15.9994           0
      9227 MEMB     108      SAPS     C1       CTL2    -0.800000E-01   12.0110           0
      9228 MEMB     108      SAPS     HA       HAL2     0.900000E-01   1.00800           0
      9229 MEMB     108      SAPS     HB       HAL2     0.900000E-01   1.00800           0
      9230 MEMB     108      SAPS     C2       CTL1     0.170000       12.0110           0
      9231 MEMB     108      SAPS     HS       HAL1     0.900000E-01   1.00800           0
      9232 MEMB     108      SAPS     O21      OSL     -0.490000       15.9994           0
      9233 MEMB     108      SAPS     C21      CL       0.900000       12.0110           0
      9234 MEMB     108      SAPS     O22      OBL     -0.630000       15.9994           0
      9235 MEMB     108      SAPS     C22      CTL2    -0.220000       12.0110           0
      9236 MEMB     108      SAPS     H2R      HAL2     0.900000E-01   1.00800           0
      9237 MEMB     108      SAPS     H2S      HAL2     0.900000E-01   1.00800           0
      9238 MEMB     108      SAPS     C3       CTL2     0.800000E-01   12.0110           0
      9239 MEMB     108      SAPS     HX       HAL2     0.900000E-01   1.00800           0
      9240 MEMB     108      SAPS     HY       HAL2     0.900000E-01   1.00800           0
      9241 MEMB     108      SAPS     O31      OSL     -0.490000       15.9994           0
      9242 MEMB     108      SAPS     C31      CL       0.900000       12.0110           0
      9243 MEMB     108      SAPS     O32      OBL     -0.630000       15.9994           0
      9244 MEMB     108      SAPS     C32      CTL2    -0.220000       12.0110           0
      9245 MEMB     108      SAPS     H2X      HAL2     0.900000E-01   1.00800           0
      9246 MEMB     108      SAPS     H2Y      HAL2     0.900000E-01   1.00800           0
      9247 MEMB     108      SAPS     C23      CTL2    -0.180000       12.0110           0
      9248 MEMB     108      SAPS     H3R      HAL2     0.900000E-01   1.00800           0
      9249 MEMB     108      SAPS     H3S      HAL2     0.900000E-01   1.00800           0
      9250 MEMB     108      SAPS     C24      CTL2    -0.180000       12.0110           0
      9251 MEMB     108      SAPS     H4R      HAL2     0.900000E-01   1.00800           0
      9252 MEMB     108      SAPS     H4S      HAL2     0.900000E-01   1.00800           0
      9253 MEMB     108      SAPS     C25      CEL1    -0.150000       12.0110           0
      9254 MEMB     108      SAPS     H5R      HEL1     0.150000       1.00800           0
      9255 MEMB     108      SAPS     C26      CEL1    -0.150000       12.0110           0
      9256 MEMB     108      SAPS     H6R      HEL1     0.150000       1.00800           0
      9257 MEMB     108      SAPS     C27      CTL2    -0.180000       12.0110           0
      9258 MEMB     108      SAPS     H7R      HAL2     0.900000E-01   1.00800           0
      9259 MEMB     108      SAPS     H7S      HAL2     0.900000E-01   1.00800           0
      9260 MEMB     108      SAPS     C28      CEL1    -0.150000       12.0110           0
      9261 MEMB     108      SAPS     H8R      HEL1     0.150000       1.00800           0
      9262 MEMB     108      SAPS     C29      CEL1    -0.150000       12.0110           0
      9263 MEMB     108      SAPS     H9R      HEL1     0.150000       1.00800           0
      9264 MEMB     108      SAPS     C210     CTL2    -0.180000       12.0110           0
      9265 MEMB     108      SAPS     H10R     HAL2     0.900000E-01   1.00800           0
      9266 MEMB     108      SAPS     H10S     HAL2     0.900000E-01   1.00800           0
      9267 MEMB     108      SAPS     C211     CEL1    -0.150000       12.0110           0
      9268 MEMB     108      SAPS     H11R     HEL1     0.150000       1.00800           0
      9269 MEMB     108      SAPS     C212     CEL1    -0.150000       12.0110           0
      9270 MEMB     108      SAPS     H12R     HEL1     0.150000       1.00800           0
      9271 MEMB     108      SAPS     C213     CTL2    -0.180000       12.0110           0
      9272 MEMB     108      SAPS     H13R     HAL2     0.900000E-01   1.00800           0
      9273 MEMB     108      SAPS     H13S     HAL2     0.900000E-01   1.00800           0
      9274 MEMB     108      SAPS     C214     CEL1    -0.150000       12.0110           0
      9275 MEMB     108      SAPS     H14R     HEL1     0.150000       1.00800           0
      9276 MEMB     108      SAPS     C215     CEL1    -0.150000       12.0110           0
      9277 MEMB     108      SAPS     H15R     HEL1     0.150000       1.00800           0
      9278 MEMB     108      SAPS     C216     CTL2    -0.180000       12.0110           0
      9279 MEMB     108      SAPS     H16R     HAL2     0.900000E-01   1.00800           0
      9280 MEMB     108      SAPS     H16S     HAL2     0.900000E-01   1.00800           0
      9281 MEMB     108      SAPS     C217     CTL2    -0.180000       12.0110           0
      9282 MEMB     108      SAPS     H17R     HAL2     0.900000E-01   1.00800           0
      9283 MEMB     108      SAPS     H17S     HAL2     0.900000E-01   1.00800           0
      9284 MEMB     108      SAPS     C218     CTL2    -0.180000       12.0110           0
      9285 MEMB     108      SAPS     H18R     HAL2     0.900000E-01   1.00800           0
      9286 MEMB     108      SAPS     H18S     HAL2     0.900000E-01   1.00800           0
      9287 MEMB     108      SAPS     C219     CTL2    -0.180000       12.0110           0
      9288 MEMB     108      SAPS     H19R     HAL2     0.900000E-01   1.00800           0
      9289 MEMB     108      SAPS     H19S     HAL2     0.900000E-01   1.00800           0
      9290 MEMB     108      SAPS     C220     CTL3    -0.270000       12.0110           0
      9291 MEMB     108      SAPS     H20R     HAL3     0.900000E-01   1.00800           0
      9292 MEMB     108      SAPS     H20S     HAL3     0.900000E-01   1.00800           0
      9293 MEMB     108      SAPS     H20T     HAL3     0.900000E-01   1.00800           0
      9294 MEMB     108      SAPS     C33      CTL2    -0.180000       12.0110           0
      9295 MEMB     108      SAPS     H3X      HAL2     0.900000E-01   1.00800           0
      9296 MEMB     108      SAPS     H3Y      HAL2     0.900000E-01   1.00800           0
      9297 MEMB     108      SAPS     C34      CTL2    -0.180000       12.0110           0
      9298 MEMB     108      SAPS     H4X      HAL2     0.900000E-01   1.00800           0
      9299 MEMB     108      SAPS     H4Y      HAL2     0.900000E-01   1.00800           0
      9300 MEMB     108      SAPS     C35      CTL2    -0.180000       12.0110           0
      9301 MEMB     108      SAPS     H5X      HAL2     0.900000E-01   1.00800           0
      9302 MEMB     108      SAPS     H5Y      HAL2     0.900000E-01   1.00800           0
      9303 MEMB     108      SAPS     C36      CTL2    -0.180000       12.0110           0
      9304 MEMB     108      SAPS     H6X      HAL2     0.900000E-01   1.00800           0
      9305 MEMB     108      SAPS     H6Y      HAL2     0.900000E-01   1.00800           0
      9306 MEMB     108      SAPS     C37      CTL2    -0.180000       12.0110           0
      9307 MEMB     108      SAPS     H7X      HAL2     0.900000E-01   1.00800           0
      9308 MEMB     108      SAPS     H7Y      HAL2     0.900000E-01   1.00800           0
      9309 MEMB     108      SAPS     C38      CTL2    -0.180000       12.0110           0
      9310 MEMB     108      SAPS     H8X      HAL2     0.900000E-01   1.00800           0
      9311 MEMB     108      SAPS     H8Y      HAL2     0.900000E-01   1.00800           0
      9312 MEMB     108      SAPS     C39      CTL2    -0.180000       12.0110           0
      9313 MEMB     108      SAPS     H9X      HAL2     0.900000E-01   1.00800           0
      9314 MEMB     108      SAPS     H9Y      HAL2     0.900000E-01   1.00800           0
      9315 MEMB     108      SAPS     C310     CTL2    -0.180000       12.0110           0
      9316 MEMB     108      SAPS     H10X     HAL2     0.900000E-01   1.00800           0
      9317 MEMB     108      SAPS     H10Y     HAL2     0.900000E-01   1.00800           0
      9318 MEMB     108      SAPS     C311     CTL2    -0.180000       12.0110           0
      9319 MEMB     108      SAPS     H11X     HAL2     0.900000E-01   1.00800           0
      9320 MEMB     108      SAPS     H11Y     HAL2     0.900000E-01   1.00800           0
      9321 MEMB     108      SAPS     C312     CTL2    -0.180000       12.0110           0
      9322 MEMB     108      SAPS     H12X     HAL2     0.900000E-01   1.00800           0
      9323 MEMB     108      SAPS     H12Y     HAL2     0.900000E-01   1.00800           0
      9324 MEMB     108      SAPS     C313     CTL2    -0.180000       12.0110           0
      9325 MEMB     108      SAPS     H13X     HAL2     0.900000E-01   1.00800           0
      9326 MEMB     108      SAPS     H13Y     HAL2     0.900000E-01   1.00800           0
      9327 MEMB     108      SAPS     C314     CTL2    -0.180000       12.0110           0
      9328 MEMB     108      SAPS     H14X     HAL2     0.900000E-01   1.00800           0
      9329 MEMB     108      SAPS     H14Y     HAL2     0.900000E-01   1.00800           0
      9330 MEMB     108      SAPS     C315     CTL2    -0.180000       12.0110           0
      9331 MEMB     108      SAPS     H15X     HAL2     0.900000E-01   1.00800           0
      9332 MEMB     108      SAPS     H15Y     HAL2     0.900000E-01   1.00800           0
      9333 MEMB     108      SAPS     C316     CTL2    -0.180000       12.0110           0
      9334 MEMB     108      SAPS     H16X     HAL2     0.900000E-01   1.00800           0
      9335 MEMB     108      SAPS     H16Y     HAL2     0.900000E-01   1.00800           0
      9336 MEMB     108      SAPS     C317     CTL2    -0.180000       12.0110           0
      9337 MEMB     108      SAPS     H17X     HAL2     0.900000E-01   1.00800           0
      9338 MEMB     108      SAPS     H17Y     HAL2     0.900000E-01   1.00800           0
      9339 MEMB     108      SAPS     C318     CTL3    -0.270000       12.0110           0
      9340 MEMB     108      SAPS     H18X     HAL3     0.900000E-01   1.00800           0
      9341 MEMB     108      SAPS     H18Y     HAL3     0.900000E-01   1.00800           0
      9342 MEMB     108      SAPS     H18Z     HAL3     0.900000E-01   1.00800           0
      9343 MEMB     131      SAPS     N        NH3L    -0.300000       14.0070           0
      9344 MEMB     131      SAPS     HN1      HCL      0.330000       1.00800           0
      9345 MEMB     131      SAPS     HN2      HCL      0.330000       1.00800           0
      9346 MEMB     131      SAPS     HN3      HCL      0.330000       1.00800           0
      9347 MEMB     131      SAPS     C12      CTL1     0.210000       12.0110           0
      9348 MEMB     131      SAPS     H12A     HBL      0.100000       1.00800           0
      9349 MEMB     131      SAPS     C13      CCL      0.340000       12.0110           0
      9350 MEMB     131      SAPS     O13A     OCL     -0.670000       15.9994           0
      9351 MEMB     131      SAPS     O13B     OCL     -0.670000       15.9994           0
      9352 MEMB     131      SAPS     C11      CTL2    -0.800000E-01   12.0110           0
      9353 MEMB     131      SAPS     H11A     HAL2     0.900000E-01   1.00800           0
      9354 MEMB     131      SAPS     H11B     HAL2     0.900000E-01   1.00800           0
      9355 MEMB     131      SAPS     P        PL       1.500000       30.9740           0
      9356 MEMB     131      SAPS     O13      O2L     -0.780000       15.9994           0
      9357 MEMB     131      SAPS     O14      O2L     -0.780000       15.9994           0
      9358 MEMB     131      SAPS     O12      OSLP    -0.570000       15.9994           0
      9359 MEMB     131      SAPS     O11      OSLP    -0.570000       15.9994           0
      9360 MEMB     131      SAPS     C1       CTL2    -0.800000E-01   12.0110           0
      9361 MEMB     131      SAPS     HA       HAL2     0.900000E-01   1.00800           0
      9362 MEMB     131      SAPS     HB       HAL2     0.900000E-01   1.00800           0
      9363 MEMB     131      SAPS     C2       CTL1     0.170000       12.0110           0
      9364 MEMB     131      SAPS     HS       HAL1     0.900000E-01   1.00800           0
      9365 MEMB     131      SAPS     O21      OSL     -0.490000       15.9994           0
      9366 MEMB     131      SAPS     C21      CL       0.900000       12.0110           0
      9367 MEMB     131      SAPS     O22      OBL     -0.630000       15.9994           0
      9368 MEMB     131      SAPS     C22      CTL2    -0.220000       12.0110           0
      9369 MEMB     131      SAPS     H2R      HAL2     0.900000E-01   1.00800           0
      9370 MEMB     131      SAPS     H2S      HAL2     0.900000E-01   1.00800           0
      9371 MEMB     131      SAPS     C3       CTL2     0.800000E-01   12.0110           0
      9372 MEMB     131      SAPS     HX       HAL2     0.900000E-01   1.00800           0
      9373 MEMB     131      SAPS     HY       HAL2     0.900000E-01   1.00800           0
      9374 MEMB     131      SAPS     O31      OSL     -0.490000       15.9994           0
      9375 MEMB     131      SAPS     C31      CL       0.900000       12.0110           0
      9376 MEMB     131      SAPS     O32      OBL     -0.630000       15.9994           0
      9377 MEMB     131      SAPS     C32      CTL2    -0.220000       12.0110           0
      9378 MEMB     131      SAPS     H2X      HAL2     0.900000E-01   1.00800           0
      9379 MEMB     131      SAPS     H2Y      HAL2     0.900000E-01   1.00800           0
      9380 MEMB     131      SAPS     C23      CTL2    -0.180000       12.0110           0
      9381 MEMB     131      SAPS     H3R      HAL2     0.900000E-01   1.00800           0
      9382 MEMB     131      SAPS     H3S      HAL2     0.900000E-01   1.00800           0
      9383 MEMB     131      SAPS     C24      CTL2    -0.180000       12.0110           0
      9384 MEMB     131      SAPS     H4R      HAL2     0.900000E-01   1.00800           0
      9385 MEMB     131      SAPS     H4S      HAL2     0.900000E-01   1.00800           0
      9386 MEMB     131      SAPS     C25      CEL1    -0.150000       12.0110           0
      9387 MEMB     131      SAPS     H5R      HEL1     0.150000       1.00800           0
      9388 MEMB     131      SAPS     C26      CEL1    -0.150000       12.0110           0
      9389 MEMB     131      SAPS     H6R      HEL1     0.150000       1.00800           0
      9390 MEMB     131      SAPS     C27      CTL2    -0.180000       12.0110           0
      9391 MEMB     131      SAPS     H7R      HAL2     0.900000E-01   1.00800           0
      9392 MEMB     131      SAPS     H7S      HAL2     0.900000E-01   1.00800           0
      9393 MEMB     131      SAPS     C28      CEL1    -0.150000       12.0110           0
      9394 MEMB     131      SAPS     H8R      HEL1     0.150000       1.00800           0
      9395 MEMB     131      SAPS     C29      CEL1    -0.150000       12.0110           0
      9396 MEMB     131      SAPS     H9R      HEL1     0.150000       1.00800           0
      9397 MEMB     131      SAPS     C210     CTL2    -0.180000       12.0110           0
      9398 MEMB     131      SAPS     H10R     HAL2     0.900000E-01   1.00800           0
      9399 MEMB     131      SAPS     H10S     HAL2     0.900000E-01   1.00800           0
      9400 MEMB     131      SAPS     C211     CEL1    -0.150000       12.0110           0
      9401 MEMB     131      SAPS     H11R     HEL1     0.150000       1.00800           0
      9402 MEMB     131      SAPS     C212     CEL1    -0.150000       12.0110           0
      9403 MEMB     131      SAPS     H12R     HEL1     0.150000       1.00800           0
      9404 MEMB     131      SAPS     C213     CTL2    -0.180000       12.0110           0
      9405 MEMB     131      SAPS     H13R     HAL2     0.900000E-01   1.00800           0
      9406 MEMB     131      SAPS     H13S     HAL2     0.900000E-01   1.00800           0
      9407 MEMB     131      SAPS     C214     CEL1    -0.150000       12.0110           0
      9408 MEMB     131      SAPS     H14R     HEL1     0.150000       1.00800           0
      9409 MEMB     131      SAPS     C215     CEL1    -0.150000       12.0110           0
      9410 MEMB     131      SAPS     H15R     HEL1     0.150000       1.00800           0
      9411 MEMB     131      SAPS     C216     CTL2    -0.180000       12.0110           0
      9412 MEMB     131      SAPS     H16R     HAL2     0.900000E-01   1.00800           0
      9413 MEMB     131      SAPS     H16S     HAL2     0.900000E-01   1.00800           0
      9414 MEMB     131      SAPS     C217     CTL2    -0.180000       12.0110           0
      9415 MEMB     131      SAPS     H17R     HAL2     0.900000E-01   1.00800           0
      9416 MEMB     131      SAPS     H17S     HAL2     0.900000E-01   1.00800           0
      9417 MEMB     131      SAPS     C218     CTL2    -0.180000       12.0110           0
      9418 MEMB     131      SAPS     H18R     HAL2     0.900000E-01   1.00800           0
      9419 MEMB     131      SAPS     H18S     HAL2     0.900000E-01   1.00800           0
      9420 MEMB     131      SAPS     C219     CTL2    -0.180000       12.0110           0
      9421 MEMB     131      SAPS     H19R     HAL2     0.900000E-01   1.00800           0
      9422 MEMB     131      SAPS     H19S     HAL2     0.900000E-01   1.00800           0
      9423 MEMB     131      SAPS     C220     CTL3    -0.270000       12.0110           0
      9424 MEMB     131      SAPS     H20R     HAL3     0.900000E-01   1.00800           0
      9425 MEMB     131      SAPS     H20S     HAL3     0.900000E-01   1.00800           0
      9426 MEMB     131      SAPS     H20T     HAL3     0.900000E-01   1.00800           0
      9427 MEMB     131      SAPS     C33      CTL2    -0.180000       12.0110           0
      9428 MEMB     131      SAPS     H3X      HAL2     0.900000E-01   1.00800           0
      9429 MEMB     131      SAPS     H3Y      HAL2     0.900000E-01   1.00800           0
      9430 MEMB     131      SAPS     C34      CTL2    -0.180000       12.0110           0
      9431 MEMB     131      SAPS     H4X      HAL2     0.900000E-01   1.00800           0
      9432 MEMB     131      SAPS     H4Y      HAL2     0.900000E-01   1.00800           0
      9433 MEMB     131      SAPS     C35      CTL2    -0.180000       12.0110           0
      9434 MEMB     131      SAPS     H5X      HAL2     0.900000E-01   1.00800           0
      9435 MEMB     131      SAPS     H5Y      HAL2     0.900000E-01   1.00800           0
      9436 MEMB     131      SAPS     C36      CTL2    -0.180000       12.0110           0
      9437 MEMB     131      SAPS     H6X      HAL2     0.900000E-01   1.00800           0
      9438 MEMB     131      SAPS     H6Y      HAL2     0.900000E-01   1.00800           0
      9439 MEMB     131      SAPS     C37      CTL2    -0.180000       12.0110           0
      9440 MEMB     131      SAPS     H7X      HAL2     0.900000E-01   1.00800           0
      9441 MEMB     131      SAPS     H7Y      HAL2     0.900000E-01   1.00800           0
      9442 MEMB     131      SAPS     C38      CTL2    -0.180000       12.0110           0
      9443 MEMB     131      SAPS     H8X      HAL2     0.900000E-01   1.00800           0
      9444 MEMB     131      SAPS     H8Y      HAL2     0.900000E-01   1.00800           0
      9445 MEMB     131      SAPS     C39      CTL2    -0.180000       12.0110           0
      9446 MEMB     131      SAPS     H9X      HAL2     0.900000E-01   1.00800           0
      9447 MEMB     131      SAPS     H9Y      HAL2     0.900000E-01   1.00800           0
      9448 MEMB     131      SAPS     C310     CTL2    -0.180000       12.0110           0
      9449 MEMB     131      SAPS     H10X     HAL2     0.900000E-01   1.00800           0
      9450 MEMB     131      SAPS     H10Y     HAL2     0.900000E-01   1.00800           0
      9451 MEMB     131      SAPS     C311     CTL2    -0.180000       12.0110           0
      9452 MEMB     131      SAPS     H11X     HAL2     0.900000E-01   1.00800           0
      9453 MEMB     131      SAPS     H11Y     HAL2     0.900000E-01   1.00800           0
      9454 MEMB     131      SAPS     C312     CTL2    -0.180000       12.0110           0
      9455 MEMB     131      SAPS     H12X     HAL2     0.900000E-01   1.00800           0
      9456 MEMB     131      SAPS     H12Y     HAL2     0.900000E-01   1.00800           0
      9457 MEMB     131      SAPS     C313     CTL2    -0.180000       12.0110           0
      9458 MEMB     131      SAPS     H13X     HAL2     0.900000E-01   1.00800           0
      9459 MEMB     131      SAPS     H13Y     HAL2     0.900000E-01   1.00800           0
      9460 MEMB     131      SAPS     C314     CTL2    -0.180000       12.0110           0
      9461 MEMB     131      SAPS     H14X     HAL2     0.900000E-01   1.00800           0
      9462 MEMB     131      SAPS     H14Y     HAL2     0.900000E-01   1.00800           0
      9463 MEMB     131      SAPS     C315     CTL2    -0.180000       12.0110           0
      9464 MEMB     131      SAPS     H15X     HAL2     0.900000E-01   1.00800           0
      9465 MEMB     131      SAPS     H15Y     HAL2     0.900000E-01   1.00800           0
      9466 MEMB     131      SAPS     C316     CTL2    -0.180000       12.0110           0
      9467 MEMB     131      SAPS     H16X     HAL2     0.900000E-01   1.00800           0
      9468 MEMB     131      SAPS     H16Y     HAL2     0.900000E-01   1.00800           0
      9469 MEMB     131      SAPS     C317     CTL2    -0.180000       12.0110           0
      9470 MEMB     131      SAPS     H17X     HAL2     0.900000E-01   1.00800           0
      9471 MEMB     131      SAPS     H17Y     HAL2     0.900000E-01   1.00800           0
      9472 MEMB     131      SAPS     C318     CTL3    -0.270000       12.0110           0
      9473 MEMB     131      SAPS     H18X     HAL3     0.900000E-01   1.00800           0
      9474 MEMB     131      SAPS     H18Y     HAL3     0.900000E-01   1.00800           0
      9475 MEMB     131      SAPS     H18Z     HAL3     0.900000E-01   1.00800           0
      9476 MEMB     137      SAPS     N        NH3L    -0.300000       14.0070           0
      9477 MEMB     137      SAPS     HN1      HCL      0.330000       1.00800           0
      9478 MEMB     137      SAPS     HN2      HCL      0.330000       1.00800           0
      9479 MEMB     137      SAPS     HN3      HCL      0.330000       1.00800           0
      9480 MEMB     137      SAPS     C12      CTL1     0.210000       12.0110           0
      9481 MEMB     137      SAPS     H12A     HBL      0.100000       1.00800           0
      9482 MEMB     137      SAPS     C13      CCL      0.340000       12.0110           0
      9483 MEMB     137      SAPS     O13A     OCL     -0.670000       15.9994           0
      9484 MEMB     137      SAPS     O13B     OCL     -0.670000       15.9994           0
      9485 MEMB     137      SAPS     C11      CTL2    -0.800000E-01   12.0110           0
      9486 MEMB     137      SAPS     H11A     HAL2     0.900000E-01   1.00800           0
      9487 MEMB     137      SAPS     H11B     HAL2     0.900000E-01   1.00800           0
      9488 MEMB     137      SAPS     P        PL       1.500000       30.9740           0
      9489 MEMB     137      SAPS     O13      O2L     -0.780000       15.9994           0
      9490 MEMB     137      SAPS     O14      O2L     -0.780000       15.9994           0
      9491 MEMB     137      SAPS     O12      OSLP    -0.570000       15.9994           0
      9492 MEMB     137      SAPS     O11      OSLP    -0.570000       15.9994           0
      9493 MEMB     137      SAPS     C1       CTL2    -0.800000E-01   12.0110           0
      9494 MEMB     137      SAPS     HA       HAL2     0.900000E-01   1.00800           0
      9495 MEMB     137      SAPS     HB       HAL2     0.900000E-01   1.00800           0
      9496 MEMB     137      SAPS     C2       CTL1     0.170000       12.0110           0
      9497 MEMB     137      SAPS     HS       HAL1     0.900000E-01   1.00800           0
      9498 MEMB     137      SAPS     O21      OSL     -0.490000       15.9994           0
      9499 MEMB     137      SAPS     C21      CL       0.900000       12.0110           0
      9500 MEMB     137      SAPS     O22      OBL     -0.630000       15.9994           0
      9501 MEMB     137      SAPS     C22      CTL2    -0.220000       12.0110           0
      9502 MEMB     137      SAPS     H2R      HAL2     0.900000E-01   1.00800           0
      9503 MEMB     137      SAPS     H2S      HAL2     0.900000E-01   1.00800           0
      9504 MEMB     137      SAPS     C3       CTL2     0.800000E-01   12.0110           0
      9505 MEMB     137      SAPS     HX       HAL2     0.900000E-01   1.00800           0
      9506 MEMB     137      SAPS     HY       HAL2     0.900000E-01   1.00800           0
      9507 MEMB     137      SAPS     O31      OSL     -0.490000       15.9994           0
      9508 MEMB     137      SAPS     C31      CL       0.900000       12.0110           0
      9509 MEMB     137      SAPS     O32      OBL     -0.630000       15.9994           0
      9510 MEMB     137      SAPS     C32      CTL2    -0.220000       12.0110           0
      9511 MEMB     137      SAPS     H2X      HAL2     0.900000E-01   1.00800           0
      9512 MEMB     137      SAPS     H2Y      HAL2     0.900000E-01   1.00800           0
      9513 MEMB     137      SAPS     C23      CTL2    -0.180000       12.0110           0
      9514 MEMB     137      SAPS     H3R      HAL2     0.900000E-01   1.00800           0
      9515 MEMB     137      SAPS     H3S      HAL2     0.900000E-01   1.00800           0
      9516 MEMB     137      SAPS     C24      CTL2    -0.180000       12.0110           0
      9517 MEMB     137      SAPS     H4R      HAL2     0.900000E-01   1.00800           0
      9518 MEMB     137      SAPS     H4S      HAL2     0.900000E-01   1.00800           0
      9519 MEMB     137      SAPS     C25      CEL1    -0.150000       12.0110           0
      9520 MEMB     137      SAPS     H5R      HEL1     0.150000       1.00800           0
      9521 MEMB     137      SAPS     C26      CEL1    -0.150000       12.0110           0
      9522 MEMB     137      SAPS     H6R      HEL1     0.150000       1.00800           0
      9523 MEMB     137      SAPS     C27      CTL2    -0.180000       12.0110           0
      9524 MEMB     137      SAPS     H7R      HAL2     0.900000E-01   1.00800           0
      9525 MEMB     137      SAPS     H7S      HAL2     0.900000E-01   1.00800           0
      9526 MEMB     137      SAPS     C28      CEL1    -0.150000       12.0110           0
      9527 MEMB     137      SAPS     H8R      HEL1     0.150000       1.00800           0
      9528 MEMB     137      SAPS     C29      CEL1    -0.150000       12.0110           0
      9529 MEMB     137      SAPS     H9R      HEL1     0.150000       1.00800           0
      9530 MEMB     137      SAPS     C210     CTL2    -0.180000       12.0110           0
      9531 MEMB     137      SAPS     H10R     HAL2     0.900000E-01   1.00800           0
      9532 MEMB     137      SAPS     H10S     HAL2     0.900000E-01   1.00800           0
      9533 MEMB     137      SAPS     C211     CEL1    -0.150000       12.0110           0
      9534 MEMB     137      SAPS     H11R     HEL1     0.150000       1.00800           0
      9535 MEMB     137      SAPS     C212     CEL1    -0.150000       12.0110           0
      9536 MEMB     137      SAPS     H12R     HEL1     0.150000       1.00800           0
      9537 MEMB     137      SAPS     C213     CTL2    -0.180000       12.0110           0
      9538 MEMB     137      SAPS     H13R     HAL2     0.900000E-01   1.00800           0
      9539 MEMB     137      SAPS     H13S     HAL2     0.900000E-01   1.00800           0
      9540 MEMB     137      SAPS     C214     CEL1    -0.150000       12.0110           0
      9541 MEMB     137      SAPS     H14R     HEL1     0.150000       1.00800           0
      9542 MEMB     137      SAPS     C215     CEL1    -0.150000       12.0110           0
      9543 MEMB     137      SAPS     H15R     HEL1     0.150000       1.00800           0
      9544 MEMB     137      SAPS     C216     CTL2    -0.180000       12.0110           0
      9545 MEMB     137      SAPS     H16R     HAL2     0.900000E-01   1.00800           0
      9546 MEMB     137      SAPS     H16S     HAL2     0.900000E-01   1.00800           0
      9547 MEMB     137      SAPS     C217     CTL2    -0.180000       12.0110           0
      9548 MEMB     137      SAPS     H17R     HAL2     0.900000E-01   1.00800           0
      9549 MEMB     137      SAPS     H17S     HAL2     0.900000E-01   1.00800           0
      9550 MEMB     137      SAPS     C218     CTL2    -0.180000       12.0110           0
      9551 MEMB     137      SAPS     H18R     HAL2     0.900000E-01   1.00800           0
      9552 MEMB     137      SAPS     H18S     HAL2     0.900000E-01   1.00800           0
      9553 MEMB     137      SAPS     C219     CTL2    -0.180000       12.0110           0
      9554 MEMB     137      SAPS     H19R     HAL2     0.900000E-01   1.00800           0
      9555 MEMB     137      SAPS     H19S     HAL2     0.900000E-01   1.00800           0
      9556 MEMB     137      SAPS     C220     CTL3    -0.270000       12.0110           0
      9557 MEMB     137      SAPS     H20R     HAL3     0.900000E-01   1.00800           0
      9558 MEMB     137      SAPS     H20S     HAL3     0.900000E-01   1.00800           0
      9559 MEMB     137      SAPS     H20T     HAL3     0.900000E-01   1.00800           0
      9560 MEMB     137      SAPS     C33      CTL2    -0.180000       12.0110           0
      9561 MEMB     137      SAPS     H3X      HAL2     0.900000E-01   1.00800           0
      9562 MEMB     137      SAPS     H3Y      HAL2     0.900000E-01   1.00800           0
      9563 MEMB     137      SAPS     C34      CTL2    -0.180000       12.0110           0
      9564 MEMB     137      SAPS     H4X      HAL2     0.900000E-01   1.00800           0
      9565 MEMB     137      SAPS     H4Y      HAL2     0.900000E-01   1.00800           0
      9566 MEMB     137      SAPS     C35      CTL2    -0.180000       12.0110           0
      9567 MEMB     137      SAPS     H5X      HAL2     0.900000E-01   1.00800           0
      9568 MEMB     137      SAPS     H5Y      HAL2     0.900000E-01   1.00800           0
      9569 MEMB     137      SAPS     C36      CTL2    -0.180000       12.0110           0
      9570 MEMB     137      SAPS     H6X      HAL2     0.900000E-01   1.00800           0
      9571 MEMB     137      SAPS     H6Y      HAL2     0.900000E-01   1.00800           0
      9572 MEMB     137      SAPS     C37      CTL2    -0.180000       12.0110           0
      9573 MEMB     137      SAPS     H7X      HAL2     0.900000E-01   1.00800           0
      9574 MEMB     137      SAPS     H7Y      HAL2     0.900000E-01   1.00800           0
      9575 MEMB     137      SAPS     C38      CTL2    -0.180000       12.0110           0
      9576 MEMB     137      SAPS     H8X      HAL2     0.900000E-01   1.00800           0
      9577 MEMB     137      SAPS     H8Y      HAL2     0.900000E-01   1.00800           0
      9578 MEMB     137      SAPS     C39      CTL2    -0.180000       12.0110           0
      9579 MEMB     137      SAPS     H9X      HAL2     0.900000E-01   1.00800           0
      9580 MEMB     137      SAPS     H9Y      HAL2     0.900000E-01   1.00800           0
      9581 MEMB     137      SAPS     C310     CTL2    -0.180000       12.0110           0
      9582 MEMB     137      SAPS     H10X     HAL2     0.900000E-01   1.00800           0
      9583 MEMB     137      SAPS     H10Y     HAL2     0.900000E-01   1.00800           0
      9584 MEMB     137      SAPS     C311     CTL2    -0.180000       12.0110           0
      9585 MEMB     137      SAPS     H11X     HAL2     0.900000E-01   1.00800           0
      9586 MEMB     137      SAPS     H11Y     HAL2     0.900000E-01   1.00800           0
      9587 MEMB     137      SAPS     C312     CTL2    -0.180000       12.0110           0
      9588 MEMB     137      SAPS     H12X     HAL2     0.900000E-01   1.00800           0
      9589 MEMB     137      SAPS     H12Y     HAL2     0.900000E-01   1.00800           0
      9590 MEMB     137      SAPS     C313     CTL2    -0.180000       12.0110           0
      9591 MEMB     137      SAPS     H13X     HAL2     0.900000E-01   1.00800           0
      9592 MEMB     137      SAPS     H13Y     HAL2     0.900000E-01   1.00800           0
      9593 MEMB     137      SAPS     C314     CTL2    -0.180000       12.0110           0
      9594 MEMB     137      SAPS     H14X     HAL2     0.900000E-01   1.00800           0
      9595 MEMB     137      SAPS     H14Y     HAL2     0.900000E-01   1.00800           0
      9596 MEMB     137      SAPS     C315     CTL2    -0.180000       12.0110           0
      9597 MEMB     137      SAPS     H15X     HAL2     0.900000E-01   1.00800           0
      9598 MEMB     137      SAPS     H15Y     HAL2     0.900000E-01   1.00800           0
      9599 MEMB     137      SAPS     C316     CTL2    -0.180000       12.0110           0
      9600 MEMB     137      SAPS     H16X     HAL2     0.900000E-01   1.00800           0
      9601 MEMB     137      SAPS     H16Y     HAL2     0.900000E-01   1.00800           0
      9602 MEMB     137      SAPS     C317     CTL2    -0.180000       12.0110           0
      9603 MEMB     137      SAPS     H17X     HAL2     0.900000E-01   1.00800           0
      9604 MEMB     137      SAPS     H17Y     HAL2     0.900000E-01   1.00800           0
      9605 MEMB     137      SAPS     C318     CTL3    -0.270000       12.0110           0
      9606 MEMB     137      SAPS     H18X     HAL3     0.900000E-01   1.00800           0
      9607 MEMB     137      SAPS     H18Y     HAL3     0.900000E-01   1.00800           0
      9608 MEMB     137      SAPS     H18Z     HAL3     0.900000E-01   1.00800           0
      9609 MEMB     142      SAPS     N        NH3L    -0.300000       14.0070           0
      9610 MEMB     142      SAPS     HN1      HCL      0.330000       1.00800           0
      9611 MEMB     142      SAPS     HN2      HCL      0.330000       1.00800           0
      9612 MEMB     142      SAPS     HN3      HCL      0.330000       1.00800           0
      9613 MEMB     142      SAPS     C12      CTL1     0.210000       12.0110           0
      9614 MEMB     142      SAPS     H12A     HBL      0.100000       1.00800           0
      9615 MEMB     142      SAPS     C13      CCL      0.340000       12.0110           0
      9616 MEMB     142      SAPS     O13A     OCL     -0.670000       15.9994           0
      9617 MEMB     142      SAPS     O13B     OCL     -0.670000       15.9994           0
      9618 MEMB     142      SAPS     C11      CTL2    -0.800000E-01   12.0110           0
      9619 MEMB     142      SAPS     H11A     HAL2     0.900000E-01   1.00800           0
      9620 MEMB     142      SAPS     H11B     HAL2     0.900000E-01   1.00800           0
      9621 MEMB     142      SAPS     P        PL       1.500000       30.9740           0
      9622 MEMB     142      SAPS     O13      O2L     -0.780000       15.9994           0
      9623 MEMB     142      SAPS     O14      O2L     -0.780000       15.9994           0
      9624 MEMB     142      SAPS     O12      OSLP    -0.570000       15.9994           0
      9625 MEMB     142      SAPS     O11      OSLP    -0.570000       15.9994           0
      9626 MEMB     142      SAPS     C1       CTL2    -0.800000E-01   12.0110           0
      9627 MEMB     142      SAPS     HA       HAL2     0.900000E-01   1.00800           0
      9628 MEMB     142      SAPS     HB       HAL2     0.900000E-01   1.00800           0
      9629 MEMB     142      SAPS     C2       CTL1     0.170000       12.0110           0
      9630 MEMB     142      SAPS     HS       HAL1     0.900000E-01   1.00800           0
      9631 MEMB     142      SAPS     O21      OSL     -0.490000       15.9994           0
      9632 MEMB     142      SAPS     C21      CL       0.900000       12.0110           0
      9633 MEMB     142      SAPS     O22      OBL     -0.630000       15.9994           0
      9634 MEMB     142      SAPS     C22      CTL2    -0.220000       12.0110           0
      9635 MEMB     142      SAPS     H2R      HAL2     0.900000E-01   1.00800           0
      9636 MEMB     142      SAPS     H2S      HAL2     0.900000E-01   1.00800           0
      9637 MEMB     142      SAPS     C3       CTL2     0.800000E-01   12.0110           0
      9638 MEMB     142      SAPS     HX       HAL2     0.900000E-01   1.00800           0
      9639 MEMB     142      SAPS     HY       HAL2     0.900000E-01   1.00800           0
      9640 MEMB     142      SAPS     O31      OSL     -0.490000       15.9994           0
      9641 MEMB     142      SAPS     C31      CL       0.900000       12.0110           0
      9642 MEMB     142      SAPS     O32      OBL     -0.630000       15.9994           0
      9643 MEMB     142      SAPS     C32      CTL2    -0.220000       12.0110           0
      9644 MEMB     142      SAPS     H2X      HAL2     0.900000E-01   1.00800           0
      9645 MEMB     142      SAPS     H2Y      HAL2     0.900000E-01   1.00800           0
      9646 MEMB     142      SAPS     C23      CTL2    -0.180000       12.0110           0
      9647 MEMB     142      SAPS     H3R      HAL2     0.900000E-01   1.00800           0
      9648 MEMB     142      SAPS     H3S      HAL2     0.900000E-01   1.00800           0
      9649 MEMB     142      SAPS     C24      CTL2    -0.180000       12.0110           0
      9650 MEMB     142      SAPS     H4R      HAL2     0.900000E-01   1.00800           0
      9651 MEMB     142      SAPS     H4S      HAL2     0.900000E-01   1.00800           0
      9652 MEMB     142      SAPS     C25      CEL1    -0.150000       12.0110           0
      9653 MEMB     142      SAPS     H5R      HEL1     0.150000       1.00800           0
      9654 MEMB     142      SAPS     C26      CEL1    -0.150000       12.0110           0
      9655 MEMB     142      SAPS     H6R      HEL1     0.150000       1.00800           0
      9656 MEMB     142      SAPS     C27      CTL2    -0.180000       12.0110           0
      9657 MEMB     142      SAPS     H7R      HAL2     0.900000E-01   1.00800           0
      9658 MEMB     142      SAPS     H7S      HAL2     0.900000E-01   1.00800           0
      9659 MEMB     142      SAPS     C28      CEL1    -0.150000       12.0110           0
      9660 MEMB     142      SAPS     H8R      HEL1     0.150000       1.00800           0
      9661 MEMB     142      SAPS     C29      CEL1    -0.150000       12.0110           0
      9662 MEMB     142      SAPS     H9R      HEL1     0.150000       1.00800           0
      9663 MEMB     142      SAPS     C210     CTL2    -0.180000       12.0110           0
      9664 MEMB     142      SAPS     H10R     HAL2     0.900000E-01   1.00800           0
      9665 MEMB     142      SAPS     H10S     HAL2     0.900000E-01   1.00800           0
      9666 MEMB     142      SAPS     C211     CEL1    -0.150000       12.0110           0
      9667 MEMB     142      SAPS     H11R     HEL1     0.150000       1.00800           0
      9668 MEMB     142      SAPS     C212     CEL1    -0.150000       12.0110           0
      9669 MEMB     142      SAPS     H12R     HEL1     0.150000       1.00800           0
      9670 MEMB     142      SAPS     C213     CTL2    -0.180000       12.0110           0
      9671 MEMB     142      SAPS     H13R     HAL2     0.900000E-01   1.00800           0
      9672 MEMB     142      SAPS     H13S     HAL2     0.900000E-01   1.00800           0
      9673 MEMB     142      SAPS     C214     CEL1    -0.150000       12.0110           0
      9674 MEMB     142      SAPS     H14R     HEL1     0.150000       1.00800           0
      9675 MEMB     142      SAPS     C215     CEL1    -0.150000       12.0110           0
      9676 MEMB     142      SAPS     H15R     HEL1     0.150000       1.00800           0
      9677 MEMB     142      SAPS     C216     CTL2    -0.180000       12.0110           0
      9678 MEMB     142      SAPS     H16R     HAL2     0.900000E-01   1.00800           0
      9679 MEMB     142      SAPS     H16S     HAL2     0.900000E-01   1.00800           0
      9680 MEMB     142      SAPS     C217     CTL2    -0.180000       12.0110           0
      9681 MEMB     142      SAPS     H17R     HAL2     0.900000E-01   1.00800           0
      9682 MEMB     142      SAPS     H17S     HAL2     0.900000E-01   1.00800           0
      9683 MEMB     142      SAPS     C218     CTL2    -0.180000       12.0110           0
      9684 MEMB     142      SAPS     H18R     HAL2     0.900000E-01   1.00800           0
      9685 MEMB     142      SAPS     H18S     HAL2     0.900000E-01   1.00800           0
      9686 MEMB     142      SAPS     C219     CTL2    -0.180000       12.0110           0
      9687 MEMB     142      SAPS     H19R     HAL2     0.900000E-01   1.00800           0
      9688 MEMB     142      SAPS     H19S     HAL2     0.900000E-01   1.00800           0
      9689 MEMB     142      SAPS     C220     CTL3    -0.270000       12.0110           0
      9690 MEMB     142      SAPS     H20R     HAL3     0.900000E-01   1.00800           0
      9691 MEMB     142      SAPS     H20S     HAL3     0.900000E-01   1.00800           0
      9692 MEMB     142      SAPS     H20T     HAL3     0.900000E-01   1.00800           0
      9693 MEMB     142      SAPS     C33      CTL2    -0.180000       12.0110           0
      9694 MEMB     142      SAPS     H3X      HAL2     0.900000E-01   1.00800           0
      9695 MEMB     142      SAPS     H3Y      HAL2     0.900000E-01   1.00800           0
      9696 MEMB     142      SAPS     C34      CTL2    -0.180000       12.0110           0
      9697 MEMB     142      SAPS     H4X      HAL2     0.900000E-01   1.00800           0
      9698 MEMB     142      SAPS     H4Y      HAL2     0.900000E-01   1.00800           0
      9699 MEMB     142      SAPS     C35      CTL2    -0.180000       12.0110           0
      9700 MEMB     142      SAPS     H5X      HAL2     0.900000E-01   1.00800           0
      9701 MEMB     142      SAPS     H5Y      HAL2     0.900000E-01   1.00800           0
      9702 MEMB     142      SAPS     C36      CTL2    -0.180000       12.0110           0
      9703 MEMB     142      SAPS     H6X      HAL2     0.900000E-01   1.00800           0
      9704 MEMB     142      SAPS     H6Y      HAL2     0.900000E-01   1.00800           0
      9705 MEMB     142      SAPS     C37      CTL2    -0.180000       12.0110           0
      9706 MEMB     142      SAPS     H7X      HAL2     0.900000E-01   1.00800           0
      9707 MEMB     142      SAPS     H7Y      HAL2     0.900000E-01   1.00800           0
      9708 MEMB     142      SAPS     C38      CTL2    -0.180000       12.0110           0
      9709 MEMB     142      SAPS     H8X      HAL2     0.900000E-01   1.00800           0
      9710 MEMB     142      SAPS     H8Y      HAL2     0.900000E-01   1.00800           0
      9711 MEMB     142      SAPS     C39      CTL2    -0.180000       12.0110           0
      9712 MEMB     142      SAPS     H9X      HAL2     0.900000E-01   1.00800           0
      9713 MEMB     142      SAPS     H9Y      HAL2     0.900000E-01   1.00800           0
      9714 MEMB     142      SAPS     C310     CTL2    -0.180000       12.0110           0
      9715 MEMB     142      SAPS     H10X     HAL2     0.900000E-01   1.00800           0
      9716 MEMB     142      SAPS     H10Y     HAL2     0.900000E-01   1.00800           0
      9717 MEMB     142      SAPS     C311     CTL2    -0.180000       12.0110           0
      9718 MEMB     142      SAPS     H11X     HAL2     0.900000E-01   1.00800           0
      9719 MEMB     142      SAPS     H11Y     HAL2     0.900000E-01   1.00800           0
      9720 MEMB     142      SAPS     C312     CTL2    -0.180000       12.0110           0
      9721 MEMB     142      SAPS     H12X     HAL2     0.900000E-01   1.00800           0
      9722 MEMB     142      SAPS     H12Y     HAL2     0.900000E-01   1.00800           0
      9723 MEMB     142      SAPS     C313     CTL2    -0.180000       12.0110           0
      9724 MEMB     142      SAPS     H13X     HAL2     0.900000E-01   1.00800           0
      9725 MEMB     142      SAPS     H13Y     HAL2     0.900000E-01   1.00800           0
      9726 MEMB     142      SAPS     C314     CTL2    -0.180000       12.0110           0
      9727 MEMB     142      SAPS     H14X     HAL2     0.900000E-01   1.00800           0
      9728 MEMB     142      SAPS     H14Y     HAL2     0.900000E-01   1.00800           0
      9729 MEMB     142      SAPS     C315     CTL2    -0.180000       12.0110           0
      9730 MEMB     142      SAPS     H15X     HAL2     0.900000E-01   1.00800           0
      9731 MEMB     142      SAPS     H15Y     HAL2     0.900000E-01   1.00800           0
      9732 MEMB     142      SAPS     C316     CTL2    -0.180000       12.0110           0
      9733 MEMB     142      SAPS     H16X     HAL2     0.900000E-01   1.00800           0
      9734 MEMB     142      SAPS     H16Y     HAL2     0.900000E-01   1.00800           0
      9735 MEMB     142      SAPS     C317     CTL2    -0.180000       12.0110           0
      9736 MEMB     142      SAPS     H17X     HAL2     0.900000E-01   1.00800           0
      9737 MEMB     142      SAPS     H17Y     HAL2     0.900000E-01   1.00800           0
      9738 MEMB     142      SAPS     C318     CTL3    -0.270000       12.0110           0
      9739 MEMB     142      SAPS     H18X     HAL3     0.900000E-01   1.00800           0
      9740 MEMB     142      SAPS     H18Y     HAL3     0.900000E-01   1.00800           0
      9741 MEMB     142      SAPS     H18Z     HAL3     0.900000E-01   1.00800           0
      9742 MEMB     153      SAPS     N        NH3L    -0.300000       14.0070           0
      9743 MEMB     153      SAPS     HN1      HCL      0.330000       1.00800           0
      9744 MEMB     153      SAPS     HN2      HCL      0.330000       1.00800           0
      9745 MEMB     153      SAPS     HN3      HCL      0.330000       1.00800           0
      9746 MEMB     153      SAPS     C12      CTL1     0.210000       12.0110           0
      9747 MEMB     153      SAPS     H12A     HBL      0.100000       1.00800           0
      9748 MEMB     153      SAPS     C13      CCL      0.340000       12.0110           0
      9749 MEMB     153      SAPS     O13A     OCL     -0.670000       15.9994           0
      9750 MEMB     153      SAPS     O13B     OCL     -0.670000       15.9994           0
      9751 MEMB     153      SAPS     C11      CTL2    -0.800000E-01   12.0110           0
      9752 MEMB     153      SAPS     H11A     HAL2     0.900000E-01   1.00800           0
      9753 MEMB     153      SAPS     H11B     HAL2     0.900000E-01   1.00800           0
      9754 MEMB     153      SAPS     P        PL       1.500000       30.9740           0
      9755 MEMB     153      SAPS     O13      O2L     -0.780000       15.9994           0
      9756 MEMB     153      SAPS     O14      O2L     -0.780000       15.9994           0
      9757 MEMB     153      SAPS     O12      OSLP    -0.570000       15.9994           0
      9758 MEMB     153      SAPS     O11      OSLP    -0.570000       15.9994           0
      9759 MEMB     153      SAPS     C1       CTL2    -0.800000E-01   12.0110           0
      9760 MEMB     153      SAPS     HA       HAL2     0.900000E-01   1.00800           0
      9761 MEMB     153      SAPS     HB       HAL2     0.900000E-01   1.00800           0
      9762 MEMB     153      SAPS     C2       CTL1     0.170000       12.0110           0
      9763 MEMB     153      SAPS     HS       HAL1     0.900000E-01   1.00800           0
      9764 MEMB     153      SAPS     O21      OSL     -0.490000       15.9994           0
      9765 MEMB     153      SAPS     C21      CL       0.900000       12.0110           0
      9766 MEMB     153      SAPS     O22      OBL     -0.630000       15.9994           0
      9767 MEMB     153      SAPS     C22      CTL2    -0.220000       12.0110           0
      9768 MEMB     153      SAPS     H2R      HAL2     0.900000E-01   1.00800           0
      9769 MEMB     153      SAPS     H2S      HAL2     0.900000E-01   1.00800           0
      9770 MEMB     153      SAPS     C3       CTL2     0.800000E-01   12.0110           0
      9771 MEMB     153      SAPS     HX       HAL2     0.900000E-01   1.00800           0
      9772 MEMB     153      SAPS     HY       HAL2     0.900000E-01   1.00800           0
      9773 MEMB     153      SAPS     O31      OSL     -0.490000       15.9994           0
      9774 MEMB     153      SAPS     C31      CL       0.900000       12.0110           0
      9775 MEMB     153      SAPS     O32      OBL     -0.630000       15.9994           0
      9776 MEMB     153      SAPS     C32      CTL2    -0.220000       12.0110           0
      9777 MEMB     153      SAPS     H2X      HAL2     0.900000E-01   1.00800           0
      9778 MEMB     153      SAPS     H2Y      HAL2     0.900000E-01   1.00800           0
      9779 MEMB     153      SAPS     C23      CTL2    -0.180000       12.0110           0
      9780 MEMB     153      SAPS     H3R      HAL2     0.900000E-01   1.00800           0
      9781 MEMB     153      SAPS     H3S      HAL2     0.900000E-01   1.00800           0
      9782 MEMB     153      SAPS     C24      CTL2    -0.180000       12.0110           0
      9783 MEMB     153      SAPS     H4R      HAL2     0.900000E-01   1.00800           0
      9784 MEMB     153      SAPS     H4S      HAL2     0.900000E-01   1.00800           0
      9785 MEMB     153      SAPS     C25      CEL1    -0.150000       12.0110           0
      9786 MEMB     153      SAPS     H5R      HEL1     0.150000       1.00800           0
      9787 MEMB     153      SAPS     C26      CEL1    -0.150000       12.0110           0
      9788 MEMB     153      SAPS     H6R      HEL1     0.150000       1.00800           0
      9789 MEMB     153      SAPS     C27      CTL2    -0.180000       12.0110           0
      9790 MEMB     153      SAPS     H7R      HAL2     0.900000E-01   1.00800           0
      9791 MEMB     153      SAPS     H7S      HAL2     0.900000E-01   1.00800           0
      9792 MEMB     153      SAPS     C28      CEL1    -0.150000       12.0110           0
      9793 MEMB     153      SAPS     H8R      HEL1     0.150000       1.00800           0
      9794 MEMB     153      SAPS     C29      CEL1    -0.150000       12.0110           0
      9795 MEMB     153      SAPS     H9R      HEL1     0.150000       1.00800           0
      9796 MEMB     153      SAPS     C210     CTL2    -0.180000       12.0110           0
      9797 MEMB     153      SAPS     H10R     HAL2     0.900000E-01   1.00800           0
      9798 MEMB     153      SAPS     H10S     HAL2     0.900000E-01   1.00800           0
      9799 MEMB     153      SAPS     C211     CEL1    -0.150000       12.0110           0
      9800 MEMB     153      SAPS     H11R     HEL1     0.150000       1.00800           0
      9801 MEMB     153      SAPS     C212     CEL1    -0.150000       12.0110           0
      9802 MEMB     153      SAPS     H12R     HEL1     0.150000       1.00800           0
      9803 MEMB     153      SAPS     C213     CTL2    -0.180000       12.0110           0
      9804 MEMB     153      SAPS     H13R     HAL2     0.900000E-01   1.00800           0
      9805 MEMB     153      SAPS     H13S     HAL2     0.900000E-01   1.00800           0
      9806 MEMB     153      SAPS     C214     CEL1    -0.150000       12.0110           0
      9807 MEMB     153      SAPS     H14R     HEL1     0.150000       1.00800           0
      9808 MEMB     153      SAPS     C215     CEL1    -0.150000       12.0110           0
      9809 MEMB     153      SAPS     H15R     HEL1     0.150000       1.00800           0
      9810 MEMB     153      SAPS     C216     CTL2    -0.180000       12.0110           0
      9811 MEMB     153      SAPS     H16R     HAL2     0.900000E-01   1.00800           0
      9812 MEMB     153      SAPS     H16S     HAL2     0.900000E-01   1.00800           0
      9813 MEMB     153      SAPS     C217     CTL2    -0.180000       12.0110           0
      9814 MEMB     153      SAPS     H17R     HAL2     0.900000E-01   1.00800           0
      9815 MEMB     153      SAPS     H17S     HAL2     0.900000E-01   1.00800           0
      9816 MEMB     153      SAPS     C218     CTL2    -0.180000       12.0110           0
      9817 MEMB     153      SAPS     H18R     HAL2     0.900000E-01   1.00800           0
      9818 MEMB     153      SAPS     H18S     HAL2     0.900000E-01   1.00800           0
      9819 MEMB     153      SAPS     C219     CTL2    -0.180000       12.0110           0
      9820 MEMB     153      SAPS     H19R     HAL2     0.900000E-01   1.00800           0
      9821 MEMB     153      SAPS     H19S     HAL2     0.900000E-01   1.00800           0
      9822 MEMB     153      SAPS     C220     CTL3    -0.270000       12.0110           0
      9823 MEMB     153      SAPS     H20R     HAL3     0.900000E-01   1.00800           0
      9824 MEMB     153      SAPS     H20S     HAL3     0.900000E-01   1.00800           0
      9825 MEMB     153      SAPS     H20T     HAL3     0.900000E-01   1.00800           0
      9826 MEMB     153      SAPS     C33      CTL2    -0.180000       12.0110           0
      9827 MEMB     153      SAPS     H3X      HAL2     0.900000E-01   1.00800           0
      9828 MEMB     153      SAPS     H3Y      HAL2     0.900000E-01   1.00800           0
      9829 MEMB     153      SAPS     C34      CTL2    -0.180000       12.0110           0
      9830 MEMB     153      SAPS     H4X      HAL2     0.900000E-01   1.00800           0
      9831 MEMB     153      SAPS     H4Y      HAL2     0.900000E-01   1.00800           0
      9832 MEMB     153      SAPS     C35      CTL2    -0.180000       12.0110           0
      9833 MEMB     153      SAPS     H5X      HAL2     0.900000E-01   1.00800           0
      9834 MEMB     153      SAPS     H5Y      HAL2     0.900000E-01   1.00800           0
      9835 MEMB     153      SAPS     C36      CTL2    -0.180000       12.0110           0
      9836 MEMB     153      SAPS     H6X      HAL2     0.900000E-01   1.00800           0
      9837 MEMB     153      SAPS     H6Y      HAL2     0.900000E-01   1.00800           0
      9838 MEMB     153      SAPS     C37      CTL2    -0.180000       12.0110           0
      9839 MEMB     153      SAPS     H7X      HAL2     0.900000E-01   1.00800           0
      9840 MEMB     153      SAPS     H7Y      HAL2     0.900000E-01   1.00800           0
      9841 MEMB     153      SAPS     C38      CTL2    -0.180000       12.0110           0
      9842 MEMB     153      SAPS     H8X      HAL2     0.900000E-01   1.00800           0
      9843 MEMB     153      SAPS     H8Y      HAL2     0.900000E-01   1.00800           0
      9844 MEMB     153      SAPS     C39      CTL2    -0.180000       12.0110           0
      9845 MEMB     153      SAPS     H9X      HAL2     0.900000E-01   1.00800           0
      9846 MEMB     153      SAPS     H9Y      HAL2     0.900000E-01   1.00800           0
      9847 MEMB     153      SAPS     C310     CTL2    -0.180000       12.0110           0
      9848 MEMB     153      SAPS     H10X     HAL2     0.900000E-01   1.00800           0
      9849 MEMB     153      SAPS     H10Y     HAL2     0.900000E-01   1.00800           0
      9850 MEMB     153      SAPS     C311     CTL2    -0.180000       12.0110           0
      9851 MEMB     153      SAPS     H11X     HAL2     0.900000E-01   1.00800           0
      9852 MEMB     153      SAPS     H11Y     HAL2     0.900000E-01   1.00800           0
      9853 MEMB     153      SAPS     C312     CTL2    -0.180000       12.0110           0
      9854 MEMB     153      SAPS     H12X     HAL2     0.900000E-01   1.00800           0
      9855 MEMB     153      SAPS     H12Y     HAL2     0.900000E-01   1.00800           0
      9856 MEMB     153      SAPS     C313     CTL2    -0.180000       12.0110           0
      9857 MEMB     153      SAPS     H13X     HAL2     0.900000E-01   1.00800           0
      9858 MEMB     153      SAPS     H13Y     HAL2     0.900000E-01   1.00800           0
      9859 MEMB     153      SAPS     C314     CTL2    -0.180000       12.0110           0
      9860 MEMB     153      SAPS     H14X     HAL2     0.900000E-01   1.00800           0
      9861 MEMB     153      SAPS     H14Y     HAL2     0.900000E-01   1.00800           0
      9862 MEMB     153      SAPS     C315     CTL2    -0.180000       12.0110           0
      9863 MEMB     153      SAPS     H15X     HAL2     0.900000E-01   1.00800           0
      9864 MEMB     153      SAPS     H15Y     HAL2     0.900000E-01   1.00800           0
      9865 MEMB     153      SAPS     C316     CTL2    -0.180000       12.0110           0
      9866 MEMB     153      SAPS     H16X     HAL2     0.900000E-01   1.00800           0
      9867 MEMB     153      SAPS     H16Y     HAL2     0.900000E-01   1.00800           0
      9868 MEMB     153      SAPS     C317     CTL2    -0.180000       12.0110           0
      9869 MEMB     153      SAPS     H17X     HAL2     0.900000E-01   1.00800           0
      9870 MEMB     153      SAPS     H17Y     HAL2     0.900000E-01   1.00800           0
      9871 MEMB     153      SAPS     C318     CTL3    -0.270000       12.0110           0
      9872 MEMB     153      SAPS     H18X     HAL3     0.900000E-01   1.00800           0
      9873 MEMB     153      SAPS     H18Y     HAL3     0.900000E-01   1.00800           0
      9874 MEMB     153      SAPS     H18Z     HAL3     0.900000E-01   1.00800           0
      9875 MEMB     185      SAPS     N        NH3L    -0.300000       14.0070           0
      9876 MEMB     185      SAPS     HN1      HCL      0.330000       1.00800           0
      9877 MEMB     185      SAPS     HN2      HCL      0.330000       1.00800           0
      9878 MEMB     185      SAPS     HN3      HCL      0.330000       1.00800           0
      9879 MEMB     185      SAPS     C12      CTL1     0.210000       12.0110           0
      9880 MEMB     185      SAPS     H12A     HBL      0.100000       1.00800           0
      9881 MEMB     185      SAPS     C13      CCL      0.340000       12.0110           0
      9882 MEMB     185      SAPS     O13A     OCL     -0.670000       15.9994           0
      9883 MEMB     185      SAPS     O13B     OCL     -0.670000       15.9994           0
      9884 MEMB     185      SAPS     C11      CTL2    -0.800000E-01   12.0110           0
      9885 MEMB     185      SAPS     H11A     HAL2     0.900000E-01   1.00800           0
      9886 MEMB     185      SAPS     H11B     HAL2     0.900000E-01   1.00800           0
      9887 MEMB     185      SAPS     P        PL       1.500000       30.9740           0
      9888 MEMB     185      SAPS     O13      O2L     -0.780000       15.9994           0
      9889 MEMB     185      SAPS     O14      O2L     -0.780000       15.9994           0
      9890 MEMB     185      SAPS     O12      OSLP    -0.570000       15.9994           0
      9891 MEMB     185      SAPS     O11      OSLP    -0.570000       15.9994           0
      9892 MEMB     185      SAPS     C1       CTL2    -0.800000E-01   12.0110           0
      9893 MEMB     185      SAPS     HA       HAL2     0.900000E-01   1.00800           0
      9894 MEMB     185      SAPS     HB       HAL2     0.900000E-01   1.00800           0
      9895 MEMB     185      SAPS     C2       CTL1     0.170000       12.0110           0
      9896 MEMB     185      SAPS     HS       HAL1     0.900000E-01   1.00800           0
      9897 MEMB     185      SAPS     O21      OSL     -0.490000       15.9994           0
      9898 MEMB     185      SAPS     C21      CL       0.900000       12.0110           0
      9899 MEMB     185      SAPS     O22      OBL     -0.630000       15.9994           0
      9900 MEMB     185      SAPS     C22      CTL2    -0.220000       12.0110           0
      9901 MEMB     185      SAPS     H2R      HAL2     0.900000E-01   1.00800           0
      9902 MEMB     185      SAPS     H2S      HAL2     0.900000E-01   1.00800           0
      9903 MEMB     185      SAPS     C3       CTL2     0.800000E-01   12.0110           0
      9904 MEMB     185      SAPS     HX       HAL2     0.900000E-01   1.00800           0
      9905 MEMB     185      SAPS     HY       HAL2     0.900000E-01   1.00800           0
      9906 MEMB     185      SAPS     O31      OSL     -0.490000       15.9994           0
      9907 MEMB     185      SAPS     C31      CL       0.900000       12.0110           0
      9908 MEMB     185      SAPS     O32      OBL     -0.630000       15.9994           0
      9909 MEMB     185      SAPS     C32      CTL2    -0.220000       12.0110           0
      9910 MEMB     185      SAPS     H2X      HAL2     0.900000E-01   1.00800           0
      9911 MEMB     185      SAPS     H2Y      HAL2     0.900000E-01   1.00800           0
      9912 MEMB     185      SAPS     C23      CTL2    -0.180000       12.0110           0
      9913 MEMB     185      SAPS     H3R      HAL2     0.900000E-01   1.00800           0
      9914 MEMB     185      SAPS     H3S      HAL2     0.900000E-01   1.00800           0
      9915 MEMB     185      SAPS     C24      CTL2    -0.180000       12.0110           0
      9916 MEMB     185      SAPS     H4R      HAL2     0.900000E-01   1.00800           0
      9917 MEMB     185      SAPS     H4S      HAL2     0.900000E-01   1.00800           0
      9918 MEMB     185      SAPS     C25      CEL1    -0.150000       12.0110           0
      9919 MEMB     185      SAPS     H5R      HEL1     0.150000       1.00800           0
      9920 MEMB     185      SAPS     C26      CEL1    -0.150000       12.0110           0
      9921 MEMB     185      SAPS     H6R      HEL1     0.150000       1.00800           0
      9922 MEMB     185      SAPS     C27      CTL2    -0.180000       12.0110           0
      9923 MEMB     185      SAPS     H7R      HAL2     0.900000E-01   1.00800           0
      9924 MEMB     185      SAPS     H7S      HAL2     0.900000E-01   1.00800           0
      9925 MEMB     185      SAPS     C28      CEL1    -0.150000       12.0110           0
      9926 MEMB     185      SAPS     H8R      HEL1     0.150000       1.00800           0
      9927 MEMB     185      SAPS     C29      CEL1    -0.150000       12.0110           0
      9928 MEMB     185      SAPS     H9R      HEL1     0.150000       1.00800           0
      9929 MEMB     185      SAPS     C210     CTL2    -0.180000       12.0110           0
      9930 MEMB     185      SAPS     H10R     HAL2     0.900000E-01   1.00800           0
      9931 MEMB     185      SAPS     H10S     HAL2     0.900000E-01   1.00800           0
      9932 MEMB     185      SAPS     C211     CEL1    -0.150000       12.0110           0
      9933 MEMB     185      SAPS     H11R     HEL1     0.150000       1.00800           0
      9934 MEMB     185      SAPS     C212     CEL1    -0.150000       12.0110           0
      9935 MEMB     185      SAPS     H12R     HEL1     0.150000       1.00800           0
      9936 MEMB     185      SAPS     C213     CTL2    -0.180000       12.0110           0
      9937 MEMB     185      SAPS     H13R     HAL2     0.900000E-01   1.00800           0
      9938 MEMB     185      SAPS     H13S     HAL2     0.900000E-01   1.00800           0
      9939 MEMB     185      SAPS     C214     CEL1    -0.150000       12.0110           0
      9940 MEMB     185      SAPS     H14R     HEL1     0.150000       1.00800           0
      9941 MEMB     185      SAPS     C215     CEL1    -0.150000       12.0110           0
      9942 MEMB     185      SAPS     H15R     HEL1     0.150000       1.00800           0
      9943 MEMB     185      SAPS     C216     CTL2    -0.180000       12.0110           0
      9944 MEMB     185      SAPS     H16R     HAL2     0.900000E-01   1.00800           0
      9945 MEMB     185      SAPS     H16S     HAL2     0.900000E-01   1.00800           0
      9946 MEMB     185      SAPS     C217     CTL2    -0.180000       12.0110           0
      9947 MEMB     185      SAPS     H17R     HAL2     0.900000E-01   1.00800           0
      9948 MEMB     185      SAPS     H17S     HAL2     0.900000E-01   1.00800           0
      9949 MEMB     185      SAPS     C218     CTL2    -0.180000       12.0110           0
      9950 MEMB     185      SAPS     H18R     HAL2     0.900000E-01   1.00800           0
      9951 MEMB     185      SAPS     H18S     HAL2     0.900000E-01   1.00800           0
      9952 MEMB     185      SAPS     C219     CTL2    -0.180000       12.0110           0
      9953 MEMB     185      SAPS     H19R     HAL2     0.900000E-01   1.00800           0
      9954 MEMB     185      SAPS     H19S     HAL2     0.900000E-01   1.00800           0
      9955 MEMB     185      SAPS     C220     CTL3    -0.270000       12.0110           0
      9956 MEMB     185      SAPS     H20R     HAL3     0.900000E-01   1.00800           0
      9957 MEMB     185      SAPS     H20S     HAL3     0.900000E-01   1.00800           0
      9958 MEMB     185      SAPS     H20T     HAL3     0.900000E-01   1.00800           0
      9959 MEMB     185      SAPS     C33      CTL2    -0.180000       12.0110           0
      9960 MEMB     185      SAPS     H3X      HAL2     0.900000E-01   1.00800           0
      9961 MEMB     185      SAPS     H3Y      HAL2     0.900000E-01   1.00800           0
      9962 MEMB     185      SAPS     C34      CTL2    -0.180000       12.0110           0
      9963 MEMB     185      SAPS     H4X      HAL2     0.900000E-01   1.00800           0
      9964 MEMB     185      SAPS     H4Y      HAL2     0.900000E-01   1.00800           0
      9965 MEMB     185      SAPS     C35      CTL2    -0.180000       12.0110           0
      9966 MEMB     185      SAPS     H5X      HAL2     0.900000E-01   1.00800           0
      9967 MEMB     185      SAPS     H5Y      HAL2     0.900000E-01   1.00800           0
      9968 MEMB     185      SAPS     C36      CTL2    -0.180000       12.0110           0
      9969 MEMB     185      SAPS     H6X      HAL2     0.900000E-01   1.00800           0
      9970 MEMB     185      SAPS     H6Y      HAL2     0.900000E-01   1.00800           0
      9971 MEMB     185      SAPS     C37      CTL2    -0.180000       12.0110           0
      9972 MEMB     185      SAPS     H7X      HAL2     0.900000E-01   1.00800           0
      9973 MEMB     185      SAPS     H7Y      HAL2     0.900000E-01   1.00800           0
      9974 MEMB     185      SAPS     C38      CTL2    -0.180000       12.0110           0
      9975 MEMB     185      SAPS     H8X      HAL2     0.900000E-01   1.00800           0
      9976 MEMB     185      SAPS     H8Y      HAL2     0.900000E-01   1.00800           0
      9977 MEMB     185      SAPS     C39      CTL2    -0.180000       12.0110           0
      9978 MEMB     185      SAPS     H9X      HAL2     0.900000E-01   1.00800           0
      9979 MEMB     185      SAPS     H9Y      HAL2     0.900000E-01   1.00800           0
      9980 MEMB     185      SAPS     C310     CTL2    -0.180000       12.0110           0
      9981 MEMB     185      SAPS     H10X     HAL2     0.900000E-01   1.00800           0
      9982 MEMB     185      SAPS     H10Y     HAL2     0.900000E-01   1.00800           0
      9983 MEMB     185      SAPS     C311     CTL2    -0.180000       12.0110           0
      9984 MEMB     185      SAPS     H11X     HAL2     0.900000E-01   1.00800           0
      9985 MEMB     185      SAPS     H11Y     HAL2     0.900000E-01   1.00800           0
      9986 MEMB     185      SAPS     C312     CTL2    -0.180000       12.0110           0
      9987 MEMB     185      SAPS     H12X     HAL2     0.900000E-01   1.00800           0
      9988 MEMB     185      SAPS     H12Y     HAL2     0.900000E-01   1.00800           0
      9989 MEMB     185      SAPS     C313     CTL2    -0.180000       12.0110           0
      9990 MEMB     185      SAPS     H13X     HAL2     0.900000E-01   1.00800           0
      9991 MEMB     185      SAPS     H13Y     HAL2     0.900000E-01   1.00800           0
      9992 MEMB     185      SAPS     C314     CTL2    -0.180000       12.0110           0
      9993 MEMB     185      SAPS     H14X     HAL2     0.900000E-01   1.00800           0
      9994 MEMB     185      SAPS     H14Y     HAL2     0.900000E-01   1.00800           0
      9995 MEMB     185      SAPS     C315     CTL2    -0.180000       12.0110           0
      9996 MEMB     185      SAPS     H15X     HAL2     0.900000E-01   1.00800           0
      9997 MEMB     185      SAPS     H15Y     HAL2     0.900000E-01   1.00800           0
      9998 MEMB     185      SAPS     C316     CTL2    -0.180000       12.0110           0
      9999 MEMB     185      SAPS     H16X     HAL2     0.900000E-01   1.00800           0
     10000 MEMB     185      SAPS     H16Y     HAL2     0.900000E-01   1.00800           0
     10001 MEMB     185      SAPS     C317     CTL2    -0.180000       12.0110           0
     10002 MEMB     185      SAPS     H17X     HAL2     0.900000E-01   1.00800           0
     10003 MEMB     185      SAPS     H17Y     HAL2     0.900000E-01   1.00800           0
     10004 MEMB     185      SAPS     C318     CTL3    -0.270000       12.0110           0
     10005 MEMB     185      SAPS     H18X     HAL3     0.900000E-01   1.00800           0
     10006 MEMB     185      SAPS     H18Y     HAL3     0.900000E-01   1.00800           0
     10007 MEMB     185      SAPS     H18Z     HAL3     0.900000E-01   1.00800           0
     10008 MEMB     186      SAPS     N        NH3L    -0.300000       14.0070           0
     10009 MEMB     186      SAPS     HN1      HCL      0.330000       1.00800           0
     10010 MEMB     186      SAPS     HN2      HCL      0.330000       1.00800           0
     10011 MEMB     186      SAPS     HN3      HCL      0.330000       1.00800           0
     10012 MEMB     186      SAPS     C12      CTL1     0.210000       12.0110           0
     10013 MEMB     186      SAPS     H12A     HBL      0.100000       1.00800           0
     10014 MEMB     186      SAPS     C13      CCL      0.340000       12.0110           0
     10015 MEMB     186      SAPS     O13A     OCL     -0.670000       15.9994           0
     10016 MEMB     186      SAPS     O13B     OCL     -0.670000       15.9994           0
     10017 MEMB     186      SAPS     C11      CTL2    -0.800000E-01   12.0110           0
     10018 MEMB     186      SAPS     H11A     HAL2     0.900000E-01   1.00800           0
     10019 MEMB     186      SAPS     H11B     HAL2     0.900000E-01   1.00800           0
     10020 MEMB     186      SAPS     P        PL       1.500000       30.9740           0
     10021 MEMB     186      SAPS     O13      O2L     -0.780000       15.9994           0
     10022 MEMB     186      SAPS     O14      O2L     -0.780000       15.9994           0
     10023 MEMB     186      SAPS     O12      OSLP    -0.570000       15.9994           0
     10024 MEMB     186      SAPS     O11      OSLP    -0.570000       15.9994           0
     10025 MEMB     186      SAPS     C1       CTL2    -0.800000E-01   12.0110           0
     10026 MEMB     186      SAPS     HA       HAL2     0.900000E-01   1.00800           0
     10027 MEMB     186      SAPS     HB       HAL2     0.900000E-01   1.00800           0
     10028 MEMB     186      SAPS     C2       CTL1     0.170000       12.0110           0
     10029 MEMB     186      SAPS     HS       HAL1     0.900000E-01   1.00800           0
     10030 MEMB     186      SAPS     O21      OSL     -0.490000       15.9994           0
     10031 MEMB     186      SAPS     C21      CL       0.900000       12.0110           0
     10032 MEMB     186      SAPS     O22      OBL     -0.630000       15.9994           0
     10033 MEMB     186      SAPS     C22      CTL2    -0.220000       12.0110           0
     10034 MEMB     186      SAPS     H2R      HAL2     0.900000E-01   1.00800           0
     10035 MEMB     186      SAPS     H2S      HAL2     0.900000E-01   1.00800           0
     10036 MEMB     186      SAPS     C3       CTL2     0.800000E-01   12.0110           0
     10037 MEMB     186      SAPS     HX       HAL2     0.900000E-01   1.00800           0
     10038 MEMB     186      SAPS     HY       HAL2     0.900000E-01   1.00800           0
     10039 MEMB     186      SAPS     O31      OSL     -0.490000       15.9994           0
     10040 MEMB     186      SAPS     C31      CL       0.900000       12.0110           0
     10041 MEMB     186      SAPS     O32      OBL     -0.630000       15.9994           0
     10042 MEMB     186      SAPS     C32      CTL2    -0.220000       12.0110           0
     10043 MEMB     186      SAPS     H2X      HAL2     0.900000E-01   1.00800           0
     10044 MEMB     186      SAPS     H2Y      HAL2     0.900000E-01   1.00800           0
     10045 MEMB     186      SAPS     C23      CTL2    -0.180000       12.0110           0
     10046 MEMB     186      SAPS     H3R      HAL2     0.900000E-01   1.00800           0
     10047 MEMB     186      SAPS     H3S      HAL2     0.900000E-01   1.00800           0
     10048 MEMB     186      SAPS     C24      CTL2    -0.180000       12.0110           0
     10049 MEMB     186      SAPS     H4R      HAL2     0.900000E-01   1.00800           0
     10050 MEMB     186      SAPS     H4S      HAL2     0.900000E-01   1.00800           0
     10051 MEMB     186      SAPS     C25      CEL1    -0.150000       12.0110           0
     10052 MEMB     186      SAPS     H5R      HEL1     0.150000       1.00800           0
     10053 MEMB     186      SAPS     C26      CEL1    -0.150000       12.0110           0
     10054 MEMB     186      SAPS     H6R      HEL1     0.150000       1.00800           0
     10055 MEMB     186      SAPS     C27      CTL2    -0.180000       12.0110           0
     10056 MEMB     186      SAPS     H7R      HAL2     0.900000E-01   1.00800           0
     10057 MEMB     186      SAPS     H7S      HAL2     0.900000E-01   1.00800           0
     10058 MEMB     186      SAPS     C28      CEL1    -0.150000       12.0110           0
     10059 MEMB     186      SAPS     H8R      HEL1     0.150000       1.00800           0
     10060 MEMB     186      SAPS     C29      CEL1    -0.150000       12.0110           0
     10061 MEMB     186      SAPS     H9R      HEL1     0.150000       1.00800           0
     10062 MEMB     186      SAPS     C210     CTL2    -0.180000       12.0110           0
     10063 MEMB     186      SAPS     H10R     HAL2     0.900000E-01   1.00800           0
     10064 MEMB     186      SAPS     H10S     HAL2     0.900000E-01   1.00800           0
     10065 MEMB     186      SAPS     C211     CEL1    -0.150000       12.0110           0
     10066 MEMB     186      SAPS     H11R     HEL1     0.150000       1.00800           0
     10067 MEMB     186      SAPS     C212     CEL1    -0.150000       12.0110           0
     10068 MEMB     186      SAPS     H12R     HEL1     0.150000       1.00800           0
     10069 MEMB     186      SAPS     C213     CTL2    -0.180000       12.0110           0
     10070 MEMB     186      SAPS     H13R     HAL2     0.900000E-01   1.00800           0
     10071 MEMB     186      SAPS     H13S     HAL2     0.900000E-01   1.00800           0
     10072 MEMB     186      SAPS     C214     CEL1    -0.150000       12.0110           0
     10073 MEMB     186      SAPS     H14R     HEL1     0.150000       1.00800           0
     10074 MEMB     186      SAPS     C215     CEL1    -0.150000       12.0110           0
     10075 MEMB     186      SAPS     H15R     HEL1     0.150000       1.00800           0
     10076 MEMB     186      SAPS     C216     CTL2    -0.180000       12.0110           0
     10077 MEMB     186      SAPS     H16R     HAL2     0.900000E-01   1.00800           0
     10078 MEMB     186      SAPS     H16S     HAL2     0.900000E-01   1.00800           0
     10079 MEMB     186      SAPS     C217     CTL2    -0.180000       12.0110           0
     10080 MEMB     186      SAPS     H17R     HAL2     0.900000E-01   1.00800           0
     10081 MEMB     186      SAPS     H17S     HAL2     0.900000E-01   1.00800           0
     10082 MEMB     186      SAPS     C218     CTL2    -0.180000       12.0110           0
     10083 MEMB     186      SAPS     H18R     HAL2     0.900000E-01   1.00800           0
     10084 MEMB     186      SAPS     H18S     HAL2     0.900000E-01   1.00800           0
     10085 MEMB     186      SAPS     C219     CTL2    -0.180000       12.0110           0
     10086 MEMB     186      SAPS     H19R     HAL2     0.900000E-01   1.00800           0
     10087 MEMB     186      SAPS     H19S     HAL2     0.900000E-01   1.00800           0
     10088 MEMB     186      SAPS     C220     CTL3    -0.270000       12.0110           0
     10089 MEMB     186      SAPS     H20R     HAL3     0.900000E-01   1.00800           0
     10090 MEMB     186      SAPS     H20S     HAL3     0.900000E-01   1.00800           0
     10091 MEMB     186      SAPS     H20T     HAL3     0.900000E-01   1.00800           0
     10092 MEMB     186      SAPS     C33      CTL2    -0.180000       12.0110           0
     10093 MEMB     186      SAPS     H3X      HAL2     0.900000E-01   1.00800           0
     10094 MEMB     186      SAPS     H3Y      HAL2     0.900000E-01   1.00800           0
     10095 MEMB     186      SAPS     C34      CTL2    -0.180000       12.0110           0
     10096 MEMB     186      SAPS     H4X      HAL2     0.900000E-01   1.00800           0
     10097 MEMB     186      SAPS     H4Y      HAL2     0.900000E-01   1.00800           0
     10098 MEMB     186      SAPS     C35      CTL2    -0.180000       12.0110           0
     10099 MEMB     186      SAPS     H5X      HAL2     0.900000E-01   1.00800           0
     10100 MEMB     186      SAPS     H5Y      HAL2     0.900000E-01   1.00800           0
     10101 MEMB     186      SAPS     C36      CTL2    -0.180000       12.0110           0
     10102 MEMB     186      SAPS     H6X      HAL2     0.900000E-01   1.00800           0
     10103 MEMB     186      SAPS     H6Y      HAL2     0.900000E-01   1.00800           0
     10104 MEMB     186      SAPS     C37      CTL2    -0.180000       12.0110           0
     10105 MEMB     186      SAPS     H7X      HAL2     0.900000E-01   1.00800           0
     10106 MEMB     186      SAPS     H7Y      HAL2     0.900000E-01   1.00800           0
     10107 MEMB     186      SAPS     C38      CTL2    -0.180000       12.0110           0
     10108 MEMB     186      SAPS     H8X      HAL2     0.900000E-01   1.00800           0
     10109 MEMB     186      SAPS     H8Y      HAL2     0.900000E-01   1.00800           0
     10110 MEMB     186      SAPS     C39      CTL2    -0.180000       12.0110           0
     10111 MEMB     186      SAPS     H9X      HAL2     0.900000E-01   1.00800           0
     10112 MEMB     186      SAPS     H9Y      HAL2     0.900000E-01   1.00800           0
     10113 MEMB     186      SAPS     C310     CTL2    -0.180000       12.0110           0
     10114 MEMB     186      SAPS     H10X     HAL2     0.900000E-01   1.00800           0
     10115 MEMB     186      SAPS     H10Y     HAL2     0.900000E-01   1.00800           0
     10116 MEMB     186      SAPS     C311     CTL2    -0.180000       12.0110           0
     10117 MEMB     186      SAPS     H11X     HAL2     0.900000E-01   1.00800           0
     10118 MEMB     186      SAPS     H11Y     HAL2     0.900000E-01   1.00800           0
     10119 MEMB     186      SAPS     C312     CTL2    -0.180000       12.0110           0
     10120 MEMB     186      SAPS     H12X     HAL2     0.900000E-01   1.00800           0
     10121 MEMB     186      SAPS     H12Y     HAL2     0.900000E-01   1.00800           0
     10122 MEMB     186      SAPS     C313     CTL2    -0.180000       12.0110           0
     10123 MEMB     186      SAPS     H13X     HAL2     0.900000E-01   1.00800           0
     10124 MEMB     186      SAPS     H13Y     HAL2     0.900000E-01   1.00800           0
     10125 MEMB     186      SAPS     C314     CTL2    -0.180000       12.0110           0
     10126 MEMB     186      SAPS     H14X     HAL2     0.900000E-01   1.00800           0
     10127 MEMB     186      SAPS     H14Y     HAL2     0.900000E-01   1.00800           0
     10128 MEMB     186      SAPS     C315     CTL2    -0.180000       12.0110           0
     10129 MEMB     186      SAPS     H15X     HAL2     0.900000E-01   1.00800           0
     10130 MEMB     186      SAPS     H15Y     HAL2     0.900000E-01   1.00800           0
     10131 MEMB     186      SAPS     C316     CTL2    -0.180000       12.0110           0
     10132 MEMB     186      SAPS     H16X     HAL2     0.900000E-01   1.00800           0
     10133 MEMB     186      SAPS     H16Y     HAL2     0.900000E-01   1.00800           0
     10134 MEMB     186      SAPS     C317     CTL2    -0.180000       12.0110           0
     10135 MEMB     186      SAPS     H17X     HAL2     0.900000E-01   1.00800           0
     10136 MEMB     186      SAPS     H17Y     HAL2     0.900000E-01   1.00800           0
     10137 MEMB     186      SAPS     C318     CTL3    -0.270000       12.0110           0
     10138 MEMB     186      SAPS     H18X     HAL3     0.900000E-01   1.00800           0
     10139 MEMB     186      SAPS     H18Y     HAL3     0.900000E-01   1.00800           0
     10140 MEMB     186      SAPS     H18Z     HAL3     0.900000E-01   1.00800           0
     10141 MEMB     8        OSM      N        NTL     -0.600000       14.0070           0
     10142 MEMB     8        OSM      C15      CTL5    -0.350000       12.0110           0
     10143 MEMB     8        OSM      H15A     HL       0.250000       1.00800           0
     10144 MEMB     8        OSM      H15B     HL       0.250000       1.00800           0
     10145 MEMB     8        OSM      H15C     HL       0.250000       1.00800           0
     10146 MEMB     8        OSM      C14      CTL5    -0.350000       12.0110           0
     10147 MEMB     8        OSM      H14A     HL       0.250000       1.00800           0
     10148 MEMB     8        OSM      H14B     HL       0.250000       1.00800           0
     10149 MEMB     8        OSM      H14C     HL       0.250000       1.00800           0
     10150 MEMB     8        OSM      C13      CTL5    -0.350000       12.0110           0
     10151 MEMB     8        OSM      H13A     HL       0.250000       1.00800           0
     10152 MEMB     8        OSM      H13B     HL       0.250000       1.00800           0
     10153 MEMB     8        OSM      H13C     HL       0.250000       1.00800           0
     10154 MEMB     8        OSM      C12      CTL2    -0.100000       12.0110           0
     10155 MEMB     8        OSM      H12A     HL       0.250000       1.00800           0
     10156 MEMB     8        OSM      H12B     HL       0.250000       1.00800           0
     10157 MEMB     8        OSM      C11      CTL2    -0.800000E-01   12.0110           0
     10158 MEMB     8        OSM      H11A     HAL2     0.900000E-01   1.00800           0
     10159 MEMB     8        OSM      H11B     HAL2     0.900000E-01   1.00800           0
     10160 MEMB     8        OSM      P        PL       1.500000       30.9740           0
     10161 MEMB     8        OSM      O13      O2L     -0.780000       15.9994           0
     10162 MEMB     8        OSM      O14      O2L     -0.780000       15.9994           0
     10163 MEMB     8        OSM      O11      OSLP    -0.570000       15.9994           0
     10164 MEMB     8        OSM      O12      OSLP    -0.570000       15.9994           0
     10165 MEMB     8        OSM      C1S      CTL2    -0.800000E-01   12.0110           0
     10166 MEMB     8        OSM      H1S      HAL2     0.900000E-01   1.00800           0
     10167 MEMB     8        OSM      H1T      HAL2     0.900000E-01   1.00800           0
     10168 MEMB     8        OSM      NF       NHL     -0.700000       14.0070           0
     10169 MEMB     8        OSM      HNF      H        0.350000       1.00800           0
     10170 MEMB     8        OSM      C2S      CTL1     0.300000       12.0110           0
     10171 MEMB     8        OSM      H2S      HAL1     0.500000E-01   1.00800           0
     10172 MEMB     8        OSM      C3S      CTO1     0.500000       12.0110           0
     10173 MEMB     8        OSM      H3S      HAL1    -0.110000       1.00800           0
     10174 MEMB     8        OSM      O3       OHL     -0.690000       15.9994           0
     10175 MEMB     8        OSM      HO3      HOL      0.300000       1.00800           0
     10176 MEMB     8        OSM      C4S      CEL3    -0.150000       12.0110           0
     10177 MEMB     8        OSM      H4S      HEL1     0.150000       1.00800           0
     10178 MEMB     8        OSM      C5S      CEL3    -0.150000       12.0110           0
     10179 MEMB     8        OSM      H5S      HEL1     0.150000       1.00800           0
     10180 MEMB     8        OSM      C6S      CTL2    -0.180000       12.0110           0
     10181 MEMB     8        OSM      H6S      HAL2     0.900000E-01   1.00800           0
     10182 MEMB     8        OSM      H6T      HAL2     0.900000E-01   1.00800           0
     10183 MEMB     8        OSM      C7S      CTL2    -0.180000       12.0110           0
     10184 MEMB     8        OSM      H7S      HAL2     0.900000E-01   1.00800           0
     10185 MEMB     8        OSM      H7T      HAL2     0.900000E-01   1.00800           0
     10186 MEMB     8        OSM      C8S      CTL2    -0.180000       12.0110           0
     10187 MEMB     8        OSM      H8S      HAL2     0.900000E-01   1.00800           0
     10188 MEMB     8        OSM      H8T      HAL2     0.900000E-01   1.00800           0
     10189 MEMB     8        OSM      C9S      CTL2    -0.180000       12.0110           0
     10190 MEMB     8        OSM      H9S      HAL2     0.900000E-01   1.00800           0
     10191 MEMB     8        OSM      H9T      HAL2     0.900000E-01   1.00800           0
     10192 MEMB     8        OSM      C10S     CTL2    -0.180000       12.0110           0
     10193 MEMB     8        OSM      H10S     HAL2     0.900000E-01   1.00800           0
     10194 MEMB     8        OSM      H10T     HAL2     0.900000E-01   1.00800           0
     10195 MEMB     8        OSM      C11S     CTL2    -0.180000       12.0110           0
     10196 MEMB     8        OSM      H11S     HAL2     0.900000E-01   1.00800           0
     10197 MEMB     8        OSM      H11T     HAL2     0.900000E-01   1.00800           0
     10198 MEMB     8        OSM      C12S     CTL2    -0.180000       12.0110           0
     10199 MEMB     8        OSM      H12S     HAL2     0.900000E-01   1.00800           0
     10200 MEMB     8        OSM      H12T     HAL2     0.900000E-01   1.00800           0
     10201 MEMB     8        OSM      C13S     CTL2    -0.180000       12.0110           0
     10202 MEMB     8        OSM      H13S     HAL2     0.900000E-01   1.00800           0
     10203 MEMB     8        OSM      H13T     HAL2     0.900000E-01   1.00800           0
     10204 MEMB     8        OSM      C14S     CTL2    -0.180000       12.0110           0
     10205 MEMB     8        OSM      H14S     HAL2     0.900000E-01   1.00800           0
     10206 MEMB     8        OSM      H14T     HAL2     0.900000E-01   1.00800           0
     10207 MEMB     8        OSM      C15S     CTL2    -0.180000       12.0110           0
     10208 MEMB     8        OSM      H15S     HAL2     0.900000E-01   1.00800           0
     10209 MEMB     8        OSM      H15T     HAL2     0.900000E-01   1.00800           0
     10210 MEMB     8        OSM      C16S     CTL2    -0.180000       12.0110           0
     10211 MEMB     8        OSM      H16S     HAL2     0.900000E-01   1.00800           0
     10212 MEMB     8        OSM      H16T     HAL2     0.900000E-01   1.00800           0
     10213 MEMB     8        OSM      C17S     CTL2    -0.180000       12.0110           0
     10214 MEMB     8        OSM      H17S     HAL2     0.900000E-01   1.00800           0
     10215 MEMB     8        OSM      H17T     HAL2     0.900000E-01   1.00800           0
     10216 MEMB     8        OSM      C18S     CTL3    -0.270000       12.0110           0
     10217 MEMB     8        OSM      H18S     HAL3     0.900000E-01   1.00800           0
     10218 MEMB     8        OSM      H18T     HAL3     0.900000E-01   1.00800           0
     10219 MEMB     8        OSM      H18U     HAL3     0.900000E-01   1.00800           0
     10220 MEMB     8        OSM      C1F      C        0.550000       12.0110           0
     10221 MEMB     8        OSM      OF       O       -0.600000       15.9994           0
     10222 MEMB     8        OSM      C2F      CTL2    -0.700000E-01   12.0110           0
     10223 MEMB     8        OSM      H2F      HAL2     0.600000E-01   1.00800           0
     10224 MEMB     8        OSM      H2G      HAL2     0.600000E-01   1.00800           0
     10225 MEMB     8        OSM      C3F      CTL2    -0.180000       12.0110           0
     10226 MEMB     8        OSM      H3F      HAL2     0.900000E-01   1.00800           0
     10227 MEMB     8        OSM      H3G      HAL2     0.900000E-01   1.00800           0
     10228 MEMB     8        OSM      C4F      CTL2    -0.180000       12.0110           0
     10229 MEMB     8        OSM      H4F      HAL2     0.900000E-01   1.00800           0
     10230 MEMB     8        OSM      H4G      HAL2     0.900000E-01   1.00800           0
     10231 MEMB     8        OSM      C5F      CTL2    -0.180000       12.0110           0
     10232 MEMB     8        OSM      H5F      HAL2     0.900000E-01   1.00800           0
     10233 MEMB     8        OSM      H5G      HAL2     0.900000E-01   1.00800           0
     10234 MEMB     8        OSM      C6F      CTL2    -0.180000       12.0110           0
     10235 MEMB     8        OSM      H6F      HAL2     0.900000E-01   1.00800           0
     10236 MEMB     8        OSM      H6G      HAL2     0.900000E-01   1.00800           0
     10237 MEMB     8        OSM      C7F      CTL2    -0.180000       12.0110           0
     10238 MEMB     8        OSM      H7F      HAL2     0.900000E-01   1.00800           0
     10239 MEMB     8        OSM      H7G      HAL2     0.900000E-01   1.00800           0
     10240 MEMB     8        OSM      C8F      CTL2    -0.180000       12.0110           0
     10241 MEMB     8        OSM      H8F      HAL2     0.900000E-01   1.00800           0
     10242 MEMB     8        OSM      H8G      HAL2     0.900000E-01   1.00800           0
     10243 MEMB     8        OSM      C9F      CEL1    -0.150000       12.0110           0
     10244 MEMB     8        OSM      H9F      HEL1     0.150000       1.00800           0
     10245 MEMB     8        OSM      C10F     CEL1    -0.150000       12.0110           0
     10246 MEMB     8        OSM      H10F     HEL1     0.150000       1.00800           0
     10247 MEMB     8        OSM      C11F     CTL2    -0.180000       12.0110           0
     10248 MEMB     8        OSM      H11F     HAL2     0.900000E-01   1.00800           0
     10249 MEMB     8        OSM      H11G     HAL2     0.900000E-01   1.00800           0
     10250 MEMB     8        OSM      C12F     CTL2    -0.180000       12.0110           0
     10251 MEMB     8        OSM      H12F     HAL2     0.900000E-01   1.00800           0
     10252 MEMB     8        OSM      H12G     HAL2     0.900000E-01   1.00800           0
     10253 MEMB     8        OSM      C13F     CTL2    -0.180000       12.0110           0
     10254 MEMB     8        OSM      H13F     HAL2     0.900000E-01   1.00800           0
     10255 MEMB     8        OSM      H13G     HAL2     0.900000E-01   1.00800           0
     10256 MEMB     8        OSM      C14F     CTL2    -0.180000       12.0110           0
     10257 MEMB     8        OSM      H14F     HAL2     0.900000E-01   1.00800           0
     10258 MEMB     8        OSM      H14G     HAL2     0.900000E-01   1.00800           0
     10259 MEMB     8        OSM      C15F     CTL2    -0.180000       12.0110           0
     10260 MEMB     8        OSM      H15F     HAL2     0.900000E-01   1.00800           0
     10261 MEMB     8        OSM      H15G     HAL2     0.900000E-01   1.00800           0
     10262 MEMB     8        OSM      C16F     CTL2    -0.180000       12.0110           0
     10263 MEMB     8        OSM      H16F     HAL2     0.900000E-01   1.00800           0
     10264 MEMB     8        OSM      H16G     HAL2     0.900000E-01   1.00800           0
     10265 MEMB     8        OSM      C17F     CTL2    -0.180000       12.0110           0
     10266 MEMB     8        OSM      H17F     HAL2     0.900000E-01   1.00800           0
     10267 MEMB     8        OSM      H17G     HAL2     0.900000E-01   1.00800           0
     10268 MEMB     8        OSM      C18F     CTL3    -0.270000       12.0110           0
     10269 MEMB     8        OSM      H18F     HAL3     0.900000E-01   1.00800           0
     10270 MEMB     8        OSM      H18G     HAL3     0.900000E-01   1.00800           0
     10271 MEMB     8        OSM      H18H     HAL3     0.900000E-01   1.00800           0
     10272 MEMB     10       OSM      N        NTL     -0.600000       14.0070           0
     10273 MEMB     10       OSM      C15      CTL5    -0.350000       12.0110           0
     10274 MEMB     10       OSM      H15A     HL       0.250000       1.00800           0
     10275 MEMB     10       OSM      H15B     HL       0.250000       1.00800           0
     10276 MEMB     10       OSM      H15C     HL       0.250000       1.00800           0
     10277 MEMB     10       OSM      C14      CTL5    -0.350000       12.0110           0
     10278 MEMB     10       OSM      H14A     HL       0.250000       1.00800           0
     10279 MEMB     10       OSM      H14B     HL       0.250000       1.00800           0
     10280 MEMB     10       OSM      H14C     HL       0.250000       1.00800           0
     10281 MEMB     10       OSM      C13      CTL5    -0.350000       12.0110           0
     10282 MEMB     10       OSM      H13A     HL       0.250000       1.00800           0
     10283 MEMB     10       OSM      H13B     HL       0.250000       1.00800           0
     10284 MEMB     10       OSM      H13C     HL       0.250000       1.00800           0
     10285 MEMB     10       OSM      C12      CTL2    -0.100000       12.0110           0
     10286 MEMB     10       OSM      H12A     HL       0.250000       1.00800           0
     10287 MEMB     10       OSM      H12B     HL       0.250000       1.00800           0
     10288 MEMB     10       OSM      C11      CTL2    -0.800000E-01   12.0110           0
     10289 MEMB     10       OSM      H11A     HAL2     0.900000E-01   1.00800           0
     10290 MEMB     10       OSM      H11B     HAL2     0.900000E-01   1.00800           0
     10291 MEMB     10       OSM      P        PL       1.500000       30.9740           0
     10292 MEMB     10       OSM      O13      O2L     -0.780000       15.9994           0
     10293 MEMB     10       OSM      O14      O2L     -0.780000       15.9994           0
     10294 MEMB     10       OSM      O11      OSLP    -0.570000       15.9994           0
     10295 MEMB     10       OSM      O12      OSLP    -0.570000       15.9994           0
     10296 MEMB     10       OSM      C1S      CTL2    -0.800000E-01   12.0110           0
     10297 MEMB     10       OSM      H1S      HAL2     0.900000E-01   1.00800           0
     10298 MEMB     10       OSM      H1T      HAL2     0.900000E-01   1.00800           0
     10299 MEMB     10       OSM      NF       NHL     -0.700000       14.0070           0
     10300 MEMB     10       OSM      HNF      H        0.350000       1.00800           0
     10301 MEMB     10       OSM      C2S      CTL1     0.300000       12.0110           0
     10302 MEMB     10       OSM      H2S      HAL1     0.500000E-01   1.00800           0
     10303 MEMB     10       OSM      C3S      CTO1     0.500000       12.0110           0
     10304 MEMB     10       OSM      H3S      HAL1    -0.110000       1.00800           0
     10305 MEMB     10       OSM      O3       OHL     -0.690000       15.9994           0
     10306 MEMB     10       OSM      HO3      HOL      0.300000       1.00800           0
     10307 MEMB     10       OSM      C4S      CEL3    -0.150000       12.0110           0
     10308 MEMB     10       OSM      H4S      HEL1     0.150000       1.00800           0
     10309 MEMB     10       OSM      C5S      CEL3    -0.150000       12.0110           0
     10310 MEMB     10       OSM      H5S      HEL1     0.150000       1.00800           0
     10311 MEMB     10       OSM      C6S      CTL2    -0.180000       12.0110           0
     10312 MEMB     10       OSM      H6S      HAL2     0.900000E-01   1.00800           0
     10313 MEMB     10       OSM      H6T      HAL2     0.900000E-01   1.00800           0
     10314 MEMB     10       OSM      C7S      CTL2    -0.180000       12.0110           0
     10315 MEMB     10       OSM      H7S      HAL2     0.900000E-01   1.00800           0
     10316 MEMB     10       OSM      H7T      HAL2     0.900000E-01   1.00800           0
     10317 MEMB     10       OSM      C8S      CTL2    -0.180000       12.0110           0
     10318 MEMB     10       OSM      H8S      HAL2     0.900000E-01   1.00800           0
     10319 MEMB     10       OSM      H8T      HAL2     0.900000E-01   1.00800           0
     10320 MEMB     10       OSM      C9S      CTL2    -0.180000       12.0110           0
     10321 MEMB     10       OSM      H9S      HAL2     0.900000E-01   1.00800           0
     10322 MEMB     10       OSM      H9T      HAL2     0.900000E-01   1.00800           0
     10323 MEMB     10       OSM      C10S     CTL2    -0.180000       12.0110           0
     10324 MEMB     10       OSM      H10S     HAL2     0.900000E-01   1.00800           0
     10325 MEMB     10       OSM      H10T     HAL2     0.900000E-01   1.00800           0
     10326 MEMB     10       OSM      C11S     CTL2    -0.180000       12.0110           0
     10327 MEMB     10       OSM      H11S     HAL2     0.900000E-01   1.00800           0
     10328 MEMB     10       OSM      H11T     HAL2     0.900000E-01   1.00800           0
     10329 MEMB     10       OSM      C12S     CTL2    -0.180000       12.0110           0
     10330 MEMB     10       OSM      H12S     HAL2     0.900000E-01   1.00800           0
     10331 MEMB     10       OSM      H12T     HAL2     0.900000E-01   1.00800           0
     10332 MEMB     10       OSM      C13S     CTL2    -0.180000       12.0110           0
     10333 MEMB     10       OSM      H13S     HAL2     0.900000E-01   1.00800           0
     10334 MEMB     10       OSM      H13T     HAL2     0.900000E-01   1.00800           0
     10335 MEMB     10       OSM      C14S     CTL2    -0.180000       12.0110           0
     10336 MEMB     10       OSM      H14S     HAL2     0.900000E-01   1.00800           0
     10337 MEMB     10       OSM      H14T     HAL2     0.900000E-01   1.00800           0
     10338 MEMB     10       OSM      C15S     CTL2    -0.180000       12.0110           0
     10339 MEMB     10       OSM      H15S     HAL2     0.900000E-01   1.00800           0
     10340 MEMB     10       OSM      H15T     HAL2     0.900000E-01   1.00800           0
     10341 MEMB     10       OSM      C16S     CTL2    -0.180000       12.0110           0
     10342 MEMB     10       OSM      H16S     HAL2     0.900000E-01   1.00800           0
     10343 MEMB     10       OSM      H16T     HAL2     0.900000E-01   1.00800           0
     10344 MEMB     10       OSM      C17S     CTL2    -0.180000       12.0110           0
     10345 MEMB     10       OSM      H17S     HAL2     0.900000E-01   1.00800           0
     10346 MEMB     10       OSM      H17T     HAL2     0.900000E-01   1.00800           0
     10347 MEMB     10       OSM      C18S     CTL3    -0.270000       12.0110           0
     10348 MEMB     10       OSM      H18S     HAL3     0.900000E-01   1.00800           0
     10349 MEMB     10       OSM      H18T     HAL3     0.900000E-01   1.00800           0
     10350 MEMB     10       OSM      H18U     HAL3     0.900000E-01   1.00800           0
     10351 MEMB     10       OSM      C1F      C        0.550000       12.0110           0
     10352 MEMB     10       OSM      OF       O       -0.600000       15.9994           0
     10353 MEMB     10       OSM      C2F      CTL2    -0.700000E-01   12.0110           0
     10354 MEMB     10       OSM      H2F      HAL2     0.600000E-01   1.00800           0
     10355 MEMB     10       OSM      H2G      HAL2     0.600000E-01   1.00800           0
     10356 MEMB     10       OSM      C3F      CTL2    -0.180000       12.0110           0
     10357 MEMB     10       OSM      H3F      HAL2     0.900000E-01   1.00800           0
     10358 MEMB     10       OSM      H3G      HAL2     0.900000E-01   1.00800           0
     10359 MEMB     10       OSM      C4F      CTL2    -0.180000       12.0110           0
     10360 MEMB     10       OSM      H4F      HAL2     0.900000E-01   1.00800           0
     10361 MEMB     10       OSM      H4G      HAL2     0.900000E-01   1.00800           0
     10362 MEMB     10       OSM      C5F      CTL2    -0.180000       12.0110           0
     10363 MEMB     10       OSM      H5F      HAL2     0.900000E-01   1.00800           0
     10364 MEMB     10       OSM      H5G      HAL2     0.900000E-01   1.00800           0
     10365 MEMB     10       OSM      C6F      CTL2    -0.180000       12.0110           0
     10366 MEMB     10       OSM      H6F      HAL2     0.900000E-01   1.00800           0
     10367 MEMB     10       OSM      H6G      HAL2     0.900000E-01   1.00800           0
     10368 MEMB     10       OSM      C7F      CTL2    -0.180000       12.0110           0
     10369 MEMB     10       OSM      H7F      HAL2     0.900000E-01   1.00800           0
     10370 MEMB     10       OSM      H7G      HAL2     0.900000E-01   1.00800           0
     10371 MEMB     10       OSM      C8F      CTL2    -0.180000       12.0110           0
     10372 MEMB     10       OSM      H8F      HAL2     0.900000E-01   1.00800           0
     10373 MEMB     10       OSM      H8G      HAL2     0.900000E-01   1.00800           0
     10374 MEMB     10       OSM      C9F      CEL1    -0.150000       12.0110           0
     10375 MEMB     10       OSM      H9F      HEL1     0.150000       1.00800           0
     10376 MEMB     10       OSM      C10F     CEL1    -0.150000       12.0110           0
     10377 MEMB     10       OSM      H10F     HEL1     0.150000       1.00800           0
     10378 MEMB     10       OSM      C11F     CTL2    -0.180000       12.0110           0
     10379 MEMB     10       OSM      H11F     HAL2     0.900000E-01   1.00800           0
     10380 MEMB     10       OSM      H11G     HAL2     0.900000E-01   1.00800           0
     10381 MEMB     10       OSM      C12F     CTL2    -0.180000       12.0110           0
     10382 MEMB     10       OSM      H12F     HAL2     0.900000E-01   1.00800           0
     10383 MEMB     10       OSM      H12G     HAL2     0.900000E-01   1.00800           0
     10384 MEMB     10       OSM      C13F     CTL2    -0.180000       12.0110           0
     10385 MEMB     10       OSM      H13F     HAL2     0.900000E-01   1.00800           0
     10386 MEMB     10       OSM      H13G     HAL2     0.900000E-01   1.00800           0
     10387 MEMB     10       OSM      C14F     CTL2    -0.180000       12.0110           0
     10388 MEMB     10       OSM      H14F     HAL2     0.900000E-01   1.00800           0
     10389 MEMB     10       OSM      H14G     HAL2     0.900000E-01   1.00800           0
     10390 MEMB     10       OSM      C15F     CTL2    -0.180000       12.0110           0
     10391 MEMB     10       OSM      H15F     HAL2     0.900000E-01   1.00800           0
     10392 MEMB     10       OSM      H15G     HAL2     0.900000E-01   1.00800           0
     10393 MEMB     10       OSM      C16F     CTL2    -0.180000       12.0110           0
     10394 MEMB     10       OSM      H16F     HAL2     0.900000E-01   1.00800           0
     10395 MEMB     10       OSM      H16G     HAL2     0.900000E-01   1.00800           0
     10396 MEMB     10       OSM      C17F     CTL2    -0.180000       12.0110           0
     10397 MEMB     10       OSM      H17F     HAL2     0.900000E-01   1.00800           0
     10398 MEMB     10       OSM      H17G     HAL2     0.900000E-01   1.00800           0
     10399 MEMB     10       OSM      C18F     CTL3    -0.270000       12.0110           0
     10400 MEMB     10       OSM      H18F     HAL3     0.900000E-01   1.00800           0
     10401 MEMB     10       OSM      H18G     HAL3     0.900000E-01   1.00800           0
     10402 MEMB     10       OSM      H18H     HAL3     0.900000E-01   1.00800           0
     10403 MEMB     12       OSM      N        NTL     -0.600000       14.0070           0
     10404 MEMB     12       OSM      C15      CTL5    -0.350000       12.0110           0
     10405 MEMB     12       OSM      H15A     HL       0.250000       1.00800           0
     10406 MEMB     12       OSM      H15B     HL       0.250000       1.00800           0
     10407 MEMB     12       OSM      H15C     HL       0.250000       1.00800           0
     10408 MEMB     12       OSM      C14      CTL5    -0.350000       12.0110           0
     10409 MEMB     12       OSM      H14A     HL       0.250000       1.00800           0
     10410 MEMB     12       OSM      H14B     HL       0.250000       1.00800           0
     10411 MEMB     12       OSM      H14C     HL       0.250000       1.00800           0
     10412 MEMB     12       OSM      C13      CTL5    -0.350000       12.0110           0
     10413 MEMB     12       OSM      H13A     HL       0.250000       1.00800           0
     10414 MEMB     12       OSM      H13B     HL       0.250000       1.00800           0
     10415 MEMB     12       OSM      H13C     HL       0.250000       1.00800           0
     10416 MEMB     12       OSM      C12      CTL2    -0.100000       12.0110           0
     10417 MEMB     12       OSM      H12A     HL       0.250000       1.00800           0
     10418 MEMB     12       OSM      H12B     HL       0.250000       1.00800           0
     10419 MEMB     12       OSM      C11      CTL2    -0.800000E-01   12.0110           0
     10420 MEMB     12       OSM      H11A     HAL2     0.900000E-01   1.00800           0
     10421 MEMB     12       OSM      H11B     HAL2     0.900000E-01   1.00800           0
     10422 MEMB     12       OSM      P        PL       1.500000       30.9740           0
     10423 MEMB     12       OSM      O13      O2L     -0.780000       15.9994           0
     10424 MEMB     12       OSM      O14      O2L     -0.780000       15.9994           0
     10425 MEMB     12       OSM      O11      OSLP    -0.570000       15.9994           0
     10426 MEMB     12       OSM      O12      OSLP    -0.570000       15.9994           0
     10427 MEMB     12       OSM      C1S      CTL2    -0.800000E-01   12.0110           0
     10428 MEMB     12       OSM      H1S      HAL2     0.900000E-01   1.00800           0
     10429 MEMB     12       OSM      H1T      HAL2     0.900000E-01   1.00800           0
     10430 MEMB     12       OSM      NF       NHL     -0.700000       14.0070           0
     10431 MEMB     12       OSM      HNF      H        0.350000       1.00800           0
     10432 MEMB     12       OSM      C2S      CTL1     0.300000       12.0110           0
     10433 MEMB     12       OSM      H2S      HAL1     0.500000E-01   1.00800           0
     10434 MEMB     12       OSM      C3S      CTO1     0.500000       12.0110           0
     10435 MEMB     12       OSM      H3S      HAL1    -0.110000       1.00800           0
     10436 MEMB     12       OSM      O3       OHL     -0.690000       15.9994           0
     10437 MEMB     12       OSM      HO3      HOL      0.300000       1.00800           0
     10438 MEMB     12       OSM      C4S      CEL3    -0.150000       12.0110           0
     10439 MEMB     12       OSM      H4S      HEL1     0.150000       1.00800           0
     10440 MEMB     12       OSM      C5S      CEL3    -0.150000       12.0110           0
     10441 MEMB     12       OSM      H5S      HEL1     0.150000       1.00800           0
     10442 MEMB     12       OSM      C6S      CTL2    -0.180000       12.0110           0
     10443 MEMB     12       OSM      H6S      HAL2     0.900000E-01   1.00800           0
     10444 MEMB     12       OSM      H6T      HAL2     0.900000E-01   1.00800           0
     10445 MEMB     12       OSM      C7S      CTL2    -0.180000       12.0110           0
     10446 MEMB     12       OSM      H7S      HAL2     0.900000E-01   1.00800           0
     10447 MEMB     12       OSM      H7T      HAL2     0.900000E-01   1.00800           0
     10448 MEMB     12       OSM      C8S      CTL2    -0.180000       12.0110           0
     10449 MEMB     12       OSM      H8S      HAL2     0.900000E-01   1.00800           0
     10450 MEMB     12       OSM      H8T      HAL2     0.900000E-01   1.00800           0
     10451 MEMB     12       OSM      C9S      CTL2    -0.180000       12.0110           0
     10452 MEMB     12       OSM      H9S      HAL2     0.900000E-01   1.00800           0
     10453 MEMB     12       OSM      H9T      HAL2     0.900000E-01   1.00800           0
     10454 MEMB     12       OSM      C10S     CTL2    -0.180000       12.0110           0
     10455 MEMB     12       OSM      H10S     HAL2     0.900000E-01   1.00800           0
     10456 MEMB     12       OSM      H10T     HAL2     0.900000E-01   1.00800           0
     10457 MEMB     12       OSM      C11S     CTL2    -0.180000       12.0110           0
     10458 MEMB     12       OSM      H11S     HAL2     0.900000E-01   1.00800           0
     10459 MEMB     12       OSM      H11T     HAL2     0.900000E-01   1.00800           0
     10460 MEMB     12       OSM      C12S     CTL2    -0.180000       12.0110           0
     10461 MEMB     12       OSM      H12S     HAL2     0.900000E-01   1.00800           0
     10462 MEMB     12       OSM      H12T     HAL2     0.900000E-01   1.00800           0
     10463 MEMB     12       OSM      C13S     CTL2    -0.180000       12.0110           0
     10464 MEMB     12       OSM      H13S     HAL2     0.900000E-01   1.00800           0
     10465 MEMB     12       OSM      H13T     HAL2     0.900000E-01   1.00800           0
     10466 MEMB     12       OSM      C14S     CTL2    -0.180000       12.0110           0
     10467 MEMB     12       OSM      H14S     HAL2     0.900000E-01   1.00800           0
     10468 MEMB     12       OSM      H14T     HAL2     0.900000E-01   1.00800           0
     10469 MEMB     12       OSM      C15S     CTL2    -0.180000       12.0110           0
     10470 MEMB     12       OSM      H15S     HAL2     0.900000E-01   1.00800           0
     10471 MEMB     12       OSM      H15T     HAL2     0.900000E-01   1.00800           0
     10472 MEMB     12       OSM      C16S     CTL2    -0.180000       12.0110           0
     10473 MEMB     12       OSM      H16S     HAL2     0.900000E-01   1.00800           0
     10474 MEMB     12       OSM      H16T     HAL2     0.900000E-01   1.00800           0
     10475 MEMB     12       OSM      C17S     CTL2    -0.180000       12.0110           0
     10476 MEMB     12       OSM      H17S     HAL2     0.900000E-01   1.00800           0
     10477 MEMB     12       OSM      H17T     HAL2     0.900000E-01   1.00800           0
     10478 MEMB     12       OSM      C18S     CTL3    -0.270000       12.0110           0
     10479 MEMB     12       OSM      H18S     HAL3     0.900000E-01   1.00800           0
     10480 MEMB     12       OSM      H18T     HAL3     0.900000E-01   1.00800           0
     10481 MEMB     12       OSM      H18U     HAL3     0.900000E-01   1.00800           0
     10482 MEMB     12       OSM      C1F      C        0.550000       12.0110           0
     10483 MEMB     12       OSM      OF       O       -0.600000       15.9994           0
     10484 MEMB     12       OSM      C2F      CTL2    -0.700000E-01   12.0110           0
     10485 MEMB     12       OSM      H2F      HAL2     0.600000E-01   1.00800           0
     10486 MEMB     12       OSM      H2G      HAL2     0.600000E-01   1.00800           0
     10487 MEMB     12       OSM      C3F      CTL2    -0.180000       12.0110           0
     10488 MEMB     12       OSM      H3F      HAL2     0.900000E-01   1.00800           0
     10489 MEMB     12       OSM      H3G      HAL2     0.900000E-01   1.00800           0
     10490 MEMB     12       OSM      C4F      CTL2    -0.180000       12.0110           0
     10491 MEMB     12       OSM      H4F      HAL2     0.900000E-01   1.00800           0
     10492 MEMB     12       OSM      H4G      HAL2     0.900000E-01   1.00800           0
     10493 MEMB     12       OSM      C5F      CTL2    -0.180000       12.0110           0
     10494 MEMB     12       OSM      H5F      HAL2     0.900000E-01   1.00800           0
     10495 MEMB     12       OSM      H5G      HAL2     0.900000E-01   1.00800           0
     10496 MEMB     12       OSM      C6F      CTL2    -0.180000       12.0110           0
     10497 MEMB     12       OSM      H6F      HAL2     0.900000E-01   1.00800           0
     10498 MEMB     12       OSM      H6G      HAL2     0.900000E-01   1.00800           0
     10499 MEMB     12       OSM      C7F      CTL2    -0.180000       12.0110           0
     10500 MEMB     12       OSM      H7F      HAL2     0.900000E-01   1.00800           0
     10501 MEMB     12       OSM      H7G      HAL2     0.900000E-01   1.00800           0
     10502 MEMB     12       OSM      C8F      CTL2    -0.180000       12.0110           0
     10503 MEMB     12       OSM      H8F      HAL2     0.900000E-01   1.00800           0
     10504 MEMB     12       OSM      H8G      HAL2     0.900000E-01   1.00800           0
     10505 MEMB     12       OSM      C9F      CEL1    -0.150000       12.0110           0
     10506 MEMB     12       OSM      H9F      HEL1     0.150000       1.00800           0
     10507 MEMB     12       OSM      C10F     CEL1    -0.150000       12.0110           0
     10508 MEMB     12       OSM      H10F     HEL1     0.150000       1.00800           0
     10509 MEMB     12       OSM      C11F     CTL2    -0.180000       12.0110           0
     10510 MEMB     12       OSM      H11F     HAL2     0.900000E-01   1.00800           0
     10511 MEMB     12       OSM      H11G     HAL2     0.900000E-01   1.00800           0
     10512 MEMB     12       OSM      C12F     CTL2    -0.180000       12.0110           0
     10513 MEMB     12       OSM      H12F     HAL2     0.900000E-01   1.00800           0
     10514 MEMB     12       OSM      H12G     HAL2     0.900000E-01   1.00800           0
     10515 MEMB     12       OSM      C13F     CTL2    -0.180000       12.0110           0
     10516 MEMB     12       OSM      H13F     HAL2     0.900000E-01   1.00800           0
     10517 MEMB     12       OSM      H13G     HAL2     0.900000E-01   1.00800           0
     10518 MEMB     12       OSM      C14F     CTL2    -0.180000       12.0110           0
     10519 MEMB     12       OSM      H14F     HAL2     0.900000E-01   1.00800           0
     10520 MEMB     12       OSM      H14G     HAL2     0.900000E-01   1.00800           0
     10521 MEMB     12       OSM      C15F     CTL2    -0.180000       12.0110           0
     10522 MEMB     12       OSM      H15F     HAL2     0.900000E-01   1.00800           0
     10523 MEMB     12       OSM      H15G     HAL2     0.900000E-01   1.00800           0
     10524 MEMB     12       OSM      C16F     CTL2    -0.180000       12.0110           0
     10525 MEMB     12       OSM      H16F     HAL2     0.900000E-01   1.00800           0
     10526 MEMB     12       OSM      H16G     HAL2     0.900000E-01   1.00800           0
     10527 MEMB     12       OSM      C17F     CTL2    -0.180000       12.0110           0
     10528 MEMB     12       OSM      H17F     HAL2     0.900000E-01   1.00800           0
     10529 MEMB     12       OSM      H17G     HAL2     0.900000E-01   1.00800           0
     10530 MEMB     12       OSM      C18F     CTL3    -0.270000       12.0110           0
     10531 MEMB     12       OSM      H18F     HAL3     0.900000E-01   1.00800           0
     10532 MEMB     12       OSM      H18G     HAL3     0.900000E-01   1.00800           0
     10533 MEMB     12       OSM      H18H     HAL3     0.900000E-01   1.00800           0
     10534 MEMB     13       OSM      N        NTL     -0.600000       14.0070           0
     10535 MEMB     13       OSM      C15      CTL5    -0.350000       12.0110           0
     10536 MEMB     13       OSM      H15A     HL       0.250000       1.00800           0
     10537 MEMB     13       OSM      H15B     HL       0.250000       1.00800           0
     10538 MEMB     13       OSM      H15C     HL       0.250000       1.00800           0
     10539 MEMB     13       OSM      C14      CTL5    -0.350000       12.0110           0
     10540 MEMB     13       OSM      H14A     HL       0.250000       1.00800           0
     10541 MEMB     13       OSM      H14B     HL       0.250000       1.00800           0
     10542 MEMB     13       OSM      H14C     HL       0.250000       1.00800           0
     10543 MEMB     13       OSM      C13      CTL5    -0.350000       12.0110           0
     10544 MEMB     13       OSM      H13A     HL       0.250000       1.00800           0
     10545 MEMB     13       OSM      H13B     HL       0.250000       1.00800           0
     10546 MEMB     13       OSM      H13C     HL       0.250000       1.00800           0
     10547 MEMB     13       OSM      C12      CTL2    -0.100000       12.0110           0
     10548 MEMB     13       OSM      H12A     HL       0.250000       1.00800           0
     10549 MEMB     13       OSM      H12B     HL       0.250000       1.00800           0
     10550 MEMB     13       OSM      C11      CTL2    -0.800000E-01   12.0110           0
     10551 MEMB     13       OSM      H11A     HAL2     0.900000E-01   1.00800           0
     10552 MEMB     13       OSM      H11B     HAL2     0.900000E-01   1.00800           0
     10553 MEMB     13       OSM      P        PL       1.500000       30.9740           0
     10554 MEMB     13       OSM      O13      O2L     -0.780000       15.9994           0
     10555 MEMB     13       OSM      O14      O2L     -0.780000       15.9994           0
     10556 MEMB     13       OSM      O11      OSLP    -0.570000       15.9994           0
     10557 MEMB     13       OSM      O12      OSLP    -0.570000       15.9994           0
     10558 MEMB     13       OSM      C1S      CTL2    -0.800000E-01   12.0110           0
     10559 MEMB     13       OSM      H1S      HAL2     0.900000E-01   1.00800           0
     10560 MEMB     13       OSM      H1T      HAL2     0.900000E-01   1.00800           0
     10561 MEMB     13       OSM      NF       NHL     -0.700000       14.0070           0
     10562 MEMB     13       OSM      HNF      H        0.350000       1.00800           0
     10563 MEMB     13       OSM      C2S      CTL1     0.300000       12.0110           0
     10564 MEMB     13       OSM      H2S      HAL1     0.500000E-01   1.00800           0
     10565 MEMB     13       OSM      C3S      CTO1     0.500000       12.0110           0
     10566 MEMB     13       OSM      H3S      HAL1    -0.110000       1.00800           0
     10567 MEMB     13       OSM      O3       OHL     -0.690000       15.9994           0
     10568 MEMB     13       OSM      HO3      HOL      0.300000       1.00800           0
     10569 MEMB     13       OSM      C4S      CEL3    -0.150000       12.0110           0
     10570 MEMB     13       OSM      H4S      HEL1     0.150000       1.00800           0
     10571 MEMB     13       OSM      C5S      CEL3    -0.150000       12.0110           0
     10572 MEMB     13       OSM      H5S      HEL1     0.150000       1.00800           0
     10573 MEMB     13       OSM      C6S      CTL2    -0.180000       12.0110           0
     10574 MEMB     13       OSM      H6S      HAL2     0.900000E-01   1.00800           0
     10575 MEMB     13       OSM      H6T      HAL2     0.900000E-01   1.00800           0
     10576 MEMB     13       OSM      C7S      CTL2    -0.180000       12.0110           0
     10577 MEMB     13       OSM      H7S      HAL2     0.900000E-01   1.00800           0
     10578 MEMB     13       OSM      H7T      HAL2     0.900000E-01   1.00800           0
     10579 MEMB     13       OSM      C8S      CTL2    -0.180000       12.0110           0
     10580 MEMB     13       OSM      H8S      HAL2     0.900000E-01   1.00800           0
     10581 MEMB     13       OSM      H8T      HAL2     0.900000E-01   1.00800           0
     10582 MEMB     13       OSM      C9S      CTL2    -0.180000       12.0110           0
     10583 MEMB     13       OSM      H9S      HAL2     0.900000E-01   1.00800           0
     10584 MEMB     13       OSM      H9T      HAL2     0.900000E-01   1.00800           0
     10585 MEMB     13       OSM      C10S     CTL2    -0.180000       12.0110           0
     10586 MEMB     13       OSM      H10S     HAL2     0.900000E-01   1.00800           0
     10587 MEMB     13       OSM      H10T     HAL2     0.900000E-01   1.00800           0
     10588 MEMB     13       OSM      C11S     CTL2    -0.180000       12.0110           0
     10589 MEMB     13       OSM      H11S     HAL2     0.900000E-01   1.00800           0
     10590 MEMB     13       OSM      H11T     HAL2     0.900000E-01   1.00800           0
     10591 MEMB     13       OSM      C12S     CTL2    -0.180000       12.0110           0
     10592 MEMB     13       OSM      H12S     HAL2     0.900000E-01   1.00800           0
     10593 MEMB     13       OSM      H12T     HAL2     0.900000E-01   1.00800           0
     10594 MEMB     13       OSM      C13S     CTL2    -0.180000       12.0110           0
     10595 MEMB     13       OSM      H13S     HAL2     0.900000E-01   1.00800           0
     10596 MEMB     13       OSM      H13T     HAL2     0.900000E-01   1.00800           0
     10597 MEMB     13       OSM      C14S     CTL2    -0.180000       12.0110           0
     10598 MEMB     13       OSM      H14S     HAL2     0.900000E-01   1.00800           0
     10599 MEMB     13       OSM      H14T     HAL2     0.900000E-01   1.00800           0
     10600 MEMB     13       OSM      C15S     CTL2    -0.180000       12.0110           0
     10601 MEMB     13       OSM      H15S     HAL2     0.900000E-01   1.00800           0
     10602 MEMB     13       OSM      H15T     HAL2     0.900000E-01   1.00800           0
     10603 MEMB     13       OSM      C16S     CTL2    -0.180000       12.0110           0
     10604 MEMB     13       OSM      H16S     HAL2     0.900000E-01   1.00800           0
     10605 MEMB     13       OSM      H16T     HAL2     0.900000E-01   1.00800           0
     10606 MEMB     13       OSM      C17S     CTL2    -0.180000       12.0110           0
     10607 MEMB     13       OSM      H17S     HAL2     0.900000E-01   1.00800           0
     10608 MEMB     13       OSM      H17T     HAL2     0.900000E-01   1.00800           0
     10609 MEMB     13       OSM      C18S     CTL3    -0.270000       12.0110           0
     10610 MEMB     13       OSM      H18S     HAL3     0.900000E-01   1.00800           0
     10611 MEMB     13       OSM      H18T     HAL3     0.900000E-01   1.00800           0
     10612 MEMB     13       OSM      H18U     HAL3     0.900000E-01   1.00800           0
     10613 MEMB     13       OSM      C1F      C        0.550000       12.0110           0
     10614 MEMB     13       OSM      OF       O       -0.600000       15.9994           0
     10615 MEMB     13       OSM      C2F      CTL2    -0.700000E-01   12.0110           0
     10616 MEMB     13       OSM      H2F      HAL2     0.600000E-01   1.00800           0
     10617 MEMB     13       OSM      H2G      HAL2     0.600000E-01   1.00800           0
     10618 MEMB     13       OSM      C3F      CTL2    -0.180000       12.0110           0
     10619 MEMB     13       OSM      H3F      HAL2     0.900000E-01   1.00800           0
     10620 MEMB     13       OSM      H3G      HAL2     0.900000E-01   1.00800           0
     10621 MEMB     13       OSM      C4F      CTL2    -0.180000       12.0110           0
     10622 MEMB     13       OSM      H4F      HAL2     0.900000E-01   1.00800           0
     10623 MEMB     13       OSM      H4G      HAL2     0.900000E-01   1.00800           0
     10624 MEMB     13       OSM      C5F      CTL2    -0.180000       12.0110           0
     10625 MEMB     13       OSM      H5F      HAL2     0.900000E-01   1.00800           0
     10626 MEMB     13       OSM      H5G      HAL2     0.900000E-01   1.00800           0
     10627 MEMB     13       OSM      C6F      CTL2    -0.180000       12.0110           0
     10628 MEMB     13       OSM      H6F      HAL2     0.900000E-01   1.00800           0
     10629 MEMB     13       OSM      H6G      HAL2     0.900000E-01   1.00800           0
     10630 MEMB     13       OSM      C7F      CTL2    -0.180000       12.0110           0
     10631 MEMB     13       OSM      H7F      HAL2     0.900000E-01   1.00800           0
     10632 MEMB     13       OSM      H7G      HAL2     0.900000E-01   1.00800           0
     10633 MEMB     13       OSM      C8F      CTL2    -0.180000       12.0110           0
     10634 MEMB     13       OSM      H8F      HAL2     0.900000E-01   1.00800           0
     10635 MEMB     13       OSM      H8G      HAL2     0.900000E-01   1.00800           0
     10636 MEMB     13       OSM      C9F      CEL1    -0.150000       12.0110           0
     10637 MEMB     13       OSM      H9F      HEL1     0.150000       1.00800           0
     10638 MEMB     13       OSM      C10F     CEL1    -0.150000       12.0110           0
     10639 MEMB     13       OSM      H10F     HEL1     0.150000       1.00800           0
     10640 MEMB     13       OSM      C11F     CTL2    -0.180000       12.0110           0
     10641 MEMB     13       OSM      H11F     HAL2     0.900000E-01   1.00800           0
     10642 MEMB     13       OSM      H11G     HAL2     0.900000E-01   1.00800           0
     10643 MEMB     13       OSM      C12F     CTL2    -0.180000       12.0110           0
     10644 MEMB     13       OSM      H12F     HAL2     0.900000E-01   1.00800           0
     10645 MEMB     13       OSM      H12G     HAL2     0.900000E-01   1.00800           0
     10646 MEMB     13       OSM      C13F     CTL2    -0.180000       12.0110           0
     10647 MEMB     13       OSM      H13F     HAL2     0.900000E-01   1.00800           0
     10648 MEMB     13       OSM      H13G     HAL2     0.900000E-01   1.00800           0
     10649 MEMB     13       OSM      C14F     CTL2    -0.180000       12.0110           0
     10650 MEMB     13       OSM      H14F     HAL2     0.900000E-01   1.00800           0
     10651 MEMB     13       OSM      H14G     HAL2     0.900000E-01   1.00800           0
     10652 MEMB     13       OSM      C15F     CTL2    -0.180000       12.0110           0
     10653 MEMB     13       OSM      H15F     HAL2     0.900000E-01   1.00800           0
     10654 MEMB     13       OSM      H15G     HAL2     0.900000E-01   1.00800           0
     10655 MEMB     13       OSM      C16F     CTL2    -0.180000       12.0110           0
     10656 MEMB     13       OSM      H16F     HAL2     0.900000E-01   1.00800           0
     10657 MEMB     13       OSM      H16G     HAL2     0.900000E-01   1.00800           0
     10658 MEMB     13       OSM      C17F     CTL2    -0.180000       12.0110           0
     10659 MEMB     13       OSM      H17F     HAL2     0.900000E-01   1.00800           0
     10660 MEMB     13       OSM      H17G     HAL2     0.900000E-01   1.00800           0
     10661 MEMB     13       OSM      C18F     CTL3    -0.270000       12.0110           0
     10662 MEMB     13       OSM      H18F     HAL3     0.900000E-01   1.00800           0
     10663 MEMB     13       OSM      H18G     HAL3     0.900000E-01   1.00800           0
     10664 MEMB     13       OSM      H18H     HAL3     0.900000E-01   1.00800           0
     10665 MEMB     18       OSM      N        NTL     -0.600000       14.0070           0
     10666 MEMB     18       OSM      C15      CTL5    -0.350000       12.0110           0
     10667 MEMB     18       OSM      H15A     HL       0.250000       1.00800           0
     10668 MEMB     18       OSM      H15B     HL       0.250000       1.00800           0
     10669 MEMB     18       OSM      H15C     HL       0.250000       1.00800           0
     10670 MEMB     18       OSM      C14      CTL5    -0.350000       12.0110           0
     10671 MEMB     18       OSM      H14A     HL       0.250000       1.00800           0
     10672 MEMB     18       OSM      H14B     HL       0.250000       1.00800           0
     10673 MEMB     18       OSM      H14C     HL       0.250000       1.00800           0
     10674 MEMB     18       OSM      C13      CTL5    -0.350000       12.0110           0
     10675 MEMB     18       OSM      H13A     HL       0.250000       1.00800           0
     10676 MEMB     18       OSM      H13B     HL       0.250000       1.00800           0
     10677 MEMB     18       OSM      H13C     HL       0.250000       1.00800           0
     10678 MEMB     18       OSM      C12      CTL2    -0.100000       12.0110           0
     10679 MEMB     18       OSM      H12A     HL       0.250000       1.00800           0
     10680 MEMB     18       OSM      H12B     HL       0.250000       1.00800           0
     10681 MEMB     18       OSM      C11      CTL2    -0.800000E-01   12.0110           0
     10682 MEMB     18       OSM      H11A     HAL2     0.900000E-01   1.00800           0
     10683 MEMB     18       OSM      H11B     HAL2     0.900000E-01   1.00800           0
     10684 MEMB     18       OSM      P        PL       1.500000       30.9740           0
     10685 MEMB     18       OSM      O13      O2L     -0.780000       15.9994           0
     10686 MEMB     18       OSM      O14      O2L     -0.780000       15.9994           0
     10687 MEMB     18       OSM      O11      OSLP    -0.570000       15.9994           0
     10688 MEMB     18       OSM      O12      OSLP    -0.570000       15.9994           0
     10689 MEMB     18       OSM      C1S      CTL2    -0.800000E-01   12.0110           0
     10690 MEMB     18       OSM      H1S      HAL2     0.900000E-01   1.00800           0
     10691 MEMB     18       OSM      H1T      HAL2     0.900000E-01   1.00800           0
     10692 MEMB     18       OSM      NF       NHL     -0.700000       14.0070           0
     10693 MEMB     18       OSM      HNF      H        0.350000       1.00800           0
     10694 MEMB     18       OSM      C2S      CTL1     0.300000       12.0110           0
     10695 MEMB     18       OSM      H2S      HAL1     0.500000E-01   1.00800           0
     10696 MEMB     18       OSM      C3S      CTO1     0.500000       12.0110           0
     10697 MEMB     18       OSM      H3S      HAL1    -0.110000       1.00800           0
     10698 MEMB     18       OSM      O3       OHL     -0.690000       15.9994           0
     10699 MEMB     18       OSM      HO3      HOL      0.300000       1.00800           0
     10700 MEMB     18       OSM      C4S      CEL3    -0.150000       12.0110           0
     10701 MEMB     18       OSM      H4S      HEL1     0.150000       1.00800           0
     10702 MEMB     18       OSM      C5S      CEL3    -0.150000       12.0110           0
     10703 MEMB     18       OSM      H5S      HEL1     0.150000       1.00800           0
     10704 MEMB     18       OSM      C6S      CTL2    -0.180000       12.0110           0
     10705 MEMB     18       OSM      H6S      HAL2     0.900000E-01   1.00800           0
     10706 MEMB     18       OSM      H6T      HAL2     0.900000E-01   1.00800           0
     10707 MEMB     18       OSM      C7S      CTL2    -0.180000       12.0110           0
     10708 MEMB     18       OSM      H7S      HAL2     0.900000E-01   1.00800           0
     10709 MEMB     18       OSM      H7T      HAL2     0.900000E-01   1.00800           0
     10710 MEMB     18       OSM      C8S      CTL2    -0.180000       12.0110           0
     10711 MEMB     18       OSM      H8S      HAL2     0.900000E-01   1.00800           0
     10712 MEMB     18       OSM      H8T      HAL2     0.900000E-01   1.00800           0
     10713 MEMB     18       OSM      C9S      CTL2    -0.180000       12.0110           0
     10714 MEMB     18       OSM      H9S      HAL2     0.900000E-01   1.00800           0
     10715 MEMB     18       OSM      H9T      HAL2     0.900000E-01   1.00800           0
     10716 MEMB     18       OSM      C10S     CTL2    -0.180000       12.0110           0
     10717 MEMB     18       OSM      H10S     HAL2     0.900000E-01   1.00800           0
     10718 MEMB     18       OSM      H10T     HAL2     0.900000E-01   1.00800           0
     10719 MEMB     18       OSM      C11S     CTL2    -0.180000       12.0110           0
     10720 MEMB     18       OSM      H11S     HAL2     0.900000E-01   1.00800           0
     10721 MEMB     18       OSM      H11T     HAL2     0.900000E-01   1.00800           0
     10722 MEMB     18       OSM      C12S     CTL2    -0.180000       12.0110           0
     10723 MEMB     18       OSM      H12S     HAL2     0.900000E-01   1.00800           0
     10724 MEMB     18       OSM      H12T     HAL2     0.900000E-01   1.00800           0
     10725 MEMB     18       OSM      C13S     CTL2    -0.180000       12.0110           0
     10726 MEMB     18       OSM      H13S     HAL2     0.900000E-01   1.00800           0
     10727 MEMB     18       OSM      H13T     HAL2     0.900000E-01   1.00800           0
     10728 MEMB     18       OSM      C14S     CTL2    -0.180000       12.0110           0
     10729 MEMB     18       OSM      H14S     HAL2     0.900000E-01   1.00800           0
     10730 MEMB     18       OSM      H14T     HAL2     0.900000E-01   1.00800           0
     10731 MEMB     18       OSM      C15S     CTL2    -0.180000       12.0110           0
     10732 MEMB     18       OSM      H15S     HAL2     0.900000E-01   1.00800           0
     10733 MEMB     18       OSM      H15T     HAL2     0.900000E-01   1.00800           0
     10734 MEMB     18       OSM      C16S     CTL2    -0.180000       12.0110           0
     10735 MEMB     18       OSM      H16S     HAL2     0.900000E-01   1.00800           0
     10736 MEMB     18       OSM      H16T     HAL2     0.900000E-01   1.00800           0
     10737 MEMB     18       OSM      C17S     CTL2    -0.180000       12.0110           0
     10738 MEMB     18       OSM      H17S     HAL2     0.900000E-01   1.00800           0
     10739 MEMB     18       OSM      H17T     HAL2     0.900000E-01   1.00800           0
     10740 MEMB     18       OSM      C18S     CTL3    -0.270000       12.0110           0
     10741 MEMB     18       OSM      H18S     HAL3     0.900000E-01   1.00800           0
     10742 MEMB     18       OSM      H18T     HAL3     0.900000E-01   1.00800           0
     10743 MEMB     18       OSM      H18U     HAL3     0.900000E-01   1.00800           0
     10744 MEMB     18       OSM      C1F      C        0.550000       12.0110           0
     10745 MEMB     18       OSM      OF       O       -0.600000       15.9994           0
     10746 MEMB     18       OSM      C2F      CTL2    -0.700000E-01   12.0110           0
     10747 MEMB     18       OSM      H2F      HAL2     0.600000E-01   1.00800           0
     10748 MEMB     18       OSM      H2G      HAL2     0.600000E-01   1.00800           0
     10749 MEMB     18       OSM      C3F      CTL2    -0.180000       12.0110           0
     10750 MEMB     18       OSM      H3F      HAL2     0.900000E-01   1.00800           0
     10751 MEMB     18       OSM      H3G      HAL2     0.900000E-01   1.00800           0
     10752 MEMB     18       OSM      C4F      CTL2    -0.180000       12.0110           0
     10753 MEMB     18       OSM      H4F      HAL2     0.900000E-01   1.00800           0
     10754 MEMB     18       OSM      H4G      HAL2     0.900000E-01   1.00800           0
     10755 MEMB     18       OSM      C5F      CTL2    -0.180000       12.0110           0
     10756 MEMB     18       OSM      H5F      HAL2     0.900000E-01   1.00800           0
     10757 MEMB     18       OSM      H5G      HAL2     0.900000E-01   1.00800           0
     10758 MEMB     18       OSM      C6F      CTL2    -0.180000       12.0110           0
     10759 MEMB     18       OSM      H6F      HAL2     0.900000E-01   1.00800           0
     10760 MEMB     18       OSM      H6G      HAL2     0.900000E-01   1.00800           0
     10761 MEMB     18       OSM      C7F      CTL2    -0.180000       12.0110           0
     10762 MEMB     18       OSM      H7F      HAL2     0.900000E-01   1.00800           0
     10763 MEMB     18       OSM      H7G      HAL2     0.900000E-01   1.00800           0
     10764 MEMB     18       OSM      C8F      CTL2    -0.180000       12.0110           0
     10765 MEMB     18       OSM      H8F      HAL2     0.900000E-01   1.00800           0
     10766 MEMB     18       OSM      H8G      HAL2     0.900000E-01   1.00800           0
     10767 MEMB     18       OSM      C9F      CEL1    -0.150000       12.0110           0
     10768 MEMB     18       OSM      H9F      HEL1     0.150000       1.00800           0
     10769 MEMB     18       OSM      C10F     CEL1    -0.150000       12.0110           0
     10770 MEMB     18       OSM      H10F     HEL1     0.150000       1.00800           0
     10771 MEMB     18       OSM      C11F     CTL2    -0.180000       12.0110           0
     10772 MEMB     18       OSM      H11F     HAL2     0.900000E-01   1.00800           0
     10773 MEMB     18       OSM      H11G     HAL2     0.900000E-01   1.00800           0
     10774 MEMB     18       OSM      C12F     CTL2    -0.180000       12.0110           0
     10775 MEMB     18       OSM      H12F     HAL2     0.900000E-01   1.00800           0
     10776 MEMB     18       OSM      H12G     HAL2     0.900000E-01   1.00800           0
     10777 MEMB     18       OSM      C13F     CTL2    -0.180000       12.0110           0
     10778 MEMB     18       OSM      H13F     HAL2     0.900000E-01   1.00800           0
     10779 MEMB     18       OSM      H13G     HAL2     0.900000E-01   1.00800           0
     10780 MEMB     18       OSM      C14F     CTL2    -0.180000       12.0110           0
     10781 MEMB     18       OSM      H14F     HAL2     0.900000E-01   1.00800           0
     10782 MEMB     18       OSM      H14G     HAL2     0.900000E-01   1.00800           0
     10783 MEMB     18       OSM      C15F     CTL2    -0.180000       12.0110           0
     10784 MEMB     18       OSM      H15F     HAL2     0.900000E-01   1.00800           0
     10785 MEMB     18       OSM      H15G     HAL2     0.900000E-01   1.00800           0
     10786 MEMB     18       OSM      C16F     CTL2    -0.180000       12.0110           0
     10787 MEMB     18       OSM      H16F     HAL2     0.900000E-01   1.00800           0
     10788 MEMB     18       OSM      H16G     HAL2     0.900000E-01   1.00800           0
     10789 MEMB     18       OSM      C17F     CTL2    -0.180000       12.0110           0
     10790 MEMB     18       OSM      H17F     HAL2     0.900000E-01   1.00800           0
     10791 MEMB     18       OSM      H17G     HAL2     0.900000E-01   1.00800           0
     10792 MEMB     18       OSM      C18F     CTL3    -0.270000       12.0110           0
     10793 MEMB     18       OSM      H18F     HAL3     0.900000E-01   1.00800           0
     10794 MEMB     18       OSM      H18G     HAL3     0.900000E-01   1.00800           0
     10795 MEMB     18       OSM      H18H     HAL3     0.900000E-01   1.00800           0
     10796 MEMB     23       OSM      N        NTL     -0.600000       14.0070           0
     10797 MEMB     23       OSM      C15      CTL5    -0.350000       12.0110           0
     10798 MEMB     23       OSM      H15A     HL       0.250000       1.00800           0
     10799 MEMB     23       OSM      H15B     HL       0.250000       1.00800           0
     10800 MEMB     23       OSM      H15C     HL       0.250000       1.00800           0
     10801 MEMB     23       OSM      C14      CTL5    -0.350000       12.0110           0
     10802 MEMB     23       OSM      H14A     HL       0.250000       1.00800           0
     10803 MEMB     23       OSM      H14B     HL       0.250000       1.00800           0
     10804 MEMB     23       OSM      H14C     HL       0.250000       1.00800           0
     10805 MEMB     23       OSM      C13      CTL5    -0.350000       12.0110           0
     10806 MEMB     23       OSM      H13A     HL       0.250000       1.00800           0
     10807 MEMB     23       OSM      H13B     HL       0.250000       1.00800           0
     10808 MEMB     23       OSM      H13C     HL       0.250000       1.00800           0
     10809 MEMB     23       OSM      C12      CTL2    -0.100000       12.0110           0
     10810 MEMB     23       OSM      H12A     HL       0.250000       1.00800           0
     10811 MEMB     23       OSM      H12B     HL       0.250000       1.00800           0
     10812 MEMB     23       OSM      C11      CTL2    -0.800000E-01   12.0110           0
     10813 MEMB     23       OSM      H11A     HAL2     0.900000E-01   1.00800           0
     10814 MEMB     23       OSM      H11B     HAL2     0.900000E-01   1.00800           0
     10815 MEMB     23       OSM      P        PL       1.500000       30.9740           0
     10816 MEMB     23       OSM      O13      O2L     -0.780000       15.9994           0
     10817 MEMB     23       OSM      O14      O2L     -0.780000       15.9994           0
     10818 MEMB     23       OSM      O11      OSLP    -0.570000       15.9994           0
     10819 MEMB     23       OSM      O12      OSLP    -0.570000       15.9994           0
     10820 MEMB     23       OSM      C1S      CTL2    -0.800000E-01   12.0110           0
     10821 MEMB     23       OSM      H1S      HAL2     0.900000E-01   1.00800           0
     10822 MEMB     23       OSM      H1T      HAL2     0.900000E-01   1.00800           0
     10823 MEMB     23       OSM      NF       NHL     -0.700000       14.0070           0
     10824 MEMB     23       OSM      HNF      H        0.350000       1.00800           0
     10825 MEMB     23       OSM      C2S      CTL1     0.300000       12.0110           0
     10826 MEMB     23       OSM      H2S      HAL1     0.500000E-01   1.00800           0
     10827 MEMB     23       OSM      C3S      CTO1     0.500000       12.0110           0
     10828 MEMB     23       OSM      H3S      HAL1    -0.110000       1.00800           0
     10829 MEMB     23       OSM      O3       OHL     -0.690000       15.9994           0
     10830 MEMB     23       OSM      HO3      HOL      0.300000       1.00800           0
     10831 MEMB     23       OSM      C4S      CEL3    -0.150000       12.0110           0
     10832 MEMB     23       OSM      H4S      HEL1     0.150000       1.00800           0
     10833 MEMB     23       OSM      C5S      CEL3    -0.150000       12.0110           0
     10834 MEMB     23       OSM      H5S      HEL1     0.150000       1.00800           0
     10835 MEMB     23       OSM      C6S      CTL2    -0.180000       12.0110           0
     10836 MEMB     23       OSM      H6S      HAL2     0.900000E-01   1.00800           0
     10837 MEMB     23       OSM      H6T      HAL2     0.900000E-01   1.00800           0
     10838 MEMB     23       OSM      C7S      CTL2    -0.180000       12.0110           0
     10839 MEMB     23       OSM      H7S      HAL2     0.900000E-01   1.00800           0
     10840 MEMB     23       OSM      H7T      HAL2     0.900000E-01   1.00800           0
     10841 MEMB     23       OSM      C8S      CTL2    -0.180000       12.0110           0
     10842 MEMB     23       OSM      H8S      HAL2     0.900000E-01   1.00800           0
     10843 MEMB     23       OSM      H8T      HAL2     0.900000E-01   1.00800           0
     10844 MEMB     23       OSM      C9S      CTL2    -0.180000       12.0110           0
     10845 MEMB     23       OSM      H9S      HAL2     0.900000E-01   1.00800           0
     10846 MEMB     23       OSM      H9T      HAL2     0.900000E-01   1.00800           0
     10847 MEMB     23       OSM      C10S     CTL2    -0.180000       12.0110           0
     10848 MEMB     23       OSM      H10S     HAL2     0.900000E-01   1.00800           0
     10849 MEMB     23       OSM      H10T     HAL2     0.900000E-01   1.00800           0
     10850 MEMB     23       OSM      C11S     CTL2    -0.180000       12.0110           0
     10851 MEMB     23       OSM      H11S     HAL2     0.900000E-01   1.00800           0
     10852 MEMB     23       OSM      H11T     HAL2     0.900000E-01   1.00800           0
     10853 MEMB     23       OSM      C12S     CTL2    -0.180000       12.0110           0
     10854 MEMB     23       OSM      H12S     HAL2     0.900000E-01   1.00800           0
     10855 MEMB     23       OSM      H12T     HAL2     0.900000E-01   1.00800           0
     10856 MEMB     23       OSM      C13S     CTL2    -0.180000       12.0110           0
     10857 MEMB     23       OSM      H13S     HAL2     0.900000E-01   1.00800           0
     10858 MEMB     23       OSM      H13T     HAL2     0.900000E-01   1.00800           0
     10859 MEMB     23       OSM      C14S     CTL2    -0.180000       12.0110           0
     10860 MEMB     23       OSM      H14S     HAL2     0.900000E-01   1.00800           0
     10861 MEMB     23       OSM      H14T     HAL2     0.900000E-01   1.00800           0
     10862 MEMB     23       OSM      C15S     CTL2    -0.180000       12.0110           0
     10863 MEMB     23       OSM      H15S     HAL2     0.900000E-01   1.00800           0
     10864 MEMB     23       OSM      H15T     HAL2     0.900000E-01   1.00800           0
     10865 MEMB     23       OSM      C16S     CTL2    -0.180000       12.0110           0
     10866 MEMB     23       OSM      H16S     HAL2     0.900000E-01   1.00800           0
     10867 MEMB     23       OSM      H16T     HAL2     0.900000E-01   1.00800           0
     10868 MEMB     23       OSM      C17S     CTL2    -0.180000       12.0110           0
     10869 MEMB     23       OSM      H17S     HAL2     0.900000E-01   1.00800           0
     10870 MEMB     23       OSM      H17T     HAL2     0.900000E-01   1.00800           0
     10871 MEMB     23       OSM      C18S     CTL3    -0.270000       12.0110           0
     10872 MEMB     23       OSM      H18S     HAL3     0.900000E-01   1.00800           0
     10873 MEMB     23       OSM      H18T     HAL3     0.900000E-01   1.00800           0
     10874 MEMB     23       OSM      H18U     HAL3     0.900000E-01   1.00800           0
     10875 MEMB     23       OSM      C1F      C        0.550000       12.0110           0
     10876 MEMB     23       OSM      OF       O       -0.600000       15.9994           0
     10877 MEMB     23       OSM      C2F      CTL2    -0.700000E-01   12.0110           0
     10878 MEMB     23       OSM      H2F      HAL2     0.600000E-01   1.00800           0
     10879 MEMB     23       OSM      H2G      HAL2     0.600000E-01   1.00800           0
     10880 MEMB     23       OSM      C3F      CTL2    -0.180000       12.0110           0
     10881 MEMB     23       OSM      H3F      HAL2     0.900000E-01   1.00800           0
     10882 MEMB     23       OSM      H3G      HAL2     0.900000E-01   1.00800           0
     10883 MEMB     23       OSM      C4F      CTL2    -0.180000       12.0110           0
     10884 MEMB     23       OSM      H4F      HAL2     0.900000E-01   1.00800           0
     10885 MEMB     23       OSM      H4G      HAL2     0.900000E-01   1.00800           0
     10886 MEMB     23       OSM      C5F      CTL2    -0.180000       12.0110           0
     10887 MEMB     23       OSM      H5F      HAL2     0.900000E-01   1.00800           0
     10888 MEMB     23       OSM      H5G      HAL2     0.900000E-01   1.00800           0
     10889 MEMB     23       OSM      C6F      CTL2    -0.180000       12.0110           0
     10890 MEMB     23       OSM      H6F      HAL2     0.900000E-01   1.00800           0
     10891 MEMB     23       OSM      H6G      HAL2     0.900000E-01   1.00800           0
     10892 MEMB     23       OSM      C7F      CTL2    -0.180000       12.0110           0
     10893 MEMB     23       OSM      H7F      HAL2     0.900000E-01   1.00800           0
     10894 MEMB     23       OSM      H7G      HAL2     0.900000E-01   1.00800           0
     10895 MEMB     23       OSM      C8F      CTL2    -0.180000       12.0110           0
     10896 MEMB     23       OSM      H8F      HAL2     0.900000E-01   1.00800           0
     10897 MEMB     23       OSM      H8G      HAL2     0.900000E-01   1.00800           0
     10898 MEMB     23       OSM      C9F      CEL1    -0.150000       12.0110           0
     10899 MEMB     23       OSM      H9F      HEL1     0.150000       1.00800           0
     10900 MEMB     23       OSM      C10F     CEL1    -0.150000       12.0110           0
     10901 MEMB     23       OSM      H10F     HEL1     0.150000       1.00800           0
     10902 MEMB     23       OSM      C11F     CTL2    -0.180000       12.0110           0
     10903 MEMB     23       OSM      H11F     HAL2     0.900000E-01   1.00800           0
     10904 MEMB     23       OSM      H11G     HAL2     0.900000E-01   1.00800           0
     10905 MEMB     23       OSM      C12F     CTL2    -0.180000       12.0110           0
     10906 MEMB     23       OSM      H12F     HAL2     0.900000E-01   1.00800           0
     10907 MEMB     23       OSM      H12G     HAL2     0.900000E-01   1.00800           0
     10908 MEMB     23       OSM      C13F     CTL2    -0.180000       12.0110           0
     10909 MEMB     23       OSM      H13F     HAL2     0.900000E-01   1.00800           0
     10910 MEMB     23       OSM      H13G     HAL2     0.900000E-01   1.00800           0
     10911 MEMB     23       OSM      C14F     CTL2    -0.180000       12.0110           0
     10912 MEMB     23       OSM      H14F     HAL2     0.900000E-01   1.00800           0
     10913 MEMB     23       OSM      H14G     HAL2     0.900000E-01   1.00800           0
     10914 MEMB     23       OSM      C15F     CTL2    -0.180000       12.0110           0
     10915 MEMB     23       OSM      H15F     HAL2     0.900000E-01   1.00800           0
     10916 MEMB     23       OSM      H15G     HAL2     0.900000E-01   1.00800           0
     10917 MEMB     23       OSM      C16F     CTL2    -0.180000       12.0110           0
     10918 MEMB     23       OSM      H16F     HAL2     0.900000E-01   1.00800           0
     10919 MEMB     23       OSM      H16G     HAL2     0.900000E-01   1.00800           0
     10920 MEMB     23       OSM      C17F     CTL2    -0.180000       12.0110           0
     10921 MEMB     23       OSM      H17F     HAL2     0.900000E-01   1.00800           0
     10922 MEMB     23       OSM      H17G     HAL2     0.900000E-01   1.00800           0
     10923 MEMB     23       OSM      C18F     CTL3    -0.270000       12.0110           0
     10924 MEMB     23       OSM      H18F     HAL3     0.900000E-01   1.00800           0
     10925 MEMB     23       OSM      H18G     HAL3     0.900000E-01   1.00800           0
     10926 MEMB     23       OSM      H18H     HAL3     0.900000E-01   1.00800           0
     10927 MEMB     25       OSM      N        NTL     -0.600000       14.0070           0
     10928 MEMB     25       OSM      C15      CTL5    -0.350000       12.0110           0
     10929 MEMB     25       OSM      H15A     HL       0.250000       1.00800           0
     10930 MEMB     25       OSM      H15B     HL       0.250000       1.00800           0
     10931 MEMB     25       OSM      H15C     HL       0.250000       1.00800           0
     10932 MEMB     25       OSM      C14      CTL5    -0.350000       12.0110           0
     10933 MEMB     25       OSM      H14A     HL       0.250000       1.00800           0
     10934 MEMB     25       OSM      H14B     HL       0.250000       1.00800           0
     10935 MEMB     25       OSM      H14C     HL       0.250000       1.00800           0
     10936 MEMB     25       OSM      C13      CTL5    -0.350000       12.0110           0
     10937 MEMB     25       OSM      H13A     HL       0.250000       1.00800           0
     10938 MEMB     25       OSM      H13B     HL       0.250000       1.00800           0
     10939 MEMB     25       OSM      H13C     HL       0.250000       1.00800           0
     10940 MEMB     25       OSM      C12      CTL2    -0.100000       12.0110           0
     10941 MEMB     25       OSM      H12A     HL       0.250000       1.00800           0
     10942 MEMB     25       OSM      H12B     HL       0.250000       1.00800           0
     10943 MEMB     25       OSM      C11      CTL2    -0.800000E-01   12.0110           0
     10944 MEMB     25       OSM      H11A     HAL2     0.900000E-01   1.00800           0
     10945 MEMB     25       OSM      H11B     HAL2     0.900000E-01   1.00800           0
     10946 MEMB     25       OSM      P        PL       1.500000       30.9740           0
     10947 MEMB     25       OSM      O13      O2L     -0.780000       15.9994           0
     10948 MEMB     25       OSM      O14      O2L     -0.780000       15.9994           0
     10949 MEMB     25       OSM      O11      OSLP    -0.570000       15.9994           0
     10950 MEMB     25       OSM      O12      OSLP    -0.570000       15.9994           0
     10951 MEMB     25       OSM      C1S      CTL2    -0.800000E-01   12.0110           0
     10952 MEMB     25       OSM      H1S      HAL2     0.900000E-01   1.00800           0
     10953 MEMB     25       OSM      H1T      HAL2     0.900000E-01   1.00800           0
     10954 MEMB     25       OSM      NF       NHL     -0.700000       14.0070           0
     10955 MEMB     25       OSM      HNF      H        0.350000       1.00800           0
     10956 MEMB     25       OSM      C2S      CTL1     0.300000       12.0110           0
     10957 MEMB     25       OSM      H2S      HAL1     0.500000E-01   1.00800           0
     10958 MEMB     25       OSM      C3S      CTO1     0.500000       12.0110           0
     10959 MEMB     25       OSM      H3S      HAL1    -0.110000       1.00800           0
     10960 MEMB     25       OSM      O3       OHL     -0.690000       15.9994           0
     10961 MEMB     25       OSM      HO3      HOL      0.300000       1.00800           0
     10962 MEMB     25       OSM      C4S      CEL3    -0.150000       12.0110           0
     10963 MEMB     25       OSM      H4S      HEL1     0.150000       1.00800           0
     10964 MEMB     25       OSM      C5S      CEL3    -0.150000       12.0110           0
     10965 MEMB     25       OSM      H5S      HEL1     0.150000       1.00800           0
     10966 MEMB     25       OSM      C6S      CTL2    -0.180000       12.0110           0
     10967 MEMB     25       OSM      H6S      HAL2     0.900000E-01   1.00800           0
     10968 MEMB     25       OSM      H6T      HAL2     0.900000E-01   1.00800           0
     10969 MEMB     25       OSM      C7S      CTL2    -0.180000       12.0110           0
     10970 MEMB     25       OSM      H7S      HAL2     0.900000E-01   1.00800           0
     10971 MEMB     25       OSM      H7T      HAL2     0.900000E-01   1.00800           0
     10972 MEMB     25       OSM      C8S      CTL2    -0.180000       12.0110           0
     10973 MEMB     25       OSM      H8S      HAL2     0.900000E-01   1.00800           0
     10974 MEMB     25       OSM      H8T      HAL2     0.900000E-01   1.00800           0
     10975 MEMB     25       OSM      C9S      CTL2    -0.180000       12.0110           0
     10976 MEMB     25       OSM      H9S      HAL2     0.900000E-01   1.00800           0
     10977 MEMB     25       OSM      H9T      HAL2     0.900000E-01   1.00800           0
     10978 MEMB     25       OSM      C10S     CTL2    -0.180000       12.0110           0
     10979 MEMB     25       OSM      H10S     HAL2     0.900000E-01   1.00800           0
     10980 MEMB     25       OSM      H10T     HAL2     0.900000E-01   1.00800           0
     10981 MEMB     25       OSM      C11S     CTL2    -0.180000       12.0110           0
     10982 MEMB     25       OSM      H11S     HAL2     0.900000E-01   1.00800           0
     10983 MEMB     25       OSM      H11T     HAL2     0.900000E-01   1.00800           0
     10984 MEMB     25       OSM      C12S     CTL2    -0.180000       12.0110           0
     10985 MEMB     25       OSM      H12S     HAL2     0.900000E-01   1.00800           0
     10986 MEMB     25       OSM      H12T     HAL2     0.900000E-01   1.00800           0
     10987 MEMB     25       OSM      C13S     CTL2    -0.180000       12.0110           0
     10988 MEMB     25       OSM      H13S     HAL2     0.900000E-01   1.00800           0
     10989 MEMB     25       OSM      H13T     HAL2     0.900000E-01   1.00800           0
     10990 MEMB     25       OSM      C14S     CTL2    -0.180000       12.0110           0
     10991 MEMB     25       OSM      H14S     HAL2     0.900000E-01   1.00800           0
     10992 MEMB     25       OSM      H14T     HAL2     0.900000E-01   1.00800           0
     10993 MEMB     25       OSM      C15S     CTL2    -0.180000       12.0110           0
     10994 MEMB     25       OSM      H15S     HAL2     0.900000E-01   1.00800           0
     10995 MEMB     25       OSM      H15T     HAL2     0.900000E-01   1.00800           0
     10996 MEMB     25       OSM      C16S     CTL2    -0.180000       12.0110           0
     10997 MEMB     25       OSM      H16S     HAL2     0.900000E-01   1.00800           0
     10998 MEMB     25       OSM      H16T     HAL2     0.900000E-01   1.00800           0
     10999 MEMB     25       OSM      C17S     CTL2    -0.180000       12.0110           0
     11000 MEMB     25       OSM      H17S     HAL2     0.900000E-01   1.00800           0
     11001 MEMB     25       OSM      H17T     HAL2     0.900000E-01   1.00800           0
     11002 MEMB     25       OSM      C18S     CTL3    -0.270000       12.0110           0
     11003 MEMB     25       OSM      H18S     HAL3     0.900000E-01   1.00800           0
     11004 MEMB     25       OSM      H18T     HAL3     0.900000E-01   1.00800           0
     11005 MEMB     25       OSM      H18U     HAL3     0.900000E-01   1.00800           0
     11006 MEMB     25       OSM      C1F      C        0.550000       12.0110           0
     11007 MEMB     25       OSM      OF       O       -0.600000       15.9994           0
     11008 MEMB     25       OSM      C2F      CTL2    -0.700000E-01   12.0110           0
     11009 MEMB     25       OSM      H2F      HAL2     0.600000E-01   1.00800           0
     11010 MEMB     25       OSM      H2G      HAL2     0.600000E-01   1.00800           0
     11011 MEMB     25       OSM      C3F      CTL2    -0.180000       12.0110           0
     11012 MEMB     25       OSM      H3F      HAL2     0.900000E-01   1.00800           0
     11013 MEMB     25       OSM      H3G      HAL2     0.900000E-01   1.00800           0
     11014 MEMB     25       OSM      C4F      CTL2    -0.180000       12.0110           0
     11015 MEMB     25       OSM      H4F      HAL2     0.900000E-01   1.00800           0
     11016 MEMB     25       OSM      H4G      HAL2     0.900000E-01   1.00800           0
     11017 MEMB     25       OSM      C5F      CTL2    -0.180000       12.0110           0
     11018 MEMB     25       OSM      H5F      HAL2     0.900000E-01   1.00800           0
     11019 MEMB     25       OSM      H5G      HAL2     0.900000E-01   1.00800           0
     11020 MEMB     25       OSM      C6F      CTL2    -0.180000       12.0110           0
     11021 MEMB     25       OSM      H6F      HAL2     0.900000E-01   1.00800           0
     11022 MEMB     25       OSM      H6G      HAL2     0.900000E-01   1.00800           0
     11023 MEMB     25       OSM      C7F      CTL2    -0.180000       12.0110           0
     11024 MEMB     25       OSM      H7F      HAL2     0.900000E-01   1.00800           0
     11025 MEMB     25       OSM      H7G      HAL2     0.900000E-01   1.00800           0
     11026 MEMB     25       OSM      C8F      CTL2    -0.180000       12.0110           0
     11027 MEMB     25       OSM      H8F      HAL2     0.900000E-01   1.00800           0
     11028 MEMB     25       OSM      H8G      HAL2     0.900000E-01   1.00800           0
     11029 MEMB     25       OSM      C9F      CEL1    -0.150000       12.0110           0
     11030 MEMB     25       OSM      H9F      HEL1     0.150000       1.00800           0
     11031 MEMB     25       OSM      C10F     CEL1    -0.150000       12.0110           0
     11032 MEMB     25       OSM      H10F     HEL1     0.150000       1.00800           0
     11033 MEMB     25       OSM      C11F     CTL2    -0.180000       12.0110           0
     11034 MEMB     25       OSM      H11F     HAL2     0.900000E-01   1.00800           0
     11035 MEMB     25       OSM      H11G     HAL2     0.900000E-01   1.00800           0
     11036 MEMB     25       OSM      C12F     CTL2    -0.180000       12.0110           0
     11037 MEMB     25       OSM      H12F     HAL2     0.900000E-01   1.00800           0
     11038 MEMB     25       OSM      H12G     HAL2     0.900000E-01   1.00800           0
     11039 MEMB     25       OSM      C13F     CTL2    -0.180000       12.0110           0
     11040 MEMB     25       OSM      H13F     HAL2     0.900000E-01   1.00800           0
     11041 MEMB     25       OSM      H13G     HAL2     0.900000E-01   1.00800           0
     11042 MEMB     25       OSM      C14F     CTL2    -0.180000       12.0110           0
     11043 MEMB     25       OSM      H14F     HAL2     0.900000E-01   1.00800           0
     11044 MEMB     25       OSM      H14G     HAL2     0.900000E-01   1.00800           0
     11045 MEMB     25       OSM      C15F     CTL2    -0.180000       12.0110           0
     11046 MEMB     25       OSM      H15F     HAL2     0.900000E-01   1.00800           0
     11047 MEMB     25       OSM      H15G     HAL2     0.900000E-01   1.00800           0
     11048 MEMB     25       OSM      C16F     CTL2    -0.180000       12.0110           0
     11049 MEMB     25       OSM      H16F     HAL2     0.900000E-01   1.00800           0
     11050 MEMB     25       OSM      H16G     HAL2     0.900000E-01   1.00800           0
     11051 MEMB     25       OSM      C17F     CTL2    -0.180000       12.0110           0
     11052 MEMB     25       OSM      H17F     HAL2     0.900000E-01   1.00800           0
     11053 MEMB     25       OSM      H17G     HAL2     0.900000E-01   1.00800           0
     11054 MEMB     25       OSM      C18F     CTL3    -0.270000       12.0110           0
     11055 MEMB     25       OSM      H18F     HAL3     0.900000E-01   1.00800           0
     11056 MEMB     25       OSM      H18G     HAL3     0.900000E-01   1.00800           0
     11057 MEMB     25       OSM      H18H     HAL3     0.900000E-01   1.00800           0
     11058 MEMB     26       OSM      N        NTL     -0.600000       14.0070           0
     11059 MEMB     26       OSM      C15      CTL5    -0.350000       12.0110           0
     11060 MEMB     26       OSM      H15A     HL       0.250000       1.00800           0
     11061 MEMB     26       OSM      H15B     HL       0.250000       1.00800           0
     11062 MEMB     26       OSM      H15C     HL       0.250000       1.00800           0
     11063 MEMB     26       OSM      C14      CTL5    -0.350000       12.0110           0
     11064 MEMB     26       OSM      H14A     HL       0.250000       1.00800           0
     11065 MEMB     26       OSM      H14B     HL       0.250000       1.00800           0
     11066 MEMB     26       OSM      H14C     HL       0.250000       1.00800           0
     11067 MEMB     26       OSM      C13      CTL5    -0.350000       12.0110           0
     11068 MEMB     26       OSM      H13A     HL       0.250000       1.00800           0
     11069 MEMB     26       OSM      H13B     HL       0.250000       1.00800           0
     11070 MEMB     26       OSM      H13C     HL       0.250000       1.00800           0
     11071 MEMB     26       OSM      C12      CTL2    -0.100000       12.0110           0
     11072 MEMB     26       OSM      H12A     HL       0.250000       1.00800           0
     11073 MEMB     26       OSM      H12B     HL       0.250000       1.00800           0
     11074 MEMB     26       OSM      C11      CTL2    -0.800000E-01   12.0110           0
     11075 MEMB     26       OSM      H11A     HAL2     0.900000E-01   1.00800           0
     11076 MEMB     26       OSM      H11B     HAL2     0.900000E-01   1.00800           0
     11077 MEMB     26       OSM      P        PL       1.500000       30.9740           0
     11078 MEMB     26       OSM      O13      O2L     -0.780000       15.9994           0
     11079 MEMB     26       OSM      O14      O2L     -0.780000       15.9994           0
     11080 MEMB     26       OSM      O11      OSLP    -0.570000       15.9994           0
     11081 MEMB     26       OSM      O12      OSLP    -0.570000       15.9994           0
     11082 MEMB     26       OSM      C1S      CTL2    -0.800000E-01   12.0110           0
     11083 MEMB     26       OSM      H1S      HAL2     0.900000E-01   1.00800           0
     11084 MEMB     26       OSM      H1T      HAL2     0.900000E-01   1.00800           0
     11085 MEMB     26       OSM      NF       NHL     -0.700000       14.0070           0
     11086 MEMB     26       OSM      HNF      H        0.350000       1.00800           0
     11087 MEMB     26       OSM      C2S      CTL1     0.300000       12.0110           0
     11088 MEMB     26       OSM      H2S      HAL1     0.500000E-01   1.00800           0
     11089 MEMB     26       OSM      C3S      CTO1     0.500000       12.0110           0
     11090 MEMB     26       OSM      H3S      HAL1    -0.110000       1.00800           0
     11091 MEMB     26       OSM      O3       OHL     -0.690000       15.9994           0
     11092 MEMB     26       OSM      HO3      HOL      0.300000       1.00800           0
     11093 MEMB     26       OSM      C4S      CEL3    -0.150000       12.0110           0
     11094 MEMB     26       OSM      H4S      HEL1     0.150000       1.00800           0
     11095 MEMB     26       OSM      C5S      CEL3    -0.150000       12.0110           0
     11096 MEMB     26       OSM      H5S      HEL1     0.150000       1.00800           0
     11097 MEMB     26       OSM      C6S      CTL2    -0.180000       12.0110           0
     11098 MEMB     26       OSM      H6S      HAL2     0.900000E-01   1.00800           0
     11099 MEMB     26       OSM      H6T      HAL2     0.900000E-01   1.00800           0
     11100 MEMB     26       OSM      C7S      CTL2    -0.180000       12.0110           0
     11101 MEMB     26       OSM      H7S      HAL2     0.900000E-01   1.00800           0
     11102 MEMB     26       OSM      H7T      HAL2     0.900000E-01   1.00800           0
     11103 MEMB     26       OSM      C8S      CTL2    -0.180000       12.0110           0
     11104 MEMB     26       OSM      H8S      HAL2     0.900000E-01   1.00800           0
     11105 MEMB     26       OSM      H8T      HAL2     0.900000E-01   1.00800           0
     11106 MEMB     26       OSM      C9S      CTL2    -0.180000       12.0110           0
     11107 MEMB     26       OSM      H9S      HAL2     0.900000E-01   1.00800           0
     11108 MEMB     26       OSM      H9T      HAL2     0.900000E-01   1.00800           0
     11109 MEMB     26       OSM      C10S     CTL2    -0.180000       12.0110           0
     11110 MEMB     26       OSM      H10S     HAL2     0.900000E-01   1.00800           0
     11111 MEMB     26       OSM      H10T     HAL2     0.900000E-01   1.00800           0
     11112 MEMB     26       OSM      C11S     CTL2    -0.180000       12.0110           0
     11113 MEMB     26       OSM      H11S     HAL2     0.900000E-01   1.00800           0
     11114 MEMB     26       OSM      H11T     HAL2     0.900000E-01   1.00800           0
     11115 MEMB     26       OSM      C12S     CTL2    -0.180000       12.0110           0
     11116 MEMB     26       OSM      H12S     HAL2     0.900000E-01   1.00800           0
     11117 MEMB     26       OSM      H12T     HAL2     0.900000E-01   1.00800           0
     11118 MEMB     26       OSM      C13S     CTL2    -0.180000       12.0110           0
     11119 MEMB     26       OSM      H13S     HAL2     0.900000E-01   1.00800           0
     11120 MEMB     26       OSM      H13T     HAL2     0.900000E-01   1.00800           0
     11121 MEMB     26       OSM      C14S     CTL2    -0.180000       12.0110           0
     11122 MEMB     26       OSM      H14S     HAL2     0.900000E-01   1.00800           0
     11123 MEMB     26       OSM      H14T     HAL2     0.900000E-01   1.00800           0
     11124 MEMB     26       OSM      C15S     CTL2    -0.180000       12.0110           0
     11125 MEMB     26       OSM      H15S     HAL2     0.900000E-01   1.00800           0
     11126 MEMB     26       OSM      H15T     HAL2     0.900000E-01   1.00800           0
     11127 MEMB     26       OSM      C16S     CTL2    -0.180000       12.0110           0
     11128 MEMB     26       OSM      H16S     HAL2     0.900000E-01   1.00800           0
     11129 MEMB     26       OSM      H16T     HAL2     0.900000E-01   1.00800           0
     11130 MEMB     26       OSM      C17S     CTL2    -0.180000       12.0110           0
     11131 MEMB     26       OSM      H17S     HAL2     0.900000E-01   1.00800           0
     11132 MEMB     26       OSM      H17T     HAL2     0.900000E-01   1.00800           0
     11133 MEMB     26       OSM      C18S     CTL3    -0.270000       12.0110           0
     11134 MEMB     26       OSM      H18S     HAL3     0.900000E-01   1.00800           0
     11135 MEMB     26       OSM      H18T     HAL3     0.900000E-01   1.00800           0
     11136 MEMB     26       OSM      H18U     HAL3     0.900000E-01   1.00800           0
     11137 MEMB     26       OSM      C1F      C        0.550000       12.0110           0
     11138 MEMB     26       OSM      OF       O       -0.600000       15.9994           0
     11139 MEMB     26       OSM      C2F      CTL2    -0.700000E-01   12.0110           0
     11140 MEMB     26       OSM      H2F      HAL2     0.600000E-01   1.00800           0
     11141 MEMB     26       OSM      H2G      HAL2     0.600000E-01   1.00800           0
     11142 MEMB     26       OSM      C3F      CTL2    -0.180000       12.0110           0
     11143 MEMB     26       OSM      H3F      HAL2     0.900000E-01   1.00800           0
     11144 MEMB     26       OSM      H3G      HAL2     0.900000E-01   1.00800           0
     11145 MEMB     26       OSM      C4F      CTL2    -0.180000       12.0110           0
     11146 MEMB     26       OSM      H4F      HAL2     0.900000E-01   1.00800           0
     11147 MEMB     26       OSM      H4G      HAL2     0.900000E-01   1.00800           0
     11148 MEMB     26       OSM      C5F      CTL2    -0.180000       12.0110           0
     11149 MEMB     26       OSM      H5F      HAL2     0.900000E-01   1.00800           0
     11150 MEMB     26       OSM      H5G      HAL2     0.900000E-01   1.00800           0
     11151 MEMB     26       OSM      C6F      CTL2    -0.180000       12.0110           0
     11152 MEMB     26       OSM      H6F      HAL2     0.900000E-01   1.00800           0
     11153 MEMB     26       OSM      H6G      HAL2     0.900000E-01   1.00800           0
     11154 MEMB     26       OSM      C7F      CTL2    -0.180000       12.0110           0
     11155 MEMB     26       OSM      H7F      HAL2     0.900000E-01   1.00800           0
     11156 MEMB     26       OSM      H7G      HAL2     0.900000E-01   1.00800           0
     11157 MEMB     26       OSM      C8F      CTL2    -0.180000       12.0110           0
     11158 MEMB     26       OSM      H8F      HAL2     0.900000E-01   1.00800           0
     11159 MEMB     26       OSM      H8G      HAL2     0.900000E-01   1.00800           0
     11160 MEMB     26       OSM      C9F      CEL1    -0.150000       12.0110           0
     11161 MEMB     26       OSM      H9F      HEL1     0.150000       1.00800           0
     11162 MEMB     26       OSM      C10F     CEL1    -0.150000       12.0110           0
     11163 MEMB     26       OSM      H10F     HEL1     0.150000       1.00800           0
     11164 MEMB     26       OSM      C11F     CTL2    -0.180000       12.0110           0
     11165 MEMB     26       OSM      H11F     HAL2     0.900000E-01   1.00800           0
     11166 MEMB     26       OSM      H11G     HAL2     0.900000E-01   1.00800           0
     11167 MEMB     26       OSM      C12F     CTL2    -0.180000       12.0110           0
     11168 MEMB     26       OSM      H12F     HAL2     0.900000E-01   1.00800           0
     11169 MEMB     26       OSM      H12G     HAL2     0.900000E-01   1.00800           0
     11170 MEMB     26       OSM      C13F     CTL2    -0.180000       12.0110           0
     11171 MEMB     26       OSM      H13F     HAL2     0.900000E-01   1.00800           0
     11172 MEMB     26       OSM      H13G     HAL2     0.900000E-01   1.00800           0
     11173 MEMB     26       OSM      C14F     CTL2    -0.180000       12.0110           0
     11174 MEMB     26       OSM      H14F     HAL2     0.900000E-01   1.00800           0
     11175 MEMB     26       OSM      H14G     HAL2     0.900000E-01   1.00800           0
     11176 MEMB     26       OSM      C15F     CTL2    -0.180000       12.0110           0
     11177 MEMB     26       OSM      H15F     HAL2     0.900000E-01   1.00800           0
     11178 MEMB     26       OSM      H15G     HAL2     0.900000E-01   1.00800           0
     11179 MEMB     26       OSM      C16F     CTL2    -0.180000       12.0110           0
     11180 MEMB     26       OSM      H16F     HAL2     0.900000E-01   1.00800           0
     11181 MEMB     26       OSM      H16G     HAL2     0.900000E-01   1.00800           0
     11182 MEMB     26       OSM      C17F     CTL2    -0.180000       12.0110           0
     11183 MEMB     26       OSM      H17F     HAL2     0.900000E-01   1.00800           0
     11184 MEMB     26       OSM      H17G     HAL2     0.900000E-01   1.00800           0
     11185 MEMB     26       OSM      C18F     CTL3    -0.270000       12.0110           0
     11186 MEMB     26       OSM      H18F     HAL3     0.900000E-01   1.00800           0
     11187 MEMB     26       OSM      H18G     HAL3     0.900000E-01   1.00800           0
     11188 MEMB     26       OSM      H18H     HAL3     0.900000E-01   1.00800           0
     11189 MEMB     28       OSM      N        NTL     -0.600000       14.0070           0
     11190 MEMB     28       OSM      C15      CTL5    -0.350000       12.0110           0
     11191 MEMB     28       OSM      H15A     HL       0.250000       1.00800           0
     11192 MEMB     28       OSM      H15B     HL       0.250000       1.00800           0
     11193 MEMB     28       OSM      H15C     HL       0.250000       1.00800           0
     11194 MEMB     28       OSM      C14      CTL5    -0.350000       12.0110           0
     11195 MEMB     28       OSM      H14A     HL       0.250000       1.00800           0
     11196 MEMB     28       OSM      H14B     HL       0.250000       1.00800           0
     11197 MEMB     28       OSM      H14C     HL       0.250000       1.00800           0
     11198 MEMB     28       OSM      C13      CTL5    -0.350000       12.0110           0
     11199 MEMB     28       OSM      H13A     HL       0.250000       1.00800           0
     11200 MEMB     28       OSM      H13B     HL       0.250000       1.00800           0
     11201 MEMB     28       OSM      H13C     HL       0.250000       1.00800           0
     11202 MEMB     28       OSM      C12      CTL2    -0.100000       12.0110           0
     11203 MEMB     28       OSM      H12A     HL       0.250000       1.00800           0
     11204 MEMB     28       OSM      H12B     HL       0.250000       1.00800           0
     11205 MEMB     28       OSM      C11      CTL2    -0.800000E-01   12.0110           0
     11206 MEMB     28       OSM      H11A     HAL2     0.900000E-01   1.00800           0
     11207 MEMB     28       OSM      H11B     HAL2     0.900000E-01   1.00800           0
     11208 MEMB     28       OSM      P        PL       1.500000       30.9740           0
     11209 MEMB     28       OSM      O13      O2L     -0.780000       15.9994           0
     11210 MEMB     28       OSM      O14      O2L     -0.780000       15.9994           0
     11211 MEMB     28       OSM      O11      OSLP    -0.570000       15.9994           0
     11212 MEMB     28       OSM      O12      OSLP    -0.570000       15.9994           0
     11213 MEMB     28       OSM      C1S      CTL2    -0.800000E-01   12.0110           0
     11214 MEMB     28       OSM      H1S      HAL2     0.900000E-01   1.00800           0
     11215 MEMB     28       OSM      H1T      HAL2     0.900000E-01   1.00800           0
     11216 MEMB     28       OSM      NF       NHL     -0.700000       14.0070           0
     11217 MEMB     28       OSM      HNF      H        0.350000       1.00800           0
     11218 MEMB     28       OSM      C2S      CTL1     0.300000       12.0110           0
     11219 MEMB     28       OSM      H2S      HAL1     0.500000E-01   1.00800           0
     11220 MEMB     28       OSM      C3S      CTO1     0.500000       12.0110           0
     11221 MEMB     28       OSM      H3S      HAL1    -0.110000       1.00800           0
     11222 MEMB     28       OSM      O3       OHL     -0.690000       15.9994           0
     11223 MEMB     28       OSM      HO3      HOL      0.300000       1.00800           0
     11224 MEMB     28       OSM      C4S      CEL3    -0.150000       12.0110           0
     11225 MEMB     28       OSM      H4S      HEL1     0.150000       1.00800           0
     11226 MEMB     28       OSM      C5S      CEL3    -0.150000       12.0110           0
     11227 MEMB     28       OSM      H5S      HEL1     0.150000       1.00800           0
     11228 MEMB     28       OSM      C6S      CTL2    -0.180000       12.0110           0
     11229 MEMB     28       OSM      H6S      HAL2     0.900000E-01   1.00800           0
     11230 MEMB     28       OSM      H6T      HAL2     0.900000E-01   1.00800           0
     11231 MEMB     28       OSM      C7S      CTL2    -0.180000       12.0110           0
     11232 MEMB     28       OSM      H7S      HAL2     0.900000E-01   1.00800           0
     11233 MEMB     28       OSM      H7T      HAL2     0.900000E-01   1.00800           0
     11234 MEMB     28       OSM      C8S      CTL2    -0.180000       12.0110           0
     11235 MEMB     28       OSM      H8S      HAL2     0.900000E-01   1.00800           0
     11236 MEMB     28       OSM      H8T      HAL2     0.900000E-01   1.00800           0
     11237 MEMB     28       OSM      C9S      CTL2    -0.180000       12.0110           0
     11238 MEMB     28       OSM      H9S      HAL2     0.900000E-01   1.00800           0
     11239 MEMB     28       OSM      H9T      HAL2     0.900000E-01   1.00800           0
     11240 MEMB     28       OSM      C10S     CTL2    -0.180000       12.0110           0
     11241 MEMB     28       OSM      H10S     HAL2     0.900000E-01   1.00800           0
     11242 MEMB     28       OSM      H10T     HAL2     0.900000E-01   1.00800           0
     11243 MEMB     28       OSM      C11S     CTL2    -0.180000       12.0110           0
     11244 MEMB     28       OSM      H11S     HAL2     0.900000E-01   1.00800           0
     11245 MEMB     28       OSM      H11T     HAL2     0.900000E-01   1.00800           0
     11246 MEMB     28       OSM      C12S     CTL2    -0.180000       12.0110           0
     11247 MEMB     28       OSM      H12S     HAL2     0.900000E-01   1.00800           0
     11248 MEMB     28       OSM      H12T     HAL2     0.900000E-01   1.00800           0
     11249 MEMB     28       OSM      C13S     CTL2    -0.180000       12.0110           0
     11250 MEMB     28       OSM      H13S     HAL2     0.900000E-01   1.00800           0
     11251 MEMB     28       OSM      H13T     HAL2     0.900000E-01   1.00800           0
     11252 MEMB     28       OSM      C14S     CTL2    -0.180000       12.0110           0
     11253 MEMB     28       OSM      H14S     HAL2     0.900000E-01   1.00800           0
     11254 MEMB     28       OSM      H14T     HAL2     0.900000E-01   1.00800           0
     11255 MEMB     28       OSM      C15S     CTL2    -0.180000       12.0110           0
     11256 MEMB     28       OSM      H15S     HAL2     0.900000E-01   1.00800           0
     11257 MEMB     28       OSM      H15T     HAL2     0.900000E-01   1.00800           0
     11258 MEMB     28       OSM      C16S     CTL2    -0.180000       12.0110           0
     11259 MEMB     28       OSM      H16S     HAL2     0.900000E-01   1.00800           0
     11260 MEMB     28       OSM      H16T     HAL2     0.900000E-01   1.00800           0
     11261 MEMB     28       OSM      C17S     CTL2    -0.180000       12.0110           0
     11262 MEMB     28       OSM      H17S     HAL2     0.900000E-01   1.00800           0
     11263 MEMB     28       OSM      H17T     HAL2     0.900000E-01   1.00800           0
     11264 MEMB     28       OSM      C18S     CTL3    -0.270000       12.0110           0
     11265 MEMB     28       OSM      H18S     HAL3     0.900000E-01   1.00800           0
     11266 MEMB     28       OSM      H18T     HAL3     0.900000E-01   1.00800           0
     11267 MEMB     28       OSM      H18U     HAL3     0.900000E-01   1.00800           0
     11268 MEMB     28       OSM      C1F      C        0.550000       12.0110           0
     11269 MEMB     28       OSM      OF       O       -0.600000       15.9994           0
     11270 MEMB     28       OSM      C2F      CTL2    -0.700000E-01   12.0110           0
     11271 MEMB     28       OSM      H2F      HAL2     0.600000E-01   1.00800           0
     11272 MEMB     28       OSM      H2G      HAL2     0.600000E-01   1.00800           0
     11273 MEMB     28       OSM      C3F      CTL2    -0.180000       12.0110           0
     11274 MEMB     28       OSM      H3F      HAL2     0.900000E-01   1.00800           0
     11275 MEMB     28       OSM      H3G      HAL2     0.900000E-01   1.00800           0
     11276 MEMB     28       OSM      C4F      CTL2    -0.180000       12.0110           0
     11277 MEMB     28       OSM      H4F      HAL2     0.900000E-01   1.00800           0
     11278 MEMB     28       OSM      H4G      HAL2     0.900000E-01   1.00800           0
     11279 MEMB     28       OSM      C5F      CTL2    -0.180000       12.0110           0
     11280 MEMB     28       OSM      H5F      HAL2     0.900000E-01   1.00800           0
     11281 MEMB     28       OSM      H5G      HAL2     0.900000E-01   1.00800           0
     11282 MEMB     28       OSM      C6F      CTL2    -0.180000       12.0110           0
     11283 MEMB     28       OSM      H6F      HAL2     0.900000E-01   1.00800           0
     11284 MEMB     28       OSM      H6G      HAL2     0.900000E-01   1.00800           0
     11285 MEMB     28       OSM      C7F      CTL2    -0.180000       12.0110           0
     11286 MEMB     28       OSM      H7F      HAL2     0.900000E-01   1.00800           0
     11287 MEMB     28       OSM      H7G      HAL2     0.900000E-01   1.00800           0
     11288 MEMB     28       OSM      C8F      CTL2    -0.180000       12.0110           0
     11289 MEMB     28       OSM      H8F      HAL2     0.900000E-01   1.00800           0
     11290 MEMB     28       OSM      H8G      HAL2     0.900000E-01   1.00800           0
     11291 MEMB     28       OSM      C9F      CEL1    -0.150000       12.0110           0
     11292 MEMB     28       OSM      H9F      HEL1     0.150000       1.00800           0
     11293 MEMB     28       OSM      C10F     CEL1    -0.150000       12.0110           0
     11294 MEMB     28       OSM      H10F     HEL1     0.150000       1.00800           0
     11295 MEMB     28       OSM      C11F     CTL2    -0.180000       12.0110           0
     11296 MEMB     28       OSM      H11F     HAL2     0.900000E-01   1.00800           0
     11297 MEMB     28       OSM      H11G     HAL2     0.900000E-01   1.00800           0
     11298 MEMB     28       OSM      C12F     CTL2    -0.180000       12.0110           0
     11299 MEMB     28       OSM      H12F     HAL2     0.900000E-01   1.00800           0
     11300 MEMB     28       OSM      H12G     HAL2     0.900000E-01   1.00800           0
     11301 MEMB     28       OSM      C13F     CTL2    -0.180000       12.0110           0
     11302 MEMB     28       OSM      H13F     HAL2     0.900000E-01   1.00800           0
     11303 MEMB     28       OSM      H13G     HAL2     0.900000E-01   1.00800           0
     11304 MEMB     28       OSM      C14F     CTL2    -0.180000       12.0110           0
     11305 MEMB     28       OSM      H14F     HAL2     0.900000E-01   1.00800           0
     11306 MEMB     28       OSM      H14G     HAL2     0.900000E-01   1.00800           0
     11307 MEMB     28       OSM      C15F     CTL2    -0.180000       12.0110           0
     11308 MEMB     28       OSM      H15F     HAL2     0.900000E-01   1.00800           0
     11309 MEMB     28       OSM      H15G     HAL2     0.900000E-01   1.00800           0
     11310 MEMB     28       OSM      C16F     CTL2    -0.180000       12.0110           0
     11311 MEMB     28       OSM      H16F     HAL2     0.900000E-01   1.00800           0
     11312 MEMB     28       OSM      H16G     HAL2     0.900000E-01   1.00800           0
     11313 MEMB     28       OSM      C17F     CTL2    -0.180000       12.0110           0
     11314 MEMB     28       OSM      H17F     HAL2     0.900000E-01   1.00800           0
     11315 MEMB     28       OSM      H17G     HAL2     0.900000E-01   1.00800           0
     11316 MEMB     28       OSM      C18F     CTL3    -0.270000       12.0110           0
     11317 MEMB     28       OSM      H18F     HAL3     0.900000E-01   1.00800           0
     11318 MEMB     28       OSM      H18G     HAL3     0.900000E-01   1.00800           0
     11319 MEMB     28       OSM      H18H     HAL3     0.900000E-01   1.00800           0
     11320 MEMB     29       OSM      N        NTL     -0.600000       14.0070           0
     11321 MEMB     29       OSM      C15      CTL5    -0.350000       12.0110           0
     11322 MEMB     29       OSM      H15A     HL       0.250000       1.00800           0
     11323 MEMB     29       OSM      H15B     HL       0.250000       1.00800           0
     11324 MEMB     29       OSM      H15C     HL       0.250000       1.00800           0
     11325 MEMB     29       OSM      C14      CTL5    -0.350000       12.0110           0
     11326 MEMB     29       OSM      H14A     HL       0.250000       1.00800           0
     11327 MEMB     29       OSM      H14B     HL       0.250000       1.00800           0
     11328 MEMB     29       OSM      H14C     HL       0.250000       1.00800           0
     11329 MEMB     29       OSM      C13      CTL5    -0.350000       12.0110           0
     11330 MEMB     29       OSM      H13A     HL       0.250000       1.00800           0
     11331 MEMB     29       OSM      H13B     HL       0.250000       1.00800           0
     11332 MEMB     29       OSM      H13C     HL       0.250000       1.00800           0
     11333 MEMB     29       OSM      C12      CTL2    -0.100000       12.0110           0
     11334 MEMB     29       OSM      H12A     HL       0.250000       1.00800           0
     11335 MEMB     29       OSM      H12B     HL       0.250000       1.00800           0
     11336 MEMB     29       OSM      C11      CTL2    -0.800000E-01   12.0110           0
     11337 MEMB     29       OSM      H11A     HAL2     0.900000E-01   1.00800           0
     11338 MEMB     29       OSM      H11B     HAL2     0.900000E-01   1.00800           0
     11339 MEMB     29       OSM      P        PL       1.500000       30.9740           0
     11340 MEMB     29       OSM      O13      O2L     -0.780000       15.9994           0
     11341 MEMB     29       OSM      O14      O2L     -0.780000       15.9994           0
     11342 MEMB     29       OSM      O11      OSLP    -0.570000       15.9994           0
     11343 MEMB     29       OSM      O12      OSLP    -0.570000       15.9994           0
     11344 MEMB     29       OSM      C1S      CTL2    -0.800000E-01   12.0110           0
     11345 MEMB     29       OSM      H1S      HAL2     0.900000E-01   1.00800           0
     11346 MEMB     29       OSM      H1T      HAL2     0.900000E-01   1.00800           0
     11347 MEMB     29       OSM      NF       NHL     -0.700000       14.0070           0
     11348 MEMB     29       OSM      HNF      H        0.350000       1.00800           0
     11349 MEMB     29       OSM      C2S      CTL1     0.300000       12.0110           0
     11350 MEMB     29       OSM      H2S      HAL1     0.500000E-01   1.00800           0
     11351 MEMB     29       OSM      C3S      CTO1     0.500000       12.0110           0
     11352 MEMB     29       OSM      H3S      HAL1    -0.110000       1.00800           0
     11353 MEMB     29       OSM      O3       OHL     -0.690000       15.9994           0
     11354 MEMB     29       OSM      HO3      HOL      0.300000       1.00800           0
     11355 MEMB     29       OSM      C4S      CEL3    -0.150000       12.0110           0
     11356 MEMB     29       OSM      H4S      HEL1     0.150000       1.00800           0
     11357 MEMB     29       OSM      C5S      CEL3    -0.150000       12.0110           0
     11358 MEMB     29       OSM      H5S      HEL1     0.150000       1.00800           0
     11359 MEMB     29       OSM      C6S      CTL2    -0.180000       12.0110           0
     11360 MEMB     29       OSM      H6S      HAL2     0.900000E-01   1.00800           0
     11361 MEMB     29       OSM      H6T      HAL2     0.900000E-01   1.00800           0
     11362 MEMB     29       OSM      C7S      CTL2    -0.180000       12.0110           0
     11363 MEMB     29       OSM      H7S      HAL2     0.900000E-01   1.00800           0
     11364 MEMB     29       OSM      H7T      HAL2     0.900000E-01   1.00800           0
     11365 MEMB     29       OSM      C8S      CTL2    -0.180000       12.0110           0
     11366 MEMB     29       OSM      H8S      HAL2     0.900000E-01   1.00800           0
     11367 MEMB     29       OSM      H8T      HAL2     0.900000E-01   1.00800           0
     11368 MEMB     29       OSM      C9S      CTL2    -0.180000       12.0110           0
     11369 MEMB     29       OSM      H9S      HAL2     0.900000E-01   1.00800           0
     11370 MEMB     29       OSM      H9T      HAL2     0.900000E-01   1.00800           0
     11371 MEMB     29       OSM      C10S     CTL2    -0.180000       12.0110           0
     11372 MEMB     29       OSM      H10S     HAL2     0.900000E-01   1.00800           0
     11373 MEMB     29       OSM      H10T     HAL2     0.900000E-01   1.00800           0
     11374 MEMB     29       OSM      C11S     CTL2    -0.180000       12.0110           0
     11375 MEMB     29       OSM      H11S     HAL2     0.900000E-01   1.00800           0
     11376 MEMB     29       OSM      H11T     HAL2     0.900000E-01   1.00800           0
     11377 MEMB     29       OSM      C12S     CTL2    -0.180000       12.0110           0
     11378 MEMB     29       OSM      H12S     HAL2     0.900000E-01   1.00800           0
     11379 MEMB     29       OSM      H12T     HAL2     0.900000E-01   1.00800           0
     11380 MEMB     29       OSM      C13S     CTL2    -0.180000       12.0110           0
     11381 MEMB     29       OSM      H13S     HAL2     0.900000E-01   1.00800           0
     11382 MEMB     29       OSM      H13T     HAL2     0.900000E-01   1.00800           0
     11383 MEMB     29       OSM      C14S     CTL2    -0.180000       12.0110           0
     11384 MEMB     29       OSM      H14S     HAL2     0.900000E-01   1.00800           0
     11385 MEMB     29       OSM      H14T     HAL2     0.900000E-01   1.00800           0
     11386 MEMB     29       OSM      C15S     CTL2    -0.180000       12.0110           0
     11387 MEMB     29       OSM      H15S     HAL2     0.900000E-01   1.00800           0
     11388 MEMB     29       OSM      H15T     HAL2     0.900000E-01   1.00800           0
     11389 MEMB     29       OSM      C16S     CTL2    -0.180000       12.0110           0
     11390 MEMB     29       OSM      H16S     HAL2     0.900000E-01   1.00800           0
     11391 MEMB     29       OSM      H16T     HAL2     0.900000E-01   1.00800           0
     11392 MEMB     29       OSM      C17S     CTL2    -0.180000       12.0110           0
     11393 MEMB     29       OSM      H17S     HAL2     0.900000E-01   1.00800           0
     11394 MEMB     29       OSM      H17T     HAL2     0.900000E-01   1.00800           0
     11395 MEMB     29       OSM      C18S     CTL3    -0.270000       12.0110           0
     11396 MEMB     29       OSM      H18S     HAL3     0.900000E-01   1.00800           0
     11397 MEMB     29       OSM      H18T     HAL3     0.900000E-01   1.00800           0
     11398 MEMB     29       OSM      H18U     HAL3     0.900000E-01   1.00800           0
     11399 MEMB     29       OSM      C1F      C        0.550000       12.0110           0
     11400 MEMB     29       OSM      OF       O       -0.600000       15.9994           0
     11401 MEMB     29       OSM      C2F      CTL2    -0.700000E-01   12.0110           0
     11402 MEMB     29       OSM      H2F      HAL2     0.600000E-01   1.00800           0
     11403 MEMB     29       OSM      H2G      HAL2     0.600000E-01   1.00800           0
     11404 MEMB     29       OSM      C3F      CTL2    -0.180000       12.0110           0
     11405 MEMB     29       OSM      H3F      HAL2     0.900000E-01   1.00800           0
     11406 MEMB     29       OSM      H3G      HAL2     0.900000E-01   1.00800           0
     11407 MEMB     29       OSM      C4F      CTL2    -0.180000       12.0110           0
     11408 MEMB     29       OSM      H4F      HAL2     0.900000E-01   1.00800           0
     11409 MEMB     29       OSM      H4G      HAL2     0.900000E-01   1.00800           0
     11410 MEMB     29       OSM      C5F      CTL2    -0.180000       12.0110           0
     11411 MEMB     29       OSM      H5F      HAL2     0.900000E-01   1.00800           0
     11412 MEMB     29       OSM      H5G      HAL2     0.900000E-01   1.00800           0
     11413 MEMB     29       OSM      C6F      CTL2    -0.180000       12.0110           0
     11414 MEMB     29       OSM      H6F      HAL2     0.900000E-01   1.00800           0
     11415 MEMB     29       OSM      H6G      HAL2     0.900000E-01   1.00800           0
     11416 MEMB     29       OSM      C7F      CTL2    -0.180000       12.0110           0
     11417 MEMB     29       OSM      H7F      HAL2     0.900000E-01   1.00800           0
     11418 MEMB     29       OSM      H7G      HAL2     0.900000E-01   1.00800           0
     11419 MEMB     29       OSM      C8F      CTL2    -0.180000       12.0110           0
     11420 MEMB     29       OSM      H8F      HAL2     0.900000E-01   1.00800           0
     11421 MEMB     29       OSM      H8G      HAL2     0.900000E-01   1.00800           0
     11422 MEMB     29       OSM      C9F      CEL1    -0.150000       12.0110           0
     11423 MEMB     29       OSM      H9F      HEL1     0.150000       1.00800           0
     11424 MEMB     29       OSM      C10F     CEL1    -0.150000       12.0110           0
     11425 MEMB     29       OSM      H10F     HEL1     0.150000       1.00800           0
     11426 MEMB     29       OSM      C11F     CTL2    -0.180000       12.0110           0
     11427 MEMB     29       OSM      H11F     HAL2     0.900000E-01   1.00800           0
     11428 MEMB     29       OSM      H11G     HAL2     0.900000E-01   1.00800           0
     11429 MEMB     29       OSM      C12F     CTL2    -0.180000       12.0110           0
     11430 MEMB     29       OSM      H12F     HAL2     0.900000E-01   1.00800           0
     11431 MEMB     29       OSM      H12G     HAL2     0.900000E-01   1.00800           0
     11432 MEMB     29       OSM      C13F     CTL2    -0.180000       12.0110           0
     11433 MEMB     29       OSM      H13F     HAL2     0.900000E-01   1.00800           0
     11434 MEMB     29       OSM      H13G     HAL2     0.900000E-01   1.00800           0
     11435 MEMB     29       OSM      C14F     CTL2    -0.180000       12.0110           0
     11436 MEMB     29       OSM      H14F     HAL2     0.900000E-01   1.00800           0
     11437 MEMB     29       OSM      H14G     HAL2     0.900000E-01   1.00800           0
     11438 MEMB     29       OSM      C15F     CTL2    -0.180000       12.0110           0
     11439 MEMB     29       OSM      H15F     HAL2     0.900000E-01   1.00800           0
     11440 MEMB     29       OSM      H15G     HAL2     0.900000E-01   1.00800           0
     11441 MEMB     29       OSM      C16F     CTL2    -0.180000       12.0110           0
     11442 MEMB     29       OSM      H16F     HAL2     0.900000E-01   1.00800           0
     11443 MEMB     29       OSM      H16G     HAL2     0.900000E-01   1.00800           0
     11444 MEMB     29       OSM      C17F     CTL2    -0.180000       12.0110           0
     11445 MEMB     29       OSM      H17F     HAL2     0.900000E-01   1.00800           0
     11446 MEMB     29       OSM      H17G     HAL2     0.900000E-01   1.00800           0
     11447 MEMB     29       OSM      C18F     CTL3    -0.270000       12.0110           0
     11448 MEMB     29       OSM      H18F     HAL3     0.900000E-01   1.00800           0
     11449 MEMB     29       OSM      H18G     HAL3     0.900000E-01   1.00800           0
     11450 MEMB     29       OSM      H18H     HAL3     0.900000E-01   1.00800           0
     11451 MEMB     31       OSM      N        NTL     -0.600000       14.0070           0
     11452 MEMB     31       OSM      C15      CTL5    -0.350000       12.0110           0
     11453 MEMB     31       OSM      H15A     HL       0.250000       1.00800           0
     11454 MEMB     31       OSM      H15B     HL       0.250000       1.00800           0
     11455 MEMB     31       OSM      H15C     HL       0.250000       1.00800           0
     11456 MEMB     31       OSM      C14      CTL5    -0.350000       12.0110           0
     11457 MEMB     31       OSM      H14A     HL       0.250000       1.00800           0
     11458 MEMB     31       OSM      H14B     HL       0.250000       1.00800           0
     11459 MEMB     31       OSM      H14C     HL       0.250000       1.00800           0
     11460 MEMB     31       OSM      C13      CTL5    -0.350000       12.0110           0
     11461 MEMB     31       OSM      H13A     HL       0.250000       1.00800           0
     11462 MEMB     31       OSM      H13B     HL       0.250000       1.00800           0
     11463 MEMB     31       OSM      H13C     HL       0.250000       1.00800           0
     11464 MEMB     31       OSM      C12      CTL2    -0.100000       12.0110           0
     11465 MEMB     31       OSM      H12A     HL       0.250000       1.00800           0
     11466 MEMB     31       OSM      H12B     HL       0.250000       1.00800           0
     11467 MEMB     31       OSM      C11      CTL2    -0.800000E-01   12.0110           0
     11468 MEMB     31       OSM      H11A     HAL2     0.900000E-01   1.00800           0
     11469 MEMB     31       OSM      H11B     HAL2     0.900000E-01   1.00800           0
     11470 MEMB     31       OSM      P        PL       1.500000       30.9740           0
     11471 MEMB     31       OSM      O13      O2L     -0.780000       15.9994           0
     11472 MEMB     31       OSM      O14      O2L     -0.780000       15.9994           0
     11473 MEMB     31       OSM      O11      OSLP    -0.570000       15.9994           0
     11474 MEMB     31       OSM      O12      OSLP    -0.570000       15.9994           0
     11475 MEMB     31       OSM      C1S      CTL2    -0.800000E-01   12.0110           0
     11476 MEMB     31       OSM      H1S      HAL2     0.900000E-01   1.00800           0
     11477 MEMB     31       OSM      H1T      HAL2     0.900000E-01   1.00800           0
     11478 MEMB     31       OSM      NF       NHL     -0.700000       14.0070           0
     11479 MEMB     31       OSM      HNF      H        0.350000       1.00800           0
     11480 MEMB     31       OSM      C2S      CTL1     0.300000       12.0110           0
     11481 MEMB     31       OSM      H2S      HAL1     0.500000E-01   1.00800           0
     11482 MEMB     31       OSM      C3S      CTO1     0.500000       12.0110           0
     11483 MEMB     31       OSM      H3S      HAL1    -0.110000       1.00800           0
     11484 MEMB     31       OSM      O3       OHL     -0.690000       15.9994           0
     11485 MEMB     31       OSM      HO3      HOL      0.300000       1.00800           0
     11486 MEMB     31       OSM      C4S      CEL3    -0.150000       12.0110           0
     11487 MEMB     31       OSM      H4S      HEL1     0.150000       1.00800           0
     11488 MEMB     31       OSM      C5S      CEL3    -0.150000       12.0110           0
     11489 MEMB     31       OSM      H5S      HEL1     0.150000       1.00800           0
     11490 MEMB     31       OSM      C6S      CTL2    -0.180000       12.0110           0
     11491 MEMB     31       OSM      H6S      HAL2     0.900000E-01   1.00800           0
     11492 MEMB     31       OSM      H6T      HAL2     0.900000E-01   1.00800           0
     11493 MEMB     31       OSM      C7S      CTL2    -0.180000       12.0110           0
     11494 MEMB     31       OSM      H7S      HAL2     0.900000E-01   1.00800           0
     11495 MEMB     31       OSM      H7T      HAL2     0.900000E-01   1.00800           0
     11496 MEMB     31       OSM      C8S      CTL2    -0.180000       12.0110           0
     11497 MEMB     31       OSM      H8S      HAL2     0.900000E-01   1.00800           0
     11498 MEMB     31       OSM      H8T      HAL2     0.900000E-01   1.00800           0
     11499 MEMB     31       OSM      C9S      CTL2    -0.180000       12.0110           0
     11500 MEMB     31       OSM      H9S      HAL2     0.900000E-01   1.00800           0
     11501 MEMB     31       OSM      H9T      HAL2     0.900000E-01   1.00800           0
     11502 MEMB     31       OSM      C10S     CTL2    -0.180000       12.0110           0
     11503 MEMB     31       OSM      H10S     HAL2     0.900000E-01   1.00800           0
     11504 MEMB     31       OSM      H10T     HAL2     0.900000E-01   1.00800           0
     11505 MEMB     31       OSM      C11S     CTL2    -0.180000       12.0110           0
     11506 MEMB     31       OSM      H11S     HAL2     0.900000E-01   1.00800           0
     11507 MEMB     31       OSM      H11T     HAL2     0.900000E-01   1.00800           0
     11508 MEMB     31       OSM      C12S     CTL2    -0.180000       12.0110           0
     11509 MEMB     31       OSM      H12S     HAL2     0.900000E-01   1.00800           0
     11510 MEMB     31       OSM      H12T     HAL2     0.900000E-01   1.00800           0
     11511 MEMB     31       OSM      C13S     CTL2    -0.180000       12.0110           0
     11512 MEMB     31       OSM      H13S     HAL2     0.900000E-01   1.00800           0
     11513 MEMB     31       OSM      H13T     HAL2     0.900000E-01   1.00800           0
     11514 MEMB     31       OSM      C14S     CTL2    -0.180000       12.0110           0
     11515 MEMB     31       OSM      H14S     HAL2     0.900000E-01   1.00800           0
     11516 MEMB     31       OSM      H14T     HAL2     0.900000E-01   1.00800           0
     11517 MEMB     31       OSM      C15S     CTL2    -0.180000       12.0110           0
     11518 MEMB     31       OSM      H15S     HAL2     0.900000E-01   1.00800           0
     11519 MEMB     31       OSM      H15T     HAL2     0.900000E-01   1.00800           0
     11520 MEMB     31       OSM      C16S     CTL2    -0.180000       12.0110           0
     11521 MEMB     31       OSM      H16S     HAL2     0.900000E-01   1.00800           0
     11522 MEMB     31       OSM      H16T     HAL2     0.900000E-01   1.00800           0
     11523 MEMB     31       OSM      C17S     CTL2    -0.180000       12.0110           0
     11524 MEMB     31       OSM      H17S     HAL2     0.900000E-01   1.00800           0
     11525 MEMB     31       OSM      H17T     HAL2     0.900000E-01   1.00800           0
     11526 MEMB     31       OSM      C18S     CTL3    -0.270000       12.0110           0
     11527 MEMB     31       OSM      H18S     HAL3     0.900000E-01   1.00800           0
     11528 MEMB     31       OSM      H18T     HAL3     0.900000E-01   1.00800           0
     11529 MEMB     31       OSM      H18U     HAL3     0.900000E-01   1.00800           0
     11530 MEMB     31       OSM      C1F      C        0.550000       12.0110           0
     11531 MEMB     31       OSM      OF       O       -0.600000       15.9994           0
     11532 MEMB     31       OSM      C2F      CTL2    -0.700000E-01   12.0110           0
     11533 MEMB     31       OSM      H2F      HAL2     0.600000E-01   1.00800           0
     11534 MEMB     31       OSM      H2G      HAL2     0.600000E-01   1.00800           0
     11535 MEMB     31       OSM      C3F      CTL2    -0.180000       12.0110           0
     11536 MEMB     31       OSM      H3F      HAL2     0.900000E-01   1.00800           0
     11537 MEMB     31       OSM      H3G      HAL2     0.900000E-01   1.00800           0
     11538 MEMB     31       OSM      C4F      CTL2    -0.180000       12.0110           0
     11539 MEMB     31       OSM      H4F      HAL2     0.900000E-01   1.00800           0
     11540 MEMB     31       OSM      H4G      HAL2     0.900000E-01   1.00800           0
     11541 MEMB     31       OSM      C5F      CTL2    -0.180000       12.0110           0
     11542 MEMB     31       OSM      H5F      HAL2     0.900000E-01   1.00800           0
     11543 MEMB     31       OSM      H5G      HAL2     0.900000E-01   1.00800           0
     11544 MEMB     31       OSM      C6F      CTL2    -0.180000       12.0110           0
     11545 MEMB     31       OSM      H6F      HAL2     0.900000E-01   1.00800           0
     11546 MEMB     31       OSM      H6G      HAL2     0.900000E-01   1.00800           0
     11547 MEMB     31       OSM      C7F      CTL2    -0.180000       12.0110           0
     11548 MEMB     31       OSM      H7F      HAL2     0.900000E-01   1.00800           0
     11549 MEMB     31       OSM      H7G      HAL2     0.900000E-01   1.00800           0
     11550 MEMB     31       OSM      C8F      CTL2    -0.180000       12.0110           0
     11551 MEMB     31       OSM      H8F      HAL2     0.900000E-01   1.00800           0
     11552 MEMB     31       OSM      H8G      HAL2     0.900000E-01   1.00800           0
     11553 MEMB     31       OSM      C9F      CEL1    -0.150000       12.0110           0
     11554 MEMB     31       OSM      H9F      HEL1     0.150000       1.00800           0
     11555 MEMB     31       OSM      C10F     CEL1    -0.150000       12.0110           0
     11556 MEMB     31       OSM      H10F     HEL1     0.150000       1.00800           0
     11557 MEMB     31       OSM      C11F     CTL2    -0.180000       12.0110           0
     11558 MEMB     31       OSM      H11F     HAL2     0.900000E-01   1.00800           0
     11559 MEMB     31       OSM      H11G     HAL2     0.900000E-01   1.00800           0
     11560 MEMB     31       OSM      C12F     CTL2    -0.180000       12.0110           0
     11561 MEMB     31       OSM      H12F     HAL2     0.900000E-01   1.00800           0
     11562 MEMB     31       OSM      H12G     HAL2     0.900000E-01   1.00800           0
     11563 MEMB     31       OSM      C13F     CTL2    -0.180000       12.0110           0
     11564 MEMB     31       OSM      H13F     HAL2     0.900000E-01   1.00800           0
     11565 MEMB     31       OSM      H13G     HAL2     0.900000E-01   1.00800           0
     11566 MEMB     31       OSM      C14F     CTL2    -0.180000       12.0110           0
     11567 MEMB     31       OSM      H14F     HAL2     0.900000E-01   1.00800           0
     11568 MEMB     31       OSM      H14G     HAL2     0.900000E-01   1.00800           0
     11569 MEMB     31       OSM      C15F     CTL2    -0.180000       12.0110           0
     11570 MEMB     31       OSM      H15F     HAL2     0.900000E-01   1.00800           0
     11571 MEMB     31       OSM      H15G     HAL2     0.900000E-01   1.00800           0
     11572 MEMB     31       OSM      C16F     CTL2    -0.180000       12.0110           0
     11573 MEMB     31       OSM      H16F     HAL2     0.900000E-01   1.00800           0
     11574 MEMB     31       OSM      H16G     HAL2     0.900000E-01   1.00800           0
     11575 MEMB     31       OSM      C17F     CTL2    -0.180000       12.0110           0
     11576 MEMB     31       OSM      H17F     HAL2     0.900000E-01   1.00800           0
     11577 MEMB     31       OSM      H17G     HAL2     0.900000E-01   1.00800           0
     11578 MEMB     31       OSM      C18F     CTL3    -0.270000       12.0110           0
     11579 MEMB     31       OSM      H18F     HAL3     0.900000E-01   1.00800           0
     11580 MEMB     31       OSM      H18G     HAL3     0.900000E-01   1.00800           0
     11581 MEMB     31       OSM      H18H     HAL3     0.900000E-01   1.00800           0
     11582 MEMB     32       OSM      N        NTL     -0.600000       14.0070           0
     11583 MEMB     32       OSM      C15      CTL5    -0.350000       12.0110           0
     11584 MEMB     32       OSM      H15A     HL       0.250000       1.00800           0
     11585 MEMB     32       OSM      H15B     HL       0.250000       1.00800           0
     11586 MEMB     32       OSM      H15C     HL       0.250000       1.00800           0
     11587 MEMB     32       OSM      C14      CTL5    -0.350000       12.0110           0
     11588 MEMB     32       OSM      H14A     HL       0.250000       1.00800           0
     11589 MEMB     32       OSM      H14B     HL       0.250000       1.00800           0
     11590 MEMB     32       OSM      H14C     HL       0.250000       1.00800           0
     11591 MEMB     32       OSM      C13      CTL5    -0.350000       12.0110           0
     11592 MEMB     32       OSM      H13A     HL       0.250000       1.00800           0
     11593 MEMB     32       OSM      H13B     HL       0.250000       1.00800           0
     11594 MEMB     32       OSM      H13C     HL       0.250000       1.00800           0
     11595 MEMB     32       OSM      C12      CTL2    -0.100000       12.0110           0
     11596 MEMB     32       OSM      H12A     HL       0.250000       1.00800           0
     11597 MEMB     32       OSM      H12B     HL       0.250000       1.00800           0
     11598 MEMB     32       OSM      C11      CTL2    -0.800000E-01   12.0110           0
     11599 MEMB     32       OSM      H11A     HAL2     0.900000E-01   1.00800           0
     11600 MEMB     32       OSM      H11B     HAL2     0.900000E-01   1.00800           0
     11601 MEMB     32       OSM      P        PL       1.500000       30.9740           0
     11602 MEMB     32       OSM      O13      O2L     -0.780000       15.9994           0
     11603 MEMB     32       OSM      O14      O2L     -0.780000       15.9994           0
     11604 MEMB     32       OSM      O11      OSLP    -0.570000       15.9994           0
     11605 MEMB     32       OSM      O12      OSLP    -0.570000       15.9994           0
     11606 MEMB     32       OSM      C1S      CTL2    -0.800000E-01   12.0110           0
     11607 MEMB     32       OSM      H1S      HAL2     0.900000E-01   1.00800           0
     11608 MEMB     32       OSM      H1T      HAL2     0.900000E-01   1.00800           0
     11609 MEMB     32       OSM      NF       NHL     -0.700000       14.0070           0
     11610 MEMB     32       OSM      HNF      H        0.350000       1.00800           0
     11611 MEMB     32       OSM      C2S      CTL1     0.300000       12.0110           0
     11612 MEMB     32       OSM      H2S      HAL1     0.500000E-01   1.00800           0
     11613 MEMB     32       OSM      C3S      CTO1     0.500000       12.0110           0
     11614 MEMB     32       OSM      H3S      HAL1    -0.110000       1.00800           0
     11615 MEMB     32       OSM      O3       OHL     -0.690000       15.9994           0
     11616 MEMB     32       OSM      HO3      HOL      0.300000       1.00800           0
     11617 MEMB     32       OSM      C4S      CEL3    -0.150000       12.0110           0
     11618 MEMB     32       OSM      H4S      HEL1     0.150000       1.00800           0
     11619 MEMB     32       OSM      C5S      CEL3    -0.150000       12.0110           0
     11620 MEMB     32       OSM      H5S      HEL1     0.150000       1.00800           0
     11621 MEMB     32       OSM      C6S      CTL2    -0.180000       12.0110           0
     11622 MEMB     32       OSM      H6S      HAL2     0.900000E-01   1.00800           0
     11623 MEMB     32       OSM      H6T      HAL2     0.900000E-01   1.00800           0
     11624 MEMB     32       OSM      C7S      CTL2    -0.180000       12.0110           0
     11625 MEMB     32       OSM      H7S      HAL2     0.900000E-01   1.00800           0
     11626 MEMB     32       OSM      H7T      HAL2     0.900000E-01   1.00800           0
     11627 MEMB     32       OSM      C8S      CTL2    -0.180000       12.0110           0
     11628 MEMB     32       OSM      H8S      HAL2     0.900000E-01   1.00800           0
     11629 MEMB     32       OSM      H8T      HAL2     0.900000E-01   1.00800           0
     11630 MEMB     32       OSM      C9S      CTL2    -0.180000       12.0110           0
     11631 MEMB     32       OSM      H9S      HAL2     0.900000E-01   1.00800           0
     11632 MEMB     32       OSM      H9T      HAL2     0.900000E-01   1.00800           0
     11633 MEMB     32       OSM      C10S     CTL2    -0.180000       12.0110           0
     11634 MEMB     32       OSM      H10S     HAL2     0.900000E-01   1.00800           0
     11635 MEMB     32       OSM      H10T     HAL2     0.900000E-01   1.00800           0
     11636 MEMB     32       OSM      C11S     CTL2    -0.180000       12.0110           0
     11637 MEMB     32       OSM      H11S     HAL2     0.900000E-01   1.00800           0
     11638 MEMB     32       OSM      H11T     HAL2     0.900000E-01   1.00800           0
     11639 MEMB     32       OSM      C12S     CTL2    -0.180000       12.0110           0
     11640 MEMB     32       OSM      H12S     HAL2     0.900000E-01   1.00800           0
     11641 MEMB     32       OSM      H12T     HAL2     0.900000E-01   1.00800           0
     11642 MEMB     32       OSM      C13S     CTL2    -0.180000       12.0110           0
     11643 MEMB     32       OSM      H13S     HAL2     0.900000E-01   1.00800           0
     11644 MEMB     32       OSM      H13T     HAL2     0.900000E-01   1.00800           0
     11645 MEMB     32       OSM      C14S     CTL2    -0.180000       12.0110           0
     11646 MEMB     32       OSM      H14S     HAL2     0.900000E-01   1.00800           0
     11647 MEMB     32       OSM      H14T     HAL2     0.900000E-01   1.00800           0
     11648 MEMB     32       OSM      C15S     CTL2    -0.180000       12.0110           0
     11649 MEMB     32       OSM      H15S     HAL2     0.900000E-01   1.00800           0
     11650 MEMB     32       OSM      H15T     HAL2     0.900000E-01   1.00800           0
     11651 MEMB     32       OSM      C16S     CTL2    -0.180000       12.0110           0
     11652 MEMB     32       OSM      H16S     HAL2     0.900000E-01   1.00800           0
     11653 MEMB     32       OSM      H16T     HAL2     0.900000E-01   1.00800           0
     11654 MEMB     32       OSM      C17S     CTL2    -0.180000       12.0110           0
     11655 MEMB     32       OSM      H17S     HAL2     0.900000E-01   1.00800           0
     11656 MEMB     32       OSM      H17T     HAL2     0.900000E-01   1.00800           0
     11657 MEMB     32       OSM      C18S     CTL3    -0.270000       12.0110           0
     11658 MEMB     32       OSM      H18S     HAL3     0.900000E-01   1.00800           0
     11659 MEMB     32       OSM      H18T     HAL3     0.900000E-01   1.00800           0
     11660 MEMB     32       OSM      H18U     HAL3     0.900000E-01   1.00800           0
     11661 MEMB     32       OSM      C1F      C        0.550000       12.0110           0
     11662 MEMB     32       OSM      OF       O       -0.600000       15.9994           0
     11663 MEMB     32       OSM      C2F      CTL2    -0.700000E-01   12.0110           0
     11664 MEMB     32       OSM      H2F      HAL2     0.600000E-01   1.00800           0
     11665 MEMB     32       OSM      H2G      HAL2     0.600000E-01   1.00800           0
     11666 MEMB     32       OSM      C3F      CTL2    -0.180000       12.0110           0
     11667 MEMB     32       OSM      H3F      HAL2     0.900000E-01   1.00800           0
     11668 MEMB     32       OSM      H3G      HAL2     0.900000E-01   1.00800           0
     11669 MEMB     32       OSM      C4F      CTL2    -0.180000       12.0110           0
     11670 MEMB     32       OSM      H4F      HAL2     0.900000E-01   1.00800           0
     11671 MEMB     32       OSM      H4G      HAL2     0.900000E-01   1.00800           0
     11672 MEMB     32       OSM      C5F      CTL2    -0.180000       12.0110           0
     11673 MEMB     32       OSM      H5F      HAL2     0.900000E-01   1.00800           0
     11674 MEMB     32       OSM      H5G      HAL2     0.900000E-01   1.00800           0
     11675 MEMB     32       OSM      C6F      CTL2    -0.180000       12.0110           0
     11676 MEMB     32       OSM      H6F      HAL2     0.900000E-01   1.00800           0
     11677 MEMB     32       OSM      H6G      HAL2     0.900000E-01   1.00800           0
     11678 MEMB     32       OSM      C7F      CTL2    -0.180000       12.0110           0
     11679 MEMB     32       OSM      H7F      HAL2     0.900000E-01   1.00800           0
     11680 MEMB     32       OSM      H7G      HAL2     0.900000E-01   1.00800           0
     11681 MEMB     32       OSM      C8F      CTL2    -0.180000       12.0110           0
     11682 MEMB     32       OSM      H8F      HAL2     0.900000E-01   1.00800           0
     11683 MEMB     32       OSM      H8G      HAL2     0.900000E-01   1.00800           0
     11684 MEMB     32       OSM      C9F      CEL1    -0.150000       12.0110           0
     11685 MEMB     32       OSM      H9F      HEL1     0.150000       1.00800           0
     11686 MEMB     32       OSM      C10F     CEL1    -0.150000       12.0110           0
     11687 MEMB     32       OSM      H10F     HEL1     0.150000       1.00800           0
     11688 MEMB     32       OSM      C11F     CTL2    -0.180000       12.0110           0
     11689 MEMB     32       OSM      H11F     HAL2     0.900000E-01   1.00800           0
     11690 MEMB     32       OSM      H11G     HAL2     0.900000E-01   1.00800           0
     11691 MEMB     32       OSM      C12F     CTL2    -0.180000       12.0110           0
     11692 MEMB     32       OSM      H12F     HAL2     0.900000E-01   1.00800           0
     11693 MEMB     32       OSM      H12G     HAL2     0.900000E-01   1.00800           0
     11694 MEMB     32       OSM      C13F     CTL2    -0.180000       12.0110           0
     11695 MEMB     32       OSM      H13F     HAL2     0.900000E-01   1.00800           0
     11696 MEMB     32       OSM      H13G     HAL2     0.900000E-01   1.00800           0
     11697 MEMB     32       OSM      C14F     CTL2    -0.180000       12.0110           0
     11698 MEMB     32       OSM      H14F     HAL2     0.900000E-01   1.00800           0
     11699 MEMB     32       OSM      H14G     HAL2     0.900000E-01   1.00800           0
     11700 MEMB     32       OSM      C15F     CTL2    -0.180000       12.0110           0
     11701 MEMB     32       OSM      H15F     HAL2     0.900000E-01   1.00800           0
     11702 MEMB     32       OSM      H15G     HAL2     0.900000E-01   1.00800           0
     11703 MEMB     32       OSM      C16F     CTL2    -0.180000       12.0110           0
     11704 MEMB     32       OSM      H16F     HAL2     0.900000E-01   1.00800           0
     11705 MEMB     32       OSM      H16G     HAL2     0.900000E-01   1.00800           0
     11706 MEMB     32       OSM      C17F     CTL2    -0.180000       12.0110           0
     11707 MEMB     32       OSM      H17F     HAL2     0.900000E-01   1.00800           0
     11708 MEMB     32       OSM      H17G     HAL2     0.900000E-01   1.00800           0
     11709 MEMB     32       OSM      C18F     CTL3    -0.270000       12.0110           0
     11710 MEMB     32       OSM      H18F     HAL3     0.900000E-01   1.00800           0
     11711 MEMB     32       OSM      H18G     HAL3     0.900000E-01   1.00800           0
     11712 MEMB     32       OSM      H18H     HAL3     0.900000E-01   1.00800           0
     11713 MEMB     41       OSM      N        NTL     -0.600000       14.0070           0
     11714 MEMB     41       OSM      C15      CTL5    -0.350000       12.0110           0
     11715 MEMB     41       OSM      H15A     HL       0.250000       1.00800           0
     11716 MEMB     41       OSM      H15B     HL       0.250000       1.00800           0
     11717 MEMB     41       OSM      H15C     HL       0.250000       1.00800           0
     11718 MEMB     41       OSM      C14      CTL5    -0.350000       12.0110           0
     11719 MEMB     41       OSM      H14A     HL       0.250000       1.00800           0
     11720 MEMB     41       OSM      H14B     HL       0.250000       1.00800           0
     11721 MEMB     41       OSM      H14C     HL       0.250000       1.00800           0
     11722 MEMB     41       OSM      C13      CTL5    -0.350000       12.0110           0
     11723 MEMB     41       OSM      H13A     HL       0.250000       1.00800           0
     11724 MEMB     41       OSM      H13B     HL       0.250000       1.00800           0
     11725 MEMB     41       OSM      H13C     HL       0.250000       1.00800           0
     11726 MEMB     41       OSM      C12      CTL2    -0.100000       12.0110           0
     11727 MEMB     41       OSM      H12A     HL       0.250000       1.00800           0
     11728 MEMB     41       OSM      H12B     HL       0.250000       1.00800           0
     11729 MEMB     41       OSM      C11      CTL2    -0.800000E-01   12.0110           0
     11730 MEMB     41       OSM      H11A     HAL2     0.900000E-01   1.00800           0
     11731 MEMB     41       OSM      H11B     HAL2     0.900000E-01   1.00800           0
     11732 MEMB     41       OSM      P        PL       1.500000       30.9740           0
     11733 MEMB     41       OSM      O13      O2L     -0.780000       15.9994           0
     11734 MEMB     41       OSM      O14      O2L     -0.780000       15.9994           0
     11735 MEMB     41       OSM      O11      OSLP    -0.570000       15.9994           0
     11736 MEMB     41       OSM      O12      OSLP    -0.570000       15.9994           0
     11737 MEMB     41       OSM      C1S      CTL2    -0.800000E-01   12.0110           0
     11738 MEMB     41       OSM      H1S      HAL2     0.900000E-01   1.00800           0
     11739 MEMB     41       OSM      H1T      HAL2     0.900000E-01   1.00800           0
     11740 MEMB     41       OSM      NF       NHL     -0.700000       14.0070           0
     11741 MEMB     41       OSM      HNF      H        0.350000       1.00800           0
     11742 MEMB     41       OSM      C2S      CTL1     0.300000       12.0110           0
     11743 MEMB     41       OSM      H2S      HAL1     0.500000E-01   1.00800           0
     11744 MEMB     41       OSM      C3S      CTO1     0.500000       12.0110           0
     11745 MEMB     41       OSM      H3S      HAL1    -0.110000       1.00800           0
     11746 MEMB     41       OSM      O3       OHL     -0.690000       15.9994           0
     11747 MEMB     41       OSM      HO3      HOL      0.300000       1.00800           0
     11748 MEMB     41       OSM      C4S      CEL3    -0.150000       12.0110           0
     11749 MEMB     41       OSM      H4S      HEL1     0.150000       1.00800           0
     11750 MEMB     41       OSM      C5S      CEL3    -0.150000       12.0110           0
     11751 MEMB     41       OSM      H5S      HEL1     0.150000       1.00800           0
     11752 MEMB     41       OSM      C6S      CTL2    -0.180000       12.0110           0
     11753 MEMB     41       OSM      H6S      HAL2     0.900000E-01   1.00800           0
     11754 MEMB     41       OSM      H6T      HAL2     0.900000E-01   1.00800           0
     11755 MEMB     41       OSM      C7S      CTL2    -0.180000       12.0110           0
     11756 MEMB     41       OSM      H7S      HAL2     0.900000E-01   1.00800           0
     11757 MEMB     41       OSM      H7T      HAL2     0.900000E-01   1.00800           0
     11758 MEMB     41       OSM      C8S      CTL2    -0.180000       12.0110           0
     11759 MEMB     41       OSM      H8S      HAL2     0.900000E-01   1.00800           0
     11760 MEMB     41       OSM      H8T      HAL2     0.900000E-01   1.00800           0
     11761 MEMB     41       OSM      C9S      CTL2    -0.180000       12.0110           0
     11762 MEMB     41       OSM      H9S      HAL2     0.900000E-01   1.00800           0
     11763 MEMB     41       OSM      H9T      HAL2     0.900000E-01   1.00800           0
     11764 MEMB     41       OSM      C10S     CTL2    -0.180000       12.0110           0
     11765 MEMB     41       OSM      H10S     HAL2     0.900000E-01   1.00800           0
     11766 MEMB     41       OSM      H10T     HAL2     0.900000E-01   1.00800           0
     11767 MEMB     41       OSM      C11S     CTL2    -0.180000       12.0110           0
     11768 MEMB     41       OSM      H11S     HAL2     0.900000E-01   1.00800           0
     11769 MEMB     41       OSM      H11T     HAL2     0.900000E-01   1.00800           0
     11770 MEMB     41       OSM      C12S     CTL2    -0.180000       12.0110           0
     11771 MEMB     41       OSM      H12S     HAL2     0.900000E-01   1.00800           0
     11772 MEMB     41       OSM      H12T     HAL2     0.900000E-01   1.00800           0
     11773 MEMB     41       OSM      C13S     CTL2    -0.180000       12.0110           0
     11774 MEMB     41       OSM      H13S     HAL2     0.900000E-01   1.00800           0
     11775 MEMB     41       OSM      H13T     HAL2     0.900000E-01   1.00800           0
     11776 MEMB     41       OSM      C14S     CTL2    -0.180000       12.0110           0
     11777 MEMB     41       OSM      H14S     HAL2     0.900000E-01   1.00800           0
     11778 MEMB     41       OSM      H14T     HAL2     0.900000E-01   1.00800           0
     11779 MEMB     41       OSM      C15S     CTL2    -0.180000       12.0110           0
     11780 MEMB     41       OSM      H15S     HAL2     0.900000E-01   1.00800           0
     11781 MEMB     41       OSM      H15T     HAL2     0.900000E-01   1.00800           0
     11782 MEMB     41       OSM      C16S     CTL2    -0.180000       12.0110           0
     11783 MEMB     41       OSM      H16S     HAL2     0.900000E-01   1.00800           0
     11784 MEMB     41       OSM      H16T     HAL2     0.900000E-01   1.00800           0
     11785 MEMB     41       OSM      C17S     CTL2    -0.180000       12.0110           0
     11786 MEMB     41       OSM      H17S     HAL2     0.900000E-01   1.00800           0
     11787 MEMB     41       OSM      H17T     HAL2     0.900000E-01   1.00800           0
     11788 MEMB     41       OSM      C18S     CTL3    -0.270000       12.0110           0
     11789 MEMB     41       OSM      H18S     HAL3     0.900000E-01   1.00800           0
     11790 MEMB     41       OSM      H18T     HAL3     0.900000E-01   1.00800           0
     11791 MEMB     41       OSM      H18U     HAL3     0.900000E-01   1.00800           0
     11792 MEMB     41       OSM      C1F      C        0.550000       12.0110           0
     11793 MEMB     41       OSM      OF       O       -0.600000       15.9994           0
     11794 MEMB     41       OSM      C2F      CTL2    -0.700000E-01   12.0110           0
     11795 MEMB     41       OSM      H2F      HAL2     0.600000E-01   1.00800           0
     11796 MEMB     41       OSM      H2G      HAL2     0.600000E-01   1.00800           0
     11797 MEMB     41       OSM      C3F      CTL2    -0.180000       12.0110           0
     11798 MEMB     41       OSM      H3F      HAL2     0.900000E-01   1.00800           0
     11799 MEMB     41       OSM      H3G      HAL2     0.900000E-01   1.00800           0
     11800 MEMB     41       OSM      C4F      CTL2    -0.180000       12.0110           0
     11801 MEMB     41       OSM      H4F      HAL2     0.900000E-01   1.00800           0
     11802 MEMB     41       OSM      H4G      HAL2     0.900000E-01   1.00800           0
     11803 MEMB     41       OSM      C5F      CTL2    -0.180000       12.0110           0
     11804 MEMB     41       OSM      H5F      HAL2     0.900000E-01   1.00800           0
     11805 MEMB     41       OSM      H5G      HAL2     0.900000E-01   1.00800           0
     11806 MEMB     41       OSM      C6F      CTL2    -0.180000       12.0110           0
     11807 MEMB     41       OSM      H6F      HAL2     0.900000E-01   1.00800           0
     11808 MEMB     41       OSM      H6G      HAL2     0.900000E-01   1.00800           0
     11809 MEMB     41       OSM      C7F      CTL2    -0.180000       12.0110           0
     11810 MEMB     41       OSM      H7F      HAL2     0.900000E-01   1.00800           0
     11811 MEMB     41       OSM      H7G      HAL2     0.900000E-01   1.00800           0
     11812 MEMB     41       OSM      C8F      CTL2    -0.180000       12.0110           0
     11813 MEMB     41       OSM      H8F      HAL2     0.900000E-01   1.00800           0
     11814 MEMB     41       OSM      H8G      HAL2     0.900000E-01   1.00800           0
     11815 MEMB     41       OSM      C9F      CEL1    -0.150000       12.0110           0
     11816 MEMB     41       OSM      H9F      HEL1     0.150000       1.00800           0
     11817 MEMB     41       OSM      C10F     CEL1    -0.150000       12.0110           0
     11818 MEMB     41       OSM      H10F     HEL1     0.150000       1.00800           0
     11819 MEMB     41       OSM      C11F     CTL2    -0.180000       12.0110           0
     11820 MEMB     41       OSM      H11F     HAL2     0.900000E-01   1.00800           0
     11821 MEMB     41       OSM      H11G     HAL2     0.900000E-01   1.00800           0
     11822 MEMB     41       OSM      C12F     CTL2    -0.180000       12.0110           0
     11823 MEMB     41       OSM      H12F     HAL2     0.900000E-01   1.00800           0
     11824 MEMB     41       OSM      H12G     HAL2     0.900000E-01   1.00800           0
     11825 MEMB     41       OSM      C13F     CTL2    -0.180000       12.0110           0
     11826 MEMB     41       OSM      H13F     HAL2     0.900000E-01   1.00800           0
     11827 MEMB     41       OSM      H13G     HAL2     0.900000E-01   1.00800           0
     11828 MEMB     41       OSM      C14F     CTL2    -0.180000       12.0110           0
     11829 MEMB     41       OSM      H14F     HAL2     0.900000E-01   1.00800           0
     11830 MEMB     41       OSM      H14G     HAL2     0.900000E-01   1.00800           0
     11831 MEMB     41       OSM      C15F     CTL2    -0.180000       12.0110           0
     11832 MEMB     41       OSM      H15F     HAL2     0.900000E-01   1.00800           0
     11833 MEMB     41       OSM      H15G     HAL2     0.900000E-01   1.00800           0
     11834 MEMB     41       OSM      C16F     CTL2    -0.180000       12.0110           0
     11835 MEMB     41       OSM      H16F     HAL2     0.900000E-01   1.00800           0
     11836 MEMB     41       OSM      H16G     HAL2     0.900000E-01   1.00800           0
     11837 MEMB     41       OSM      C17F     CTL2    -0.180000       12.0110           0
     11838 MEMB     41       OSM      H17F     HAL2     0.900000E-01   1.00800           0
     11839 MEMB     41       OSM      H17G     HAL2     0.900000E-01   1.00800           0
     11840 MEMB     41       OSM      C18F     CTL3    -0.270000       12.0110           0
     11841 MEMB     41       OSM      H18F     HAL3     0.900000E-01   1.00800           0
     11842 MEMB     41       OSM      H18G     HAL3     0.900000E-01   1.00800           0
     11843 MEMB     41       OSM      H18H     HAL3     0.900000E-01   1.00800           0
     11844 MEMB     50       OSM      N        NTL     -0.600000       14.0070           0
     11845 MEMB     50       OSM      C15      CTL5    -0.350000       12.0110           0
     11846 MEMB     50       OSM      H15A     HL       0.250000       1.00800           0
     11847 MEMB     50       OSM      H15B     HL       0.250000       1.00800           0
     11848 MEMB     50       OSM      H15C     HL       0.250000       1.00800           0
     11849 MEMB     50       OSM      C14      CTL5    -0.350000       12.0110           0
     11850 MEMB     50       OSM      H14A     HL       0.250000       1.00800           0
     11851 MEMB     50       OSM      H14B     HL       0.250000       1.00800           0
     11852 MEMB     50       OSM      H14C     HL       0.250000       1.00800           0
     11853 MEMB     50       OSM      C13      CTL5    -0.350000       12.0110           0
     11854 MEMB     50       OSM      H13A     HL       0.250000       1.00800           0
     11855 MEMB     50       OSM      H13B     HL       0.250000       1.00800           0
     11856 MEMB     50       OSM      H13C     HL       0.250000       1.00800           0
     11857 MEMB     50       OSM      C12      CTL2    -0.100000       12.0110           0
     11858 MEMB     50       OSM      H12A     HL       0.250000       1.00800           0
     11859 MEMB     50       OSM      H12B     HL       0.250000       1.00800           0
     11860 MEMB     50       OSM      C11      CTL2    -0.800000E-01   12.0110           0
     11861 MEMB     50       OSM      H11A     HAL2     0.900000E-01   1.00800           0
     11862 MEMB     50       OSM      H11B     HAL2     0.900000E-01   1.00800           0
     11863 MEMB     50       OSM      P        PL       1.500000       30.9740           0
     11864 MEMB     50       OSM      O13      O2L     -0.780000       15.9994           0
     11865 MEMB     50       OSM      O14      O2L     -0.780000       15.9994           0
     11866 MEMB     50       OSM      O11      OSLP    -0.570000       15.9994           0
     11867 MEMB     50       OSM      O12      OSLP    -0.570000       15.9994           0
     11868 MEMB     50       OSM      C1S      CTL2    -0.800000E-01   12.0110           0
     11869 MEMB     50       OSM      H1S      HAL2     0.900000E-01   1.00800           0
     11870 MEMB     50       OSM      H1T      HAL2     0.900000E-01   1.00800           0
     11871 MEMB     50       OSM      NF       NHL     -0.700000       14.0070           0
     11872 MEMB     50       OSM      HNF      H        0.350000       1.00800           0
     11873 MEMB     50       OSM      C2S      CTL1     0.300000       12.0110           0
     11874 MEMB     50       OSM      H2S      HAL1     0.500000E-01   1.00800           0
     11875 MEMB     50       OSM      C3S      CTO1     0.500000       12.0110           0
     11876 MEMB     50       OSM      H3S      HAL1    -0.110000       1.00800           0
     11877 MEMB     50       OSM      O3       OHL     -0.690000       15.9994           0
     11878 MEMB     50       OSM      HO3      HOL      0.300000       1.00800           0
     11879 MEMB     50       OSM      C4S      CEL3    -0.150000       12.0110           0
     11880 MEMB     50       OSM      H4S      HEL1     0.150000       1.00800           0
     11881 MEMB     50       OSM      C5S      CEL3    -0.150000       12.0110           0
     11882 MEMB     50       OSM      H5S      HEL1     0.150000       1.00800           0
     11883 MEMB     50       OSM      C6S      CTL2    -0.180000       12.0110           0
     11884 MEMB     50       OSM      H6S      HAL2     0.900000E-01   1.00800           0
     11885 MEMB     50       OSM      H6T      HAL2     0.900000E-01   1.00800           0
     11886 MEMB     50       OSM      C7S      CTL2    -0.180000       12.0110           0
     11887 MEMB     50       OSM      H7S      HAL2     0.900000E-01   1.00800           0
     11888 MEMB     50       OSM      H7T      HAL2     0.900000E-01   1.00800           0
     11889 MEMB     50       OSM      C8S      CTL2    -0.180000       12.0110           0
     11890 MEMB     50       OSM      H8S      HAL2     0.900000E-01   1.00800           0
     11891 MEMB     50       OSM      H8T      HAL2     0.900000E-01   1.00800           0
     11892 MEMB     50       OSM      C9S      CTL2    -0.180000       12.0110           0
     11893 MEMB     50       OSM      H9S      HAL2     0.900000E-01   1.00800           0
     11894 MEMB     50       OSM      H9T      HAL2     0.900000E-01   1.00800           0
     11895 MEMB     50       OSM      C10S     CTL2    -0.180000       12.0110           0
     11896 MEMB     50       OSM      H10S     HAL2     0.900000E-01   1.00800           0
     11897 MEMB     50       OSM      H10T     HAL2     0.900000E-01   1.00800           0
     11898 MEMB     50       OSM      C11S     CTL2    -0.180000       12.0110           0
     11899 MEMB     50       OSM      H11S     HAL2     0.900000E-01   1.00800           0
     11900 MEMB     50       OSM      H11T     HAL2     0.900000E-01   1.00800           0
     11901 MEMB     50       OSM      C12S     CTL2    -0.180000       12.0110           0
     11902 MEMB     50       OSM      H12S     HAL2     0.900000E-01   1.00800           0
     11903 MEMB     50       OSM      H12T     HAL2     0.900000E-01   1.00800           0
     11904 MEMB     50       OSM      C13S     CTL2    -0.180000       12.0110           0
     11905 MEMB     50       OSM      H13S     HAL2     0.900000E-01   1.00800           0
     11906 MEMB     50       OSM      H13T     HAL2     0.900000E-01   1.00800           0
     11907 MEMB     50       OSM      C14S     CTL2    -0.180000       12.0110           0
     11908 MEMB     50       OSM      H14S     HAL2     0.900000E-01   1.00800           0
     11909 MEMB     50       OSM      H14T     HAL2     0.900000E-01   1.00800           0
     11910 MEMB     50       OSM      C15S     CTL2    -0.180000       12.0110           0
     11911 MEMB     50       OSM      H15S     HAL2     0.900000E-01   1.00800           0
     11912 MEMB     50       OSM      H15T     HAL2     0.900000E-01   1.00800           0
     11913 MEMB     50       OSM      C16S     CTL2    -0.180000       12.0110           0
     11914 MEMB     50       OSM      H16S     HAL2     0.900000E-01   1.00800           0
     11915 MEMB     50       OSM      H16T     HAL2     0.900000E-01   1.00800           0
     11916 MEMB     50       OSM      C17S     CTL2    -0.180000       12.0110           0
     11917 MEMB     50       OSM      H17S     HAL2     0.900000E-01   1.00800           0
     11918 MEMB     50       OSM      H17T     HAL2     0.900000E-01   1.00800           0
     11919 MEMB     50       OSM      C18S     CTL3    -0.270000       12.0110           0
     11920 MEMB     50       OSM      H18S     HAL3     0.900000E-01   1.00800           0
     11921 MEMB     50       OSM      H18T     HAL3     0.900000E-01   1.00800           0
     11922 MEMB     50       OSM      H18U     HAL3     0.900000E-01   1.00800           0
     11923 MEMB     50       OSM      C1F      C        0.550000       12.0110           0
     11924 MEMB     50       OSM      OF       O       -0.600000       15.9994           0
     11925 MEMB     50       OSM      C2F      CTL2    -0.700000E-01   12.0110           0
     11926 MEMB     50       OSM      H2F      HAL2     0.600000E-01   1.00800           0
     11927 MEMB     50       OSM      H2G      HAL2     0.600000E-01   1.00800           0
     11928 MEMB     50       OSM      C3F      CTL2    -0.180000       12.0110           0
     11929 MEMB     50       OSM      H3F      HAL2     0.900000E-01   1.00800           0
     11930 MEMB     50       OSM      H3G      HAL2     0.900000E-01   1.00800           0
     11931 MEMB     50       OSM      C4F      CTL2    -0.180000       12.0110           0
     11932 MEMB     50       OSM      H4F      HAL2     0.900000E-01   1.00800           0
     11933 MEMB     50       OSM      H4G      HAL2     0.900000E-01   1.00800           0
     11934 MEMB     50       OSM      C5F      CTL2    -0.180000       12.0110           0
     11935 MEMB     50       OSM      H5F      HAL2     0.900000E-01   1.00800           0
     11936 MEMB     50       OSM      H5G      HAL2     0.900000E-01   1.00800           0
     11937 MEMB     50       OSM      C6F      CTL2    -0.180000       12.0110           0
     11938 MEMB     50       OSM      H6F      HAL2     0.900000E-01   1.00800           0
     11939 MEMB     50       OSM      H6G      HAL2     0.900000E-01   1.00800           0
     11940 MEMB     50       OSM      C7F      CTL2    -0.180000       12.0110           0
     11941 MEMB     50       OSM      H7F      HAL2     0.900000E-01   1.00800           0
     11942 MEMB     50       OSM      H7G      HAL2     0.900000E-01   1.00800           0
     11943 MEMB     50       OSM      C8F      CTL2    -0.180000       12.0110           0
     11944 MEMB     50       OSM      H8F      HAL2     0.900000E-01   1.00800           0
     11945 MEMB     50       OSM      H8G      HAL2     0.900000E-01   1.00800           0
     11946 MEMB     50       OSM      C9F      CEL1    -0.150000       12.0110           0
     11947 MEMB     50       OSM      H9F      HEL1     0.150000       1.00800           0
     11948 MEMB     50       OSM      C10F     CEL1    -0.150000       12.0110           0
     11949 MEMB     50       OSM      H10F     HEL1     0.150000       1.00800           0
     11950 MEMB     50       OSM      C11F     CTL2    -0.180000       12.0110           0
     11951 MEMB     50       OSM      H11F     HAL2     0.900000E-01   1.00800           0
     11952 MEMB     50       OSM      H11G     HAL2     0.900000E-01   1.00800           0
     11953 MEMB     50       OSM      C12F     CTL2    -0.180000       12.0110           0
     11954 MEMB     50       OSM      H12F     HAL2     0.900000E-01   1.00800           0
     11955 MEMB     50       OSM      H12G     HAL2     0.900000E-01   1.00800           0
     11956 MEMB     50       OSM      C13F     CTL2    -0.180000       12.0110           0
     11957 MEMB     50       OSM      H13F     HAL2     0.900000E-01   1.00800           0
     11958 MEMB     50       OSM      H13G     HAL2     0.900000E-01   1.00800           0
     11959 MEMB     50       OSM      C14F     CTL2    -0.180000       12.0110           0
     11960 MEMB     50       OSM      H14F     HAL2     0.900000E-01   1.00800           0
     11961 MEMB     50       OSM      H14G     HAL2     0.900000E-01   1.00800           0
     11962 MEMB     50       OSM      C15F     CTL2    -0.180000       12.0110           0
     11963 MEMB     50       OSM      H15F     HAL2     0.900000E-01   1.00800           0
     11964 MEMB     50       OSM      H15G     HAL2     0.900000E-01   1.00800           0
     11965 MEMB     50       OSM      C16F     CTL2    -0.180000       12.0110           0
     11966 MEMB     50       OSM      H16F     HAL2     0.900000E-01   1.00800           0
     11967 MEMB     50       OSM      H16G     HAL2     0.900000E-01   1.00800           0
     11968 MEMB     50       OSM      C17F     CTL2    -0.180000       12.0110           0
     11969 MEMB     50       OSM      H17F     HAL2     0.900000E-01   1.00800           0
     11970 MEMB     50       OSM      H17G     HAL2     0.900000E-01   1.00800           0
     11971 MEMB     50       OSM      C18F     CTL3    -0.270000       12.0110           0
     11972 MEMB     50       OSM      H18F     HAL3     0.900000E-01   1.00800           0
     11973 MEMB     50       OSM      H18G     HAL3     0.900000E-01   1.00800           0
     11974 MEMB     50       OSM      H18H     HAL3     0.900000E-01   1.00800           0
     11975 MEMB     56       OSM      N        NTL     -0.600000       14.0070           0
     11976 MEMB     56       OSM      C15      CTL5    -0.350000       12.0110           0
     11977 MEMB     56       OSM      H15A     HL       0.250000       1.00800           0
     11978 MEMB     56       OSM      H15B     HL       0.250000       1.00800           0
     11979 MEMB     56       OSM      H15C     HL       0.250000       1.00800           0
     11980 MEMB     56       OSM      C14      CTL5    -0.350000       12.0110           0
     11981 MEMB     56       OSM      H14A     HL       0.250000       1.00800           0
     11982 MEMB     56       OSM      H14B     HL       0.250000       1.00800           0
     11983 MEMB     56       OSM      H14C     HL       0.250000       1.00800           0
     11984 MEMB     56       OSM      C13      CTL5    -0.350000       12.0110           0
     11985 MEMB     56       OSM      H13A     HL       0.250000       1.00800           0
     11986 MEMB     56       OSM      H13B     HL       0.250000       1.00800           0
     11987 MEMB     56       OSM      H13C     HL       0.250000       1.00800           0
     11988 MEMB     56       OSM      C12      CTL2    -0.100000       12.0110           0
     11989 MEMB     56       OSM      H12A     HL       0.250000       1.00800           0
     11990 MEMB     56       OSM      H12B     HL       0.250000       1.00800           0
     11991 MEMB     56       OSM      C11      CTL2    -0.800000E-01   12.0110           0
     11992 MEMB     56       OSM      H11A     HAL2     0.900000E-01   1.00800           0
     11993 MEMB     56       OSM      H11B     HAL2     0.900000E-01   1.00800           0
     11994 MEMB     56       OSM      P        PL       1.500000       30.9740           0
     11995 MEMB     56       OSM      O13      O2L     -0.780000       15.9994           0
     11996 MEMB     56       OSM      O14      O2L     -0.780000       15.9994           0
     11997 MEMB     56       OSM      O11      OSLP    -0.570000       15.9994           0
     11998 MEMB     56       OSM      O12      OSLP    -0.570000       15.9994           0
     11999 MEMB     56       OSM      C1S      CTL2    -0.800000E-01   12.0110           0
     12000 MEMB     56       OSM      H1S      HAL2     0.900000E-01   1.00800           0
     12001 MEMB     56       OSM      H1T      HAL2     0.900000E-01   1.00800           0
     12002 MEMB     56       OSM      NF       NHL     -0.700000       14.0070           0
     12003 MEMB     56       OSM      HNF      H        0.350000       1.00800           0
     12004 MEMB     56       OSM      C2S      CTL1     0.300000       12.0110           0
     12005 MEMB     56       OSM      H2S      HAL1     0.500000E-01   1.00800           0
     12006 MEMB     56       OSM      C3S      CTO1     0.500000       12.0110           0
     12007 MEMB     56       OSM      H3S      HAL1    -0.110000       1.00800           0
     12008 MEMB     56       OSM      O3       OHL     -0.690000       15.9994           0
     12009 MEMB     56       OSM      HO3      HOL      0.300000       1.00800           0
     12010 MEMB     56       OSM      C4S      CEL3    -0.150000       12.0110           0
     12011 MEMB     56       OSM      H4S      HEL1     0.150000       1.00800           0
     12012 MEMB     56       OSM      C5S      CEL3    -0.150000       12.0110           0
     12013 MEMB     56       OSM      H5S      HEL1     0.150000       1.00800           0
     12014 MEMB     56       OSM      C6S      CTL2    -0.180000       12.0110           0
     12015 MEMB     56       OSM      H6S      HAL2     0.900000E-01   1.00800           0
     12016 MEMB     56       OSM      H6T      HAL2     0.900000E-01   1.00800           0
     12017 MEMB     56       OSM      C7S      CTL2    -0.180000       12.0110           0
     12018 MEMB     56       OSM      H7S      HAL2     0.900000E-01   1.00800           0
     12019 MEMB     56       OSM      H7T      HAL2     0.900000E-01   1.00800           0
     12020 MEMB     56       OSM      C8S      CTL2    -0.180000       12.0110           0
     12021 MEMB     56       OSM      H8S      HAL2     0.900000E-01   1.00800           0
     12022 MEMB     56       OSM      H8T      HAL2     0.900000E-01   1.00800           0
     12023 MEMB     56       OSM      C9S      CTL2    -0.180000       12.0110           0
     12024 MEMB     56       OSM      H9S      HAL2     0.900000E-01   1.00800           0
     12025 MEMB     56       OSM      H9T      HAL2     0.900000E-01   1.00800           0
     12026 MEMB     56       OSM      C10S     CTL2    -0.180000       12.0110           0
     12027 MEMB     56       OSM      H10S     HAL2     0.900000E-01   1.00800           0
     12028 MEMB     56       OSM      H10T     HAL2     0.900000E-01   1.00800           0
     12029 MEMB     56       OSM      C11S     CTL2    -0.180000       12.0110           0
     12030 MEMB     56       OSM      H11S     HAL2     0.900000E-01   1.00800           0
     12031 MEMB     56       OSM      H11T     HAL2     0.900000E-01   1.00800           0
     12032 MEMB     56       OSM      C12S     CTL2    -0.180000       12.0110           0
     12033 MEMB     56       OSM      H12S     HAL2     0.900000E-01   1.00800           0
     12034 MEMB     56       OSM      H12T     HAL2     0.900000E-01   1.00800           0
     12035 MEMB     56       OSM      C13S     CTL2    -0.180000       12.0110           0
     12036 MEMB     56       OSM      H13S     HAL2     0.900000E-01   1.00800           0
     12037 MEMB     56       OSM      H13T     HAL2     0.900000E-01   1.00800           0
     12038 MEMB     56       OSM      C14S     CTL2    -0.180000       12.0110           0
     12039 MEMB     56       OSM      H14S     HAL2     0.900000E-01   1.00800           0
     12040 MEMB     56       OSM      H14T     HAL2     0.900000E-01   1.00800           0
     12041 MEMB     56       OSM      C15S     CTL2    -0.180000       12.0110           0
     12042 MEMB     56       OSM      H15S     HAL2     0.900000E-01   1.00800           0
     12043 MEMB     56       OSM      H15T     HAL2     0.900000E-01   1.00800           0
     12044 MEMB     56       OSM      C16S     CTL2    -0.180000       12.0110           0
     12045 MEMB     56       OSM      H16S     HAL2     0.900000E-01   1.00800           0
     12046 MEMB     56       OSM      H16T     HAL2     0.900000E-01   1.00800           0
     12047 MEMB     56       OSM      C17S     CTL2    -0.180000       12.0110           0
     12048 MEMB     56       OSM      H17S     HAL2     0.900000E-01   1.00800           0
     12049 MEMB     56       OSM      H17T     HAL2     0.900000E-01   1.00800           0
     12050 MEMB     56       OSM      C18S     CTL3    -0.270000       12.0110           0
     12051 MEMB     56       OSM      H18S     HAL3     0.900000E-01   1.00800           0
     12052 MEMB     56       OSM      H18T     HAL3     0.900000E-01   1.00800           0
     12053 MEMB     56       OSM      H18U     HAL3     0.900000E-01   1.00800           0
     12054 MEMB     56       OSM      C1F      C        0.550000       12.0110           0
     12055 MEMB     56       OSM      OF       O       -0.600000       15.9994           0
     12056 MEMB     56       OSM      C2F      CTL2    -0.700000E-01   12.0110           0
     12057 MEMB     56       OSM      H2F      HAL2     0.600000E-01   1.00800           0
     12058 MEMB     56       OSM      H2G      HAL2     0.600000E-01   1.00800           0
     12059 MEMB     56       OSM      C3F      CTL2    -0.180000       12.0110           0
     12060 MEMB     56       OSM      H3F      HAL2     0.900000E-01   1.00800           0
     12061 MEMB     56       OSM      H3G      HAL2     0.900000E-01   1.00800           0
     12062 MEMB     56       OSM      C4F      CTL2    -0.180000       12.0110           0
     12063 MEMB     56       OSM      H4F      HAL2     0.900000E-01   1.00800           0
     12064 MEMB     56       OSM      H4G      HAL2     0.900000E-01   1.00800           0
     12065 MEMB     56       OSM      C5F      CTL2    -0.180000       12.0110           0
     12066 MEMB     56       OSM      H5F      HAL2     0.900000E-01   1.00800           0
     12067 MEMB     56       OSM      H5G      HAL2     0.900000E-01   1.00800           0
     12068 MEMB     56       OSM      C6F      CTL2    -0.180000       12.0110           0
     12069 MEMB     56       OSM      H6F      HAL2     0.900000E-01   1.00800           0
     12070 MEMB     56       OSM      H6G      HAL2     0.900000E-01   1.00800           0
     12071 MEMB     56       OSM      C7F      CTL2    -0.180000       12.0110           0
     12072 MEMB     56       OSM      H7F      HAL2     0.900000E-01   1.00800           0
     12073 MEMB     56       OSM      H7G      HAL2     0.900000E-01   1.00800           0
     12074 MEMB     56       OSM      C8F      CTL2    -0.180000       12.0110           0
     12075 MEMB     56       OSM      H8F      HAL2     0.900000E-01   1.00800           0
     12076 MEMB     56       OSM      H8G      HAL2     0.900000E-01   1.00800           0
     12077 MEMB     56       OSM      C9F      CEL1    -0.150000       12.0110           0
     12078 MEMB     56       OSM      H9F      HEL1     0.150000       1.00800           0
     12079 MEMB     56       OSM      C10F     CEL1    -0.150000       12.0110           0
     12080 MEMB     56       OSM      H10F     HEL1     0.150000       1.00800           0
     12081 MEMB     56       OSM      C11F     CTL2    -0.180000       12.0110           0
     12082 MEMB     56       OSM      H11F     HAL2     0.900000E-01   1.00800           0
     12083 MEMB     56       OSM      H11G     HAL2     0.900000E-01   1.00800           0
     12084 MEMB     56       OSM      C12F     CTL2    -0.180000       12.0110           0
     12085 MEMB     56       OSM      H12F     HAL2     0.900000E-01   1.00800           0
     12086 MEMB     56       OSM      H12G     HAL2     0.900000E-01   1.00800           0
     12087 MEMB     56       OSM      C13F     CTL2    -0.180000       12.0110           0
     12088 MEMB     56       OSM      H13F     HAL2     0.900000E-01   1.00800           0
     12089 MEMB     56       OSM      H13G     HAL2     0.900000E-01   1.00800           0
     12090 MEMB     56       OSM      C14F     CTL2    -0.180000       12.0110           0
     12091 MEMB     56       OSM      H14F     HAL2     0.900000E-01   1.00800           0
     12092 MEMB     56       OSM      H14G     HAL2     0.900000E-01   1.00800           0
     12093 MEMB     56       OSM      C15F     CTL2    -0.180000       12.0110           0
     12094 MEMB     56       OSM      H15F     HAL2     0.900000E-01   1.00800           0
     12095 MEMB     56       OSM      H15G     HAL2     0.900000E-01   1.00800           0
     12096 MEMB     56       OSM      C16F     CTL2    -0.180000       12.0110           0
     12097 MEMB     56       OSM      H16F     HAL2     0.900000E-01   1.00800           0
     12098 MEMB     56       OSM      H16G     HAL2     0.900000E-01   1.00800           0
     12099 MEMB     56       OSM      C17F     CTL2    -0.180000       12.0110           0
     12100 MEMB     56       OSM      H17F     HAL2     0.900000E-01   1.00800           0
     12101 MEMB     56       OSM      H17G     HAL2     0.900000E-01   1.00800           0
     12102 MEMB     56       OSM      C18F     CTL3    -0.270000       12.0110           0
     12103 MEMB     56       OSM      H18F     HAL3     0.900000E-01   1.00800           0
     12104 MEMB     56       OSM      H18G     HAL3     0.900000E-01   1.00800           0
     12105 MEMB     56       OSM      H18H     HAL3     0.900000E-01   1.00800           0
     12106 MEMB     62       OSM      N        NTL     -0.600000       14.0070           0
     12107 MEMB     62       OSM      C15      CTL5    -0.350000       12.0110           0
     12108 MEMB     62       OSM      H15A     HL       0.250000       1.00800           0
     12109 MEMB     62       OSM      H15B     HL       0.250000       1.00800           0
     12110 MEMB     62       OSM      H15C     HL       0.250000       1.00800           0
     12111 MEMB     62       OSM      C14      CTL5    -0.350000       12.0110           0
     12112 MEMB     62       OSM      H14A     HL       0.250000       1.00800           0
     12113 MEMB     62       OSM      H14B     HL       0.250000       1.00800           0
     12114 MEMB     62       OSM      H14C     HL       0.250000       1.00800           0
     12115 MEMB     62       OSM      C13      CTL5    -0.350000       12.0110           0
     12116 MEMB     62       OSM      H13A     HL       0.250000       1.00800           0
     12117 MEMB     62       OSM      H13B     HL       0.250000       1.00800           0
     12118 MEMB     62       OSM      H13C     HL       0.250000       1.00800           0
     12119 MEMB     62       OSM      C12      CTL2    -0.100000       12.0110           0
     12120 MEMB     62       OSM      H12A     HL       0.250000       1.00800           0
     12121 MEMB     62       OSM      H12B     HL       0.250000       1.00800           0
     12122 MEMB     62       OSM      C11      CTL2    -0.800000E-01   12.0110           0
     12123 MEMB     62       OSM      H11A     HAL2     0.900000E-01   1.00800           0
     12124 MEMB     62       OSM      H11B     HAL2     0.900000E-01   1.00800           0
     12125 MEMB     62       OSM      P        PL       1.500000       30.9740           0
     12126 MEMB     62       OSM      O13      O2L     -0.780000       15.9994           0
     12127 MEMB     62       OSM      O14      O2L     -0.780000       15.9994           0
     12128 MEMB     62       OSM      O11      OSLP    -0.570000       15.9994           0
     12129 MEMB     62       OSM      O12      OSLP    -0.570000       15.9994           0
     12130 MEMB     62       OSM      C1S      CTL2    -0.800000E-01   12.0110           0
     12131 MEMB     62       OSM      H1S      HAL2     0.900000E-01   1.00800           0
     12132 MEMB     62       OSM      H1T      HAL2     0.900000E-01   1.00800           0
     12133 MEMB     62       OSM      NF       NHL     -0.700000       14.0070           0
     12134 MEMB     62       OSM      HNF      H        0.350000       1.00800           0
     12135 MEMB     62       OSM      C2S      CTL1     0.300000       12.0110           0
     12136 MEMB     62       OSM      H2S      HAL1     0.500000E-01   1.00800           0
     12137 MEMB     62       OSM      C3S      CTO1     0.500000       12.0110           0
     12138 MEMB     62       OSM      H3S      HAL1    -0.110000       1.00800           0
     12139 MEMB     62       OSM      O3       OHL     -0.690000       15.9994           0
     12140 MEMB     62       OSM      HO3      HOL      0.300000       1.00800           0
     12141 MEMB     62       OSM      C4S      CEL3    -0.150000       12.0110           0
     12142 MEMB     62       OSM      H4S      HEL1     0.150000       1.00800           0
     12143 MEMB     62       OSM      C5S      CEL3    -0.150000       12.0110           0
     12144 MEMB     62       OSM      H5S      HEL1     0.150000       1.00800           0
     12145 MEMB     62       OSM      C6S      CTL2    -0.180000       12.0110           0
     12146 MEMB     62       OSM      H6S      HAL2     0.900000E-01   1.00800           0
     12147 MEMB     62       OSM      H6T      HAL2     0.900000E-01   1.00800           0
     12148 MEMB     62       OSM      C7S      CTL2    -0.180000       12.0110           0
     12149 MEMB     62       OSM      H7S      HAL2     0.900000E-01   1.00800           0
     12150 MEMB     62       OSM      H7T      HAL2     0.900000E-01   1.00800           0
     12151 MEMB     62       OSM      C8S      CTL2    -0.180000       12.0110           0
     12152 MEMB     62       OSM      H8S      HAL2     0.900000E-01   1.00800           0
     12153 MEMB     62       OSM      H8T      HAL2     0.900000E-01   1.00800           0
     12154 MEMB     62       OSM      C9S      CTL2    -0.180000       12.0110           0
     12155 MEMB     62       OSM      H9S      HAL2     0.900000E-01   1.00800           0
     12156 MEMB     62       OSM      H9T      HAL2     0.900000E-01   1.00800           0
     12157 MEMB     62       OSM      C10S     CTL2    -0.180000       12.0110           0
     12158 MEMB     62       OSM      H10S     HAL2     0.900000E-01   1.00800           0
     12159 MEMB     62       OSM      H10T     HAL2     0.900000E-01   1.00800           0
     12160 MEMB     62       OSM      C11S     CTL2    -0.180000       12.0110           0
     12161 MEMB     62       OSM      H11S     HAL2     0.900000E-01   1.00800           0
     12162 MEMB     62       OSM      H11T     HAL2     0.900000E-01   1.00800           0
     12163 MEMB     62       OSM      C12S     CTL2    -0.180000       12.0110           0
     12164 MEMB     62       OSM      H12S     HAL2     0.900000E-01   1.00800           0
     12165 MEMB     62       OSM      H12T     HAL2     0.900000E-01   1.00800           0
     12166 MEMB     62       OSM      C13S     CTL2    -0.180000       12.0110           0
     12167 MEMB     62       OSM      H13S     HAL2     0.900000E-01   1.00800           0
     12168 MEMB     62       OSM      H13T     HAL2     0.900000E-01   1.00800           0
     12169 MEMB     62       OSM      C14S     CTL2    -0.180000       12.0110           0
     12170 MEMB     62       OSM      H14S     HAL2     0.900000E-01   1.00800           0
     12171 MEMB     62       OSM      H14T     HAL2     0.900000E-01   1.00800           0
     12172 MEMB     62       OSM      C15S     CTL2    -0.180000       12.0110           0
     12173 MEMB     62       OSM      H15S     HAL2     0.900000E-01   1.00800           0
     12174 MEMB     62       OSM      H15T     HAL2     0.900000E-01   1.00800           0
     12175 MEMB     62       OSM      C16S     CTL2    -0.180000       12.0110           0
     12176 MEMB     62       OSM      H16S     HAL2     0.900000E-01   1.00800           0
     12177 MEMB     62       OSM      H16T     HAL2     0.900000E-01   1.00800           0
     12178 MEMB     62       OSM      C17S     CTL2    -0.180000       12.0110           0
     12179 MEMB     62       OSM      H17S     HAL2     0.900000E-01   1.00800           0
     12180 MEMB     62       OSM      H17T     HAL2     0.900000E-01   1.00800           0
     12181 MEMB     62       OSM      C18S     CTL3    -0.270000       12.0110           0
     12182 MEMB     62       OSM      H18S     HAL3     0.900000E-01   1.00800           0
     12183 MEMB     62       OSM      H18T     HAL3     0.900000E-01   1.00800           0
     12184 MEMB     62       OSM      H18U     HAL3     0.900000E-01   1.00800           0
     12185 MEMB     62       OSM      C1F      C        0.550000       12.0110           0
     12186 MEMB     62       OSM      OF       O       -0.600000       15.9994           0
     12187 MEMB     62       OSM      C2F      CTL2    -0.700000E-01   12.0110           0
     12188 MEMB     62       OSM      H2F      HAL2     0.600000E-01   1.00800           0
     12189 MEMB     62       OSM      H2G      HAL2     0.600000E-01   1.00800           0
     12190 MEMB     62       OSM      C3F      CTL2    -0.180000       12.0110           0
     12191 MEMB     62       OSM      H3F      HAL2     0.900000E-01   1.00800           0
     12192 MEMB     62       OSM      H3G      HAL2     0.900000E-01   1.00800           0
     12193 MEMB     62       OSM      C4F      CTL2    -0.180000       12.0110           0
     12194 MEMB     62       OSM      H4F      HAL2     0.900000E-01   1.00800           0
     12195 MEMB     62       OSM      H4G      HAL2     0.900000E-01   1.00800           0
     12196 MEMB     62       OSM      C5F      CTL2    -0.180000       12.0110           0
     12197 MEMB     62       OSM      H5F      HAL2     0.900000E-01   1.00800           0
     12198 MEMB     62       OSM      H5G      HAL2     0.900000E-01   1.00800           0
     12199 MEMB     62       OSM      C6F      CTL2    -0.180000       12.0110           0
     12200 MEMB     62       OSM      H6F      HAL2     0.900000E-01   1.00800           0
     12201 MEMB     62       OSM      H6G      HAL2     0.900000E-01   1.00800           0
     12202 MEMB     62       OSM      C7F      CTL2    -0.180000       12.0110           0
     12203 MEMB     62       OSM      H7F      HAL2     0.900000E-01   1.00800           0
     12204 MEMB     62       OSM      H7G      HAL2     0.900000E-01   1.00800           0
     12205 MEMB     62       OSM      C8F      CTL2    -0.180000       12.0110           0
     12206 MEMB     62       OSM      H8F      HAL2     0.900000E-01   1.00800           0
     12207 MEMB     62       OSM      H8G      HAL2     0.900000E-01   1.00800           0
     12208 MEMB     62       OSM      C9F      CEL1    -0.150000       12.0110           0
     12209 MEMB     62       OSM      H9F      HEL1     0.150000       1.00800           0
     12210 MEMB     62       OSM      C10F     CEL1    -0.150000       12.0110           0
     12211 MEMB     62       OSM      H10F     HEL1     0.150000       1.00800           0
     12212 MEMB     62       OSM      C11F     CTL2    -0.180000       12.0110           0
     12213 MEMB     62       OSM      H11F     HAL2     0.900000E-01   1.00800           0
     12214 MEMB     62       OSM      H11G     HAL2     0.900000E-01   1.00800           0
     12215 MEMB     62       OSM      C12F     CTL2    -0.180000       12.0110           0
     12216 MEMB     62       OSM      H12F     HAL2     0.900000E-01   1.00800           0
     12217 MEMB     62       OSM      H12G     HAL2     0.900000E-01   1.00800           0
     12218 MEMB     62       OSM      C13F     CTL2    -0.180000       12.0110           0
     12219 MEMB     62       OSM      H13F     HAL2     0.900000E-01   1.00800           0
     12220 MEMB     62       OSM      H13G     HAL2     0.900000E-01   1.00800           0
     12221 MEMB     62       OSM      C14F     CTL2    -0.180000       12.0110           0
     12222 MEMB     62       OSM      H14F     HAL2     0.900000E-01   1.00800           0
     12223 MEMB     62       OSM      H14G     HAL2     0.900000E-01   1.00800           0
     12224 MEMB     62       OSM      C15F     CTL2    -0.180000       12.0110           0
     12225 MEMB     62       OSM      H15F     HAL2     0.900000E-01   1.00800           0
     12226 MEMB     62       OSM      H15G     HAL2     0.900000E-01   1.00800           0
     12227 MEMB     62       OSM      C16F     CTL2    -0.180000       12.0110           0
     12228 MEMB     62       OSM      H16F     HAL2     0.900000E-01   1.00800           0
     12229 MEMB     62       OSM      H16G     HAL2     0.900000E-01   1.00800           0
     12230 MEMB     62       OSM      C17F     CTL2    -0.180000       12.0110           0
     12231 MEMB     62       OSM      H17F     HAL2     0.900000E-01   1.00800           0
     12232 MEMB     62       OSM      H17G     HAL2     0.900000E-01   1.00800           0
     12233 MEMB     62       OSM      C18F     CTL3    -0.270000       12.0110           0
     12234 MEMB     62       OSM      H18F     HAL3     0.900000E-01   1.00800           0
     12235 MEMB     62       OSM      H18G     HAL3     0.900000E-01   1.00800           0
     12236 MEMB     62       OSM      H18H     HAL3     0.900000E-01   1.00800           0
     12237 MEMB     65       OSM      N        NTL     -0.600000       14.0070           0
     12238 MEMB     65       OSM      C15      CTL5    -0.350000       12.0110           0
     12239 MEMB     65       OSM      H15A     HL       0.250000       1.00800           0
     12240 MEMB     65       OSM      H15B     HL       0.250000       1.00800           0
     12241 MEMB     65       OSM      H15C     HL       0.250000       1.00800           0
     12242 MEMB     65       OSM      C14      CTL5    -0.350000       12.0110           0
     12243 MEMB     65       OSM      H14A     HL       0.250000       1.00800           0
     12244 MEMB     65       OSM      H14B     HL       0.250000       1.00800           0
     12245 MEMB     65       OSM      H14C     HL       0.250000       1.00800           0
     12246 MEMB     65       OSM      C13      CTL5    -0.350000       12.0110           0
     12247 MEMB     65       OSM      H13A     HL       0.250000       1.00800           0
     12248 MEMB     65       OSM      H13B     HL       0.250000       1.00800           0
     12249 MEMB     65       OSM      H13C     HL       0.250000       1.00800           0
     12250 MEMB     65       OSM      C12      CTL2    -0.100000       12.0110           0
     12251 MEMB     65       OSM      H12A     HL       0.250000       1.00800           0
     12252 MEMB     65       OSM      H12B     HL       0.250000       1.00800           0
     12253 MEMB     65       OSM      C11      CTL2    -0.800000E-01   12.0110           0
     12254 MEMB     65       OSM      H11A     HAL2     0.900000E-01   1.00800           0
     12255 MEMB     65       OSM      H11B     HAL2     0.900000E-01   1.00800           0
     12256 MEMB     65       OSM      P        PL       1.500000       30.9740           0
     12257 MEMB     65       OSM      O13      O2L     -0.780000       15.9994           0
     12258 MEMB     65       OSM      O14      O2L     -0.780000       15.9994           0
     12259 MEMB     65       OSM      O11      OSLP    -0.570000       15.9994           0
     12260 MEMB     65       OSM      O12      OSLP    -0.570000       15.9994           0
     12261 MEMB     65       OSM      C1S      CTL2    -0.800000E-01   12.0110           0
     12262 MEMB     65       OSM      H1S      HAL2     0.900000E-01   1.00800           0
     12263 MEMB     65       OSM      H1T      HAL2     0.900000E-01   1.00800           0
     12264 MEMB     65       OSM      NF       NHL     -0.700000       14.0070           0
     12265 MEMB     65       OSM      HNF      H        0.350000       1.00800           0
     12266 MEMB     65       OSM      C2S      CTL1     0.300000       12.0110           0
     12267 MEMB     65       OSM      H2S      HAL1     0.500000E-01   1.00800           0
     12268 MEMB     65       OSM      C3S      CTO1     0.500000       12.0110           0
     12269 MEMB     65       OSM      H3S      HAL1    -0.110000       1.00800           0
     12270 MEMB     65       OSM      O3       OHL     -0.690000       15.9994           0
     12271 MEMB     65       OSM      HO3      HOL      0.300000       1.00800           0
     12272 MEMB     65       OSM      C4S      CEL3    -0.150000       12.0110           0
     12273 MEMB     65       OSM      H4S      HEL1     0.150000       1.00800           0
     12274 MEMB     65       OSM      C5S      CEL3    -0.150000       12.0110           0
     12275 MEMB     65       OSM      H5S      HEL1     0.150000       1.00800           0
     12276 MEMB     65       OSM      C6S      CTL2    -0.180000       12.0110           0
     12277 MEMB     65       OSM      H6S      HAL2     0.900000E-01   1.00800           0
     12278 MEMB     65       OSM      H6T      HAL2     0.900000E-01   1.00800           0
     12279 MEMB     65       OSM      C7S      CTL2    -0.180000       12.0110           0
     12280 MEMB     65       OSM      H7S      HAL2     0.900000E-01   1.00800           0
     12281 MEMB     65       OSM      H7T      HAL2     0.900000E-01   1.00800           0
     12282 MEMB     65       OSM      C8S      CTL2    -0.180000       12.0110           0
     12283 MEMB     65       OSM      H8S      HAL2     0.900000E-01   1.00800           0
     12284 MEMB     65       OSM      H8T      HAL2     0.900000E-01   1.00800           0
     12285 MEMB     65       OSM      C9S      CTL2    -0.180000       12.0110           0
     12286 MEMB     65       OSM      H9S      HAL2     0.900000E-01   1.00800           0
     12287 MEMB     65       OSM      H9T      HAL2     0.900000E-01   1.00800           0
     12288 MEMB     65       OSM      C10S     CTL2    -0.180000       12.0110           0
     12289 MEMB     65       OSM      H10S     HAL2     0.900000E-01   1.00800           0
     12290 MEMB     65       OSM      H10T     HAL2     0.900000E-01   1.00800           0
     12291 MEMB     65       OSM      C11S     CTL2    -0.180000       12.0110           0
     12292 MEMB     65       OSM      H11S     HAL2     0.900000E-01   1.00800           0
     12293 MEMB     65       OSM      H11T     HAL2     0.900000E-01   1.00800           0
     12294 MEMB     65       OSM      C12S     CTL2    -0.180000       12.0110           0
     12295 MEMB     65       OSM      H12S     HAL2     0.900000E-01   1.00800           0
     12296 MEMB     65       OSM      H12T     HAL2     0.900000E-01   1.00800           0
     12297 MEMB     65       OSM      C13S     CTL2    -0.180000       12.0110           0
     12298 MEMB     65       OSM      H13S     HAL2     0.900000E-01   1.00800           0
     12299 MEMB     65       OSM      H13T     HAL2     0.900000E-01   1.00800           0
     12300 MEMB     65       OSM      C14S     CTL2    -0.180000       12.0110           0
     12301 MEMB     65       OSM      H14S     HAL2     0.900000E-01   1.00800           0
     12302 MEMB     65       OSM      H14T     HAL2     0.900000E-01   1.00800           0
     12303 MEMB     65       OSM      C15S     CTL2    -0.180000       12.0110           0
     12304 MEMB     65       OSM      H15S     HAL2     0.900000E-01   1.00800           0
     12305 MEMB     65       OSM      H15T     HAL2     0.900000E-01   1.00800           0
     12306 MEMB     65       OSM      C16S     CTL2    -0.180000       12.0110           0
     12307 MEMB     65       OSM      H16S     HAL2     0.900000E-01   1.00800           0
     12308 MEMB     65       OSM      H16T     HAL2     0.900000E-01   1.00800           0
     12309 MEMB     65       OSM      C17S     CTL2    -0.180000       12.0110           0
     12310 MEMB     65       OSM      H17S     HAL2     0.900000E-01   1.00800           0
     12311 MEMB     65       OSM      H17T     HAL2     0.900000E-01   1.00800           0
     12312 MEMB     65       OSM      C18S     CTL3    -0.270000       12.0110           0
     12313 MEMB     65       OSM      H18S     HAL3     0.900000E-01   1.00800           0
     12314 MEMB     65       OSM      H18T     HAL3     0.900000E-01   1.00800           0
     12315 MEMB     65       OSM      H18U     HAL3     0.900000E-01   1.00800           0
     12316 MEMB     65       OSM      C1F      C        0.550000       12.0110           0
     12317 MEMB     65       OSM      OF       O       -0.600000       15.9994           0
     12318 MEMB     65       OSM      C2F      CTL2    -0.700000E-01   12.0110           0
     12319 MEMB     65       OSM      H2F      HAL2     0.600000E-01   1.00800           0
     12320 MEMB     65       OSM      H2G      HAL2     0.600000E-01   1.00800           0
     12321 MEMB     65       OSM      C3F      CTL2    -0.180000       12.0110           0
     12322 MEMB     65       OSM      H3F      HAL2     0.900000E-01   1.00800           0
     12323 MEMB     65       OSM      H3G      HAL2     0.900000E-01   1.00800           0
     12324 MEMB     65       OSM      C4F      CTL2    -0.180000       12.0110           0
     12325 MEMB     65       OSM      H4F      HAL2     0.900000E-01   1.00800           0
     12326 MEMB     65       OSM      H4G      HAL2     0.900000E-01   1.00800           0
     12327 MEMB     65       OSM      C5F      CTL2    -0.180000       12.0110           0
     12328 MEMB     65       OSM      H5F      HAL2     0.900000E-01   1.00800           0
     12329 MEMB     65       OSM      H5G      HAL2     0.900000E-01   1.00800           0
     12330 MEMB     65       OSM      C6F      CTL2    -0.180000       12.0110           0
     12331 MEMB     65       OSM      H6F      HAL2     0.900000E-01   1.00800           0
     12332 MEMB     65       OSM      H6G      HAL2     0.900000E-01   1.00800           0
     12333 MEMB     65       OSM      C7F      CTL2    -0.180000       12.0110           0
     12334 MEMB     65       OSM      H7F      HAL2     0.900000E-01   1.00800           0
     12335 MEMB     65       OSM      H7G      HAL2     0.900000E-01   1.00800           0
     12336 MEMB     65       OSM      C8F      CTL2    -0.180000       12.0110           0
     12337 MEMB     65       OSM      H8F      HAL2     0.900000E-01   1.00800           0
     12338 MEMB     65       OSM      H8G      HAL2     0.900000E-01   1.00800           0
     12339 MEMB     65       OSM      C9F      CEL1    -0.150000       12.0110           0
     12340 MEMB     65       OSM      H9F      HEL1     0.150000       1.00800           0
     12341 MEMB     65       OSM      C10F     CEL1    -0.150000       12.0110           0
     12342 MEMB     65       OSM      H10F     HEL1     0.150000       1.00800           0
     12343 MEMB     65       OSM      C11F     CTL2    -0.180000       12.0110           0
     12344 MEMB     65       OSM      H11F     HAL2     0.900000E-01   1.00800           0
     12345 MEMB     65       OSM      H11G     HAL2     0.900000E-01   1.00800           0
     12346 MEMB     65       OSM      C12F     CTL2    -0.180000       12.0110           0
     12347 MEMB     65       OSM      H12F     HAL2     0.900000E-01   1.00800           0
     12348 MEMB     65       OSM      H12G     HAL2     0.900000E-01   1.00800           0
     12349 MEMB     65       OSM      C13F     CTL2    -0.180000       12.0110           0
     12350 MEMB     65       OSM      H13F     HAL2     0.900000E-01   1.00800           0
     12351 MEMB     65       OSM      H13G     HAL2     0.900000E-01   1.00800           0
     12352 MEMB     65       OSM      C14F     CTL2    -0.180000       12.0110           0
     12353 MEMB     65       OSM      H14F     HAL2     0.900000E-01   1.00800           0
     12354 MEMB     65       OSM      H14G     HAL2     0.900000E-01   1.00800           0
     12355 MEMB     65       OSM      C15F     CTL2    -0.180000       12.0110           0
     12356 MEMB     65       OSM      H15F     HAL2     0.900000E-01   1.00800           0
     12357 MEMB     65       OSM      H15G     HAL2     0.900000E-01   1.00800           0
     12358 MEMB     65       OSM      C16F     CTL2    -0.180000       12.0110           0
     12359 MEMB     65       OSM      H16F     HAL2     0.900000E-01   1.00800           0
     12360 MEMB     65       OSM      H16G     HAL2     0.900000E-01   1.00800           0
     12361 MEMB     65       OSM      C17F     CTL2    -0.180000       12.0110           0
     12362 MEMB     65       OSM      H17F     HAL2     0.900000E-01   1.00800           0
     12363 MEMB     65       OSM      H17G     HAL2     0.900000E-01   1.00800           0
     12364 MEMB     65       OSM      C18F     CTL3    -0.270000       12.0110           0
     12365 MEMB     65       OSM      H18F     HAL3     0.900000E-01   1.00800           0
     12366 MEMB     65       OSM      H18G     HAL3     0.900000E-01   1.00800           0
     12367 MEMB     65       OSM      H18H     HAL3     0.900000E-01   1.00800           0
     12368 MEMB     67       OSM      N        NTL     -0.600000       14.0070           0
     12369 MEMB     67       OSM      C15      CTL5    -0.350000       12.0110           0
     12370 MEMB     67       OSM      H15A     HL       0.250000       1.00800           0
     12371 MEMB     67       OSM      H15B     HL       0.250000       1.00800           0
     12372 MEMB     67       OSM      H15C     HL       0.250000       1.00800           0
     12373 MEMB     67       OSM      C14      CTL5    -0.350000       12.0110           0
     12374 MEMB     67       OSM      H14A     HL       0.250000       1.00800           0
     12375 MEMB     67       OSM      H14B     HL       0.250000       1.00800           0
     12376 MEMB     67       OSM      H14C     HL       0.250000       1.00800           0
     12377 MEMB     67       OSM      C13      CTL5    -0.350000       12.0110           0
     12378 MEMB     67       OSM      H13A     HL       0.250000       1.00800           0
     12379 MEMB     67       OSM      H13B     HL       0.250000       1.00800           0
     12380 MEMB     67       OSM      H13C     HL       0.250000       1.00800           0
     12381 MEMB     67       OSM      C12      CTL2    -0.100000       12.0110           0
     12382 MEMB     67       OSM      H12A     HL       0.250000       1.00800           0
     12383 MEMB     67       OSM      H12B     HL       0.250000       1.00800           0
     12384 MEMB     67       OSM      C11      CTL2    -0.800000E-01   12.0110           0
     12385 MEMB     67       OSM      H11A     HAL2     0.900000E-01   1.00800           0
     12386 MEMB     67       OSM      H11B     HAL2     0.900000E-01   1.00800           0
     12387 MEMB     67       OSM      P        PL       1.500000       30.9740           0
     12388 MEMB     67       OSM      O13      O2L     -0.780000       15.9994           0
     12389 MEMB     67       OSM      O14      O2L     -0.780000       15.9994           0
     12390 MEMB     67       OSM      O11      OSLP    -0.570000       15.9994           0
     12391 MEMB     67       OSM      O12      OSLP    -0.570000       15.9994           0
     12392 MEMB     67       OSM      C1S      CTL2    -0.800000E-01   12.0110           0
     12393 MEMB     67       OSM      H1S      HAL2     0.900000E-01   1.00800           0
     12394 MEMB     67       OSM      H1T      HAL2     0.900000E-01   1.00800           0
     12395 MEMB     67       OSM      NF       NHL     -0.700000       14.0070           0
     12396 MEMB     67       OSM      HNF      H        0.350000       1.00800           0
     12397 MEMB     67       OSM      C2S      CTL1     0.300000       12.0110           0
     12398 MEMB     67       OSM      H2S      HAL1     0.500000E-01   1.00800           0
     12399 MEMB     67       OSM      C3S      CTO1     0.500000       12.0110           0
     12400 MEMB     67       OSM      H3S      HAL1    -0.110000       1.00800           0
     12401 MEMB     67       OSM      O3       OHL     -0.690000       15.9994           0
     12402 MEMB     67       OSM      HO3      HOL      0.300000       1.00800           0
     12403 MEMB     67       OSM      C4S      CEL3    -0.150000       12.0110           0
     12404 MEMB     67       OSM      H4S      HEL1     0.150000       1.00800           0
     12405 MEMB     67       OSM      C5S      CEL3    -0.150000       12.0110           0
     12406 MEMB     67       OSM      H5S      HEL1     0.150000       1.00800           0
     12407 MEMB     67       OSM      C6S      CTL2    -0.180000       12.0110           0
     12408 MEMB     67       OSM      H6S      HAL2     0.900000E-01   1.00800           0
     12409 MEMB     67       OSM      H6T      HAL2     0.900000E-01   1.00800           0
     12410 MEMB     67       OSM      C7S      CTL2    -0.180000       12.0110           0
     12411 MEMB     67       OSM      H7S      HAL2     0.900000E-01   1.00800           0
     12412 MEMB     67       OSM      H7T      HAL2     0.900000E-01   1.00800           0
     12413 MEMB     67       OSM      C8S      CTL2    -0.180000       12.0110           0
     12414 MEMB     67       OSM      H8S      HAL2     0.900000E-01   1.00800           0
     12415 MEMB     67       OSM      H8T      HAL2     0.900000E-01   1.00800           0
     12416 MEMB     67       OSM      C9S      CTL2    -0.180000       12.0110           0
     12417 MEMB     67       OSM      H9S      HAL2     0.900000E-01   1.00800           0
     12418 MEMB     67       OSM      H9T      HAL2     0.900000E-01   1.00800           0
     12419 MEMB     67       OSM      C10S     CTL2    -0.180000       12.0110           0
     12420 MEMB     67       OSM      H10S     HAL2     0.900000E-01   1.00800           0
     12421 MEMB     67       OSM      H10T     HAL2     0.900000E-01   1.00800           0
     12422 MEMB     67       OSM      C11S     CTL2    -0.180000       12.0110           0
     12423 MEMB     67       OSM      H11S     HAL2     0.900000E-01   1.00800           0
     12424 MEMB     67       OSM      H11T     HAL2     0.900000E-01   1.00800           0
     12425 MEMB     67       OSM      C12S     CTL2    -0.180000       12.0110           0
     12426 MEMB     67       OSM      H12S     HAL2     0.900000E-01   1.00800           0
     12427 MEMB     67       OSM      H12T     HAL2     0.900000E-01   1.00800           0
     12428 MEMB     67       OSM      C13S     CTL2    -0.180000       12.0110           0
     12429 MEMB     67       OSM      H13S     HAL2     0.900000E-01   1.00800           0
     12430 MEMB     67       OSM      H13T     HAL2     0.900000E-01   1.00800           0
     12431 MEMB     67       OSM      C14S     CTL2    -0.180000       12.0110           0
     12432 MEMB     67       OSM      H14S     HAL2     0.900000E-01   1.00800           0
     12433 MEMB     67       OSM      H14T     HAL2     0.900000E-01   1.00800           0
     12434 MEMB     67       OSM      C15S     CTL2    -0.180000       12.0110           0
     12435 MEMB     67       OSM      H15S     HAL2     0.900000E-01   1.00800           0
     12436 MEMB     67       OSM      H15T     HAL2     0.900000E-01   1.00800           0
     12437 MEMB     67       OSM      C16S     CTL2    -0.180000       12.0110           0
     12438 MEMB     67       OSM      H16S     HAL2     0.900000E-01   1.00800           0
     12439 MEMB     67       OSM      H16T     HAL2     0.900000E-01   1.00800           0
     12440 MEMB     67       OSM      C17S     CTL2    -0.180000       12.0110           0
     12441 MEMB     67       OSM      H17S     HAL2     0.900000E-01   1.00800           0
     12442 MEMB     67       OSM      H17T     HAL2     0.900000E-01   1.00800           0
     12443 MEMB     67       OSM      C18S     CTL3    -0.270000       12.0110           0
     12444 MEMB     67       OSM      H18S     HAL3     0.900000E-01   1.00800           0
     12445 MEMB     67       OSM      H18T     HAL3     0.900000E-01   1.00800           0
     12446 MEMB     67       OSM      H18U     HAL3     0.900000E-01   1.00800           0
     12447 MEMB     67       OSM      C1F      C        0.550000       12.0110           0
     12448 MEMB     67       OSM      OF       O       -0.600000       15.9994           0
     12449 MEMB     67       OSM      C2F      CTL2    -0.700000E-01   12.0110           0
     12450 MEMB     67       OSM      H2F      HAL2     0.600000E-01   1.00800           0
     12451 MEMB     67       OSM      H2G      HAL2     0.600000E-01   1.00800           0
     12452 MEMB     67       OSM      C3F      CTL2    -0.180000       12.0110           0
     12453 MEMB     67       OSM      H3F      HAL2     0.900000E-01   1.00800           0
     12454 MEMB     67       OSM      H3G      HAL2     0.900000E-01   1.00800           0
     12455 MEMB     67       OSM      C4F      CTL2    -0.180000       12.0110           0
     12456 MEMB     67       OSM      H4F      HAL2     0.900000E-01   1.00800           0
     12457 MEMB     67       OSM      H4G      HAL2     0.900000E-01   1.00800           0
     12458 MEMB     67       OSM      C5F      CTL2    -0.180000       12.0110           0
     12459 MEMB     67       OSM      H5F      HAL2     0.900000E-01   1.00800           0
     12460 MEMB     67       OSM      H5G      HAL2     0.900000E-01   1.00800           0
     12461 MEMB     67       OSM      C6F      CTL2    -0.180000       12.0110           0
     12462 MEMB     67       OSM      H6F      HAL2     0.900000E-01   1.00800           0
     12463 MEMB     67       OSM      H6G      HAL2     0.900000E-01   1.00800           0
     12464 MEMB     67       OSM      C7F      CTL2    -0.180000       12.0110           0
     12465 MEMB     67       OSM      H7F      HAL2     0.900000E-01   1.00800           0
     12466 MEMB     67       OSM      H7G      HAL2     0.900000E-01   1.00800           0
     12467 MEMB     67       OSM      C8F      CTL2    -0.180000       12.0110           0
     12468 MEMB     67       OSM      H8F      HAL2     0.900000E-01   1.00800           0
     12469 MEMB     67       OSM      H8G      HAL2     0.900000E-01   1.00800           0
     12470 MEMB     67       OSM      C9F      CEL1    -0.150000       12.0110           0
     12471 MEMB     67       OSM      H9F      HEL1     0.150000       1.00800           0
     12472 MEMB     67       OSM      C10F     CEL1    -0.150000       12.0110           0
     12473 MEMB     67       OSM      H10F     HEL1     0.150000       1.00800           0
     12474 MEMB     67       OSM      C11F     CTL2    -0.180000       12.0110           0
     12475 MEMB     67       OSM      H11F     HAL2     0.900000E-01   1.00800           0
     12476 MEMB     67       OSM      H11G     HAL2     0.900000E-01   1.00800           0
     12477 MEMB     67       OSM      C12F     CTL2    -0.180000       12.0110           0
     12478 MEMB     67       OSM      H12F     HAL2     0.900000E-01   1.00800           0
     12479 MEMB     67       OSM      H12G     HAL2     0.900000E-01   1.00800           0
     12480 MEMB     67       OSM      C13F     CTL2    -0.180000       12.0110           0
     12481 MEMB     67       OSM      H13F     HAL2     0.900000E-01   1.00800           0
     12482 MEMB     67       OSM      H13G     HAL2     0.900000E-01   1.00800           0
     12483 MEMB     67       OSM      C14F     CTL2    -0.180000       12.0110           0
     12484 MEMB     67       OSM      H14F     HAL2     0.900000E-01   1.00800           0
     12485 MEMB     67       OSM      H14G     HAL2     0.900000E-01   1.00800           0
     12486 MEMB     67       OSM      C15F     CTL2    -0.180000       12.0110           0
     12487 MEMB     67       OSM      H15F     HAL2     0.900000E-01   1.00800           0
     12488 MEMB     67       OSM      H15G     HAL2     0.900000E-01   1.00800           0
     12489 MEMB     67       OSM      C16F     CTL2    -0.180000       12.0110           0
     12490 MEMB     67       OSM      H16F     HAL2     0.900000E-01   1.00800           0
     12491 MEMB     67       OSM      H16G     HAL2     0.900000E-01   1.00800           0
     12492 MEMB     67       OSM      C17F     CTL2    -0.180000       12.0110           0
     12493 MEMB     67       OSM      H17F     HAL2     0.900000E-01   1.00800           0
     12494 MEMB     67       OSM      H17G     HAL2     0.900000E-01   1.00800           0
     12495 MEMB     67       OSM      C18F     CTL3    -0.270000       12.0110           0
     12496 MEMB     67       OSM      H18F     HAL3     0.900000E-01   1.00800           0
     12497 MEMB     67       OSM      H18G     HAL3     0.900000E-01   1.00800           0
     12498 MEMB     67       OSM      H18H     HAL3     0.900000E-01   1.00800           0
     12499 MEMB     74       OSM      N        NTL     -0.600000       14.0070           0
     12500 MEMB     74       OSM      C15      CTL5    -0.350000       12.0110           0
     12501 MEMB     74       OSM      H15A     HL       0.250000       1.00800           0
     12502 MEMB     74       OSM      H15B     HL       0.250000       1.00800           0
     12503 MEMB     74       OSM      H15C     HL       0.250000       1.00800           0
     12504 MEMB     74       OSM      C14      CTL5    -0.350000       12.0110           0
     12505 MEMB     74       OSM      H14A     HL       0.250000       1.00800           0
     12506 MEMB     74       OSM      H14B     HL       0.250000       1.00800           0
     12507 MEMB     74       OSM      H14C     HL       0.250000       1.00800           0
     12508 MEMB     74       OSM      C13      CTL5    -0.350000       12.0110           0
     12509 MEMB     74       OSM      H13A     HL       0.250000       1.00800           0
     12510 MEMB     74       OSM      H13B     HL       0.250000       1.00800           0
     12511 MEMB     74       OSM      H13C     HL       0.250000       1.00800           0
     12512 MEMB     74       OSM      C12      CTL2    -0.100000       12.0110           0
     12513 MEMB     74       OSM      H12A     HL       0.250000       1.00800           0
     12514 MEMB     74       OSM      H12B     HL       0.250000       1.00800           0
     12515 MEMB     74       OSM      C11      CTL2    -0.800000E-01   12.0110           0
     12516 MEMB     74       OSM      H11A     HAL2     0.900000E-01   1.00800           0
     12517 MEMB     74       OSM      H11B     HAL2     0.900000E-01   1.00800           0
     12518 MEMB     74       OSM      P        PL       1.500000       30.9740           0
     12519 MEMB     74       OSM      O13      O2L     -0.780000       15.9994           0
     12520 MEMB     74       OSM      O14      O2L     -0.780000       15.9994           0
     12521 MEMB     74       OSM      O11      OSLP    -0.570000       15.9994           0
     12522 MEMB     74       OSM      O12      OSLP    -0.570000       15.9994           0
     12523 MEMB     74       OSM      C1S      CTL2    -0.800000E-01   12.0110           0
     12524 MEMB     74       OSM      H1S      HAL2     0.900000E-01   1.00800           0
     12525 MEMB     74       OSM      H1T      HAL2     0.900000E-01   1.00800           0
     12526 MEMB     74       OSM      NF       NHL     -0.700000       14.0070           0
     12527 MEMB     74       OSM      HNF      H        0.350000       1.00800           0
     12528 MEMB     74       OSM      C2S      CTL1     0.300000       12.0110           0
     12529 MEMB     74       OSM      H2S      HAL1     0.500000E-01   1.00800           0
     12530 MEMB     74       OSM      C3S      CTO1     0.500000       12.0110           0
     12531 MEMB     74       OSM      H3S      HAL1    -0.110000       1.00800           0
     12532 MEMB     74       OSM      O3       OHL     -0.690000       15.9994           0
     12533 MEMB     74       OSM      HO3      HOL      0.300000       1.00800           0
     12534 MEMB     74       OSM      C4S      CEL3    -0.150000       12.0110           0
     12535 MEMB     74       OSM      H4S      HEL1     0.150000       1.00800           0
     12536 MEMB     74       OSM      C5S      CEL3    -0.150000       12.0110           0
     12537 MEMB     74       OSM      H5S      HEL1     0.150000       1.00800           0
     12538 MEMB     74       OSM      C6S      CTL2    -0.180000       12.0110           0
     12539 MEMB     74       OSM      H6S      HAL2     0.900000E-01   1.00800           0
     12540 MEMB     74       OSM      H6T      HAL2     0.900000E-01   1.00800           0
     12541 MEMB     74       OSM      C7S      CTL2    -0.180000       12.0110           0
     12542 MEMB     74       OSM      H7S      HAL2     0.900000E-01   1.00800           0
     12543 MEMB     74       OSM      H7T      HAL2     0.900000E-01   1.00800           0
     12544 MEMB     74       OSM      C8S      CTL2    -0.180000       12.0110           0
     12545 MEMB     74       OSM      H8S      HAL2     0.900000E-01   1.00800           0
     12546 MEMB     74       OSM      H8T      HAL2     0.900000E-01   1.00800           0
     12547 MEMB     74       OSM      C9S      CTL2    -0.180000       12.0110           0
     12548 MEMB     74       OSM      H9S      HAL2     0.900000E-01   1.00800           0
     12549 MEMB     74       OSM      H9T      HAL2     0.900000E-01   1.00800           0
     12550 MEMB     74       OSM      C10S     CTL2    -0.180000       12.0110           0
     12551 MEMB     74       OSM      H10S     HAL2     0.900000E-01   1.00800           0
     12552 MEMB     74       OSM      H10T     HAL2     0.900000E-01   1.00800           0
     12553 MEMB     74       OSM      C11S     CTL2    -0.180000       12.0110           0
     12554 MEMB     74       OSM      H11S     HAL2     0.900000E-01   1.00800           0
     12555 MEMB     74       OSM      H11T     HAL2     0.900000E-01   1.00800           0
     12556 MEMB     74       OSM      C12S     CTL2    -0.180000       12.0110           0
     12557 MEMB     74       OSM      H12S     HAL2     0.900000E-01   1.00800           0
     12558 MEMB     74       OSM      H12T     HAL2     0.900000E-01   1.00800           0
     12559 MEMB     74       OSM      C13S     CTL2    -0.180000       12.0110           0
     12560 MEMB     74       OSM      H13S     HAL2     0.900000E-01   1.00800           0
     12561 MEMB     74       OSM      H13T     HAL2     0.900000E-01   1.00800           0
     12562 MEMB     74       OSM      C14S     CTL2    -0.180000       12.0110           0
     12563 MEMB     74       OSM      H14S     HAL2     0.900000E-01   1.00800           0
     12564 MEMB     74       OSM      H14T     HAL2     0.900000E-01   1.00800           0
     12565 MEMB     74       OSM      C15S     CTL2    -0.180000       12.0110           0
     12566 MEMB     74       OSM      H15S     HAL2     0.900000E-01   1.00800           0
     12567 MEMB     74       OSM      H15T     HAL2     0.900000E-01   1.00800           0
     12568 MEMB     74       OSM      C16S     CTL2    -0.180000       12.0110           0
     12569 MEMB     74       OSM      H16S     HAL2     0.900000E-01   1.00800           0
     12570 MEMB     74       OSM      H16T     HAL2     0.900000E-01   1.00800           0
     12571 MEMB     74       OSM      C17S     CTL2    -0.180000       12.0110           0
     12572 MEMB     74       OSM      H17S     HAL2     0.900000E-01   1.00800           0
     12573 MEMB     74       OSM      H17T     HAL2     0.900000E-01   1.00800           0
     12574 MEMB     74       OSM      C18S     CTL3    -0.270000       12.0110           0
     12575 MEMB     74       OSM      H18S     HAL3     0.900000E-01   1.00800           0
     12576 MEMB     74       OSM      H18T     HAL3     0.900000E-01   1.00800           0
     12577 MEMB     74       OSM      H18U     HAL3     0.900000E-01   1.00800           0
     12578 MEMB     74       OSM      C1F      C        0.550000       12.0110           0
     12579 MEMB     74       OSM      OF       O       -0.600000       15.9994           0
     12580 MEMB     74       OSM      C2F      CTL2    -0.700000E-01   12.0110           0
     12581 MEMB     74       OSM      H2F      HAL2     0.600000E-01   1.00800           0
     12582 MEMB     74       OSM      H2G      HAL2     0.600000E-01   1.00800           0
     12583 MEMB     74       OSM      C3F      CTL2    -0.180000       12.0110           0
     12584 MEMB     74       OSM      H3F      HAL2     0.900000E-01   1.00800           0
     12585 MEMB     74       OSM      H3G      HAL2     0.900000E-01   1.00800           0
     12586 MEMB     74       OSM      C4F      CTL2    -0.180000       12.0110           0
     12587 MEMB     74       OSM      H4F      HAL2     0.900000E-01   1.00800           0
     12588 MEMB     74       OSM      H4G      HAL2     0.900000E-01   1.00800           0
     12589 MEMB     74       OSM      C5F      CTL2    -0.180000       12.0110           0
     12590 MEMB     74       OSM      H5F      HAL2     0.900000E-01   1.00800           0
     12591 MEMB     74       OSM      H5G      HAL2     0.900000E-01   1.00800           0
     12592 MEMB     74       OSM      C6F      CTL2    -0.180000       12.0110           0
     12593 MEMB     74       OSM      H6F      HAL2     0.900000E-01   1.00800           0
     12594 MEMB     74       OSM      H6G      HAL2     0.900000E-01   1.00800           0
     12595 MEMB     74       OSM      C7F      CTL2    -0.180000       12.0110           0
     12596 MEMB     74       OSM      H7F      HAL2     0.900000E-01   1.00800           0
     12597 MEMB     74       OSM      H7G      HAL2     0.900000E-01   1.00800           0
     12598 MEMB     74       OSM      C8F      CTL2    -0.180000       12.0110           0
     12599 MEMB     74       OSM      H8F      HAL2     0.900000E-01   1.00800           0
     12600 MEMB     74       OSM      H8G      HAL2     0.900000E-01   1.00800           0
     12601 MEMB     74       OSM      C9F      CEL1    -0.150000       12.0110           0
     12602 MEMB     74       OSM      H9F      HEL1     0.150000       1.00800           0
     12603 MEMB     74       OSM      C10F     CEL1    -0.150000       12.0110           0
     12604 MEMB     74       OSM      H10F     HEL1     0.150000       1.00800           0
     12605 MEMB     74       OSM      C11F     CTL2    -0.180000       12.0110           0
     12606 MEMB     74       OSM      H11F     HAL2     0.900000E-01   1.00800           0
     12607 MEMB     74       OSM      H11G     HAL2     0.900000E-01   1.00800           0
     12608 MEMB     74       OSM      C12F     CTL2    -0.180000       12.0110           0
     12609 MEMB     74       OSM      H12F     HAL2     0.900000E-01   1.00800           0
     12610 MEMB     74       OSM      H12G     HAL2     0.900000E-01   1.00800           0
     12611 MEMB     74       OSM      C13F     CTL2    -0.180000       12.0110           0
     12612 MEMB     74       OSM      H13F     HAL2     0.900000E-01   1.00800           0
     12613 MEMB     74       OSM      H13G     HAL2     0.900000E-01   1.00800           0
     12614 MEMB     74       OSM      C14F     CTL2    -0.180000       12.0110           0
     12615 MEMB     74       OSM      H14F     HAL2     0.900000E-01   1.00800           0
     12616 MEMB     74       OSM      H14G     HAL2     0.900000E-01   1.00800           0
     12617 MEMB     74       OSM      C15F     CTL2    -0.180000       12.0110           0
     12618 MEMB     74       OSM      H15F     HAL2     0.900000E-01   1.00800           0
     12619 MEMB     74       OSM      H15G     HAL2     0.900000E-01   1.00800           0
     12620 MEMB     74       OSM      C16F     CTL2    -0.180000       12.0110           0
     12621 MEMB     74       OSM      H16F     HAL2     0.900000E-01   1.00800           0
     12622 MEMB     74       OSM      H16G     HAL2     0.900000E-01   1.00800           0
     12623 MEMB     74       OSM      C17F     CTL2    -0.180000       12.0110           0
     12624 MEMB     74       OSM      H17F     HAL2     0.900000E-01   1.00800           0
     12625 MEMB     74       OSM      H17G     HAL2     0.900000E-01   1.00800           0
     12626 MEMB     74       OSM      C18F     CTL3    -0.270000       12.0110           0
     12627 MEMB     74       OSM      H18F     HAL3     0.900000E-01   1.00800           0
     12628 MEMB     74       OSM      H18G     HAL3     0.900000E-01   1.00800           0
     12629 MEMB     74       OSM      H18H     HAL3     0.900000E-01   1.00800           0
     12630 MEMB     77       OSM      N        NTL     -0.600000       14.0070           0
     12631 MEMB     77       OSM      C15      CTL5    -0.350000       12.0110           0
     12632 MEMB     77       OSM      H15A     HL       0.250000       1.00800           0
     12633 MEMB     77       OSM      H15B     HL       0.250000       1.00800           0
     12634 MEMB     77       OSM      H15C     HL       0.250000       1.00800           0
     12635 MEMB     77       OSM      C14      CTL5    -0.350000       12.0110           0
     12636 MEMB     77       OSM      H14A     HL       0.250000       1.00800           0
     12637 MEMB     77       OSM      H14B     HL       0.250000       1.00800           0
     12638 MEMB     77       OSM      H14C     HL       0.250000       1.00800           0
     12639 MEMB     77       OSM      C13      CTL5    -0.350000       12.0110           0
     12640 MEMB     77       OSM      H13A     HL       0.250000       1.00800           0
     12641 MEMB     77       OSM      H13B     HL       0.250000       1.00800           0
     12642 MEMB     77       OSM      H13C     HL       0.250000       1.00800           0
     12643 MEMB     77       OSM      C12      CTL2    -0.100000       12.0110           0
     12644 MEMB     77       OSM      H12A     HL       0.250000       1.00800           0
     12645 MEMB     77       OSM      H12B     HL       0.250000       1.00800           0
     12646 MEMB     77       OSM      C11      CTL2    -0.800000E-01   12.0110           0
     12647 MEMB     77       OSM      H11A     HAL2     0.900000E-01   1.00800           0
     12648 MEMB     77       OSM      H11B     HAL2     0.900000E-01   1.00800           0
     12649 MEMB     77       OSM      P        PL       1.500000       30.9740           0
     12650 MEMB     77       OSM      O13      O2L     -0.780000       15.9994           0
     12651 MEMB     77       OSM      O14      O2L     -0.780000       15.9994           0
     12652 MEMB     77       OSM      O11      OSLP    -0.570000       15.9994           0
     12653 MEMB     77       OSM      O12      OSLP    -0.570000       15.9994           0
     12654 MEMB     77       OSM      C1S      CTL2    -0.800000E-01   12.0110           0
     12655 MEMB     77       OSM      H1S      HAL2     0.900000E-01   1.00800           0
     12656 MEMB     77       OSM      H1T      HAL2     0.900000E-01   1.00800           0
     12657 MEMB     77       OSM      NF       NHL     -0.700000       14.0070           0
     12658 MEMB     77       OSM      HNF      H        0.350000       1.00800           0
     12659 MEMB     77       OSM      C2S      CTL1     0.300000       12.0110           0
     12660 MEMB     77       OSM      H2S      HAL1     0.500000E-01   1.00800           0
     12661 MEMB     77       OSM      C3S      CTO1     0.500000       12.0110           0
     12662 MEMB     77       OSM      H3S      HAL1    -0.110000       1.00800           0
     12663 MEMB     77       OSM      O3       OHL     -0.690000       15.9994           0
     12664 MEMB     77       OSM      HO3      HOL      0.300000       1.00800           0
     12665 MEMB     77       OSM      C4S      CEL3    -0.150000       12.0110           0
     12666 MEMB     77       OSM      H4S      HEL1     0.150000       1.00800           0
     12667 MEMB     77       OSM      C5S      CEL3    -0.150000       12.0110           0
     12668 MEMB     77       OSM      H5S      HEL1     0.150000       1.00800           0
     12669 MEMB     77       OSM      C6S      CTL2    -0.180000       12.0110           0
     12670 MEMB     77       OSM      H6S      HAL2     0.900000E-01   1.00800           0
     12671 MEMB     77       OSM      H6T      HAL2     0.900000E-01   1.00800           0
     12672 MEMB     77       OSM      C7S      CTL2    -0.180000       12.0110           0
     12673 MEMB     77       OSM      H7S      HAL2     0.900000E-01   1.00800           0
     12674 MEMB     77       OSM      H7T      HAL2     0.900000E-01   1.00800           0
     12675 MEMB     77       OSM      C8S      CTL2    -0.180000       12.0110           0
     12676 MEMB     77       OSM      H8S      HAL2     0.900000E-01   1.00800           0
     12677 MEMB     77       OSM      H8T      HAL2     0.900000E-01   1.00800           0
     12678 MEMB     77       OSM      C9S      CTL2    -0.180000       12.0110           0
     12679 MEMB     77       OSM      H9S      HAL2     0.900000E-01   1.00800           0
     12680 MEMB     77       OSM      H9T      HAL2     0.900000E-01   1.00800           0
     12681 MEMB     77       OSM      C10S     CTL2    -0.180000       12.0110           0
     12682 MEMB     77       OSM      H10S     HAL2     0.900000E-01   1.00800           0
     12683 MEMB     77       OSM      H10T     HAL2     0.900000E-01   1.00800           0
     12684 MEMB     77       OSM      C11S     CTL2    -0.180000       12.0110           0
     12685 MEMB     77       OSM      H11S     HAL2     0.900000E-01   1.00800           0
     12686 MEMB     77       OSM      H11T     HAL2     0.900000E-01   1.00800           0
     12687 MEMB     77       OSM      C12S     CTL2    -0.180000       12.0110           0
     12688 MEMB     77       OSM      H12S     HAL2     0.900000E-01   1.00800           0
     12689 MEMB     77       OSM      H12T     HAL2     0.900000E-01   1.00800           0
     12690 MEMB     77       OSM      C13S     CTL2    -0.180000       12.0110           0
     12691 MEMB     77       OSM      H13S     HAL2     0.900000E-01   1.00800           0
     12692 MEMB     77       OSM      H13T     HAL2     0.900000E-01   1.00800           0
     12693 MEMB     77       OSM      C14S     CTL2    -0.180000       12.0110           0
     12694 MEMB     77       OSM      H14S     HAL2     0.900000E-01   1.00800           0
     12695 MEMB     77       OSM      H14T     HAL2     0.900000E-01   1.00800           0
     12696 MEMB     77       OSM      C15S     CTL2    -0.180000       12.0110           0
     12697 MEMB     77       OSM      H15S     HAL2     0.900000E-01   1.00800           0
     12698 MEMB     77       OSM      H15T     HAL2     0.900000E-01   1.00800           0
     12699 MEMB     77       OSM      C16S     CTL2    -0.180000       12.0110           0
     12700 MEMB     77       OSM      H16S     HAL2     0.900000E-01   1.00800           0
     12701 MEMB     77       OSM      H16T     HAL2     0.900000E-01   1.00800           0
     12702 MEMB     77       OSM      C17S     CTL2    -0.180000       12.0110           0
     12703 MEMB     77       OSM      H17S     HAL2     0.900000E-01   1.00800           0
     12704 MEMB     77       OSM      H17T     HAL2     0.900000E-01   1.00800           0
     12705 MEMB     77       OSM      C18S     CTL3    -0.270000       12.0110           0
     12706 MEMB     77       OSM      H18S     HAL3     0.900000E-01   1.00800           0
     12707 MEMB     77       OSM      H18T     HAL3     0.900000E-01   1.00800           0
     12708 MEMB     77       OSM      H18U     HAL3     0.900000E-01   1.00800           0
     12709 MEMB     77       OSM      C1F      C        0.550000       12.0110           0
     12710 MEMB     77       OSM      OF       O       -0.600000       15.9994           0
     12711 MEMB     77       OSM      C2F      CTL2    -0.700000E-01   12.0110           0
     12712 MEMB     77       OSM      H2F      HAL2     0.600000E-01   1.00800           0
     12713 MEMB     77       OSM      H2G      HAL2     0.600000E-01   1.00800           0
     12714 MEMB     77       OSM      C3F      CTL2    -0.180000       12.0110           0
     12715 MEMB     77       OSM      H3F      HAL2     0.900000E-01   1.00800           0
     12716 MEMB     77       OSM      H3G      HAL2     0.900000E-01   1.00800           0
     12717 MEMB     77       OSM      C4F      CTL2    -0.180000       12.0110           0
     12718 MEMB     77       OSM      H4F      HAL2     0.900000E-01   1.00800           0
     12719 MEMB     77       OSM      H4G      HAL2     0.900000E-01   1.00800           0
     12720 MEMB     77       OSM      C5F      CTL2    -0.180000       12.0110           0
     12721 MEMB     77       OSM      H5F      HAL2     0.900000E-01   1.00800           0
     12722 MEMB     77       OSM      H5G      HAL2     0.900000E-01   1.00800           0
     12723 MEMB     77       OSM      C6F      CTL2    -0.180000       12.0110           0
     12724 MEMB     77       OSM      H6F      HAL2     0.900000E-01   1.00800           0
     12725 MEMB     77       OSM      H6G      HAL2     0.900000E-01   1.00800           0
     12726 MEMB     77       OSM      C7F      CTL2    -0.180000       12.0110           0
     12727 MEMB     77       OSM      H7F      HAL2     0.900000E-01   1.00800           0
     12728 MEMB     77       OSM      H7G      HAL2     0.900000E-01   1.00800           0
     12729 MEMB     77       OSM      C8F      CTL2    -0.180000       12.0110           0
     12730 MEMB     77       OSM      H8F      HAL2     0.900000E-01   1.00800           0
     12731 MEMB     77       OSM      H8G      HAL2     0.900000E-01   1.00800           0
     12732 MEMB     77       OSM      C9F      CEL1    -0.150000       12.0110           0
     12733 MEMB     77       OSM      H9F      HEL1     0.150000       1.00800           0
     12734 MEMB     77       OSM      C10F     CEL1    -0.150000       12.0110           0
     12735 MEMB     77       OSM      H10F     HEL1     0.150000       1.00800           0
     12736 MEMB     77       OSM      C11F     CTL2    -0.180000       12.0110           0
     12737 MEMB     77       OSM      H11F     HAL2     0.900000E-01   1.00800           0
     12738 MEMB     77       OSM      H11G     HAL2     0.900000E-01   1.00800           0
     12739 MEMB     77       OSM      C12F     CTL2    -0.180000       12.0110           0
     12740 MEMB     77       OSM      H12F     HAL2     0.900000E-01   1.00800           0
     12741 MEMB     77       OSM      H12G     HAL2     0.900000E-01   1.00800           0
     12742 MEMB     77       OSM      C13F     CTL2    -0.180000       12.0110           0
     12743 MEMB     77       OSM      H13F     HAL2     0.900000E-01   1.00800           0
     12744 MEMB     77       OSM      H13G     HAL2     0.900000E-01   1.00800           0
     12745 MEMB     77       OSM      C14F     CTL2    -0.180000       12.0110           0
     12746 MEMB     77       OSM      H14F     HAL2     0.900000E-01   1.00800           0
     12747 MEMB     77       OSM      H14G     HAL2     0.900000E-01   1.00800           0
     12748 MEMB     77       OSM      C15F     CTL2    -0.180000       12.0110           0
     12749 MEMB     77       OSM      H15F     HAL2     0.900000E-01   1.00800           0
     12750 MEMB     77       OSM      H15G     HAL2     0.900000E-01   1.00800           0
     12751 MEMB     77       OSM      C16F     CTL2    -0.180000       12.0110           0
     12752 MEMB     77       OSM      H16F     HAL2     0.900000E-01   1.00800           0
     12753 MEMB     77       OSM      H16G     HAL2     0.900000E-01   1.00800           0
     12754 MEMB     77       OSM      C17F     CTL2    -0.180000       12.0110           0
     12755 MEMB     77       OSM      H17F     HAL2     0.900000E-01   1.00800           0
     12756 MEMB     77       OSM      H17G     HAL2     0.900000E-01   1.00800           0
     12757 MEMB     77       OSM      C18F     CTL3    -0.270000       12.0110           0
     12758 MEMB     77       OSM      H18F     HAL3     0.900000E-01   1.00800           0
     12759 MEMB     77       OSM      H18G     HAL3     0.900000E-01   1.00800           0
     12760 MEMB     77       OSM      H18H     HAL3     0.900000E-01   1.00800           0
     12761 MEMB     82       OSM      N        NTL     -0.600000       14.0070           0
     12762 MEMB     82       OSM      C15      CTL5    -0.350000       12.0110           0
     12763 MEMB     82       OSM      H15A     HL       0.250000       1.00800           0
     12764 MEMB     82       OSM      H15B     HL       0.250000       1.00800           0
     12765 MEMB     82       OSM      H15C     HL       0.250000       1.00800           0
     12766 MEMB     82       OSM      C14      CTL5    -0.350000       12.0110           0
     12767 MEMB     82       OSM      H14A     HL       0.250000       1.00800           0
     12768 MEMB     82       OSM      H14B     HL       0.250000       1.00800           0
     12769 MEMB     82       OSM      H14C     HL       0.250000       1.00800           0
     12770 MEMB     82       OSM      C13      CTL5    -0.350000       12.0110           0
     12771 MEMB     82       OSM      H13A     HL       0.250000       1.00800           0
     12772 MEMB     82       OSM      H13B     HL       0.250000       1.00800           0
     12773 MEMB     82       OSM      H13C     HL       0.250000       1.00800           0
     12774 MEMB     82       OSM      C12      CTL2    -0.100000       12.0110           0
     12775 MEMB     82       OSM      H12A     HL       0.250000       1.00800           0
     12776 MEMB     82       OSM      H12B     HL       0.250000       1.00800           0
     12777 MEMB     82       OSM      C11      CTL2    -0.800000E-01   12.0110           0
     12778 MEMB     82       OSM      H11A     HAL2     0.900000E-01   1.00800           0
     12779 MEMB     82       OSM      H11B     HAL2     0.900000E-01   1.00800           0
     12780 MEMB     82       OSM      P        PL       1.500000       30.9740           0
     12781 MEMB     82       OSM      O13      O2L     -0.780000       15.9994           0
     12782 MEMB     82       OSM      O14      O2L     -0.780000       15.9994           0
     12783 MEMB     82       OSM      O11      OSLP    -0.570000       15.9994           0
     12784 MEMB     82       OSM      O12      OSLP    -0.570000       15.9994           0
     12785 MEMB     82       OSM      C1S      CTL2    -0.800000E-01   12.0110           0
     12786 MEMB     82       OSM      H1S      HAL2     0.900000E-01   1.00800           0
     12787 MEMB     82       OSM      H1T      HAL2     0.900000E-01   1.00800           0
     12788 MEMB     82       OSM      NF       NHL     -0.700000       14.0070           0
     12789 MEMB     82       OSM      HNF      H        0.350000       1.00800           0
     12790 MEMB     82       OSM      C2S      CTL1     0.300000       12.0110           0
     12791 MEMB     82       OSM      H2S      HAL1     0.500000E-01   1.00800           0
     12792 MEMB     82       OSM      C3S      CTO1     0.500000       12.0110           0
     12793 MEMB     82       OSM      H3S      HAL1    -0.110000       1.00800           0
     12794 MEMB     82       OSM      O3       OHL     -0.690000       15.9994           0
     12795 MEMB     82       OSM      HO3      HOL      0.300000       1.00800           0
     12796 MEMB     82       OSM      C4S      CEL3    -0.150000       12.0110           0
     12797 MEMB     82       OSM      H4S      HEL1     0.150000       1.00800           0
     12798 MEMB     82       OSM      C5S      CEL3    -0.150000       12.0110           0
     12799 MEMB     82       OSM      H5S      HEL1     0.150000       1.00800           0
     12800 MEMB     82       OSM      C6S      CTL2    -0.180000       12.0110           0
     12801 MEMB     82       OSM      H6S      HAL2     0.900000E-01   1.00800           0
     12802 MEMB     82       OSM      H6T      HAL2     0.900000E-01   1.00800           0
     12803 MEMB     82       OSM      C7S      CTL2    -0.180000       12.0110           0
     12804 MEMB     82       OSM      H7S      HAL2     0.900000E-01   1.00800           0
     12805 MEMB     82       OSM      H7T      HAL2     0.900000E-01   1.00800           0
     12806 MEMB     82       OSM      C8S      CTL2    -0.180000       12.0110           0
     12807 MEMB     82       OSM      H8S      HAL2     0.900000E-01   1.00800           0
     12808 MEMB     82       OSM      H8T      HAL2     0.900000E-01   1.00800           0
     12809 MEMB     82       OSM      C9S      CTL2    -0.180000       12.0110           0
     12810 MEMB     82       OSM      H9S      HAL2     0.900000E-01   1.00800           0
     12811 MEMB     82       OSM      H9T      HAL2     0.900000E-01   1.00800           0
     12812 MEMB     82       OSM      C10S     CTL2    -0.180000       12.0110           0
     12813 MEMB     82       OSM      H10S     HAL2     0.900000E-01   1.00800           0
     12814 MEMB     82       OSM      H10T     HAL2     0.900000E-01   1.00800           0
     12815 MEMB     82       OSM      C11S     CTL2    -0.180000       12.0110           0
     12816 MEMB     82       OSM      H11S     HAL2     0.900000E-01   1.00800           0
     12817 MEMB     82       OSM      H11T     HAL2     0.900000E-01   1.00800           0
     12818 MEMB     82       OSM      C12S     CTL2    -0.180000       12.0110           0
     12819 MEMB     82       OSM      H12S     HAL2     0.900000E-01   1.00800           0
     12820 MEMB     82       OSM      H12T     HAL2     0.900000E-01   1.00800           0
     12821 MEMB     82       OSM      C13S     CTL2    -0.180000       12.0110           0
     12822 MEMB     82       OSM      H13S     HAL2     0.900000E-01   1.00800           0
     12823 MEMB     82       OSM      H13T     HAL2     0.900000E-01   1.00800           0
     12824 MEMB     82       OSM      C14S     CTL2    -0.180000       12.0110           0
     12825 MEMB     82       OSM      H14S     HAL2     0.900000E-01   1.00800           0
     12826 MEMB     82       OSM      H14T     HAL2     0.900000E-01   1.00800           0
     12827 MEMB     82       OSM      C15S     CTL2    -0.180000       12.0110           0
     12828 MEMB     82       OSM      H15S     HAL2     0.900000E-01   1.00800           0
     12829 MEMB     82       OSM      H15T     HAL2     0.900000E-01   1.00800           0
     12830 MEMB     82       OSM      C16S     CTL2    -0.180000       12.0110           0
     12831 MEMB     82       OSM      H16S     HAL2     0.900000E-01   1.00800           0
     12832 MEMB     82       OSM      H16T     HAL2     0.900000E-01   1.00800           0
     12833 MEMB     82       OSM      C17S     CTL2    -0.180000       12.0110           0
     12834 MEMB     82       OSM      H17S     HAL2     0.900000E-01   1.00800           0
     12835 MEMB     82       OSM      H17T     HAL2     0.900000E-01   1.00800           0
     12836 MEMB     82       OSM      C18S     CTL3    -0.270000       12.0110           0
     12837 MEMB     82       OSM      H18S     HAL3     0.900000E-01   1.00800           0
     12838 MEMB     82       OSM      H18T     HAL3     0.900000E-01   1.00800           0
     12839 MEMB     82       OSM      H18U     HAL3     0.900000E-01   1.00800           0
     12840 MEMB     82       OSM      C1F      C        0.550000       12.0110           0
     12841 MEMB     82       OSM      OF       O       -0.600000       15.9994           0
     12842 MEMB     82       OSM      C2F      CTL2    -0.700000E-01   12.0110           0
     12843 MEMB     82       OSM      H2F      HAL2     0.600000E-01   1.00800           0
     12844 MEMB     82       OSM      H2G      HAL2     0.600000E-01   1.00800           0
     12845 MEMB     82       OSM      C3F      CTL2    -0.180000       12.0110           0
     12846 MEMB     82       OSM      H3F      HAL2     0.900000E-01   1.00800           0
     12847 MEMB     82       OSM      H3G      HAL2     0.900000E-01   1.00800           0
     12848 MEMB     82       OSM      C4F      CTL2    -0.180000       12.0110           0
     12849 MEMB     82       OSM      H4F      HAL2     0.900000E-01   1.00800           0
     12850 MEMB     82       OSM      H4G      HAL2     0.900000E-01   1.00800           0
     12851 MEMB     82       OSM      C5F      CTL2    -0.180000       12.0110           0
     12852 MEMB     82       OSM      H5F      HAL2     0.900000E-01   1.00800           0
     12853 MEMB     82       OSM      H5G      HAL2     0.900000E-01   1.00800           0
     12854 MEMB     82       OSM      C6F      CTL2    -0.180000       12.0110           0
     12855 MEMB     82       OSM      H6F      HAL2     0.900000E-01   1.00800           0
     12856 MEMB     82       OSM      H6G      HAL2     0.900000E-01   1.00800           0
     12857 MEMB     82       OSM      C7F      CTL2    -0.180000       12.0110           0
     12858 MEMB     82       OSM      H7F      HAL2     0.900000E-01   1.00800           0
     12859 MEMB     82       OSM      H7G      HAL2     0.900000E-01   1.00800           0
     12860 MEMB     82       OSM      C8F      CTL2    -0.180000       12.0110           0
     12861 MEMB     82       OSM      H8F      HAL2     0.900000E-01   1.00800           0
     12862 MEMB     82       OSM      H8G      HAL2     0.900000E-01   1.00800           0
     12863 MEMB     82       OSM      C9F      CEL1    -0.150000       12.0110           0
     12864 MEMB     82       OSM      H9F      HEL1     0.150000       1.00800           0
     12865 MEMB     82       OSM      C10F     CEL1    -0.150000       12.0110           0
     12866 MEMB     82       OSM      H10F     HEL1     0.150000       1.00800           0
     12867 MEMB     82       OSM      C11F     CTL2    -0.180000       12.0110           0
     12868 MEMB     82       OSM      H11F     HAL2     0.900000E-01   1.00800           0
     12869 MEMB     82       OSM      H11G     HAL2     0.900000E-01   1.00800           0
     12870 MEMB     82       OSM      C12F     CTL2    -0.180000       12.0110           0
     12871 MEMB     82       OSM      H12F     HAL2     0.900000E-01   1.00800           0
     12872 MEMB     82       OSM      H12G     HAL2     0.900000E-01   1.00800           0
     12873 MEMB     82       OSM      C13F     CTL2    -0.180000       12.0110           0
     12874 MEMB     82       OSM      H13F     HAL2     0.900000E-01   1.00800           0
     12875 MEMB     82       OSM      H13G     HAL2     0.900000E-01   1.00800           0
     12876 MEMB     82       OSM      C14F     CTL2    -0.180000       12.0110           0
     12877 MEMB     82       OSM      H14F     HAL2     0.900000E-01   1.00800           0
     12878 MEMB     82       OSM      H14G     HAL2     0.900000E-01   1.00800           0
     12879 MEMB     82       OSM      C15F     CTL2    -0.180000       12.0110           0
     12880 MEMB     82       OSM      H15F     HAL2     0.900000E-01   1.00800           0
     12881 MEMB     82       OSM      H15G     HAL2     0.900000E-01   1.00800           0
     12882 MEMB     82       OSM      C16F     CTL2    -0.180000       12.0110           0
     12883 MEMB     82       OSM      H16F     HAL2     0.900000E-01   1.00800           0
     12884 MEMB     82       OSM      H16G     HAL2     0.900000E-01   1.00800           0
     12885 MEMB     82       OSM      C17F     CTL2    -0.180000       12.0110           0
     12886 MEMB     82       OSM      H17F     HAL2     0.900000E-01   1.00800           0
     12887 MEMB     82       OSM      H17G     HAL2     0.900000E-01   1.00800           0
     12888 MEMB     82       OSM      C18F     CTL3    -0.270000       12.0110           0
     12889 MEMB     82       OSM      H18F     HAL3     0.900000E-01   1.00800           0
     12890 MEMB     82       OSM      H18G     HAL3     0.900000E-01   1.00800           0
     12891 MEMB     82       OSM      H18H     HAL3     0.900000E-01   1.00800           0
     12892 MEMB     95       OSM      N        NTL     -0.600000       14.0070           0
     12893 MEMB     95       OSM      C15      CTL5    -0.350000       12.0110           0
     12894 MEMB     95       OSM      H15A     HL       0.250000       1.00800           0
     12895 MEMB     95       OSM      H15B     HL       0.250000       1.00800           0
     12896 MEMB     95       OSM      H15C     HL       0.250000       1.00800           0
     12897 MEMB     95       OSM      C14      CTL5    -0.350000       12.0110           0
     12898 MEMB     95       OSM      H14A     HL       0.250000       1.00800           0
     12899 MEMB     95       OSM      H14B     HL       0.250000       1.00800           0
     12900 MEMB     95       OSM      H14C     HL       0.250000       1.00800           0
     12901 MEMB     95       OSM      C13      CTL5    -0.350000       12.0110           0
     12902 MEMB     95       OSM      H13A     HL       0.250000       1.00800           0
     12903 MEMB     95       OSM      H13B     HL       0.250000       1.00800           0
     12904 MEMB     95       OSM      H13C     HL       0.250000       1.00800           0
     12905 MEMB     95       OSM      C12      CTL2    -0.100000       12.0110           0
     12906 MEMB     95       OSM      H12A     HL       0.250000       1.00800           0
     12907 MEMB     95       OSM      H12B     HL       0.250000       1.00800           0
     12908 MEMB     95       OSM      C11      CTL2    -0.800000E-01   12.0110           0
     12909 MEMB     95       OSM      H11A     HAL2     0.900000E-01   1.00800           0
     12910 MEMB     95       OSM      H11B     HAL2     0.900000E-01   1.00800           0
     12911 MEMB     95       OSM      P        PL       1.500000       30.9740           0
     12912 MEMB     95       OSM      O13      O2L     -0.780000       15.9994           0
     12913 MEMB     95       OSM      O14      O2L     -0.780000       15.9994           0
     12914 MEMB     95       OSM      O11      OSLP    -0.570000       15.9994           0
     12915 MEMB     95       OSM      O12      OSLP    -0.570000       15.9994           0
     12916 MEMB     95       OSM      C1S      CTL2    -0.800000E-01   12.0110           0
     12917 MEMB     95       OSM      H1S      HAL2     0.900000E-01   1.00800           0
     12918 MEMB     95       OSM      H1T      HAL2     0.900000E-01   1.00800           0
     12919 MEMB     95       OSM      NF       NHL     -0.700000       14.0070           0
     12920 MEMB     95       OSM      HNF      H        0.350000       1.00800           0
     12921 MEMB     95       OSM      C2S      CTL1     0.300000       12.0110           0
     12922 MEMB     95       OSM      H2S      HAL1     0.500000E-01   1.00800           0
     12923 MEMB     95       OSM      C3S      CTO1     0.500000       12.0110           0
     12924 MEMB     95       OSM      H3S      HAL1    -0.110000       1.00800           0
     12925 MEMB     95       OSM      O3       OHL     -0.690000       15.9994           0
     12926 MEMB     95       OSM      HO3      HOL      0.300000       1.00800           0
     12927 MEMB     95       OSM      C4S      CEL3    -0.150000       12.0110           0
     12928 MEMB     95       OSM      H4S      HEL1     0.150000       1.00800           0
     12929 MEMB     95       OSM      C5S      CEL3    -0.150000       12.0110           0
     12930 MEMB     95       OSM      H5S      HEL1     0.150000       1.00800           0
     12931 MEMB     95       OSM      C6S      CTL2    -0.180000       12.0110           0
     12932 MEMB     95       OSM      H6S      HAL2     0.900000E-01   1.00800           0
     12933 MEMB     95       OSM      H6T      HAL2     0.900000E-01   1.00800           0
     12934 MEMB     95       OSM      C7S      CTL2    -0.180000       12.0110           0
     12935 MEMB     95       OSM      H7S      HAL2     0.900000E-01   1.00800           0
     12936 MEMB     95       OSM      H7T      HAL2     0.900000E-01   1.00800           0
     12937 MEMB     95       OSM      C8S      CTL2    -0.180000       12.0110           0
     12938 MEMB     95       OSM      H8S      HAL2     0.900000E-01   1.00800           0
     12939 MEMB     95       OSM      H8T      HAL2     0.900000E-01   1.00800           0
     12940 MEMB     95       OSM      C9S      CTL2    -0.180000       12.0110           0
     12941 MEMB     95       OSM      H9S      HAL2     0.900000E-01   1.00800           0
     12942 MEMB     95       OSM      H9T      HAL2     0.900000E-01   1.00800           0
     12943 MEMB     95       OSM      C10S     CTL2    -0.180000       12.0110           0
     12944 MEMB     95       OSM      H10S     HAL2     0.900000E-01   1.00800           0
     12945 MEMB     95       OSM      H10T     HAL2     0.900000E-01   1.00800           0
     12946 MEMB     95       OSM      C11S     CTL2    -0.180000       12.0110           0
     12947 MEMB     95       OSM      H11S     HAL2     0.900000E-01   1.00800           0
     12948 MEMB     95       OSM      H11T     HAL2     0.900000E-01   1.00800           0
     12949 MEMB     95       OSM      C12S     CTL2    -0.180000       12.0110           0
     12950 MEMB     95       OSM      H12S     HAL2     0.900000E-01   1.00800           0
     12951 MEMB     95       OSM      H12T     HAL2     0.900000E-01   1.00800           0
     12952 MEMB     95       OSM      C13S     CTL2    -0.180000       12.0110           0
     12953 MEMB     95       OSM      H13S     HAL2     0.900000E-01   1.00800           0
     12954 MEMB     95       OSM      H13T     HAL2     0.900000E-01   1.00800           0
     12955 MEMB     95       OSM      C14S     CTL2    -0.180000       12.0110           0
     12956 MEMB     95       OSM      H14S     HAL2     0.900000E-01   1.00800           0
     12957 MEMB     95       OSM      H14T     HAL2     0.900000E-01   1.00800           0
     12958 MEMB     95       OSM      C15S     CTL2    -0.180000       12.0110           0
     12959 MEMB     95       OSM      H15S     HAL2     0.900000E-01   1.00800           0
     12960 MEMB     95       OSM      H15T     HAL2     0.900000E-01   1.00800           0
     12961 MEMB     95       OSM      C16S     CTL2    -0.180000       12.0110           0
     12962 MEMB     95       OSM      H16S     HAL2     0.900000E-01   1.00800           0
     12963 MEMB     95       OSM      H16T     HAL2     0.900000E-01   1.00800           0
     12964 MEMB     95       OSM      C17S     CTL2    -0.180000       12.0110           0
     12965 MEMB     95       OSM      H17S     HAL2     0.900000E-01   1.00800           0
     12966 MEMB     95       OSM      H17T     HAL2     0.900000E-01   1.00800           0
     12967 MEMB     95       OSM      C18S     CTL3    -0.270000       12.0110           0
     12968 MEMB     95       OSM      H18S     HAL3     0.900000E-01   1.00800           0
     12969 MEMB     95       OSM      H18T     HAL3     0.900000E-01   1.00800           0
     12970 MEMB     95       OSM      H18U     HAL3     0.900000E-01   1.00800           0
     12971 MEMB     95       OSM      C1F      C        0.550000       12.0110           0
     12972 MEMB     95       OSM      OF       O       -0.600000       15.9994           0
     12973 MEMB     95       OSM      C2F      CTL2    -0.700000E-01   12.0110           0
     12974 MEMB     95       OSM      H2F      HAL2     0.600000E-01   1.00800           0
     12975 MEMB     95       OSM      H2G      HAL2     0.600000E-01   1.00800           0
     12976 MEMB     95       OSM      C3F      CTL2    -0.180000       12.0110           0
     12977 MEMB     95       OSM      H3F      HAL2     0.900000E-01   1.00800           0
     12978 MEMB     95       OSM      H3G      HAL2     0.900000E-01   1.00800           0
     12979 MEMB     95       OSM      C4F      CTL2    -0.180000       12.0110           0
     12980 MEMB     95       OSM      H4F      HAL2     0.900000E-01   1.00800           0
     12981 MEMB     95       OSM      H4G      HAL2     0.900000E-01   1.00800           0
     12982 MEMB     95       OSM      C5F      CTL2    -0.180000       12.0110           0
     12983 MEMB     95       OSM      H5F      HAL2     0.900000E-01   1.00800           0
     12984 MEMB     95       OSM      H5G      HAL2     0.900000E-01   1.00800           0
     12985 MEMB     95       OSM      C6F      CTL2    -0.180000       12.0110           0
     12986 MEMB     95       OSM      H6F      HAL2     0.900000E-01   1.00800           0
     12987 MEMB     95       OSM      H6G      HAL2     0.900000E-01   1.00800           0
     12988 MEMB     95       OSM      C7F      CTL2    -0.180000       12.0110           0
     12989 MEMB     95       OSM      H7F      HAL2     0.900000E-01   1.00800           0
     12990 MEMB     95       OSM      H7G      HAL2     0.900000E-01   1.00800           0
     12991 MEMB     95       OSM      C8F      CTL2    -0.180000       12.0110           0
     12992 MEMB     95       OSM      H8F      HAL2     0.900000E-01   1.00800           0
     12993 MEMB     95       OSM      H8G      HAL2     0.900000E-01   1.00800           0
     12994 MEMB     95       OSM      C9F      CEL1    -0.150000       12.0110           0
     12995 MEMB     95       OSM      H9F      HEL1     0.150000       1.00800           0
     12996 MEMB     95       OSM      C10F     CEL1    -0.150000       12.0110           0
     12997 MEMB     95       OSM      H10F     HEL1     0.150000       1.00800           0
     12998 MEMB     95       OSM      C11F     CTL2    -0.180000       12.0110           0
     12999 MEMB     95       OSM      H11F     HAL2     0.900000E-01   1.00800           0
     13000 MEMB     95       OSM      H11G     HAL2     0.900000E-01   1.00800           0
     13001 MEMB     95       OSM      C12F     CTL2    -0.180000       12.0110           0
     13002 MEMB     95       OSM      H12F     HAL2     0.900000E-01   1.00800           0
     13003 MEMB     95       OSM      H12G     HAL2     0.900000E-01   1.00800           0
     13004 MEMB     95       OSM      C13F     CTL2    -0.180000       12.0110           0
     13005 MEMB     95       OSM      H13F     HAL2     0.900000E-01   1.00800           0
     13006 MEMB     95       OSM      H13G     HAL2     0.900000E-01   1.00800           0
     13007 MEMB     95       OSM      C14F     CTL2    -0.180000       12.0110           0
     13008 MEMB     95       OSM      H14F     HAL2     0.900000E-01   1.00800           0
     13009 MEMB     95       OSM      H14G     HAL2     0.900000E-01   1.00800           0
     13010 MEMB     95       OSM      C15F     CTL2    -0.180000       12.0110           0
     13011 MEMB     95       OSM      H15F     HAL2     0.900000E-01   1.00800           0
     13012 MEMB     95       OSM      H15G     HAL2     0.900000E-01   1.00800           0
     13013 MEMB     95       OSM      C16F     CTL2    -0.180000       12.0110           0
     13014 MEMB     95       OSM      H16F     HAL2     0.900000E-01   1.00800           0
     13015 MEMB     95       OSM      H16G     HAL2     0.900000E-01   1.00800           0
     13016 MEMB     95       OSM      C17F     CTL2    -0.180000       12.0110           0
     13017 MEMB     95       OSM      H17F     HAL2     0.900000E-01   1.00800           0
     13018 MEMB     95       OSM      H17G     HAL2     0.900000E-01   1.00800           0
     13019 MEMB     95       OSM      C18F     CTL3    -0.270000       12.0110           0
     13020 MEMB     95       OSM      H18F     HAL3     0.900000E-01   1.00800           0
     13021 MEMB     95       OSM      H18G     HAL3     0.900000E-01   1.00800           0
     13022 MEMB     95       OSM      H18H     HAL3     0.900000E-01   1.00800           0
     13023 MEMB     101      OSM      N        NTL     -0.600000       14.0070           0
     13024 MEMB     101      OSM      C15      CTL5    -0.350000       12.0110           0
     13025 MEMB     101      OSM      H15A     HL       0.250000       1.00800           0
     13026 MEMB     101      OSM      H15B     HL       0.250000       1.00800           0
     13027 MEMB     101      OSM      H15C     HL       0.250000       1.00800           0
     13028 MEMB     101      OSM      C14      CTL5    -0.350000       12.0110           0
     13029 MEMB     101      OSM      H14A     HL       0.250000       1.00800           0
     13030 MEMB     101      OSM      H14B     HL       0.250000       1.00800           0
     13031 MEMB     101      OSM      H14C     HL       0.250000       1.00800           0
     13032 MEMB     101      OSM      C13      CTL5    -0.350000       12.0110           0
     13033 MEMB     101      OSM      H13A     HL       0.250000       1.00800           0
     13034 MEMB     101      OSM      H13B     HL       0.250000       1.00800           0
     13035 MEMB     101      OSM      H13C     HL       0.250000       1.00800           0
     13036 MEMB     101      OSM      C12      CTL2    -0.100000       12.0110           0
     13037 MEMB     101      OSM      H12A     HL       0.250000       1.00800           0
     13038 MEMB     101      OSM      H12B     HL       0.250000       1.00800           0
     13039 MEMB     101      OSM      C11      CTL2    -0.800000E-01   12.0110           0
     13040 MEMB     101      OSM      H11A     HAL2     0.900000E-01   1.00800           0
     13041 MEMB     101      OSM      H11B     HAL2     0.900000E-01   1.00800           0
     13042 MEMB     101      OSM      P        PL       1.500000       30.9740           0
     13043 MEMB     101      OSM      O13      O2L     -0.780000       15.9994           0
     13044 MEMB     101      OSM      O14      O2L     -0.780000       15.9994           0
     13045 MEMB     101      OSM      O11      OSLP    -0.570000       15.9994           0
     13046 MEMB     101      OSM      O12      OSLP    -0.570000       15.9994           0
     13047 MEMB     101      OSM      C1S      CTL2    -0.800000E-01   12.0110           0
     13048 MEMB     101      OSM      H1S      HAL2     0.900000E-01   1.00800           0
     13049 MEMB     101      OSM      H1T      HAL2     0.900000E-01   1.00800           0
     13050 MEMB     101      OSM      NF       NHL     -0.700000       14.0070           0
     13051 MEMB     101      OSM      HNF      H        0.350000       1.00800           0
     13052 MEMB     101      OSM      C2S      CTL1     0.300000       12.0110           0
     13053 MEMB     101      OSM      H2S      HAL1     0.500000E-01   1.00800           0
     13054 MEMB     101      OSM      C3S      CTO1     0.500000       12.0110           0
     13055 MEMB     101      OSM      H3S      HAL1    -0.110000       1.00800           0
     13056 MEMB     101      OSM      O3       OHL     -0.690000       15.9994           0
     13057 MEMB     101      OSM      HO3      HOL      0.300000       1.00800           0
     13058 MEMB     101      OSM      C4S      CEL3    -0.150000       12.0110           0
     13059 MEMB     101      OSM      H4S      HEL1     0.150000       1.00800           0
     13060 MEMB     101      OSM      C5S      CEL3    -0.150000       12.0110           0
     13061 MEMB     101      OSM      H5S      HEL1     0.150000       1.00800           0
     13062 MEMB     101      OSM      C6S      CTL2    -0.180000       12.0110           0
     13063 MEMB     101      OSM      H6S      HAL2     0.900000E-01   1.00800           0
     13064 MEMB     101      OSM      H6T      HAL2     0.900000E-01   1.00800           0
     13065 MEMB     101      OSM      C7S      CTL2    -0.180000       12.0110           0
     13066 MEMB     101      OSM      H7S      HAL2     0.900000E-01   1.00800           0
     13067 MEMB     101      OSM      H7T      HAL2     0.900000E-01   1.00800           0
     13068 MEMB     101      OSM      C8S      CTL2    -0.180000       12.0110           0
     13069 MEMB     101      OSM      H8S      HAL2     0.900000E-01   1.00800           0
     13070 MEMB     101      OSM      H8T      HAL2     0.900000E-01   1.00800           0
     13071 MEMB     101      OSM      C9S      CTL2    -0.180000       12.0110           0
     13072 MEMB     101      OSM      H9S      HAL2     0.900000E-01   1.00800           0
     13073 MEMB     101      OSM      H9T      HAL2     0.900000E-01   1.00800           0
     13074 MEMB     101      OSM      C10S     CTL2    -0.180000       12.0110           0
     13075 MEMB     101      OSM      H10S     HAL2     0.900000E-01   1.00800           0
     13076 MEMB     101      OSM      H10T     HAL2     0.900000E-01   1.00800           0
     13077 MEMB     101      OSM      C11S     CTL2    -0.180000       12.0110           0
     13078 MEMB     101      OSM      H11S     HAL2     0.900000E-01   1.00800           0
     13079 MEMB     101      OSM      H11T     HAL2     0.900000E-01   1.00800           0
     13080 MEMB     101      OSM      C12S     CTL2    -0.180000       12.0110           0
     13081 MEMB     101      OSM      H12S     HAL2     0.900000E-01   1.00800           0
     13082 MEMB     101      OSM      H12T     HAL2     0.900000E-01   1.00800           0
     13083 MEMB     101      OSM      C13S     CTL2    -0.180000       12.0110           0
     13084 MEMB     101      OSM      H13S     HAL2     0.900000E-01   1.00800           0
     13085 MEMB     101      OSM      H13T     HAL2     0.900000E-01   1.00800           0
     13086 MEMB     101      OSM      C14S     CTL2    -0.180000       12.0110           0
     13087 MEMB     101      OSM      H14S     HAL2     0.900000E-01   1.00800           0
     13088 MEMB     101      OSM      H14T     HAL2     0.900000E-01   1.00800           0
     13089 MEMB     101      OSM      C15S     CTL2    -0.180000       12.0110           0
     13090 MEMB     101      OSM      H15S     HAL2     0.900000E-01   1.00800           0
     13091 MEMB     101      OSM      H15T     HAL2     0.900000E-01   1.00800           0
     13092 MEMB     101      OSM      C16S     CTL2    -0.180000       12.0110           0
     13093 MEMB     101      OSM      H16S     HAL2     0.900000E-01   1.00800           0
     13094 MEMB     101      OSM      H16T     HAL2     0.900000E-01   1.00800           0
     13095 MEMB     101      OSM      C17S     CTL2    -0.180000       12.0110           0
     13096 MEMB     101      OSM      H17S     HAL2     0.900000E-01   1.00800           0
     13097 MEMB     101      OSM      H17T     HAL2     0.900000E-01   1.00800           0
     13098 MEMB     101      OSM      C18S     CTL3    -0.270000       12.0110           0
     13099 MEMB     101      OSM      H18S     HAL3     0.900000E-01   1.00800           0
     13100 MEMB     101      OSM      H18T     HAL3     0.900000E-01   1.00800           0
     13101 MEMB     101      OSM      H18U     HAL3     0.900000E-01   1.00800           0
     13102 MEMB     101      OSM      C1F      C        0.550000       12.0110           0
     13103 MEMB     101      OSM      OF       O       -0.600000       15.9994           0
     13104 MEMB     101      OSM      C2F      CTL2    -0.700000E-01   12.0110           0
     13105 MEMB     101      OSM      H2F      HAL2     0.600000E-01   1.00800           0
     13106 MEMB     101      OSM      H2G      HAL2     0.600000E-01   1.00800           0
     13107 MEMB     101      OSM      C3F      CTL2    -0.180000       12.0110           0
     13108 MEMB     101      OSM      H3F      HAL2     0.900000E-01   1.00800           0
     13109 MEMB     101      OSM      H3G      HAL2     0.900000E-01   1.00800           0
     13110 MEMB     101      OSM      C4F      CTL2    -0.180000       12.0110           0
     13111 MEMB     101      OSM      H4F      HAL2     0.900000E-01   1.00800           0
     13112 MEMB     101      OSM      H4G      HAL2     0.900000E-01   1.00800           0
     13113 MEMB     101      OSM      C5F      CTL2    -0.180000       12.0110           0
     13114 MEMB     101      OSM      H5F      HAL2     0.900000E-01   1.00800           0
     13115 MEMB     101      OSM      H5G      HAL2     0.900000E-01   1.00800           0
     13116 MEMB     101      OSM      C6F      CTL2    -0.180000       12.0110           0
     13117 MEMB     101      OSM      H6F      HAL2     0.900000E-01   1.00800           0
     13118 MEMB     101      OSM      H6G      HAL2     0.900000E-01   1.00800           0
     13119 MEMB     101      OSM      C7F      CTL2    -0.180000       12.0110           0
     13120 MEMB     101      OSM      H7F      HAL2     0.900000E-01   1.00800           0
     13121 MEMB     101      OSM      H7G      HAL2     0.900000E-01   1.00800           0
     13122 MEMB     101      OSM      C8F      CTL2    -0.180000       12.0110           0
     13123 MEMB     101      OSM      H8F      HAL2     0.900000E-01   1.00800           0
     13124 MEMB     101      OSM      H8G      HAL2     0.900000E-01   1.00800           0
     13125 MEMB     101      OSM      C9F      CEL1    -0.150000       12.0110           0
     13126 MEMB     101      OSM      H9F      HEL1     0.150000       1.00800           0
     13127 MEMB     101      OSM      C10F     CEL1    -0.150000       12.0110           0
     13128 MEMB     101      OSM      H10F     HEL1     0.150000       1.00800           0
     13129 MEMB     101      OSM      C11F     CTL2    -0.180000       12.0110           0
     13130 MEMB     101      OSM      H11F     HAL2     0.900000E-01   1.00800           0
     13131 MEMB     101      OSM      H11G     HAL2     0.900000E-01   1.00800           0
     13132 MEMB     101      OSM      C12F     CTL2    -0.180000       12.0110           0
     13133 MEMB     101      OSM      H12F     HAL2     0.900000E-01   1.00800           0
     13134 MEMB     101      OSM      H12G     HAL2     0.900000E-01   1.00800           0
     13135 MEMB     101      OSM      C13F     CTL2    -0.180000       12.0110           0
     13136 MEMB     101      OSM      H13F     HAL2     0.900000E-01   1.00800           0
     13137 MEMB     101      OSM      H13G     HAL2     0.900000E-01   1.00800           0
     13138 MEMB     101      OSM      C14F     CTL2    -0.180000       12.0110           0
     13139 MEMB     101      OSM      H14F     HAL2     0.900000E-01   1.00800           0
     13140 MEMB     101      OSM      H14G     HAL2     0.900000E-01   1.00800           0
     13141 MEMB     101      OSM      C15F     CTL2    -0.180000       12.0110           0
     13142 MEMB     101      OSM      H15F     HAL2     0.900000E-01   1.00800           0
     13143 MEMB     101      OSM      H15G     HAL2     0.900000E-01   1.00800           0
     13144 MEMB     101      OSM      C16F     CTL2    -0.180000       12.0110           0
     13145 MEMB     101      OSM      H16F     HAL2     0.900000E-01   1.00800           0
     13146 MEMB     101      OSM      H16G     HAL2     0.900000E-01   1.00800           0
     13147 MEMB     101      OSM      C17F     CTL2    -0.180000       12.0110           0
     13148 MEMB     101      OSM      H17F     HAL2     0.900000E-01   1.00800           0
     13149 MEMB     101      OSM      H17G     HAL2     0.900000E-01   1.00800           0
     13150 MEMB     101      OSM      C18F     CTL3    -0.270000       12.0110           0
     13151 MEMB     101      OSM      H18F     HAL3     0.900000E-01   1.00800           0
     13152 MEMB     101      OSM      H18G     HAL3     0.900000E-01   1.00800           0
     13153 MEMB     101      OSM      H18H     HAL3     0.900000E-01   1.00800           0
     13154 MEMB     115      OSM      N        NTL     -0.600000       14.0070           0
     13155 MEMB     115      OSM      C15      CTL5    -0.350000       12.0110           0
     13156 MEMB     115      OSM      H15A     HL       0.250000       1.00800           0
     13157 MEMB     115      OSM      H15B     HL       0.250000       1.00800           0
     13158 MEMB     115      OSM      H15C     HL       0.250000       1.00800           0
     13159 MEMB     115      OSM      C14      CTL5    -0.350000       12.0110           0
     13160 MEMB     115      OSM      H14A     HL       0.250000       1.00800           0
     13161 MEMB     115      OSM      H14B     HL       0.250000       1.00800           0
     13162 MEMB     115      OSM      H14C     HL       0.250000       1.00800           0
     13163 MEMB     115      OSM      C13      CTL5    -0.350000       12.0110           0
     13164 MEMB     115      OSM      H13A     HL       0.250000       1.00800           0
     13165 MEMB     115      OSM      H13B     HL       0.250000       1.00800           0
     13166 MEMB     115      OSM      H13C     HL       0.250000       1.00800           0
     13167 MEMB     115      OSM      C12      CTL2    -0.100000       12.0110           0
     13168 MEMB     115      OSM      H12A     HL       0.250000       1.00800           0
     13169 MEMB     115      OSM      H12B     HL       0.250000       1.00800           0
     13170 MEMB     115      OSM      C11      CTL2    -0.800000E-01   12.0110           0
     13171 MEMB     115      OSM      H11A     HAL2     0.900000E-01   1.00800           0
     13172 MEMB     115      OSM      H11B     HAL2     0.900000E-01   1.00800           0
     13173 MEMB     115      OSM      P        PL       1.500000       30.9740           0
     13174 MEMB     115      OSM      O13      O2L     -0.780000       15.9994           0
     13175 MEMB     115      OSM      O14      O2L     -0.780000       15.9994           0
     13176 MEMB     115      OSM      O11      OSLP    -0.570000       15.9994           0
     13177 MEMB     115      OSM      O12      OSLP    -0.570000       15.9994           0
     13178 MEMB     115      OSM      C1S      CTL2    -0.800000E-01   12.0110           0
     13179 MEMB     115      OSM      H1S      HAL2     0.900000E-01   1.00800           0
     13180 MEMB     115      OSM      H1T      HAL2     0.900000E-01   1.00800           0
     13181 MEMB     115      OSM      NF       NHL     -0.700000       14.0070           0
     13182 MEMB     115      OSM      HNF      H        0.350000       1.00800           0
     13183 MEMB     115      OSM      C2S      CTL1     0.300000       12.0110           0
     13184 MEMB     115      OSM      H2S      HAL1     0.500000E-01   1.00800           0
     13185 MEMB     115      OSM      C3S      CTO1     0.500000       12.0110           0
     13186 MEMB     115      OSM      H3S      HAL1    -0.110000       1.00800           0
     13187 MEMB     115      OSM      O3       OHL     -0.690000       15.9994           0
     13188 MEMB     115      OSM      HO3      HOL      0.300000       1.00800           0
     13189 MEMB     115      OSM      C4S      CEL3    -0.150000       12.0110           0
     13190 MEMB     115      OSM      H4S      HEL1     0.150000       1.00800           0
     13191 MEMB     115      OSM      C5S      CEL3    -0.150000       12.0110           0
     13192 MEMB     115      OSM      H5S      HEL1     0.150000       1.00800           0
     13193 MEMB     115      OSM      C6S      CTL2    -0.180000       12.0110           0
     13194 MEMB     115      OSM      H6S      HAL2     0.900000E-01   1.00800           0
     13195 MEMB     115      OSM      H6T      HAL2     0.900000E-01   1.00800           0
     13196 MEMB     115      OSM      C7S      CTL2    -0.180000       12.0110           0
     13197 MEMB     115      OSM      H7S      HAL2     0.900000E-01   1.00800           0
     13198 MEMB     115      OSM      H7T      HAL2     0.900000E-01   1.00800           0
     13199 MEMB     115      OSM      C8S      CTL2    -0.180000       12.0110           0
     13200 MEMB     115      OSM      H8S      HAL2     0.900000E-01   1.00800           0
     13201 MEMB     115      OSM      H8T      HAL2     0.900000E-01   1.00800           0
     13202 MEMB     115      OSM      C9S      CTL2    -0.180000       12.0110           0
     13203 MEMB     115      OSM      H9S      HAL2     0.900000E-01   1.00800           0
     13204 MEMB     115      OSM      H9T      HAL2     0.900000E-01   1.00800           0
     13205 MEMB     115      OSM      C10S     CTL2    -0.180000       12.0110           0
     13206 MEMB     115      OSM      H10S     HAL2     0.900000E-01   1.00800           0
     13207 MEMB     115      OSM      H10T     HAL2     0.900000E-01   1.00800           0
     13208 MEMB     115      OSM      C11S     CTL2    -0.180000       12.0110           0
     13209 MEMB     115      OSM      H11S     HAL2     0.900000E-01   1.00800           0
     13210 MEMB     115      OSM      H11T     HAL2     0.900000E-01   1.00800           0
     13211 MEMB     115      OSM      C12S     CTL2    -0.180000       12.0110           0
     13212 MEMB     115      OSM      H12S     HAL2     0.900000E-01   1.00800           0
     13213 MEMB     115      OSM      H12T     HAL2     0.900000E-01   1.00800           0
     13214 MEMB     115      OSM      C13S     CTL2    -0.180000       12.0110           0
     13215 MEMB     115      OSM      H13S     HAL2     0.900000E-01   1.00800           0
     13216 MEMB     115      OSM      H13T     HAL2     0.900000E-01   1.00800           0
     13217 MEMB     115      OSM      C14S     CTL2    -0.180000       12.0110           0
     13218 MEMB     115      OSM      H14S     HAL2     0.900000E-01   1.00800           0
     13219 MEMB     115      OSM      H14T     HAL2     0.900000E-01   1.00800           0
     13220 MEMB     115      OSM      C15S     CTL2    -0.180000       12.0110           0
     13221 MEMB     115      OSM      H15S     HAL2     0.900000E-01   1.00800           0
     13222 MEMB     115      OSM      H15T     HAL2     0.900000E-01   1.00800           0
     13223 MEMB     115      OSM      C16S     CTL2    -0.180000       12.0110           0
     13224 MEMB     115      OSM      H16S     HAL2     0.900000E-01   1.00800           0
     13225 MEMB     115      OSM      H16T     HAL2     0.900000E-01   1.00800           0
     13226 MEMB     115      OSM      C17S     CTL2    -0.180000       12.0110           0
     13227 MEMB     115      OSM      H17S     HAL2     0.900000E-01   1.00800           0
     13228 MEMB     115      OSM      H17T     HAL2     0.900000E-01   1.00800           0
     13229 MEMB     115      OSM      C18S     CTL3    -0.270000       12.0110           0
     13230 MEMB     115      OSM      H18S     HAL3     0.900000E-01   1.00800           0
     13231 MEMB     115      OSM      H18T     HAL3     0.900000E-01   1.00800           0
     13232 MEMB     115      OSM      H18U     HAL3     0.900000E-01   1.00800           0
     13233 MEMB     115      OSM      C1F      C        0.550000       12.0110           0
     13234 MEMB     115      OSM      OF       O       -0.600000       15.9994           0
     13235 MEMB     115      OSM      C2F      CTL2    -0.700000E-01   12.0110           0
     13236 MEMB     115      OSM      H2F      HAL2     0.600000E-01   1.00800           0
     13237 MEMB     115      OSM      H2G      HAL2     0.600000E-01   1.00800           0
     13238 MEMB     115      OSM      C3F      CTL2    -0.180000       12.0110           0
     13239 MEMB     115      OSM      H3F      HAL2     0.900000E-01   1.00800           0
     13240 MEMB     115      OSM      H3G      HAL2     0.900000E-01   1.00800           0
     13241 MEMB     115      OSM      C4F      CTL2    -0.180000       12.0110           0
     13242 MEMB     115      OSM      H4F      HAL2     0.900000E-01   1.00800           0
     13243 MEMB     115      OSM      H4G      HAL2     0.900000E-01   1.00800           0
     13244 MEMB     115      OSM      C5F      CTL2    -0.180000       12.0110           0
     13245 MEMB     115      OSM      H5F      HAL2     0.900000E-01   1.00800           0
     13246 MEMB     115      OSM      H5G      HAL2     0.900000E-01   1.00800           0
     13247 MEMB     115      OSM      C6F      CTL2    -0.180000       12.0110           0
     13248 MEMB     115      OSM      H6F      HAL2     0.900000E-01   1.00800           0
     13249 MEMB     115      OSM      H6G      HAL2     0.900000E-01   1.00800           0
     13250 MEMB     115      OSM      C7F      CTL2    -0.180000       12.0110           0
     13251 MEMB     115      OSM      H7F      HAL2     0.900000E-01   1.00800           0
     13252 MEMB     115      OSM      H7G      HAL2     0.900000E-01   1.00800           0
     13253 MEMB     115      OSM      C8F      CTL2    -0.180000       12.0110           0
     13254 MEMB     115      OSM      H8F      HAL2     0.900000E-01   1.00800           0
     13255 MEMB     115      OSM      H8G      HAL2     0.900000E-01   1.00800           0
     13256 MEMB     115      OSM      C9F      CEL1    -0.150000       12.0110           0
     13257 MEMB     115      OSM      H9F      HEL1     0.150000       1.00800           0
     13258 MEMB     115      OSM      C10F     CEL1    -0.150000       12.0110           0
     13259 MEMB     115      OSM      H10F     HEL1     0.150000       1.00800           0
     13260 MEMB     115      OSM      C11F     CTL2    -0.180000       12.0110           0
     13261 MEMB     115      OSM      H11F     HAL2     0.900000E-01   1.00800           0
     13262 MEMB     115      OSM      H11G     HAL2     0.900000E-01   1.00800           0
     13263 MEMB     115      OSM      C12F     CTL2    -0.180000       12.0110           0
     13264 MEMB     115      OSM      H12F     HAL2     0.900000E-01   1.00800           0
     13265 MEMB     115      OSM      H12G     HAL2     0.900000E-01   1.00800           0
     13266 MEMB     115      OSM      C13F     CTL2    -0.180000       12.0110           0
     13267 MEMB     115      OSM      H13F     HAL2     0.900000E-01   1.00800           0
     13268 MEMB     115      OSM      H13G     HAL2     0.900000E-01   1.00800           0
     13269 MEMB     115      OSM      C14F     CTL2    -0.180000       12.0110           0
     13270 MEMB     115      OSM      H14F     HAL2     0.900000E-01   1.00800           0
     13271 MEMB     115      OSM      H14G     HAL2     0.900000E-01   1.00800           0
     13272 MEMB     115      OSM      C15F     CTL2    -0.180000       12.0110           0
     13273 MEMB     115      OSM      H15F     HAL2     0.900000E-01   1.00800           0
     13274 MEMB     115      OSM      H15G     HAL2     0.900000E-01   1.00800           0
     13275 MEMB     115      OSM      C16F     CTL2    -0.180000       12.0110           0
     13276 MEMB     115      OSM      H16F     HAL2     0.900000E-01   1.00800           0
     13277 MEMB     115      OSM      H16G     HAL2     0.900000E-01   1.00800           0
     13278 MEMB     115      OSM      C17F     CTL2    -0.180000       12.0110           0
     13279 MEMB     115      OSM      H17F     HAL2     0.900000E-01   1.00800           0
     13280 MEMB     115      OSM      H17G     HAL2     0.900000E-01   1.00800           0
     13281 MEMB     115      OSM      C18F     CTL3    -0.270000       12.0110           0
     13282 MEMB     115      OSM      H18F     HAL3     0.900000E-01   1.00800           0
     13283 MEMB     115      OSM      H18G     HAL3     0.900000E-01   1.00800           0
     13284 MEMB     115      OSM      H18H     HAL3     0.900000E-01   1.00800           0
     13285 MEMB     116      OSM      N        NTL     -0.600000       14.0070           0
     13286 MEMB     116      OSM      C15      CTL5    -0.350000       12.0110           0
     13287 MEMB     116      OSM      H15A     HL       0.250000       1.00800           0
     13288 MEMB     116      OSM      H15B     HL       0.250000       1.00800           0
     13289 MEMB     116      OSM      H15C     HL       0.250000       1.00800           0
     13290 MEMB     116      OSM      C14      CTL5    -0.350000       12.0110           0
     13291 MEMB     116      OSM      H14A     HL       0.250000       1.00800           0
     13292 MEMB     116      OSM      H14B     HL       0.250000       1.00800           0
     13293 MEMB     116      OSM      H14C     HL       0.250000       1.00800           0
     13294 MEMB     116      OSM      C13      CTL5    -0.350000       12.0110           0
     13295 MEMB     116      OSM      H13A     HL       0.250000       1.00800           0
     13296 MEMB     116      OSM      H13B     HL       0.250000       1.00800           0
     13297 MEMB     116      OSM      H13C     HL       0.250000       1.00800           0
     13298 MEMB     116      OSM      C12      CTL2    -0.100000       12.0110           0
     13299 MEMB     116      OSM      H12A     HL       0.250000       1.00800           0
     13300 MEMB     116      OSM      H12B     HL       0.250000       1.00800           0
     13301 MEMB     116      OSM      C11      CTL2    -0.800000E-01   12.0110           0
     13302 MEMB     116      OSM      H11A     HAL2     0.900000E-01   1.00800           0
     13303 MEMB     116      OSM      H11B     HAL2     0.900000E-01   1.00800           0
     13304 MEMB     116      OSM      P        PL       1.500000       30.9740           0
     13305 MEMB     116      OSM      O13      O2L     -0.780000       15.9994           0
     13306 MEMB     116      OSM      O14      O2L     -0.780000       15.9994           0
     13307 MEMB     116      OSM      O11      OSLP    -0.570000       15.9994           0
     13308 MEMB     116      OSM      O12      OSLP    -0.570000       15.9994           0
     13309 MEMB     116      OSM      C1S      CTL2    -0.800000E-01   12.0110           0
     13310 MEMB     116      OSM      H1S      HAL2     0.900000E-01   1.00800           0
     13311 MEMB     116      OSM      H1T      HAL2     0.900000E-01   1.00800           0
     13312 MEMB     116      OSM      NF       NHL     -0.700000       14.0070           0
     13313 MEMB     116      OSM      HNF      H        0.350000       1.00800           0
     13314 MEMB     116      OSM      C2S      CTL1     0.300000       12.0110           0
     13315 MEMB     116      OSM      H2S      HAL1     0.500000E-01   1.00800           0
     13316 MEMB     116      OSM      C3S      CTO1     0.500000       12.0110           0
     13317 MEMB     116      OSM      H3S      HAL1    -0.110000       1.00800           0
     13318 MEMB     116      OSM      O3       OHL     -0.690000       15.9994           0
     13319 MEMB     116      OSM      HO3      HOL      0.300000       1.00800           0
     13320 MEMB     116      OSM      C4S      CEL3    -0.150000       12.0110           0
     13321 MEMB     116      OSM      H4S      HEL1     0.150000       1.00800           0
     13322 MEMB     116      OSM      C5S      CEL3    -0.150000       12.0110           0
     13323 MEMB     116      OSM      H5S      HEL1     0.150000       1.00800           0
     13324 MEMB     116      OSM      C6S      CTL2    -0.180000       12.0110           0
     13325 MEMB     116      OSM      H6S      HAL2     0.900000E-01   1.00800           0
     13326 MEMB     116      OSM      H6T      HAL2     0.900000E-01   1.00800           0
     13327 MEMB     116      OSM      C7S      CTL2    -0.180000       12.0110           0
     13328 MEMB     116      OSM      H7S      HAL2     0.900000E-01   1.00800           0
     13329 MEMB     116      OSM      H7T      HAL2     0.900000E-01   1.00800           0
     13330 MEMB     116      OSM      C8S      CTL2    -0.180000       12.0110           0
     13331 MEMB     116      OSM      H8S      HAL2     0.900000E-01   1.00800           0
     13332 MEMB     116      OSM      H8T      HAL2     0.900000E-01   1.00800           0
     13333 MEMB     116      OSM      C9S      CTL2    -0.180000       12.0110           0
     13334 MEMB     116      OSM      H9S      HAL2     0.900000E-01   1.00800           0
     13335 MEMB     116      OSM      H9T      HAL2     0.900000E-01   1.00800           0
     13336 MEMB     116      OSM      C10S     CTL2    -0.180000       12.0110           0
     13337 MEMB     116      OSM      H10S     HAL2     0.900000E-01   1.00800           0
     13338 MEMB     116      OSM      H10T     HAL2     0.900000E-01   1.00800           0
     13339 MEMB     116      OSM      C11S     CTL2    -0.180000       12.0110           0
     13340 MEMB     116      OSM      H11S     HAL2     0.900000E-01   1.00800           0
     13341 MEMB     116      OSM      H11T     HAL2     0.900000E-01   1.00800           0
     13342 MEMB     116      OSM      C12S     CTL2    -0.180000       12.0110           0
     13343 MEMB     116      OSM      H12S     HAL2     0.900000E-01   1.00800           0
     13344 MEMB     116      OSM      H12T     HAL2     0.900000E-01   1.00800           0
     13345 MEMB     116      OSM      C13S     CTL2    -0.180000       12.0110           0
     13346 MEMB     116      OSM      H13S     HAL2     0.900000E-01   1.00800           0
     13347 MEMB     116      OSM      H13T     HAL2     0.900000E-01   1.00800           0
     13348 MEMB     116      OSM      C14S     CTL2    -0.180000       12.0110           0
     13349 MEMB     116      OSM      H14S     HAL2     0.900000E-01   1.00800           0
     13350 MEMB     116      OSM      H14T     HAL2     0.900000E-01   1.00800           0
     13351 MEMB     116      OSM      C15S     CTL2    -0.180000       12.0110           0
     13352 MEMB     116      OSM      H15S     HAL2     0.900000E-01   1.00800           0
     13353 MEMB     116      OSM      H15T     HAL2     0.900000E-01   1.00800           0
     13354 MEMB     116      OSM      C16S     CTL2    -0.180000       12.0110           0
     13355 MEMB     116      OSM      H16S     HAL2     0.900000E-01   1.00800           0
     13356 MEMB     116      OSM      H16T     HAL2     0.900000E-01   1.00800           0
     13357 MEMB     116      OSM      C17S     CTL2    -0.180000       12.0110           0
     13358 MEMB     116      OSM      H17S     HAL2     0.900000E-01   1.00800           0
     13359 MEMB     116      OSM      H17T     HAL2     0.900000E-01   1.00800           0
     13360 MEMB     116      OSM      C18S     CTL3    -0.270000       12.0110           0
     13361 MEMB     116      OSM      H18S     HAL3     0.900000E-01   1.00800           0
     13362 MEMB     116      OSM      H18T     HAL3     0.900000E-01   1.00800           0
     13363 MEMB     116      OSM      H18U     HAL3     0.900000E-01   1.00800           0
     13364 MEMB     116      OSM      C1F      C        0.550000       12.0110           0
     13365 MEMB     116      OSM      OF       O       -0.600000       15.9994           0
     13366 MEMB     116      OSM      C2F      CTL2    -0.700000E-01   12.0110           0
     13367 MEMB     116      OSM      H2F      HAL2     0.600000E-01   1.00800           0
     13368 MEMB     116      OSM      H2G      HAL2     0.600000E-01   1.00800           0
     13369 MEMB     116      OSM      C3F      CTL2    -0.180000       12.0110           0
     13370 MEMB     116      OSM      H3F      HAL2     0.900000E-01   1.00800           0
     13371 MEMB     116      OSM      H3G      HAL2     0.900000E-01   1.00800           0
     13372 MEMB     116      OSM      C4F      CTL2    -0.180000       12.0110           0
     13373 MEMB     116      OSM      H4F      HAL2     0.900000E-01   1.00800           0
     13374 MEMB     116      OSM      H4G      HAL2     0.900000E-01   1.00800           0
     13375 MEMB     116      OSM      C5F      CTL2    -0.180000       12.0110           0
     13376 MEMB     116      OSM      H5F      HAL2     0.900000E-01   1.00800           0
     13377 MEMB     116      OSM      H5G      HAL2     0.900000E-01   1.00800           0
     13378 MEMB     116      OSM      C6F      CTL2    -0.180000       12.0110           0
     13379 MEMB     116      OSM      H6F      HAL2     0.900000E-01   1.00800           0
     13380 MEMB     116      OSM      H6G      HAL2     0.900000E-01   1.00800           0
     13381 MEMB     116      OSM      C7F      CTL2    -0.180000       12.0110           0
     13382 MEMB     116      OSM      H7F      HAL2     0.900000E-01   1.00800           0
     13383 MEMB     116      OSM      H7G      HAL2     0.900000E-01   1.00800           0
     13384 MEMB     116      OSM      C8F      CTL2    -0.180000       12.0110           0
     13385 MEMB     116      OSM      H8F      HAL2     0.900000E-01   1.00800           0
     13386 MEMB     116      OSM      H8G      HAL2     0.900000E-01   1.00800           0
     13387 MEMB     116      OSM      C9F      CEL1    -0.150000       12.0110           0
     13388 MEMB     116      OSM      H9F      HEL1     0.150000       1.00800           0
     13389 MEMB     116      OSM      C10F     CEL1    -0.150000       12.0110           0
     13390 MEMB     116      OSM      H10F     HEL1     0.150000       1.00800           0
     13391 MEMB     116      OSM      C11F     CTL2    -0.180000       12.0110           0
     13392 MEMB     116      OSM      H11F     HAL2     0.900000E-01   1.00800           0
     13393 MEMB     116      OSM      H11G     HAL2     0.900000E-01   1.00800           0
     13394 MEMB     116      OSM      C12F     CTL2    -0.180000       12.0110           0
     13395 MEMB     116      OSM      H12F     HAL2     0.900000E-01   1.00800           0
     13396 MEMB     116      OSM      H12G     HAL2     0.900000E-01   1.00800           0
     13397 MEMB     116      OSM      C13F     CTL2    -0.180000       12.0110           0
     13398 MEMB     116      OSM      H13F     HAL2     0.900000E-01   1.00800           0
     13399 MEMB     116      OSM      H13G     HAL2     0.900000E-01   1.00800           0
     13400 MEMB     116      OSM      C14F     CTL2    -0.180000       12.0110           0
     13401 MEMB     116      OSM      H14F     HAL2     0.900000E-01   1.00800           0
     13402 MEMB     116      OSM      H14G     HAL2     0.900000E-01   1.00800           0
     13403 MEMB     116      OSM      C15F     CTL2    -0.180000       12.0110           0
     13404 MEMB     116      OSM      H15F     HAL2     0.900000E-01   1.00800           0
     13405 MEMB     116      OSM      H15G     HAL2     0.900000E-01   1.00800           0
     13406 MEMB     116      OSM      C16F     CTL2    -0.180000       12.0110           0
     13407 MEMB     116      OSM      H16F     HAL2     0.900000E-01   1.00800           0
     13408 MEMB     116      OSM      H16G     HAL2     0.900000E-01   1.00800           0
     13409 MEMB     116      OSM      C17F     CTL2    -0.180000       12.0110           0
     13410 MEMB     116      OSM      H17F     HAL2     0.900000E-01   1.00800           0
     13411 MEMB     116      OSM      H17G     HAL2     0.900000E-01   1.00800           0
     13412 MEMB     116      OSM      C18F     CTL3    -0.270000       12.0110           0
     13413 MEMB     116      OSM      H18F     HAL3     0.900000E-01   1.00800           0
     13414 MEMB     116      OSM      H18G     HAL3     0.900000E-01   1.00800           0
     13415 MEMB     116      OSM      H18H     HAL3     0.900000E-01   1.00800           0
     13416 MEMB     117      OSM      N        NTL     -0.600000       14.0070           0
     13417 MEMB     117      OSM      C15      CTL5    -0.350000       12.0110           0
     13418 MEMB     117      OSM      H15A     HL       0.250000       1.00800           0
     13419 MEMB     117      OSM      H15B     HL       0.250000       1.00800           0
     13420 MEMB     117      OSM      H15C     HL       0.250000       1.00800           0
     13421 MEMB     117      OSM      C14      CTL5    -0.350000       12.0110           0
     13422 MEMB     117      OSM      H14A     HL       0.250000       1.00800           0
     13423 MEMB     117      OSM      H14B     HL       0.250000       1.00800           0
     13424 MEMB     117      OSM      H14C     HL       0.250000       1.00800           0
     13425 MEMB     117      OSM      C13      CTL5    -0.350000       12.0110           0
     13426 MEMB     117      OSM      H13A     HL       0.250000       1.00800           0
     13427 MEMB     117      OSM      H13B     HL       0.250000       1.00800           0
     13428 MEMB     117      OSM      H13C     HL       0.250000       1.00800           0
     13429 MEMB     117      OSM      C12      CTL2    -0.100000       12.0110           0
     13430 MEMB     117      OSM      H12A     HL       0.250000       1.00800           0
     13431 MEMB     117      OSM      H12B     HL       0.250000       1.00800           0
     13432 MEMB     117      OSM      C11      CTL2    -0.800000E-01   12.0110           0
     13433 MEMB     117      OSM      H11A     HAL2     0.900000E-01   1.00800           0
     13434 MEMB     117      OSM      H11B     HAL2     0.900000E-01   1.00800           0
     13435 MEMB     117      OSM      P        PL       1.500000       30.9740           0
     13436 MEMB     117      OSM      O13      O2L     -0.780000       15.9994           0
     13437 MEMB     117      OSM      O14      O2L     -0.780000       15.9994           0
     13438 MEMB     117      OSM      O11      OSLP    -0.570000       15.9994           0
     13439 MEMB     117      OSM      O12      OSLP    -0.570000       15.9994           0
     13440 MEMB     117      OSM      C1S      CTL2    -0.800000E-01   12.0110           0
     13441 MEMB     117      OSM      H1S      HAL2     0.900000E-01   1.00800           0
     13442 MEMB     117      OSM      H1T      HAL2     0.900000E-01   1.00800           0
     13443 MEMB     117      OSM      NF       NHL     -0.700000       14.0070           0
     13444 MEMB     117      OSM      HNF      H        0.350000       1.00800           0
     13445 MEMB     117      OSM      C2S      CTL1     0.300000       12.0110           0
     13446 MEMB     117      OSM      H2S      HAL1     0.500000E-01   1.00800           0
     13447 MEMB     117      OSM      C3S      CTO1     0.500000       12.0110           0
     13448 MEMB     117      OSM      H3S      HAL1    -0.110000       1.00800           0
     13449 MEMB     117      OSM      O3       OHL     -0.690000       15.9994           0
     13450 MEMB     117      OSM      HO3      HOL      0.300000       1.00800           0
     13451 MEMB     117      OSM      C4S      CEL3    -0.150000       12.0110           0
     13452 MEMB     117      OSM      H4S      HEL1     0.150000       1.00800           0
     13453 MEMB     117      OSM      C5S      CEL3    -0.150000       12.0110           0
     13454 MEMB     117      OSM      H5S      HEL1     0.150000       1.00800           0
     13455 MEMB     117      OSM      C6S      CTL2    -0.180000       12.0110           0
     13456 MEMB     117      OSM      H6S      HAL2     0.900000E-01   1.00800           0
     13457 MEMB     117      OSM      H6T      HAL2     0.900000E-01   1.00800           0
     13458 MEMB     117      OSM      C7S      CTL2    -0.180000       12.0110           0
     13459 MEMB     117      OSM      H7S      HAL2     0.900000E-01   1.00800           0
     13460 MEMB     117      OSM      H7T      HAL2     0.900000E-01   1.00800           0
     13461 MEMB     117      OSM      C8S      CTL2    -0.180000       12.0110           0
     13462 MEMB     117      OSM      H8S      HAL2     0.900000E-01   1.00800           0
     13463 MEMB     117      OSM      H8T      HAL2     0.900000E-01   1.00800           0
     13464 MEMB     117      OSM      C9S      CTL2    -0.180000       12.0110           0
     13465 MEMB     117      OSM      H9S      HAL2     0.900000E-01   1.00800           0
     13466 MEMB     117      OSM      H9T      HAL2     0.900000E-01   1.00800           0
     13467 MEMB     117      OSM      C10S     CTL2    -0.180000       12.0110           0
     13468 MEMB     117      OSM      H10S     HAL2     0.900000E-01   1.00800           0
     13469 MEMB     117      OSM      H10T     HAL2     0.900000E-01   1.00800           0
     13470 MEMB     117      OSM      C11S     CTL2    -0.180000       12.0110           0
     13471 MEMB     117      OSM      H11S     HAL2     0.900000E-01   1.00800           0
     13472 MEMB     117      OSM      H11T     HAL2     0.900000E-01   1.00800           0
     13473 MEMB     117      OSM      C12S     CTL2    -0.180000       12.0110           0
     13474 MEMB     117      OSM      H12S     HAL2     0.900000E-01   1.00800           0
     13475 MEMB     117      OSM      H12T     HAL2     0.900000E-01   1.00800           0
     13476 MEMB     117      OSM      C13S     CTL2    -0.180000       12.0110           0
     13477 MEMB     117      OSM      H13S     HAL2     0.900000E-01   1.00800           0
     13478 MEMB     117      OSM      H13T     HAL2     0.900000E-01   1.00800           0
     13479 MEMB     117      OSM      C14S     CTL2    -0.180000       12.0110           0
     13480 MEMB     117      OSM      H14S     HAL2     0.900000E-01   1.00800           0
     13481 MEMB     117      OSM      H14T     HAL2     0.900000E-01   1.00800           0
     13482 MEMB     117      OSM      C15S     CTL2    -0.180000       12.0110           0
     13483 MEMB     117      OSM      H15S     HAL2     0.900000E-01   1.00800           0
     13484 MEMB     117      OSM      H15T     HAL2     0.900000E-01   1.00800           0
     13485 MEMB     117      OSM      C16S     CTL2    -0.180000       12.0110           0
     13486 MEMB     117      OSM      H16S     HAL2     0.900000E-01   1.00800           0
     13487 MEMB     117      OSM      H16T     HAL2     0.900000E-01   1.00800           0
     13488 MEMB     117      OSM      C17S     CTL2    -0.180000       12.0110           0
     13489 MEMB     117      OSM      H17S     HAL2     0.900000E-01   1.00800           0
     13490 MEMB     117      OSM      H17T     HAL2     0.900000E-01   1.00800           0
     13491 MEMB     117      OSM      C18S     CTL3    -0.270000       12.0110           0
     13492 MEMB     117      OSM      H18S     HAL3     0.900000E-01   1.00800           0
     13493 MEMB     117      OSM      H18T     HAL3     0.900000E-01   1.00800           0
     13494 MEMB     117      OSM      H18U     HAL3     0.900000E-01   1.00800           0
     13495 MEMB     117      OSM      C1F      C        0.550000       12.0110           0
     13496 MEMB     117      OSM      OF       O       -0.600000       15.9994           0
     13497 MEMB     117      OSM      C2F      CTL2    -0.700000E-01   12.0110           0
     13498 MEMB     117      OSM      H2F      HAL2     0.600000E-01   1.00800           0
     13499 MEMB     117      OSM      H2G      HAL2     0.600000E-01   1.00800           0
     13500 MEMB     117      OSM      C3F      CTL2    -0.180000       12.0110           0
     13501 MEMB     117      OSM      H3F      HAL2     0.900000E-01   1.00800           0
     13502 MEMB     117      OSM      H3G      HAL2     0.900000E-01   1.00800           0
     13503 MEMB     117      OSM      C4F      CTL2    -0.180000       12.0110           0
     13504 MEMB     117      OSM      H4F      HAL2     0.900000E-01   1.00800           0
     13505 MEMB     117      OSM      H4G      HAL2     0.900000E-01   1.00800           0
     13506 MEMB     117      OSM      C5F      CTL2    -0.180000       12.0110           0
     13507 MEMB     117      OSM      H5F      HAL2     0.900000E-01   1.00800           0
     13508 MEMB     117      OSM      H5G      HAL2     0.900000E-01   1.00800           0
     13509 MEMB     117      OSM      C6F      CTL2    -0.180000       12.0110           0
     13510 MEMB     117      OSM      H6F      HAL2     0.900000E-01   1.00800           0
     13511 MEMB     117      OSM      H6G      HAL2     0.900000E-01   1.00800           0
     13512 MEMB     117      OSM      C7F      CTL2    -0.180000       12.0110           0
     13513 MEMB     117      OSM      H7F      HAL2     0.900000E-01   1.00800           0
     13514 MEMB     117      OSM      H7G      HAL2     0.900000E-01   1.00800           0
     13515 MEMB     117      OSM      C8F      CTL2    -0.180000       12.0110           0
     13516 MEMB     117      OSM      H8F      HAL2     0.900000E-01   1.00800           0
     13517 MEMB     117      OSM      H8G      HAL2     0.900000E-01   1.00800           0
     13518 MEMB     117      OSM      C9F      CEL1    -0.150000       12.0110           0
     13519 MEMB     117      OSM      H9F      HEL1     0.150000       1.00800           0
     13520 MEMB     117      OSM      C10F     CEL1    -0.150000       12.0110           0
     13521 MEMB     117      OSM      H10F     HEL1     0.150000       1.00800           0
     13522 MEMB     117      OSM      C11F     CTL2    -0.180000       12.0110           0
     13523 MEMB     117      OSM      H11F     HAL2     0.900000E-01   1.00800           0
     13524 MEMB     117      OSM      H11G     HAL2     0.900000E-01   1.00800           0
     13525 MEMB     117      OSM      C12F     CTL2    -0.180000       12.0110           0
     13526 MEMB     117      OSM      H12F     HAL2     0.900000E-01   1.00800           0
     13527 MEMB     117      OSM      H12G     HAL2     0.900000E-01   1.00800           0
     13528 MEMB     117      OSM      C13F     CTL2    -0.180000       12.0110           0
     13529 MEMB     117      OSM      H13F     HAL2     0.900000E-01   1.00800           0
     13530 MEMB     117      OSM      H13G     HAL2     0.900000E-01   1.00800           0
     13531 MEMB     117      OSM      C14F     CTL2    -0.180000       12.0110           0
     13532 MEMB     117      OSM      H14F     HAL2     0.900000E-01   1.00800           0
     13533 MEMB     117      OSM      H14G     HAL2     0.900000E-01   1.00800           0
     13534 MEMB     117      OSM      C15F     CTL2    -0.180000       12.0110           0
     13535 MEMB     117      OSM      H15F     HAL2     0.900000E-01   1.00800           0
     13536 MEMB     117      OSM      H15G     HAL2     0.900000E-01   1.00800           0
     13537 MEMB     117      OSM      C16F     CTL2    -0.180000       12.0110           0
     13538 MEMB     117      OSM      H16F     HAL2     0.900000E-01   1.00800           0
     13539 MEMB     117      OSM      H16G     HAL2     0.900000E-01   1.00800           0
     13540 MEMB     117      OSM      C17F     CTL2    -0.180000       12.0110           0
     13541 MEMB     117      OSM      H17F     HAL2     0.900000E-01   1.00800           0
     13542 MEMB     117      OSM      H17G     HAL2     0.900000E-01   1.00800           0
     13543 MEMB     117      OSM      C18F     CTL3    -0.270000       12.0110           0
     13544 MEMB     117      OSM      H18F     HAL3     0.900000E-01   1.00800           0
     13545 MEMB     117      OSM      H18G     HAL3     0.900000E-01   1.00800           0
     13546 MEMB     117      OSM      H18H     HAL3     0.900000E-01   1.00800           0
     13547 MEMB     119      OSM      N        NTL     -0.600000       14.0070           0
     13548 MEMB     119      OSM      C15      CTL5    -0.350000       12.0110           0
     13549 MEMB     119      OSM      H15A     HL       0.250000       1.00800           0
     13550 MEMB     119      OSM      H15B     HL       0.250000       1.00800           0
     13551 MEMB     119      OSM      H15C     HL       0.250000       1.00800           0
     13552 MEMB     119      OSM      C14      CTL5    -0.350000       12.0110           0
     13553 MEMB     119      OSM      H14A     HL       0.250000       1.00800           0
     13554 MEMB     119      OSM      H14B     HL       0.250000       1.00800           0
     13555 MEMB     119      OSM      H14C     HL       0.250000       1.00800           0
     13556 MEMB     119      OSM      C13      CTL5    -0.350000       12.0110           0
     13557 MEMB     119      OSM      H13A     HL       0.250000       1.00800           0
     13558 MEMB     119      OSM      H13B     HL       0.250000       1.00800           0
     13559 MEMB     119      OSM      H13C     HL       0.250000       1.00800           0
     13560 MEMB     119      OSM      C12      CTL2    -0.100000       12.0110           0
     13561 MEMB     119      OSM      H12A     HL       0.250000       1.00800           0
     13562 MEMB     119      OSM      H12B     HL       0.250000       1.00800           0
     13563 MEMB     119      OSM      C11      CTL2    -0.800000E-01   12.0110           0
     13564 MEMB     119      OSM      H11A     HAL2     0.900000E-01   1.00800           0
     13565 MEMB     119      OSM      H11B     HAL2     0.900000E-01   1.00800           0
     13566 MEMB     119      OSM      P        PL       1.500000       30.9740           0
     13567 MEMB     119      OSM      O13      O2L     -0.780000       15.9994           0
     13568 MEMB     119      OSM      O14      O2L     -0.780000       15.9994           0
     13569 MEMB     119      OSM      O11      OSLP    -0.570000       15.9994           0
     13570 MEMB     119      OSM      O12      OSLP    -0.570000       15.9994           0
     13571 MEMB     119      OSM      C1S      CTL2    -0.800000E-01   12.0110           0
     13572 MEMB     119      OSM      H1S      HAL2     0.900000E-01   1.00800           0
     13573 MEMB     119      OSM      H1T      HAL2     0.900000E-01   1.00800           0
     13574 MEMB     119      OSM      NF       NHL     -0.700000       14.0070           0
     13575 MEMB     119      OSM      HNF      H        0.350000       1.00800           0
     13576 MEMB     119      OSM      C2S      CTL1     0.300000       12.0110           0
     13577 MEMB     119      OSM      H2S      HAL1     0.500000E-01   1.00800           0
     13578 MEMB     119      OSM      C3S      CTO1     0.500000       12.0110           0
     13579 MEMB     119      OSM      H3S      HAL1    -0.110000       1.00800           0
     13580 MEMB     119      OSM      O3       OHL     -0.690000       15.9994           0
     13581 MEMB     119      OSM      HO3      HOL      0.300000       1.00800           0
     13582 MEMB     119      OSM      C4S      CEL3    -0.150000       12.0110           0
     13583 MEMB     119      OSM      H4S      HEL1     0.150000       1.00800           0
     13584 MEMB     119      OSM      C5S      CEL3    -0.150000       12.0110           0
     13585 MEMB     119      OSM      H5S      HEL1     0.150000       1.00800           0
     13586 MEMB     119      OSM      C6S      CTL2    -0.180000       12.0110           0
     13587 MEMB     119      OSM      H6S      HAL2     0.900000E-01   1.00800           0
     13588 MEMB     119      OSM      H6T      HAL2     0.900000E-01   1.00800           0
     13589 MEMB     119      OSM      C7S      CTL2    -0.180000       12.0110           0
     13590 MEMB     119      OSM      H7S      HAL2     0.900000E-01   1.00800           0
     13591 MEMB     119      OSM      H7T      HAL2     0.900000E-01   1.00800           0
     13592 MEMB     119      OSM      C8S      CTL2    -0.180000       12.0110           0
     13593 MEMB     119      OSM      H8S      HAL2     0.900000E-01   1.00800           0
     13594 MEMB     119      OSM      H8T      HAL2     0.900000E-01   1.00800           0
     13595 MEMB     119      OSM      C9S      CTL2    -0.180000       12.0110           0
     13596 MEMB     119      OSM      H9S      HAL2     0.900000E-01   1.00800           0
     13597 MEMB     119      OSM      H9T      HAL2     0.900000E-01   1.00800           0
     13598 MEMB     119      OSM      C10S     CTL2    -0.180000       12.0110           0
     13599 MEMB     119      OSM      H10S     HAL2     0.900000E-01   1.00800           0
     13600 MEMB     119      OSM      H10T     HAL2     0.900000E-01   1.00800           0
     13601 MEMB     119      OSM      C11S     CTL2    -0.180000       12.0110           0
     13602 MEMB     119      OSM      H11S     HAL2     0.900000E-01   1.00800           0
     13603 MEMB     119      OSM      H11T     HAL2     0.900000E-01   1.00800           0
     13604 MEMB     119      OSM      C12S     CTL2    -0.180000       12.0110           0
     13605 MEMB     119      OSM      H12S     HAL2     0.900000E-01   1.00800           0
     13606 MEMB     119      OSM      H12T     HAL2     0.900000E-01   1.00800           0
     13607 MEMB     119      OSM      C13S     CTL2    -0.180000       12.0110           0
     13608 MEMB     119      OSM      H13S     HAL2     0.900000E-01   1.00800           0
     13609 MEMB     119      OSM      H13T     HAL2     0.900000E-01   1.00800           0
     13610 MEMB     119      OSM      C14S     CTL2    -0.180000       12.0110           0
     13611 MEMB     119      OSM      H14S     HAL2     0.900000E-01   1.00800           0
     13612 MEMB     119      OSM      H14T     HAL2     0.900000E-01   1.00800           0
     13613 MEMB     119      OSM      C15S     CTL2    -0.180000       12.0110           0
     13614 MEMB     119      OSM      H15S     HAL2     0.900000E-01   1.00800           0
     13615 MEMB     119      OSM      H15T     HAL2     0.900000E-01   1.00800           0
     13616 MEMB     119      OSM      C16S     CTL2    -0.180000       12.0110           0
     13617 MEMB     119      OSM      H16S     HAL2     0.900000E-01   1.00800           0
     13618 MEMB     119      OSM      H16T     HAL2     0.900000E-01   1.00800           0
     13619 MEMB     119      OSM      C17S     CTL2    -0.180000       12.0110           0
     13620 MEMB     119      OSM      H17S     HAL2     0.900000E-01   1.00800           0
     13621 MEMB     119      OSM      H17T     HAL2     0.900000E-01   1.00800           0
     13622 MEMB     119      OSM      C18S     CTL3    -0.270000       12.0110           0
     13623 MEMB     119      OSM      H18S     HAL3     0.900000E-01   1.00800           0
     13624 MEMB     119      OSM      H18T     HAL3     0.900000E-01   1.00800           0
     13625 MEMB     119      OSM      H18U     HAL3     0.900000E-01   1.00800           0
     13626 MEMB     119      OSM      C1F      C        0.550000       12.0110           0
     13627 MEMB     119      OSM      OF       O       -0.600000       15.9994           0
     13628 MEMB     119      OSM      C2F      CTL2    -0.700000E-01   12.0110           0
     13629 MEMB     119      OSM      H2F      HAL2     0.600000E-01   1.00800           0
     13630 MEMB     119      OSM      H2G      HAL2     0.600000E-01   1.00800           0
     13631 MEMB     119      OSM      C3F      CTL2    -0.180000       12.0110           0
     13632 MEMB     119      OSM      H3F      HAL2     0.900000E-01   1.00800           0
     13633 MEMB     119      OSM      H3G      HAL2     0.900000E-01   1.00800           0
     13634 MEMB     119      OSM      C4F      CTL2    -0.180000       12.0110           0
     13635 MEMB     119      OSM      H4F      HAL2     0.900000E-01   1.00800           0
     13636 MEMB     119      OSM      H4G      HAL2     0.900000E-01   1.00800           0
     13637 MEMB     119      OSM      C5F      CTL2    -0.180000       12.0110           0
     13638 MEMB     119      OSM      H5F      HAL2     0.900000E-01   1.00800           0
     13639 MEMB     119      OSM      H5G      HAL2     0.900000E-01   1.00800           0
     13640 MEMB     119      OSM      C6F      CTL2    -0.180000       12.0110           0
     13641 MEMB     119      OSM      H6F      HAL2     0.900000E-01   1.00800           0
     13642 MEMB     119      OSM      H6G      HAL2     0.900000E-01   1.00800           0
     13643 MEMB     119      OSM      C7F      CTL2    -0.180000       12.0110           0
     13644 MEMB     119      OSM      H7F      HAL2     0.900000E-01   1.00800           0
     13645 MEMB     119      OSM      H7G      HAL2     0.900000E-01   1.00800           0
     13646 MEMB     119      OSM      C8F      CTL2    -0.180000       12.0110           0
     13647 MEMB     119      OSM      H8F      HAL2     0.900000E-01   1.00800           0
     13648 MEMB     119      OSM      H8G      HAL2     0.900000E-01   1.00800           0
     13649 MEMB     119      OSM      C9F      CEL1    -0.150000       12.0110           0
     13650 MEMB     119      OSM      H9F      HEL1     0.150000       1.00800           0
     13651 MEMB     119      OSM      C10F     CEL1    -0.150000       12.0110           0
     13652 MEMB     119      OSM      H10F     HEL1     0.150000       1.00800           0
     13653 MEMB     119      OSM      C11F     CTL2    -0.180000       12.0110           0
     13654 MEMB     119      OSM      H11F     HAL2     0.900000E-01   1.00800           0
     13655 MEMB     119      OSM      H11G     HAL2     0.900000E-01   1.00800           0
     13656 MEMB     119      OSM      C12F     CTL2    -0.180000       12.0110           0
     13657 MEMB     119      OSM      H12F     HAL2     0.900000E-01   1.00800           0
     13658 MEMB     119      OSM      H12G     HAL2     0.900000E-01   1.00800           0
     13659 MEMB     119      OSM      C13F     CTL2    -0.180000       12.0110           0
     13660 MEMB     119      OSM      H13F     HAL2     0.900000E-01   1.00800           0
     13661 MEMB     119      OSM      H13G     HAL2     0.900000E-01   1.00800           0
     13662 MEMB     119      OSM      C14F     CTL2    -0.180000       12.0110           0
     13663 MEMB     119      OSM      H14F     HAL2     0.900000E-01   1.00800           0
     13664 MEMB     119      OSM      H14G     HAL2     0.900000E-01   1.00800           0
     13665 MEMB     119      OSM      C15F     CTL2    -0.180000       12.0110           0
     13666 MEMB     119      OSM      H15F     HAL2     0.900000E-01   1.00800           0
     13667 MEMB     119      OSM      H15G     HAL2     0.900000E-01   1.00800           0
     13668 MEMB     119      OSM      C16F     CTL2    -0.180000       12.0110           0
     13669 MEMB     119      OSM      H16F     HAL2     0.900000E-01   1.00800           0
     13670 MEMB     119      OSM      H16G     HAL2     0.900000E-01   1.00800           0
     13671 MEMB     119      OSM      C17F     CTL2    -0.180000       12.0110           0
     13672 MEMB     119      OSM      H17F     HAL2     0.900000E-01   1.00800           0
     13673 MEMB     119      OSM      H17G     HAL2     0.900000E-01   1.00800           0
     13674 MEMB     119      OSM      C18F     CTL3    -0.270000       12.0110           0
     13675 MEMB     119      OSM      H18F     HAL3     0.900000E-01   1.00800           0
     13676 MEMB     119      OSM      H18G     HAL3     0.900000E-01   1.00800           0
     13677 MEMB     119      OSM      H18H     HAL3     0.900000E-01   1.00800           0
     13678 MEMB     120      OSM      N        NTL     -0.600000       14.0070           0
     13679 MEMB     120      OSM      C15      CTL5    -0.350000       12.0110           0
     13680 MEMB     120      OSM      H15A     HL       0.250000       1.00800           0
     13681 MEMB     120      OSM      H15B     HL       0.250000       1.00800           0
     13682 MEMB     120      OSM      H15C     HL       0.250000       1.00800           0
     13683 MEMB     120      OSM      C14      CTL5    -0.350000       12.0110           0
     13684 MEMB     120      OSM      H14A     HL       0.250000       1.00800           0
     13685 MEMB     120      OSM      H14B     HL       0.250000       1.00800           0
     13686 MEMB     120      OSM      H14C     HL       0.250000       1.00800           0
     13687 MEMB     120      OSM      C13      CTL5    -0.350000       12.0110           0
     13688 MEMB     120      OSM      H13A     HL       0.250000       1.00800           0
     13689 MEMB     120      OSM      H13B     HL       0.250000       1.00800           0
     13690 MEMB     120      OSM      H13C     HL       0.250000       1.00800           0
     13691 MEMB     120      OSM      C12      CTL2    -0.100000       12.0110           0
     13692 MEMB     120      OSM      H12A     HL       0.250000       1.00800           0
     13693 MEMB     120      OSM      H12B     HL       0.250000       1.00800           0
     13694 MEMB     120      OSM      C11      CTL2    -0.800000E-01   12.0110           0
     13695 MEMB     120      OSM      H11A     HAL2     0.900000E-01   1.00800           0
     13696 MEMB     120      OSM      H11B     HAL2     0.900000E-01   1.00800           0
     13697 MEMB     120      OSM      P        PL       1.500000       30.9740           0
     13698 MEMB     120      OSM      O13      O2L     -0.780000       15.9994           0
     13699 MEMB     120      OSM      O14      O2L     -0.780000       15.9994           0
     13700 MEMB     120      OSM      O11      OSLP    -0.570000       15.9994           0
     13701 MEMB     120      OSM      O12      OSLP    -0.570000       15.9994           0
     13702 MEMB     120      OSM      C1S      CTL2    -0.800000E-01   12.0110           0
     13703 MEMB     120      OSM      H1S      HAL2     0.900000E-01   1.00800           0
     13704 MEMB     120      OSM      H1T      HAL2     0.900000E-01   1.00800           0
     13705 MEMB     120      OSM      NF       NHL     -0.700000       14.0070           0
     13706 MEMB     120      OSM      HNF      H        0.350000       1.00800           0
     13707 MEMB     120      OSM      C2S      CTL1     0.300000       12.0110           0
     13708 MEMB     120      OSM      H2S      HAL1     0.500000E-01   1.00800           0
     13709 MEMB     120      OSM      C3S      CTO1     0.500000       12.0110           0
     13710 MEMB     120      OSM      H3S      HAL1    -0.110000       1.00800           0
     13711 MEMB     120      OSM      O3       OHL     -0.690000       15.9994           0
     13712 MEMB     120      OSM      HO3      HOL      0.300000       1.00800           0
     13713 MEMB     120      OSM      C4S      CEL3    -0.150000       12.0110           0
     13714 MEMB     120      OSM      H4S      HEL1     0.150000       1.00800           0
     13715 MEMB     120      OSM      C5S      CEL3    -0.150000       12.0110           0
     13716 MEMB     120      OSM      H5S      HEL1     0.150000       1.00800           0
     13717 MEMB     120      OSM      C6S      CTL2    -0.180000       12.0110           0
     13718 MEMB     120      OSM      H6S      HAL2     0.900000E-01   1.00800           0
     13719 MEMB     120      OSM      H6T      HAL2     0.900000E-01   1.00800           0
     13720 MEMB     120      OSM      C7S      CTL2    -0.180000       12.0110           0
     13721 MEMB     120      OSM      H7S      HAL2     0.900000E-01   1.00800           0
     13722 MEMB     120      OSM      H7T      HAL2     0.900000E-01   1.00800           0
     13723 MEMB     120      OSM      C8S      CTL2    -0.180000       12.0110           0
     13724 MEMB     120      OSM      H8S      HAL2     0.900000E-01   1.00800           0
     13725 MEMB     120      OSM      H8T      HAL2     0.900000E-01   1.00800           0
     13726 MEMB     120      OSM      C9S      CTL2    -0.180000       12.0110           0
     13727 MEMB     120      OSM      H9S      HAL2     0.900000E-01   1.00800           0
     13728 MEMB     120      OSM      H9T      HAL2     0.900000E-01   1.00800           0
     13729 MEMB     120      OSM      C10S     CTL2    -0.180000       12.0110           0
     13730 MEMB     120      OSM      H10S     HAL2     0.900000E-01   1.00800           0
     13731 MEMB     120      OSM      H10T     HAL2     0.900000E-01   1.00800           0
     13732 MEMB     120      OSM      C11S     CTL2    -0.180000       12.0110           0
     13733 MEMB     120      OSM      H11S     HAL2     0.900000E-01   1.00800           0
     13734 MEMB     120      OSM      H11T     HAL2     0.900000E-01   1.00800           0
     13735 MEMB     120      OSM      C12S     CTL2    -0.180000       12.0110           0
     13736 MEMB     120      OSM      H12S     HAL2     0.900000E-01   1.00800           0
     13737 MEMB     120      OSM      H12T     HAL2     0.900000E-01   1.00800           0
     13738 MEMB     120      OSM      C13S     CTL2    -0.180000       12.0110           0
     13739 MEMB     120      OSM      H13S     HAL2     0.900000E-01   1.00800           0
     13740 MEMB     120      OSM      H13T     HAL2     0.900000E-01   1.00800           0
     13741 MEMB     120      OSM      C14S     CTL2    -0.180000       12.0110           0
     13742 MEMB     120      OSM      H14S     HAL2     0.900000E-01   1.00800           0
     13743 MEMB     120      OSM      H14T     HAL2     0.900000E-01   1.00800           0
     13744 MEMB     120      OSM      C15S     CTL2    -0.180000       12.0110           0
     13745 MEMB     120      OSM      H15S     HAL2     0.900000E-01   1.00800           0
     13746 MEMB     120      OSM      H15T     HAL2     0.900000E-01   1.00800           0
     13747 MEMB     120      OSM      C16S     CTL2    -0.180000       12.0110           0
     13748 MEMB     120      OSM      H16S     HAL2     0.900000E-01   1.00800           0
     13749 MEMB     120      OSM      H16T     HAL2     0.900000E-01   1.00800           0
     13750 MEMB     120      OSM      C17S     CTL2    -0.180000       12.0110           0
     13751 MEMB     120      OSM      H17S     HAL2     0.900000E-01   1.00800           0
     13752 MEMB     120      OSM      H17T     HAL2     0.900000E-01   1.00800           0
     13753 MEMB     120      OSM      C18S     CTL3    -0.270000       12.0110           0
     13754 MEMB     120      OSM      H18S     HAL3     0.900000E-01   1.00800           0
     13755 MEMB     120      OSM      H18T     HAL3     0.900000E-01   1.00800           0
     13756 MEMB     120      OSM      H18U     HAL3     0.900000E-01   1.00800           0
     13757 MEMB     120      OSM      C1F      C        0.550000       12.0110           0
     13758 MEMB     120      OSM      OF       O       -0.600000       15.9994           0
     13759 MEMB     120      OSM      C2F      CTL2    -0.700000E-01   12.0110           0
     13760 MEMB     120      OSM      H2F      HAL2     0.600000E-01   1.00800           0
     13761 MEMB     120      OSM      H2G      HAL2     0.600000E-01   1.00800           0
     13762 MEMB     120      OSM      C3F      CTL2    -0.180000       12.0110           0
     13763 MEMB     120      OSM      H3F      HAL2     0.900000E-01   1.00800           0
     13764 MEMB     120      OSM      H3G      HAL2     0.900000E-01   1.00800           0
     13765 MEMB     120      OSM      C4F      CTL2    -0.180000       12.0110           0
     13766 MEMB     120      OSM      H4F      HAL2     0.900000E-01   1.00800           0
     13767 MEMB     120      OSM      H4G      HAL2     0.900000E-01   1.00800           0
     13768 MEMB     120      OSM      C5F      CTL2    -0.180000       12.0110           0
     13769 MEMB     120      OSM      H5F      HAL2     0.900000E-01   1.00800           0
     13770 MEMB     120      OSM      H5G      HAL2     0.900000E-01   1.00800           0
     13771 MEMB     120      OSM      C6F      CTL2    -0.180000       12.0110           0
     13772 MEMB     120      OSM      H6F      HAL2     0.900000E-01   1.00800           0
     13773 MEMB     120      OSM      H6G      HAL2     0.900000E-01   1.00800           0
     13774 MEMB     120      OSM      C7F      CTL2    -0.180000       12.0110           0
     13775 MEMB     120      OSM      H7F      HAL2     0.900000E-01   1.00800           0
     13776 MEMB     120      OSM      H7G      HAL2     0.900000E-01   1.00800           0
     13777 MEMB     120      OSM      C8F      CTL2    -0.180000       12.0110           0
     13778 MEMB     120      OSM      H8F      HAL2     0.900000E-01   1.00800           0
     13779 MEMB     120      OSM      H8G      HAL2     0.900000E-01   1.00800           0
     13780 MEMB     120      OSM      C9F      CEL1    -0.150000       12.0110           0
     13781 MEMB     120      OSM      H9F      HEL1     0.150000       1.00800           0
     13782 MEMB     120      OSM      C10F     CEL1    -0.150000       12.0110           0
     13783 MEMB     120      OSM      H10F     HEL1     0.150000       1.00800           0
     13784 MEMB     120      OSM      C11F     CTL2    -0.180000       12.0110           0
     13785 MEMB     120      OSM      H11F     HAL2     0.900000E-01   1.00800           0
     13786 MEMB     120      OSM      H11G     HAL2     0.900000E-01   1.00800           0
     13787 MEMB     120      OSM      C12F     CTL2    -0.180000       12.0110           0
     13788 MEMB     120      OSM      H12F     HAL2     0.900000E-01   1.00800           0
     13789 MEMB     120      OSM      H12G     HAL2     0.900000E-01   1.00800           0
     13790 MEMB     120      OSM      C13F     CTL2    -0.180000       12.0110           0
     13791 MEMB     120      OSM      H13F     HAL2     0.900000E-01   1.00800           0
     13792 MEMB     120      OSM      H13G     HAL2     0.900000E-01   1.00800           0
     13793 MEMB     120      OSM      C14F     CTL2    -0.180000       12.0110           0
     13794 MEMB     120      OSM      H14F     HAL2     0.900000E-01   1.00800           0
     13795 MEMB     120      OSM      H14G     HAL2     0.900000E-01   1.00800           0
     13796 MEMB     120      OSM      C15F     CTL2    -0.180000       12.0110           0
     13797 MEMB     120      OSM      H15F     HAL2     0.900000E-01   1.00800           0
     13798 MEMB     120      OSM      H15G     HAL2     0.900000E-01   1.00800           0
     13799 MEMB     120      OSM      C16F     CTL2    -0.180000       12.0110           0
     13800 MEMB     120      OSM      H16F     HAL2     0.900000E-01   1.00800           0
     13801 MEMB     120      OSM      H16G     HAL2     0.900000E-01   1.00800           0
     13802 MEMB     120      OSM      C17F     CTL2    -0.180000       12.0110           0
     13803 MEMB     120      OSM      H17F     HAL2     0.900000E-01   1.00800           0
     13804 MEMB     120      OSM      H17G     HAL2     0.900000E-01   1.00800           0
     13805 MEMB     120      OSM      C18F     CTL3    -0.270000       12.0110           0
     13806 MEMB     120      OSM      H18F     HAL3     0.900000E-01   1.00800           0
     13807 MEMB     120      OSM      H18G     HAL3     0.900000E-01   1.00800           0
     13808 MEMB     120      OSM      H18H     HAL3     0.900000E-01   1.00800           0
     13809 MEMB     121      OSM      N        NTL     -0.600000       14.0070           0
     13810 MEMB     121      OSM      C15      CTL5    -0.350000       12.0110           0
     13811 MEMB     121      OSM      H15A     HL       0.250000       1.00800           0
     13812 MEMB     121      OSM      H15B     HL       0.250000       1.00800           0
     13813 MEMB     121      OSM      H15C     HL       0.250000       1.00800           0
     13814 MEMB     121      OSM      C14      CTL5    -0.350000       12.0110           0
     13815 MEMB     121      OSM      H14A     HL       0.250000       1.00800           0
     13816 MEMB     121      OSM      H14B     HL       0.250000       1.00800           0
     13817 MEMB     121      OSM      H14C     HL       0.250000       1.00800           0
     13818 MEMB     121      OSM      C13      CTL5    -0.350000       12.0110           0
     13819 MEMB     121      OSM      H13A     HL       0.250000       1.00800           0
     13820 MEMB     121      OSM      H13B     HL       0.250000       1.00800           0
     13821 MEMB     121      OSM      H13C     HL       0.250000       1.00800           0
     13822 MEMB     121      OSM      C12      CTL2    -0.100000       12.0110           0
     13823 MEMB     121      OSM      H12A     HL       0.250000       1.00800           0
     13824 MEMB     121      OSM      H12B     HL       0.250000       1.00800           0
     13825 MEMB     121      OSM      C11      CTL2    -0.800000E-01   12.0110           0
     13826 MEMB     121      OSM      H11A     HAL2     0.900000E-01   1.00800           0
     13827 MEMB     121      OSM      H11B     HAL2     0.900000E-01   1.00800           0
     13828 MEMB     121      OSM      P        PL       1.500000       30.9740           0
     13829 MEMB     121      OSM      O13      O2L     -0.780000       15.9994           0
     13830 MEMB     121      OSM      O14      O2L     -0.780000       15.9994           0
     13831 MEMB     121      OSM      O11      OSLP    -0.570000       15.9994           0
     13832 MEMB     121      OSM      O12      OSLP    -0.570000       15.9994           0
     13833 MEMB     121      OSM      C1S      CTL2    -0.800000E-01   12.0110           0
     13834 MEMB     121      OSM      H1S      HAL2     0.900000E-01   1.00800           0
     13835 MEMB     121      OSM      H1T      HAL2     0.900000E-01   1.00800           0
     13836 MEMB     121      OSM      NF       NHL     -0.700000       14.0070           0
     13837 MEMB     121      OSM      HNF      H        0.350000       1.00800           0
     13838 MEMB     121      OSM      C2S      CTL1     0.300000       12.0110           0
     13839 MEMB     121      OSM      H2S      HAL1     0.500000E-01   1.00800           0
     13840 MEMB     121      OSM      C3S      CTO1     0.500000       12.0110           0
     13841 MEMB     121      OSM      H3S      HAL1    -0.110000       1.00800           0
     13842 MEMB     121      OSM      O3       OHL     -0.690000       15.9994           0
     13843 MEMB     121      OSM      HO3      HOL      0.300000       1.00800           0
     13844 MEMB     121      OSM      C4S      CEL3    -0.150000       12.0110           0
     13845 MEMB     121      OSM      H4S      HEL1     0.150000       1.00800           0
     13846 MEMB     121      OSM      C5S      CEL3    -0.150000       12.0110           0
     13847 MEMB     121      OSM      H5S      HEL1     0.150000       1.00800           0
     13848 MEMB     121      OSM      C6S      CTL2    -0.180000       12.0110           0
     13849 MEMB     121      OSM      H6S      HAL2     0.900000E-01   1.00800           0
     13850 MEMB     121      OSM      H6T      HAL2     0.900000E-01   1.00800           0
     13851 MEMB     121      OSM      C7S      CTL2    -0.180000       12.0110           0
     13852 MEMB     121      OSM      H7S      HAL2     0.900000E-01   1.00800           0
     13853 MEMB     121      OSM      H7T      HAL2     0.900000E-01   1.00800           0
     13854 MEMB     121      OSM      C8S      CTL2    -0.180000       12.0110           0
     13855 MEMB     121      OSM      H8S      HAL2     0.900000E-01   1.00800           0
     13856 MEMB     121      OSM      H8T      HAL2     0.900000E-01   1.00800           0
     13857 MEMB     121      OSM      C9S      CTL2    -0.180000       12.0110           0
     13858 MEMB     121      OSM      H9S      HAL2     0.900000E-01   1.00800           0
     13859 MEMB     121      OSM      H9T      HAL2     0.900000E-01   1.00800           0
     13860 MEMB     121      OSM      C10S     CTL2    -0.180000       12.0110           0
     13861 MEMB     121      OSM      H10S     HAL2     0.900000E-01   1.00800           0
     13862 MEMB     121      OSM      H10T     HAL2     0.900000E-01   1.00800           0
     13863 MEMB     121      OSM      C11S     CTL2    -0.180000       12.0110           0
     13864 MEMB     121      OSM      H11S     HAL2     0.900000E-01   1.00800           0
     13865 MEMB     121      OSM      H11T     HAL2     0.900000E-01   1.00800           0
     13866 MEMB     121      OSM      C12S     CTL2    -0.180000       12.0110           0
     13867 MEMB     121      OSM      H12S     HAL2     0.900000E-01   1.00800           0
     13868 MEMB     121      OSM      H12T     HAL2     0.900000E-01   1.00800           0
     13869 MEMB     121      OSM      C13S     CTL2    -0.180000       12.0110           0
     13870 MEMB     121      OSM      H13S     HAL2     0.900000E-01   1.00800           0
     13871 MEMB     121      OSM      H13T     HAL2     0.900000E-01   1.00800           0
     13872 MEMB     121      OSM      C14S     CTL2    -0.180000       12.0110           0
     13873 MEMB     121      OSM      H14S     HAL2     0.900000E-01   1.00800           0
     13874 MEMB     121      OSM      H14T     HAL2     0.900000E-01   1.00800           0
     13875 MEMB     121      OSM      C15S     CTL2    -0.180000       12.0110           0
     13876 MEMB     121      OSM      H15S     HAL2     0.900000E-01   1.00800           0
     13877 MEMB     121      OSM      H15T     HAL2     0.900000E-01   1.00800           0
     13878 MEMB     121      OSM      C16S     CTL2    -0.180000       12.0110           0
     13879 MEMB     121      OSM      H16S     HAL2     0.900000E-01   1.00800           0
     13880 MEMB     121      OSM      H16T     HAL2     0.900000E-01   1.00800           0
     13881 MEMB     121      OSM      C17S     CTL2    -0.180000       12.0110           0
     13882 MEMB     121      OSM      H17S     HAL2     0.900000E-01   1.00800           0
     13883 MEMB     121      OSM      H17T     HAL2     0.900000E-01   1.00800           0
     13884 MEMB     121      OSM      C18S     CTL3    -0.270000       12.0110           0
     13885 MEMB     121      OSM      H18S     HAL3     0.900000E-01   1.00800           0
     13886 MEMB     121      OSM      H18T     HAL3     0.900000E-01   1.00800           0
     13887 MEMB     121      OSM      H18U     HAL3     0.900000E-01   1.00800           0
     13888 MEMB     121      OSM      C1F      C        0.550000       12.0110           0
     13889 MEMB     121      OSM      OF       O       -0.600000       15.9994           0
     13890 MEMB     121      OSM      C2F      CTL2    -0.700000E-01   12.0110           0
     13891 MEMB     121      OSM      H2F      HAL2     0.600000E-01   1.00800           0
     13892 MEMB     121      OSM      H2G      HAL2     0.600000E-01   1.00800           0
     13893 MEMB     121      OSM      C3F      CTL2    -0.180000       12.0110           0
     13894 MEMB     121      OSM      H3F      HAL2     0.900000E-01   1.00800           0
     13895 MEMB     121      OSM      H3G      HAL2     0.900000E-01   1.00800           0
     13896 MEMB     121      OSM      C4F      CTL2    -0.180000       12.0110           0
     13897 MEMB     121      OSM      H4F      HAL2     0.900000E-01   1.00800           0
     13898 MEMB     121      OSM      H4G      HAL2     0.900000E-01   1.00800           0
     13899 MEMB     121      OSM      C5F      CTL2    -0.180000       12.0110           0
     13900 MEMB     121      OSM      H5F      HAL2     0.900000E-01   1.00800           0
     13901 MEMB     121      OSM      H5G      HAL2     0.900000E-01   1.00800           0
     13902 MEMB     121      OSM      C6F      CTL2    -0.180000       12.0110           0
     13903 MEMB     121      OSM      H6F      HAL2     0.900000E-01   1.00800           0
     13904 MEMB     121      OSM      H6G      HAL2     0.900000E-01   1.00800           0
     13905 MEMB     121      OSM      C7F      CTL2    -0.180000       12.0110           0
     13906 MEMB     121      OSM      H7F      HAL2     0.900000E-01   1.00800           0
     13907 MEMB     121      OSM      H7G      HAL2     0.900000E-01   1.00800           0
     13908 MEMB     121      OSM      C8F      CTL2    -0.180000       12.0110           0
     13909 MEMB     121      OSM      H8F      HAL2     0.900000E-01   1.00800           0
     13910 MEMB     121      OSM      H8G      HAL2     0.900000E-01   1.00800           0
     13911 MEMB     121      OSM      C9F      CEL1    -0.150000       12.0110           0
     13912 MEMB     121      OSM      H9F      HEL1     0.150000       1.00800           0
     13913 MEMB     121      OSM      C10F     CEL1    -0.150000       12.0110           0
     13914 MEMB     121      OSM      H10F     HEL1     0.150000       1.00800           0
     13915 MEMB     121      OSM      C11F     CTL2    -0.180000       12.0110           0
     13916 MEMB     121      OSM      H11F     HAL2     0.900000E-01   1.00800           0
     13917 MEMB     121      OSM      H11G     HAL2     0.900000E-01   1.00800           0
     13918 MEMB     121      OSM      C12F     CTL2    -0.180000       12.0110           0
     13919 MEMB     121      OSM      H12F     HAL2     0.900000E-01   1.00800           0
     13920 MEMB     121      OSM      H12G     HAL2     0.900000E-01   1.00800           0
     13921 MEMB     121      OSM      C13F     CTL2    -0.180000       12.0110           0
     13922 MEMB     121      OSM      H13F     HAL2     0.900000E-01   1.00800           0
     13923 MEMB     121      OSM      H13G     HAL2     0.900000E-01   1.00800           0
     13924 MEMB     121      OSM      C14F     CTL2    -0.180000       12.0110           0
     13925 MEMB     121      OSM      H14F     HAL2     0.900000E-01   1.00800           0
     13926 MEMB     121      OSM      H14G     HAL2     0.900000E-01   1.00800           0
     13927 MEMB     121      OSM      C15F     CTL2    -0.180000       12.0110           0
     13928 MEMB     121      OSM      H15F     HAL2     0.900000E-01   1.00800           0
     13929 MEMB     121      OSM      H15G     HAL2     0.900000E-01   1.00800           0
     13930 MEMB     121      OSM      C16F     CTL2    -0.180000       12.0110           0
     13931 MEMB     121      OSM      H16F     HAL2     0.900000E-01   1.00800           0
     13932 MEMB     121      OSM      H16G     HAL2     0.900000E-01   1.00800           0
     13933 MEMB     121      OSM      C17F     CTL2    -0.180000       12.0110           0
     13934 MEMB     121      OSM      H17F     HAL2     0.900000E-01   1.00800           0
     13935 MEMB     121      OSM      H17G     HAL2     0.900000E-01   1.00800           0
     13936 MEMB     121      OSM      C18F     CTL3    -0.270000       12.0110           0
     13937 MEMB     121      OSM      H18F     HAL3     0.900000E-01   1.00800           0
     13938 MEMB     121      OSM      H18G     HAL3     0.900000E-01   1.00800           0
     13939 MEMB     121      OSM      H18H     HAL3     0.900000E-01   1.00800           0
     13940 MEMB     122      OSM      N        NTL     -0.600000       14.0070           0
     13941 MEMB     122      OSM      C15      CTL5    -0.350000       12.0110           0
     13942 MEMB     122      OSM      H15A     HL       0.250000       1.00800           0
     13943 MEMB     122      OSM      H15B     HL       0.250000       1.00800           0
     13944 MEMB     122      OSM      H15C     HL       0.250000       1.00800           0
     13945 MEMB     122      OSM      C14      CTL5    -0.350000       12.0110           0
     13946 MEMB     122      OSM      H14A     HL       0.250000       1.00800           0
     13947 MEMB     122      OSM      H14B     HL       0.250000       1.00800           0
     13948 MEMB     122      OSM      H14C     HL       0.250000       1.00800           0
     13949 MEMB     122      OSM      C13      CTL5    -0.350000       12.0110           0
     13950 MEMB     122      OSM      H13A     HL       0.250000       1.00800           0
     13951 MEMB     122      OSM      H13B     HL       0.250000       1.00800           0
     13952 MEMB     122      OSM      H13C     HL       0.250000       1.00800           0
     13953 MEMB     122      OSM      C12      CTL2    -0.100000       12.0110           0
     13954 MEMB     122      OSM      H12A     HL       0.250000       1.00800           0
     13955 MEMB     122      OSM      H12B     HL       0.250000       1.00800           0
     13956 MEMB     122      OSM      C11      CTL2    -0.800000E-01   12.0110           0
     13957 MEMB     122      OSM      H11A     HAL2     0.900000E-01   1.00800           0
     13958 MEMB     122      OSM      H11B     HAL2     0.900000E-01   1.00800           0
     13959 MEMB     122      OSM      P        PL       1.500000       30.9740           0
     13960 MEMB     122      OSM      O13      O2L     -0.780000       15.9994           0
     13961 MEMB     122      OSM      O14      O2L     -0.780000       15.9994           0
     13962 MEMB     122      OSM      O11      OSLP    -0.570000       15.9994           0
     13963 MEMB     122      OSM      O12      OSLP    -0.570000       15.9994           0
     13964 MEMB     122      OSM      C1S      CTL2    -0.800000E-01   12.0110           0
     13965 MEMB     122      OSM      H1S      HAL2     0.900000E-01   1.00800           0
     13966 MEMB     122      OSM      H1T      HAL2     0.900000E-01   1.00800           0
     13967 MEMB     122      OSM      NF       NHL     -0.700000       14.0070           0
     13968 MEMB     122      OSM      HNF      H        0.350000       1.00800           0
     13969 MEMB     122      OSM      C2S      CTL1     0.300000       12.0110           0
     13970 MEMB     122      OSM      H2S      HAL1     0.500000E-01   1.00800           0
     13971 MEMB     122      OSM      C3S      CTO1     0.500000       12.0110           0
     13972 MEMB     122      OSM      H3S      HAL1    -0.110000       1.00800           0
     13973 MEMB     122      OSM      O3       OHL     -0.690000       15.9994           0
     13974 MEMB     122      OSM      HO3      HOL      0.300000       1.00800           0
     13975 MEMB     122      OSM      C4S      CEL3    -0.150000       12.0110           0
     13976 MEMB     122      OSM      H4S      HEL1     0.150000       1.00800           0
     13977 MEMB     122      OSM      C5S      CEL3    -0.150000       12.0110           0
     13978 MEMB     122      OSM      H5S      HEL1     0.150000       1.00800           0
     13979 MEMB     122      OSM      C6S      CTL2    -0.180000       12.0110           0
     13980 MEMB     122      OSM      H6S      HAL2     0.900000E-01   1.00800           0
     13981 MEMB     122      OSM      H6T      HAL2     0.900000E-01   1.00800           0
     13982 MEMB     122      OSM      C7S      CTL2    -0.180000       12.0110           0
     13983 MEMB     122      OSM      H7S      HAL2     0.900000E-01   1.00800           0
     13984 MEMB     122      OSM      H7T      HAL2     0.900000E-01   1.00800           0
     13985 MEMB     122      OSM      C8S      CTL2    -0.180000       12.0110           0
     13986 MEMB     122      OSM      H8S      HAL2     0.900000E-01   1.00800           0
     13987 MEMB     122      OSM      H8T      HAL2     0.900000E-01   1.00800           0
     13988 MEMB     122      OSM      C9S      CTL2    -0.180000       12.0110           0
     13989 MEMB     122      OSM      H9S      HAL2     0.900000E-01   1.00800           0
     13990 MEMB     122      OSM      H9T      HAL2     0.900000E-01   1.00800           0
     13991 MEMB     122      OSM      C10S     CTL2    -0.180000       12.0110           0
     13992 MEMB     122      OSM      H10S     HAL2     0.900000E-01   1.00800           0
     13993 MEMB     122      OSM      H10T     HAL2     0.900000E-01   1.00800           0
     13994 MEMB     122      OSM      C11S     CTL2    -0.180000       12.0110           0
     13995 MEMB     122      OSM      H11S     HAL2     0.900000E-01   1.00800           0
     13996 MEMB     122      OSM      H11T     HAL2     0.900000E-01   1.00800           0
     13997 MEMB     122      OSM      C12S     CTL2    -0.180000       12.0110           0
     13998 MEMB     122      OSM      H12S     HAL2     0.900000E-01   1.00800           0
     13999 MEMB     122      OSM      H12T     HAL2     0.900000E-01   1.00800           0
     14000 MEMB     122      OSM      C13S     CTL2    -0.180000       12.0110           0
     14001 MEMB     122      OSM      H13S     HAL2     0.900000E-01   1.00800           0
     14002 MEMB     122      OSM      H13T     HAL2     0.900000E-01   1.00800           0
     14003 MEMB     122      OSM      C14S     CTL2    -0.180000       12.0110           0
     14004 MEMB     122      OSM      H14S     HAL2     0.900000E-01   1.00800           0
     14005 MEMB     122      OSM      H14T     HAL2     0.900000E-01   1.00800           0
     14006 MEMB     122      OSM      C15S     CTL2    -0.180000       12.0110           0
     14007 MEMB     122      OSM      H15S     HAL2     0.900000E-01   1.00800           0
     14008 MEMB     122      OSM      H15T     HAL2     0.900000E-01   1.00800           0
     14009 MEMB     122      OSM      C16S     CTL2    -0.180000       12.0110           0
     14010 MEMB     122      OSM      H16S     HAL2     0.900000E-01   1.00800           0
     14011 MEMB     122      OSM      H16T     HAL2     0.900000E-01   1.00800           0
     14012 MEMB     122      OSM      C17S     CTL2    -0.180000       12.0110           0
     14013 MEMB     122      OSM      H17S     HAL2     0.900000E-01   1.00800           0
     14014 MEMB     122      OSM      H17T     HAL2     0.900000E-01   1.00800           0
     14015 MEMB     122      OSM      C18S     CTL3    -0.270000       12.0110           0
     14016 MEMB     122      OSM      H18S     HAL3     0.900000E-01   1.00800           0
     14017 MEMB     122      OSM      H18T     HAL3     0.900000E-01   1.00800           0
     14018 MEMB     122      OSM      H18U     HAL3     0.900000E-01   1.00800           0
     14019 MEMB     122      OSM      C1F      C        0.550000       12.0110           0
     14020 MEMB     122      OSM      OF       O       -0.600000       15.9994           0
     14021 MEMB     122      OSM      C2F      CTL2    -0.700000E-01   12.0110           0
     14022 MEMB     122      OSM      H2F      HAL2     0.600000E-01   1.00800           0
     14023 MEMB     122      OSM      H2G      HAL2     0.600000E-01   1.00800           0
     14024 MEMB     122      OSM      C3F      CTL2    -0.180000       12.0110           0
     14025 MEMB     122      OSM      H3F      HAL2     0.900000E-01   1.00800           0
     14026 MEMB     122      OSM      H3G      HAL2     0.900000E-01   1.00800           0
     14027 MEMB     122      OSM      C4F      CTL2    -0.180000       12.0110           0
     14028 MEMB     122      OSM      H4F      HAL2     0.900000E-01   1.00800           0
     14029 MEMB     122      OSM      H4G      HAL2     0.900000E-01   1.00800           0
     14030 MEMB     122      OSM      C5F      CTL2    -0.180000       12.0110           0
     14031 MEMB     122      OSM      H5F      HAL2     0.900000E-01   1.00800           0
     14032 MEMB     122      OSM      H5G      HAL2     0.900000E-01   1.00800           0
     14033 MEMB     122      OSM      C6F      CTL2    -0.180000       12.0110           0
     14034 MEMB     122      OSM      H6F      HAL2     0.900000E-01   1.00800           0
     14035 MEMB     122      OSM      H6G      HAL2     0.900000E-01   1.00800           0
     14036 MEMB     122      OSM      C7F      CTL2    -0.180000       12.0110           0
     14037 MEMB     122      OSM      H7F      HAL2     0.900000E-01   1.00800           0
     14038 MEMB     122      OSM      H7G      HAL2     0.900000E-01   1.00800           0
     14039 MEMB     122      OSM      C8F      CTL2    -0.180000       12.0110           0
     14040 MEMB     122      OSM      H8F      HAL2     0.900000E-01   1.00800           0
     14041 MEMB     122      OSM      H8G      HAL2     0.900000E-01   1.00800           0
     14042 MEMB     122      OSM      C9F      CEL1    -0.150000       12.0110           0
     14043 MEMB     122      OSM      H9F      HEL1     0.150000       1.00800           0
     14044 MEMB     122      OSM      C10F     CEL1    -0.150000       12.0110           0
     14045 MEMB     122      OSM      H10F     HEL1     0.150000       1.00800           0
     14046 MEMB     122      OSM      C11F     CTL2    -0.180000       12.0110           0
     14047 MEMB     122      OSM      H11F     HAL2     0.900000E-01   1.00800           0
     14048 MEMB     122      OSM      H11G     HAL2     0.900000E-01   1.00800           0
     14049 MEMB     122      OSM      C12F     CTL2    -0.180000       12.0110           0
     14050 MEMB     122      OSM      H12F     HAL2     0.900000E-01   1.00800           0
     14051 MEMB     122      OSM      H12G     HAL2     0.900000E-01   1.00800           0
     14052 MEMB     122      OSM      C13F     CTL2    -0.180000       12.0110           0
     14053 MEMB     122      OSM      H13F     HAL2     0.900000E-01   1.00800           0
     14054 MEMB     122      OSM      H13G     HAL2     0.900000E-01   1.00800           0
     14055 MEMB     122      OSM      C14F     CTL2    -0.180000       12.0110           0
     14056 MEMB     122      OSM      H14F     HAL2     0.900000E-01   1.00800           0
     14057 MEMB     122      OSM      H14G     HAL2     0.900000E-01   1.00800           0
     14058 MEMB     122      OSM      C15F     CTL2    -0.180000       12.0110           0
     14059 MEMB     122      OSM      H15F     HAL2     0.900000E-01   1.00800           0
     14060 MEMB     122      OSM      H15G     HAL2     0.900000E-01   1.00800           0
     14061 MEMB     122      OSM      C16F     CTL2    -0.180000       12.0110           0
     14062 MEMB     122      OSM      H16F     HAL2     0.900000E-01   1.00800           0
     14063 MEMB     122      OSM      H16G     HAL2     0.900000E-01   1.00800           0
     14064 MEMB     122      OSM      C17F     CTL2    -0.180000       12.0110           0
     14065 MEMB     122      OSM      H17F     HAL2     0.900000E-01   1.00800           0
     14066 MEMB     122      OSM      H17G     HAL2     0.900000E-01   1.00800           0
     14067 MEMB     122      OSM      C18F     CTL3    -0.270000       12.0110           0
     14068 MEMB     122      OSM      H18F     HAL3     0.900000E-01   1.00800           0
     14069 MEMB     122      OSM      H18G     HAL3     0.900000E-01   1.00800           0
     14070 MEMB     122      OSM      H18H     HAL3     0.900000E-01   1.00800           0
     14071 MEMB     125      OSM      N        NTL     -0.600000       14.0070           0
     14072 MEMB     125      OSM      C15      CTL5    -0.350000       12.0110           0
     14073 MEMB     125      OSM      H15A     HL       0.250000       1.00800           0
     14074 MEMB     125      OSM      H15B     HL       0.250000       1.00800           0
     14075 MEMB     125      OSM      H15C     HL       0.250000       1.00800           0
     14076 MEMB     125      OSM      C14      CTL5    -0.350000       12.0110           0
     14077 MEMB     125      OSM      H14A     HL       0.250000       1.00800           0
     14078 MEMB     125      OSM      H14B     HL       0.250000       1.00800           0
     14079 MEMB     125      OSM      H14C     HL       0.250000       1.00800           0
     14080 MEMB     125      OSM      C13      CTL5    -0.350000       12.0110           0
     14081 MEMB     125      OSM      H13A     HL       0.250000       1.00800           0
     14082 MEMB     125      OSM      H13B     HL       0.250000       1.00800           0
     14083 MEMB     125      OSM      H13C     HL       0.250000       1.00800           0
     14084 MEMB     125      OSM      C12      CTL2    -0.100000       12.0110           0
     14085 MEMB     125      OSM      H12A     HL       0.250000       1.00800           0
     14086 MEMB     125      OSM      H12B     HL       0.250000       1.00800           0
     14087 MEMB     125      OSM      C11      CTL2    -0.800000E-01   12.0110           0
     14088 MEMB     125      OSM      H11A     HAL2     0.900000E-01   1.00800           0
     14089 MEMB     125      OSM      H11B     HAL2     0.900000E-01   1.00800           0
     14090 MEMB     125      OSM      P        PL       1.500000       30.9740           0
     14091 MEMB     125      OSM      O13      O2L     -0.780000       15.9994           0
     14092 MEMB     125      OSM      O14      O2L     -0.780000       15.9994           0
     14093 MEMB     125      OSM      O11      OSLP    -0.570000       15.9994           0
     14094 MEMB     125      OSM      O12      OSLP    -0.570000       15.9994           0
     14095 MEMB     125      OSM      C1S      CTL2    -0.800000E-01   12.0110           0
     14096 MEMB     125      OSM      H1S      HAL2     0.900000E-01   1.00800           0
     14097 MEMB     125      OSM      H1T      HAL2     0.900000E-01   1.00800           0
     14098 MEMB     125      OSM      NF       NHL     -0.700000       14.0070           0
     14099 MEMB     125      OSM      HNF      H        0.350000       1.00800           0
     14100 MEMB     125      OSM      C2S      CTL1     0.300000       12.0110           0
     14101 MEMB     125      OSM      H2S      HAL1     0.500000E-01   1.00800           0
     14102 MEMB     125      OSM      C3S      CTO1     0.500000       12.0110           0
     14103 MEMB     125      OSM      H3S      HAL1    -0.110000       1.00800           0
     14104 MEMB     125      OSM      O3       OHL     -0.690000       15.9994           0
     14105 MEMB     125      OSM      HO3      HOL      0.300000       1.00800           0
     14106 MEMB     125      OSM      C4S      CEL3    -0.150000       12.0110           0
     14107 MEMB     125      OSM      H4S      HEL1     0.150000       1.00800           0
     14108 MEMB     125      OSM      C5S      CEL3    -0.150000       12.0110           0
     14109 MEMB     125      OSM      H5S      HEL1     0.150000       1.00800           0
     14110 MEMB     125      OSM      C6S      CTL2    -0.180000       12.0110           0
     14111 MEMB     125      OSM      H6S      HAL2     0.900000E-01   1.00800           0
     14112 MEMB     125      OSM      H6T      HAL2     0.900000E-01   1.00800           0
     14113 MEMB     125      OSM      C7S      CTL2    -0.180000       12.0110           0
     14114 MEMB     125      OSM      H7S      HAL2     0.900000E-01   1.00800           0
     14115 MEMB     125      OSM      H7T      HAL2     0.900000E-01   1.00800           0
     14116 MEMB     125      OSM      C8S      CTL2    -0.180000       12.0110           0
     14117 MEMB     125      OSM      H8S      HAL2     0.900000E-01   1.00800           0
     14118 MEMB     125      OSM      H8T      HAL2     0.900000E-01   1.00800           0
     14119 MEMB     125      OSM      C9S      CTL2    -0.180000       12.0110           0
     14120 MEMB     125      OSM      H9S      HAL2     0.900000E-01   1.00800           0
     14121 MEMB     125      OSM      H9T      HAL2     0.900000E-01   1.00800           0
     14122 MEMB     125      OSM      C10S     CTL2    -0.180000       12.0110           0
     14123 MEMB     125      OSM      H10S     HAL2     0.900000E-01   1.00800           0
     14124 MEMB     125      OSM      H10T     HAL2     0.900000E-01   1.00800           0
     14125 MEMB     125      OSM      C11S     CTL2    -0.180000       12.0110           0
     14126 MEMB     125      OSM      H11S     HAL2     0.900000E-01   1.00800           0
     14127 MEMB     125      OSM      H11T     HAL2     0.900000E-01   1.00800           0
     14128 MEMB     125      OSM      C12S     CTL2    -0.180000       12.0110           0
     14129 MEMB     125      OSM      H12S     HAL2     0.900000E-01   1.00800           0
     14130 MEMB     125      OSM      H12T     HAL2     0.900000E-01   1.00800           0
     14131 MEMB     125      OSM      C13S     CTL2    -0.180000       12.0110           0
     14132 MEMB     125      OSM      H13S     HAL2     0.900000E-01   1.00800           0
     14133 MEMB     125      OSM      H13T     HAL2     0.900000E-01   1.00800           0
     14134 MEMB     125      OSM      C14S     CTL2    -0.180000       12.0110           0
     14135 MEMB     125      OSM      H14S     HAL2     0.900000E-01   1.00800           0
     14136 MEMB     125      OSM      H14T     HAL2     0.900000E-01   1.00800           0
     14137 MEMB     125      OSM      C15S     CTL2    -0.180000       12.0110           0
     14138 MEMB     125      OSM      H15S     HAL2     0.900000E-01   1.00800           0
     14139 MEMB     125      OSM      H15T     HAL2     0.900000E-01   1.00800           0
     14140 MEMB     125      OSM      C16S     CTL2    -0.180000       12.0110           0
     14141 MEMB     125      OSM      H16S     HAL2     0.900000E-01   1.00800           0
     14142 MEMB     125      OSM      H16T     HAL2     0.900000E-01   1.00800           0
     14143 MEMB     125      OSM      C17S     CTL2    -0.180000       12.0110           0
     14144 MEMB     125      OSM      H17S     HAL2     0.900000E-01   1.00800           0
     14145 MEMB     125      OSM      H17T     HAL2     0.900000E-01   1.00800           0
     14146 MEMB     125      OSM      C18S     CTL3    -0.270000       12.0110           0
     14147 MEMB     125      OSM      H18S     HAL3     0.900000E-01   1.00800           0
     14148 MEMB     125      OSM      H18T     HAL3     0.900000E-01   1.00800           0
     14149 MEMB     125      OSM      H18U     HAL3     0.900000E-01   1.00800           0
     14150 MEMB     125      OSM      C1F      C        0.550000       12.0110           0
     14151 MEMB     125      OSM      OF       O       -0.600000       15.9994           0
     14152 MEMB     125      OSM      C2F      CTL2    -0.700000E-01   12.0110           0
     14153 MEMB     125      OSM      H2F      HAL2     0.600000E-01   1.00800           0
     14154 MEMB     125      OSM      H2G      HAL2     0.600000E-01   1.00800           0
     14155 MEMB     125      OSM      C3F      CTL2    -0.180000       12.0110           0
     14156 MEMB     125      OSM      H3F      HAL2     0.900000E-01   1.00800           0
     14157 MEMB     125      OSM      H3G      HAL2     0.900000E-01   1.00800           0
     14158 MEMB     125      OSM      C4F      CTL2    -0.180000       12.0110           0
     14159 MEMB     125      OSM      H4F      HAL2     0.900000E-01   1.00800           0
     14160 MEMB     125      OSM      H4G      HAL2     0.900000E-01   1.00800           0
     14161 MEMB     125      OSM      C5F      CTL2    -0.180000       12.0110           0
     14162 MEMB     125      OSM      H5F      HAL2     0.900000E-01   1.00800           0
     14163 MEMB     125      OSM      H5G      HAL2     0.900000E-01   1.00800           0
     14164 MEMB     125      OSM      C6F      CTL2    -0.180000       12.0110           0
     14165 MEMB     125      OSM      H6F      HAL2     0.900000E-01   1.00800           0
     14166 MEMB     125      OSM      H6G      HAL2     0.900000E-01   1.00800           0
     14167 MEMB     125      OSM      C7F      CTL2    -0.180000       12.0110           0
     14168 MEMB     125      OSM      H7F      HAL2     0.900000E-01   1.00800           0
     14169 MEMB     125      OSM      H7G      HAL2     0.900000E-01   1.00800           0
     14170 MEMB     125      OSM      C8F      CTL2    -0.180000       12.0110           0
     14171 MEMB     125      OSM      H8F      HAL2     0.900000E-01   1.00800           0
     14172 MEMB     125      OSM      H8G      HAL2     0.900000E-01   1.00800           0
     14173 MEMB     125      OSM      C9F      CEL1    -0.150000       12.0110           0
     14174 MEMB     125      OSM      H9F      HEL1     0.150000       1.00800           0
     14175 MEMB     125      OSM      C10F     CEL1    -0.150000       12.0110           0
     14176 MEMB     125      OSM      H10F     HEL1     0.150000       1.00800           0
     14177 MEMB     125      OSM      C11F     CTL2    -0.180000       12.0110           0
     14178 MEMB     125      OSM      H11F     HAL2     0.900000E-01   1.00800           0
     14179 MEMB     125      OSM      H11G     HAL2     0.900000E-01   1.00800           0
     14180 MEMB     125      OSM      C12F     CTL2    -0.180000       12.0110           0
     14181 MEMB     125      OSM      H12F     HAL2     0.900000E-01   1.00800           0
     14182 MEMB     125      OSM      H12G     HAL2     0.900000E-01   1.00800           0
     14183 MEMB     125      OSM      C13F     CTL2    -0.180000       12.0110           0
     14184 MEMB     125      OSM      H13F     HAL2     0.900000E-01   1.00800           0
     14185 MEMB     125      OSM      H13G     HAL2     0.900000E-01   1.00800           0
     14186 MEMB     125      OSM      C14F     CTL2    -0.180000       12.0110           0
     14187 MEMB     125      OSM      H14F     HAL2     0.900000E-01   1.00800           0
     14188 MEMB     125      OSM      H14G     HAL2     0.900000E-01   1.00800           0
     14189 MEMB     125      OSM      C15F     CTL2    -0.180000       12.0110           0
     14190 MEMB     125      OSM      H15F     HAL2     0.900000E-01   1.00800           0
     14191 MEMB     125      OSM      H15G     HAL2     0.900000E-01   1.00800           0
     14192 MEMB     125      OSM      C16F     CTL2    -0.180000       12.0110           0
     14193 MEMB     125      OSM      H16F     HAL2     0.900000E-01   1.00800           0
     14194 MEMB     125      OSM      H16G     HAL2     0.900000E-01   1.00800           0
     14195 MEMB     125      OSM      C17F     CTL2    -0.180000       12.0110           0
     14196 MEMB     125      OSM      H17F     HAL2     0.900000E-01   1.00800           0
     14197 MEMB     125      OSM      H17G     HAL2     0.900000E-01   1.00800           0
     14198 MEMB     125      OSM      C18F     CTL3    -0.270000       12.0110           0
     14199 MEMB     125      OSM      H18F     HAL3     0.900000E-01   1.00800           0
     14200 MEMB     125      OSM      H18G     HAL3     0.900000E-01   1.00800           0
     14201 MEMB     125      OSM      H18H     HAL3     0.900000E-01   1.00800           0
     14202 MEMB     132      OSM      N        NTL     -0.600000       14.0070           0
     14203 MEMB     132      OSM      C15      CTL5    -0.350000       12.0110           0
     14204 MEMB     132      OSM      H15A     HL       0.250000       1.00800           0
     14205 MEMB     132      OSM      H15B     HL       0.250000       1.00800           0
     14206 MEMB     132      OSM      H15C     HL       0.250000       1.00800           0
     14207 MEMB     132      OSM      C14      CTL5    -0.350000       12.0110           0
     14208 MEMB     132      OSM      H14A     HL       0.250000       1.00800           0
     14209 MEMB     132      OSM      H14B     HL       0.250000       1.00800           0
     14210 MEMB     132      OSM      H14C     HL       0.250000       1.00800           0
     14211 MEMB     132      OSM      C13      CTL5    -0.350000       12.0110           0
     14212 MEMB     132      OSM      H13A     HL       0.250000       1.00800           0
     14213 MEMB     132      OSM      H13B     HL       0.250000       1.00800           0
     14214 MEMB     132      OSM      H13C     HL       0.250000       1.00800           0
     14215 MEMB     132      OSM      C12      CTL2    -0.100000       12.0110           0
     14216 MEMB     132      OSM      H12A     HL       0.250000       1.00800           0
     14217 MEMB     132      OSM      H12B     HL       0.250000       1.00800           0
     14218 MEMB     132      OSM      C11      CTL2    -0.800000E-01   12.0110           0
     14219 MEMB     132      OSM      H11A     HAL2     0.900000E-01   1.00800           0
     14220 MEMB     132      OSM      H11B     HAL2     0.900000E-01   1.00800           0
     14221 MEMB     132      OSM      P        PL       1.500000       30.9740           0
     14222 MEMB     132      OSM      O13      O2L     -0.780000       15.9994           0
     14223 MEMB     132      OSM      O14      O2L     -0.780000       15.9994           0
     14224 MEMB     132      OSM      O11      OSLP    -0.570000       15.9994           0
     14225 MEMB     132      OSM      O12      OSLP    -0.570000       15.9994           0
     14226 MEMB     132      OSM      C1S      CTL2    -0.800000E-01   12.0110           0
     14227 MEMB     132      OSM      H1S      HAL2     0.900000E-01   1.00800           0
     14228 MEMB     132      OSM      H1T      HAL2     0.900000E-01   1.00800           0
     14229 MEMB     132      OSM      NF       NHL     -0.700000       14.0070           0
     14230 MEMB     132      OSM      HNF      H        0.350000       1.00800           0
     14231 MEMB     132      OSM      C2S      CTL1     0.300000       12.0110           0
     14232 MEMB     132      OSM      H2S      HAL1     0.500000E-01   1.00800           0
     14233 MEMB     132      OSM      C3S      CTO1     0.500000       12.0110           0
     14234 MEMB     132      OSM      H3S      HAL1    -0.110000       1.00800           0
     14235 MEMB     132      OSM      O3       OHL     -0.690000       15.9994           0
     14236 MEMB     132      OSM      HO3      HOL      0.300000       1.00800           0
     14237 MEMB     132      OSM      C4S      CEL3    -0.150000       12.0110           0
     14238 MEMB     132      OSM      H4S      HEL1     0.150000       1.00800           0
     14239 MEMB     132      OSM      C5S      CEL3    -0.150000       12.0110           0
     14240 MEMB     132      OSM      H5S      HEL1     0.150000       1.00800           0
     14241 MEMB     132      OSM      C6S      CTL2    -0.180000       12.0110           0
     14242 MEMB     132      OSM      H6S      HAL2     0.900000E-01   1.00800           0
     14243 MEMB     132      OSM      H6T      HAL2     0.900000E-01   1.00800           0
     14244 MEMB     132      OSM      C7S      CTL2    -0.180000       12.0110           0
     14245 MEMB     132      OSM      H7S      HAL2     0.900000E-01   1.00800           0
     14246 MEMB     132      OSM      H7T      HAL2     0.900000E-01   1.00800           0
     14247 MEMB     132      OSM      C8S      CTL2    -0.180000       12.0110           0
     14248 MEMB     132      OSM      H8S      HAL2     0.900000E-01   1.00800           0
     14249 MEMB     132      OSM      H8T      HAL2     0.900000E-01   1.00800           0
     14250 MEMB     132      OSM      C9S      CTL2    -0.180000       12.0110           0
     14251 MEMB     132      OSM      H9S      HAL2     0.900000E-01   1.00800           0
     14252 MEMB     132      OSM      H9T      HAL2     0.900000E-01   1.00800           0
     14253 MEMB     132      OSM      C10S     CTL2    -0.180000       12.0110           0
     14254 MEMB     132      OSM      H10S     HAL2     0.900000E-01   1.00800           0
     14255 MEMB     132      OSM      H10T     HAL2     0.900000E-01   1.00800           0
     14256 MEMB     132      OSM      C11S     CTL2    -0.180000       12.0110           0
     14257 MEMB     132      OSM      H11S     HAL2     0.900000E-01   1.00800           0
     14258 MEMB     132      OSM      H11T     HAL2     0.900000E-01   1.00800           0
     14259 MEMB     132      OSM      C12S     CTL2    -0.180000       12.0110           0
     14260 MEMB     132      OSM      H12S     HAL2     0.900000E-01   1.00800           0
     14261 MEMB     132      OSM      H12T     HAL2     0.900000E-01   1.00800           0
     14262 MEMB     132      OSM      C13S     CTL2    -0.180000       12.0110           0
     14263 MEMB     132      OSM      H13S     HAL2     0.900000E-01   1.00800           0
     14264 MEMB     132      OSM      H13T     HAL2     0.900000E-01   1.00800           0
     14265 MEMB     132      OSM      C14S     CTL2    -0.180000       12.0110           0
     14266 MEMB     132      OSM      H14S     HAL2     0.900000E-01   1.00800           0
     14267 MEMB     132      OSM      H14T     HAL2     0.900000E-01   1.00800           0
     14268 MEMB     132      OSM      C15S     CTL2    -0.180000       12.0110           0
     14269 MEMB     132      OSM      H15S     HAL2     0.900000E-01   1.00800           0
     14270 MEMB     132      OSM      H15T     HAL2     0.900000E-01   1.00800           0
     14271 MEMB     132      OSM      C16S     CTL2    -0.180000       12.0110           0
     14272 MEMB     132      OSM      H16S     HAL2     0.900000E-01   1.00800           0
     14273 MEMB     132      OSM      H16T     HAL2     0.900000E-01   1.00800           0
     14274 MEMB     132      OSM      C17S     CTL2    -0.180000       12.0110           0
     14275 MEMB     132      OSM      H17S     HAL2     0.900000E-01   1.00800           0
     14276 MEMB     132      OSM      H17T     HAL2     0.900000E-01   1.00800           0
     14277 MEMB     132      OSM      C18S     CTL3    -0.270000       12.0110           0
     14278 MEMB     132      OSM      H18S     HAL3     0.900000E-01   1.00800           0
     14279 MEMB     132      OSM      H18T     HAL3     0.900000E-01   1.00800           0
     14280 MEMB     132      OSM      H18U     HAL3     0.900000E-01   1.00800           0
     14281 MEMB     132      OSM      C1F      C        0.550000       12.0110           0
     14282 MEMB     132      OSM      OF       O       -0.600000       15.9994           0
     14283 MEMB     132      OSM      C2F      CTL2    -0.700000E-01   12.0110           0
     14284 MEMB     132      OSM      H2F      HAL2     0.600000E-01   1.00800           0
     14285 MEMB     132      OSM      H2G      HAL2     0.600000E-01   1.00800           0
     14286 MEMB     132      OSM      C3F      CTL2    -0.180000       12.0110           0
     14287 MEMB     132      OSM      H3F      HAL2     0.900000E-01   1.00800           0
     14288 MEMB     132      OSM      H3G      HAL2     0.900000E-01   1.00800           0
     14289 MEMB     132      OSM      C4F      CTL2    -0.180000       12.0110           0
     14290 MEMB     132      OSM      H4F      HAL2     0.900000E-01   1.00800           0
     14291 MEMB     132      OSM      H4G      HAL2     0.900000E-01   1.00800           0
     14292 MEMB     132      OSM      C5F      CTL2    -0.180000       12.0110           0
     14293 MEMB     132      OSM      H5F      HAL2     0.900000E-01   1.00800           0
     14294 MEMB     132      OSM      H5G      HAL2     0.900000E-01   1.00800           0
     14295 MEMB     132      OSM      C6F      CTL2    -0.180000       12.0110           0
     14296 MEMB     132      OSM      H6F      HAL2     0.900000E-01   1.00800           0
     14297 MEMB     132      OSM      H6G      HAL2     0.900000E-01   1.00800           0
     14298 MEMB     132      OSM      C7F      CTL2    -0.180000       12.0110           0
     14299 MEMB     132      OSM      H7F      HAL2     0.900000E-01   1.00800           0
     14300 MEMB     132      OSM      H7G      HAL2     0.900000E-01   1.00800           0
     14301 MEMB     132      OSM      C8F      CTL2    -0.180000       12.0110           0
     14302 MEMB     132      OSM      H8F      HAL2     0.900000E-01   1.00800           0
     14303 MEMB     132      OSM      H8G      HAL2     0.900000E-01   1.00800           0
     14304 MEMB     132      OSM      C9F      CEL1    -0.150000       12.0110           0
     14305 MEMB     132      OSM      H9F      HEL1     0.150000       1.00800           0
     14306 MEMB     132      OSM      C10F     CEL1    -0.150000       12.0110           0
     14307 MEMB     132      OSM      H10F     HEL1     0.150000       1.00800           0
     14308 MEMB     132      OSM      C11F     CTL2    -0.180000       12.0110           0
     14309 MEMB     132      OSM      H11F     HAL2     0.900000E-01   1.00800           0
     14310 MEMB     132      OSM      H11G     HAL2     0.900000E-01   1.00800           0
     14311 MEMB     132      OSM      C12F     CTL2    -0.180000       12.0110           0
     14312 MEMB     132      OSM      H12F     HAL2     0.900000E-01   1.00800           0
     14313 MEMB     132      OSM      H12G     HAL2     0.900000E-01   1.00800           0
     14314 MEMB     132      OSM      C13F     CTL2    -0.180000       12.0110           0
     14315 MEMB     132      OSM      H13F     HAL2     0.900000E-01   1.00800           0
     14316 MEMB     132      OSM      H13G     HAL2     0.900000E-01   1.00800           0
     14317 MEMB     132      OSM      C14F     CTL2    -0.180000       12.0110           0
     14318 MEMB     132      OSM      H14F     HAL2     0.900000E-01   1.00800           0
     14319 MEMB     132      OSM      H14G     HAL2     0.900000E-01   1.00800           0
     14320 MEMB     132      OSM      C15F     CTL2    -0.180000       12.0110           0
     14321 MEMB     132      OSM      H15F     HAL2     0.900000E-01   1.00800           0
     14322 MEMB     132      OSM      H15G     HAL2     0.900000E-01   1.00800           0
     14323 MEMB     132      OSM      C16F     CTL2    -0.180000       12.0110           0
     14324 MEMB     132      OSM      H16F     HAL2     0.900000E-01   1.00800           0
     14325 MEMB     132      OSM      H16G     HAL2     0.900000E-01   1.00800           0
     14326 MEMB     132      OSM      C17F     CTL2    -0.180000       12.0110           0
     14327 MEMB     132      OSM      H17F     HAL2     0.900000E-01   1.00800           0
     14328 MEMB     132      OSM      H17G     HAL2     0.900000E-01   1.00800           0
     14329 MEMB     132      OSM      C18F     CTL3    -0.270000       12.0110           0
     14330 MEMB     132      OSM      H18F     HAL3     0.900000E-01   1.00800           0
     14331 MEMB     132      OSM      H18G     HAL3     0.900000E-01   1.00800           0
     14332 MEMB     132      OSM      H18H     HAL3     0.900000E-01   1.00800           0
     14333 MEMB     133      OSM      N        NTL     -0.600000       14.0070           0
     14334 MEMB     133      OSM      C15      CTL5    -0.350000       12.0110           0
     14335 MEMB     133      OSM      H15A     HL       0.250000       1.00800           0
     14336 MEMB     133      OSM      H15B     HL       0.250000       1.00800           0
     14337 MEMB     133      OSM      H15C     HL       0.250000       1.00800           0
     14338 MEMB     133      OSM      C14      CTL5    -0.350000       12.0110           0
     14339 MEMB     133      OSM      H14A     HL       0.250000       1.00800           0
     14340 MEMB     133      OSM      H14B     HL       0.250000       1.00800           0
     14341 MEMB     133      OSM      H14C     HL       0.250000       1.00800           0
     14342 MEMB     133      OSM      C13      CTL5    -0.350000       12.0110           0
     14343 MEMB     133      OSM      H13A     HL       0.250000       1.00800           0
     14344 MEMB     133      OSM      H13B     HL       0.250000       1.00800           0
     14345 MEMB     133      OSM      H13C     HL       0.250000       1.00800           0
     14346 MEMB     133      OSM      C12      CTL2    -0.100000       12.0110           0
     14347 MEMB     133      OSM      H12A     HL       0.250000       1.00800           0
     14348 MEMB     133      OSM      H12B     HL       0.250000       1.00800           0
     14349 MEMB     133      OSM      C11      CTL2    -0.800000E-01   12.0110           0
     14350 MEMB     133      OSM      H11A     HAL2     0.900000E-01   1.00800           0
     14351 MEMB     133      OSM      H11B     HAL2     0.900000E-01   1.00800           0
     14352 MEMB     133      OSM      P        PL       1.500000       30.9740           0
     14353 MEMB     133      OSM      O13      O2L     -0.780000       15.9994           0
     14354 MEMB     133      OSM      O14      O2L     -0.780000       15.9994           0
     14355 MEMB     133      OSM      O11      OSLP    -0.570000       15.9994           0
     14356 MEMB     133      OSM      O12      OSLP    -0.570000       15.9994           0
     14357 MEMB     133      OSM      C1S      CTL2    -0.800000E-01   12.0110           0
     14358 MEMB     133      OSM      H1S      HAL2     0.900000E-01   1.00800           0
     14359 MEMB     133      OSM      H1T      HAL2     0.900000E-01   1.00800           0
     14360 MEMB     133      OSM      NF       NHL     -0.700000       14.0070           0
     14361 MEMB     133      OSM      HNF      H        0.350000       1.00800           0
     14362 MEMB     133      OSM      C2S      CTL1     0.300000       12.0110           0
     14363 MEMB     133      OSM      H2S      HAL1     0.500000E-01   1.00800           0
     14364 MEMB     133      OSM      C3S      CTO1     0.500000       12.0110           0
     14365 MEMB     133      OSM      H3S      HAL1    -0.110000       1.00800           0
     14366 MEMB     133      OSM      O3       OHL     -0.690000       15.9994           0
     14367 MEMB     133      OSM      HO3      HOL      0.300000       1.00800           0
     14368 MEMB     133      OSM      C4S      CEL3    -0.150000       12.0110           0
     14369 MEMB     133      OSM      H4S      HEL1     0.150000       1.00800           0
     14370 MEMB     133      OSM      C5S      CEL3    -0.150000       12.0110           0
     14371 MEMB     133      OSM      H5S      HEL1     0.150000       1.00800           0
     14372 MEMB     133      OSM      C6S      CTL2    -0.180000       12.0110           0
     14373 MEMB     133      OSM      H6S      HAL2     0.900000E-01   1.00800           0
     14374 MEMB     133      OSM      H6T      HAL2     0.900000E-01   1.00800           0
     14375 MEMB     133      OSM      C7S      CTL2    -0.180000       12.0110           0
     14376 MEMB     133      OSM      H7S      HAL2     0.900000E-01   1.00800           0
     14377 MEMB     133      OSM      H7T      HAL2     0.900000E-01   1.00800           0
     14378 MEMB     133      OSM      C8S      CTL2    -0.180000       12.0110           0
     14379 MEMB     133      OSM      H8S      HAL2     0.900000E-01   1.00800           0
     14380 MEMB     133      OSM      H8T      HAL2     0.900000E-01   1.00800           0
     14381 MEMB     133      OSM      C9S      CTL2    -0.180000       12.0110           0
     14382 MEMB     133      OSM      H9S      HAL2     0.900000E-01   1.00800           0
     14383 MEMB     133      OSM      H9T      HAL2     0.900000E-01   1.00800           0
     14384 MEMB     133      OSM      C10S     CTL2    -0.180000       12.0110           0
     14385 MEMB     133      OSM      H10S     HAL2     0.900000E-01   1.00800           0
     14386 MEMB     133      OSM      H10T     HAL2     0.900000E-01   1.00800           0
     14387 MEMB     133      OSM      C11S     CTL2    -0.180000       12.0110           0
     14388 MEMB     133      OSM      H11S     HAL2     0.900000E-01   1.00800           0
     14389 MEMB     133      OSM      H11T     HAL2     0.900000E-01   1.00800           0
     14390 MEMB     133      OSM      C12S     CTL2    -0.180000       12.0110           0
     14391 MEMB     133      OSM      H12S     HAL2     0.900000E-01   1.00800           0
     14392 MEMB     133      OSM      H12T     HAL2     0.900000E-01   1.00800           0
     14393 MEMB     133      OSM      C13S     CTL2    -0.180000       12.0110           0
     14394 MEMB     133      OSM      H13S     HAL2     0.900000E-01   1.00800           0
     14395 MEMB     133      OSM      H13T     HAL2     0.900000E-01   1.00800           0
     14396 MEMB     133      OSM      C14S     CTL2    -0.180000       12.0110           0
     14397 MEMB     133      OSM      H14S     HAL2     0.900000E-01   1.00800           0
     14398 MEMB     133      OSM      H14T     HAL2     0.900000E-01   1.00800           0
     14399 MEMB     133      OSM      C15S     CTL2    -0.180000       12.0110           0
     14400 MEMB     133      OSM      H15S     HAL2     0.900000E-01   1.00800           0
     14401 MEMB     133      OSM      H15T     HAL2     0.900000E-01   1.00800           0
     14402 MEMB     133      OSM      C16S     CTL2    -0.180000       12.0110           0
     14403 MEMB     133      OSM      H16S     HAL2     0.900000E-01   1.00800           0
     14404 MEMB     133      OSM      H16T     HAL2     0.900000E-01   1.00800           0
     14405 MEMB     133      OSM      C17S     CTL2    -0.180000       12.0110           0
     14406 MEMB     133      OSM      H17S     HAL2     0.900000E-01   1.00800           0
     14407 MEMB     133      OSM      H17T     HAL2     0.900000E-01   1.00800           0
     14408 MEMB     133      OSM      C18S     CTL3    -0.270000       12.0110           0
     14409 MEMB     133      OSM      H18S     HAL3     0.900000E-01   1.00800           0
     14410 MEMB     133      OSM      H18T     HAL3     0.900000E-01   1.00800           0
     14411 MEMB     133      OSM      H18U     HAL3     0.900000E-01   1.00800           0
     14412 MEMB     133      OSM      C1F      C        0.550000       12.0110           0
     14413 MEMB     133      OSM      OF       O       -0.600000       15.9994           0
     14414 MEMB     133      OSM      C2F      CTL2    -0.700000E-01   12.0110           0
     14415 MEMB     133      OSM      H2F      HAL2     0.600000E-01   1.00800           0
     14416 MEMB     133      OSM      H2G      HAL2     0.600000E-01   1.00800           0
     14417 MEMB     133      OSM      C3F      CTL2    -0.180000       12.0110           0
     14418 MEMB     133      OSM      H3F      HAL2     0.900000E-01   1.00800           0
     14419 MEMB     133      OSM      H3G      HAL2     0.900000E-01   1.00800           0
     14420 MEMB     133      OSM      C4F      CTL2    -0.180000       12.0110           0
     14421 MEMB     133      OSM      H4F      HAL2     0.900000E-01   1.00800           0
     14422 MEMB     133      OSM      H4G      HAL2     0.900000E-01   1.00800           0
     14423 MEMB     133      OSM      C5F      CTL2    -0.180000       12.0110           0
     14424 MEMB     133      OSM      H5F      HAL2     0.900000E-01   1.00800           0
     14425 MEMB     133      OSM      H5G      HAL2     0.900000E-01   1.00800           0
     14426 MEMB     133      OSM      C6F      CTL2    -0.180000       12.0110           0
     14427 MEMB     133      OSM      H6F      HAL2     0.900000E-01   1.00800           0
     14428 MEMB     133      OSM      H6G      HAL2     0.900000E-01   1.00800           0
     14429 MEMB     133      OSM      C7F      CTL2    -0.180000       12.0110           0
     14430 MEMB     133      OSM      H7F      HAL2     0.900000E-01   1.00800           0
     14431 MEMB     133      OSM      H7G      HAL2     0.900000E-01   1.00800           0
     14432 MEMB     133      OSM      C8F      CTL2    -0.180000       12.0110           0
     14433 MEMB     133      OSM      H8F      HAL2     0.900000E-01   1.00800           0
     14434 MEMB     133      OSM      H8G      HAL2     0.900000E-01   1.00800           0
     14435 MEMB     133      OSM      C9F      CEL1    -0.150000       12.0110           0
     14436 MEMB     133      OSM      H9F      HEL1     0.150000       1.00800           0
     14437 MEMB     133      OSM      C10F     CEL1    -0.150000       12.0110           0
     14438 MEMB     133      OSM      H10F     HEL1     0.150000       1.00800           0
     14439 MEMB     133      OSM      C11F     CTL2    -0.180000       12.0110           0
     14440 MEMB     133      OSM      H11F     HAL2     0.900000E-01   1.00800           0
     14441 MEMB     133      OSM      H11G     HAL2     0.900000E-01   1.00800           0
     14442 MEMB     133      OSM      C12F     CTL2    -0.180000       12.0110           0
     14443 MEMB     133      OSM      H12F     HAL2     0.900000E-01   1.00800           0
     14444 MEMB     133      OSM      H12G     HAL2     0.900000E-01   1.00800           0
     14445 MEMB     133      OSM      C13F     CTL2    -0.180000       12.0110           0
     14446 MEMB     133      OSM      H13F     HAL2     0.900000E-01   1.00800           0
     14447 MEMB     133      OSM      H13G     HAL2     0.900000E-01   1.00800           0
     14448 MEMB     133      OSM      C14F     CTL2    -0.180000       12.0110           0
     14449 MEMB     133      OSM      H14F     HAL2     0.900000E-01   1.00800           0
     14450 MEMB     133      OSM      H14G     HAL2     0.900000E-01   1.00800           0
     14451 MEMB     133      OSM      C15F     CTL2    -0.180000       12.0110           0
     14452 MEMB     133      OSM      H15F     HAL2     0.900000E-01   1.00800           0
     14453 MEMB     133      OSM      H15G     HAL2     0.900000E-01   1.00800           0
     14454 MEMB     133      OSM      C16F     CTL2    -0.180000       12.0110           0
     14455 MEMB     133      OSM      H16F     HAL2     0.900000E-01   1.00800           0
     14456 MEMB     133      OSM      H16G     HAL2     0.900000E-01   1.00800           0
     14457 MEMB     133      OSM      C17F     CTL2    -0.180000       12.0110           0
     14458 MEMB     133      OSM      H17F     HAL2     0.900000E-01   1.00800           0
     14459 MEMB     133      OSM      H17G     HAL2     0.900000E-01   1.00800           0
     14460 MEMB     133      OSM      C18F     CTL3    -0.270000       12.0110           0
     14461 MEMB     133      OSM      H18F     HAL3     0.900000E-01   1.00800           0
     14462 MEMB     133      OSM      H18G     HAL3     0.900000E-01   1.00800           0
     14463 MEMB     133      OSM      H18H     HAL3     0.900000E-01   1.00800           0
     14464 MEMB     135      OSM      N        NTL     -0.600000       14.0070           0
     14465 MEMB     135      OSM      C15      CTL5    -0.350000       12.0110           0
     14466 MEMB     135      OSM      H15A     HL       0.250000       1.00800           0
     14467 MEMB     135      OSM      H15B     HL       0.250000       1.00800           0
     14468 MEMB     135      OSM      H15C     HL       0.250000       1.00800           0
     14469 MEMB     135      OSM      C14      CTL5    -0.350000       12.0110           0
     14470 MEMB     135      OSM      H14A     HL       0.250000       1.00800           0
     14471 MEMB     135      OSM      H14B     HL       0.250000       1.00800           0
     14472 MEMB     135      OSM      H14C     HL       0.250000       1.00800           0
     14473 MEMB     135      OSM      C13      CTL5    -0.350000       12.0110           0
     14474 MEMB     135      OSM      H13A     HL       0.250000       1.00800           0
     14475 MEMB     135      OSM      H13B     HL       0.250000       1.00800           0
     14476 MEMB     135      OSM      H13C     HL       0.250000       1.00800           0
     14477 MEMB     135      OSM      C12      CTL2    -0.100000       12.0110           0
     14478 MEMB     135      OSM      H12A     HL       0.250000       1.00800           0
     14479 MEMB     135      OSM      H12B     HL       0.250000       1.00800           0
     14480 MEMB     135      OSM      C11      CTL2    -0.800000E-01   12.0110           0
     14481 MEMB     135      OSM      H11A     HAL2     0.900000E-01   1.00800           0
     14482 MEMB     135      OSM      H11B     HAL2     0.900000E-01   1.00800           0
     14483 MEMB     135      OSM      P        PL       1.500000       30.9740           0
     14484 MEMB     135      OSM      O13      O2L     -0.780000       15.9994           0
     14485 MEMB     135      OSM      O14      O2L     -0.780000       15.9994           0
     14486 MEMB     135      OSM      O11      OSLP    -0.570000       15.9994           0
     14487 MEMB     135      OSM      O12      OSLP    -0.570000       15.9994           0
     14488 MEMB     135      OSM      C1S      CTL2    -0.800000E-01   12.0110           0
     14489 MEMB     135      OSM      H1S      HAL2     0.900000E-01   1.00800           0
     14490 MEMB     135      OSM      H1T      HAL2     0.900000E-01   1.00800           0
     14491 MEMB     135      OSM      NF       NHL     -0.700000       14.0070           0
     14492 MEMB     135      OSM      HNF      H        0.350000       1.00800           0
     14493 MEMB     135      OSM      C2S      CTL1     0.300000       12.0110           0
     14494 MEMB     135      OSM      H2S      HAL1     0.500000E-01   1.00800           0
     14495 MEMB     135      OSM      C3S      CTO1     0.500000       12.0110           0
     14496 MEMB     135      OSM      H3S      HAL1    -0.110000       1.00800           0
     14497 MEMB     135      OSM      O3       OHL     -0.690000       15.9994           0
     14498 MEMB     135      OSM      HO3      HOL      0.300000       1.00800           0
     14499 MEMB     135      OSM      C4S      CEL3    -0.150000       12.0110           0
     14500 MEMB     135      OSM      H4S      HEL1     0.150000       1.00800           0
     14501 MEMB     135      OSM      C5S      CEL3    -0.150000       12.0110           0
     14502 MEMB     135      OSM      H5S      HEL1     0.150000       1.00800           0
     14503 MEMB     135      OSM      C6S      CTL2    -0.180000       12.0110           0
     14504 MEMB     135      OSM      H6S      HAL2     0.900000E-01   1.00800           0
     14505 MEMB     135      OSM      H6T      HAL2     0.900000E-01   1.00800           0
     14506 MEMB     135      OSM      C7S      CTL2    -0.180000       12.0110           0
     14507 MEMB     135      OSM      H7S      HAL2     0.900000E-01   1.00800           0
     14508 MEMB     135      OSM      H7T      HAL2     0.900000E-01   1.00800           0
     14509 MEMB     135      OSM      C8S      CTL2    -0.180000       12.0110           0
     14510 MEMB     135      OSM      H8S      HAL2     0.900000E-01   1.00800           0
     14511 MEMB     135      OSM      H8T      HAL2     0.900000E-01   1.00800           0
     14512 MEMB     135      OSM      C9S      CTL2    -0.180000       12.0110           0
     14513 MEMB     135      OSM      H9S      HAL2     0.900000E-01   1.00800           0
     14514 MEMB     135      OSM      H9T      HAL2     0.900000E-01   1.00800           0
     14515 MEMB     135      OSM      C10S     CTL2    -0.180000       12.0110           0
     14516 MEMB     135      OSM      H10S     HAL2     0.900000E-01   1.00800           0
     14517 MEMB     135      OSM      H10T     HAL2     0.900000E-01   1.00800           0
     14518 MEMB     135      OSM      C11S     CTL2    -0.180000       12.0110           0
     14519 MEMB     135      OSM      H11S     HAL2     0.900000E-01   1.00800           0
     14520 MEMB     135      OSM      H11T     HAL2     0.900000E-01   1.00800           0
     14521 MEMB     135      OSM      C12S     CTL2    -0.180000       12.0110           0
     14522 MEMB     135      OSM      H12S     HAL2     0.900000E-01   1.00800           0
     14523 MEMB     135      OSM      H12T     HAL2     0.900000E-01   1.00800           0
     14524 MEMB     135      OSM      C13S     CTL2    -0.180000       12.0110           0
     14525 MEMB     135      OSM      H13S     HAL2     0.900000E-01   1.00800           0
     14526 MEMB     135      OSM      H13T     HAL2     0.900000E-01   1.00800           0
     14527 MEMB     135      OSM      C14S     CTL2    -0.180000       12.0110           0
     14528 MEMB     135      OSM      H14S     HAL2     0.900000E-01   1.00800           0
     14529 MEMB     135      OSM      H14T     HAL2     0.900000E-01   1.00800           0
     14530 MEMB     135      OSM      C15S     CTL2    -0.180000       12.0110           0
     14531 MEMB     135      OSM      H15S     HAL2     0.900000E-01   1.00800           0
     14532 MEMB     135      OSM      H15T     HAL2     0.900000E-01   1.00800           0
     14533 MEMB     135      OSM      C16S     CTL2    -0.180000       12.0110           0
     14534 MEMB     135      OSM      H16S     HAL2     0.900000E-01   1.00800           0
     14535 MEMB     135      OSM      H16T     HAL2     0.900000E-01   1.00800           0
     14536 MEMB     135      OSM      C17S     CTL2    -0.180000       12.0110           0
     14537 MEMB     135      OSM      H17S     HAL2     0.900000E-01   1.00800           0
     14538 MEMB     135      OSM      H17T     HAL2     0.900000E-01   1.00800           0
     14539 MEMB     135      OSM      C18S     CTL3    -0.270000       12.0110           0
     14540 MEMB     135      OSM      H18S     HAL3     0.900000E-01   1.00800           0
     14541 MEMB     135      OSM      H18T     HAL3     0.900000E-01   1.00800           0
     14542 MEMB     135      OSM      H18U     HAL3     0.900000E-01   1.00800           0
     14543 MEMB     135      OSM      C1F      C        0.550000       12.0110           0
     14544 MEMB     135      OSM      OF       O       -0.600000       15.9994           0
     14545 MEMB     135      OSM      C2F      CTL2    -0.700000E-01   12.0110           0
     14546 MEMB     135      OSM      H2F      HAL2     0.600000E-01   1.00800           0
     14547 MEMB     135      OSM      H2G      HAL2     0.600000E-01   1.00800           0
     14548 MEMB     135      OSM      C3F      CTL2    -0.180000       12.0110           0
     14549 MEMB     135      OSM      H3F      HAL2     0.900000E-01   1.00800           0
     14550 MEMB     135      OSM      H3G      HAL2     0.900000E-01   1.00800           0
     14551 MEMB     135      OSM      C4F      CTL2    -0.180000       12.0110           0
     14552 MEMB     135      OSM      H4F      HAL2     0.900000E-01   1.00800           0
     14553 MEMB     135      OSM      H4G      HAL2     0.900000E-01   1.00800           0
     14554 MEMB     135      OSM      C5F      CTL2    -0.180000       12.0110           0
     14555 MEMB     135      OSM      H5F      HAL2     0.900000E-01   1.00800           0
     14556 MEMB     135      OSM      H5G      HAL2     0.900000E-01   1.00800           0
     14557 MEMB     135      OSM      C6F      CTL2    -0.180000       12.0110           0
     14558 MEMB     135      OSM      H6F      HAL2     0.900000E-01   1.00800           0
     14559 MEMB     135      OSM      H6G      HAL2     0.900000E-01   1.00800           0
     14560 MEMB     135      OSM      C7F      CTL2    -0.180000       12.0110           0
     14561 MEMB     135      OSM      H7F      HAL2     0.900000E-01   1.00800           0
     14562 MEMB     135      OSM      H7G      HAL2     0.900000E-01   1.00800           0
     14563 MEMB     135      OSM      C8F      CTL2    -0.180000       12.0110           0
     14564 MEMB     135      OSM      H8F      HAL2     0.900000E-01   1.00800           0
     14565 MEMB     135      OSM      H8G      HAL2     0.900000E-01   1.00800           0
     14566 MEMB     135      OSM      C9F      CEL1    -0.150000       12.0110           0
     14567 MEMB     135      OSM      H9F      HEL1     0.150000       1.00800           0
     14568 MEMB     135      OSM      C10F     CEL1    -0.150000       12.0110           0
     14569 MEMB     135      OSM      H10F     HEL1     0.150000       1.00800           0
     14570 MEMB     135      OSM      C11F     CTL2    -0.180000       12.0110           0
     14571 MEMB     135      OSM      H11F     HAL2     0.900000E-01   1.00800           0
     14572 MEMB     135      OSM      H11G     HAL2     0.900000E-01   1.00800           0
     14573 MEMB     135      OSM      C12F     CTL2    -0.180000       12.0110           0
     14574 MEMB     135      OSM      H12F     HAL2     0.900000E-01   1.00800           0
     14575 MEMB     135      OSM      H12G     HAL2     0.900000E-01   1.00800           0
     14576 MEMB     135      OSM      C13F     CTL2    -0.180000       12.0110           0
     14577 MEMB     135      OSM      H13F     HAL2     0.900000E-01   1.00800           0
     14578 MEMB     135      OSM      H13G     HAL2     0.900000E-01   1.00800           0
     14579 MEMB     135      OSM      C14F     CTL2    -0.180000       12.0110           0
     14580 MEMB     135      OSM      H14F     HAL2     0.900000E-01   1.00800           0
     14581 MEMB     135      OSM      H14G     HAL2     0.900000E-01   1.00800           0
     14582 MEMB     135      OSM      C15F     CTL2    -0.180000       12.0110           0
     14583 MEMB     135      OSM      H15F     HAL2     0.900000E-01   1.00800           0
     14584 MEMB     135      OSM      H15G     HAL2     0.900000E-01   1.00800           0
     14585 MEMB     135      OSM      C16F     CTL2    -0.180000       12.0110           0
     14586 MEMB     135      OSM      H16F     HAL2     0.900000E-01   1.00800           0
     14587 MEMB     135      OSM      H16G     HAL2     0.900000E-01   1.00800           0
     14588 MEMB     135      OSM      C17F     CTL2    -0.180000       12.0110           0
     14589 MEMB     135      OSM      H17F     HAL2     0.900000E-01   1.00800           0
     14590 MEMB     135      OSM      H17G     HAL2     0.900000E-01   1.00800           0
     14591 MEMB     135      OSM      C18F     CTL3    -0.270000       12.0110           0
     14592 MEMB     135      OSM      H18F     HAL3     0.900000E-01   1.00800           0
     14593 MEMB     135      OSM      H18G     HAL3     0.900000E-01   1.00800           0
     14594 MEMB     135      OSM      H18H     HAL3     0.900000E-01   1.00800           0
     14595 MEMB     146      OSM      N        NTL     -0.600000       14.0070           0
     14596 MEMB     146      OSM      C15      CTL5    -0.350000       12.0110           0
     14597 MEMB     146      OSM      H15A     HL       0.250000       1.00800           0
     14598 MEMB     146      OSM      H15B     HL       0.250000       1.00800           0
     14599 MEMB     146      OSM      H15C     HL       0.250000       1.00800           0
     14600 MEMB     146      OSM      C14      CTL5    -0.350000       12.0110           0
     14601 MEMB     146      OSM      H14A     HL       0.250000       1.00800           0
     14602 MEMB     146      OSM      H14B     HL       0.250000       1.00800           0
     14603 MEMB     146      OSM      H14C     HL       0.250000       1.00800           0
     14604 MEMB     146      OSM      C13      CTL5    -0.350000       12.0110           0
     14605 MEMB     146      OSM      H13A     HL       0.250000       1.00800           0
     14606 MEMB     146      OSM      H13B     HL       0.250000       1.00800           0
     14607 MEMB     146      OSM      H13C     HL       0.250000       1.00800           0
     14608 MEMB     146      OSM      C12      CTL2    -0.100000       12.0110           0
     14609 MEMB     146      OSM      H12A     HL       0.250000       1.00800           0
     14610 MEMB     146      OSM      H12B     HL       0.250000       1.00800           0
     14611 MEMB     146      OSM      C11      CTL2    -0.800000E-01   12.0110           0
     14612 MEMB     146      OSM      H11A     HAL2     0.900000E-01   1.00800           0
     14613 MEMB     146      OSM      H11B     HAL2     0.900000E-01   1.00800           0
     14614 MEMB     146      OSM      P        PL       1.500000       30.9740           0
     14615 MEMB     146      OSM      O13      O2L     -0.780000       15.9994           0
     14616 MEMB     146      OSM      O14      O2L     -0.780000       15.9994           0
     14617 MEMB     146      OSM      O11      OSLP    -0.570000       15.9994           0
     14618 MEMB     146      OSM      O12      OSLP    -0.570000       15.9994           0
     14619 MEMB     146      OSM      C1S      CTL2    -0.800000E-01   12.0110           0
     14620 MEMB     146      OSM      H1S      HAL2     0.900000E-01   1.00800           0
     14621 MEMB     146      OSM      H1T      HAL2     0.900000E-01   1.00800           0
     14622 MEMB     146      OSM      NF       NHL     -0.700000       14.0070           0
     14623 MEMB     146      OSM      HNF      H        0.350000       1.00800           0
     14624 MEMB     146      OSM      C2S      CTL1     0.300000       12.0110           0
     14625 MEMB     146      OSM      H2S      HAL1     0.500000E-01   1.00800           0
     14626 MEMB     146      OSM      C3S      CTO1     0.500000       12.0110           0
     14627 MEMB     146      OSM      H3S      HAL1    -0.110000       1.00800           0
     14628 MEMB     146      OSM      O3       OHL     -0.690000       15.9994           0
     14629 MEMB     146      OSM      HO3      HOL      0.300000       1.00800           0
     14630 MEMB     146      OSM      C4S      CEL3    -0.150000       12.0110           0
     14631 MEMB     146      OSM      H4S      HEL1     0.150000       1.00800           0
     14632 MEMB     146      OSM      C5S      CEL3    -0.150000       12.0110           0
     14633 MEMB     146      OSM      H5S      HEL1     0.150000       1.00800           0
     14634 MEMB     146      OSM      C6S      CTL2    -0.180000       12.0110           0
     14635 MEMB     146      OSM      H6S      HAL2     0.900000E-01   1.00800           0
     14636 MEMB     146      OSM      H6T      HAL2     0.900000E-01   1.00800           0
     14637 MEMB     146      OSM      C7S      CTL2    -0.180000       12.0110           0
     14638 MEMB     146      OSM      H7S      HAL2     0.900000E-01   1.00800           0
     14639 MEMB     146      OSM      H7T      HAL2     0.900000E-01   1.00800           0
     14640 MEMB     146      OSM      C8S      CTL2    -0.180000       12.0110           0
     14641 MEMB     146      OSM      H8S      HAL2     0.900000E-01   1.00800           0
     14642 MEMB     146      OSM      H8T      HAL2     0.900000E-01   1.00800           0
     14643 MEMB     146      OSM      C9S      CTL2    -0.180000       12.0110           0
     14644 MEMB     146      OSM      H9S      HAL2     0.900000E-01   1.00800           0
     14645 MEMB     146      OSM      H9T      HAL2     0.900000E-01   1.00800           0
     14646 MEMB     146      OSM      C10S     CTL2    -0.180000       12.0110           0
     14647 MEMB     146      OSM      H10S     HAL2     0.900000E-01   1.00800           0
     14648 MEMB     146      OSM      H10T     HAL2     0.900000E-01   1.00800           0
     14649 MEMB     146      OSM      C11S     CTL2    -0.180000       12.0110           0
     14650 MEMB     146      OSM      H11S     HAL2     0.900000E-01   1.00800           0
     14651 MEMB     146      OSM      H11T     HAL2     0.900000E-01   1.00800           0
     14652 MEMB     146      OSM      C12S     CTL2    -0.180000       12.0110           0
     14653 MEMB     146      OSM      H12S     HAL2     0.900000E-01   1.00800           0
     14654 MEMB     146      OSM      H12T     HAL2     0.900000E-01   1.00800           0
     14655 MEMB     146      OSM      C13S     CTL2    -0.180000       12.0110           0
     14656 MEMB     146      OSM      H13S     HAL2     0.900000E-01   1.00800           0
     14657 MEMB     146      OSM      H13T     HAL2     0.900000E-01   1.00800           0
     14658 MEMB     146      OSM      C14S     CTL2    -0.180000       12.0110           0
     14659 MEMB     146      OSM      H14S     HAL2     0.900000E-01   1.00800           0
     14660 MEMB     146      OSM      H14T     HAL2     0.900000E-01   1.00800           0
     14661 MEMB     146      OSM      C15S     CTL2    -0.180000       12.0110           0
     14662 MEMB     146      OSM      H15S     HAL2     0.900000E-01   1.00800           0
     14663 MEMB     146      OSM      H15T     HAL2     0.900000E-01   1.00800           0
     14664 MEMB     146      OSM      C16S     CTL2    -0.180000       12.0110           0
     14665 MEMB     146      OSM      H16S     HAL2     0.900000E-01   1.00800           0
     14666 MEMB     146      OSM      H16T     HAL2     0.900000E-01   1.00800           0
     14667 MEMB     146      OSM      C17S     CTL2    -0.180000       12.0110           0
     14668 MEMB     146      OSM      H17S     HAL2     0.900000E-01   1.00800           0
     14669 MEMB     146      OSM      H17T     HAL2     0.900000E-01   1.00800           0
     14670 MEMB     146      OSM      C18S     CTL3    -0.270000       12.0110           0
     14671 MEMB     146      OSM      H18S     HAL3     0.900000E-01   1.00800           0
     14672 MEMB     146      OSM      H18T     HAL3     0.900000E-01   1.00800           0
     14673 MEMB     146      OSM      H18U     HAL3     0.900000E-01   1.00800           0
     14674 MEMB     146      OSM      C1F      C        0.550000       12.0110           0
     14675 MEMB     146      OSM      OF       O       -0.600000       15.9994           0
     14676 MEMB     146      OSM      C2F      CTL2    -0.700000E-01   12.0110           0
     14677 MEMB     146      OSM      H2F      HAL2     0.600000E-01   1.00800           0
     14678 MEMB     146      OSM      H2G      HAL2     0.600000E-01   1.00800           0
     14679 MEMB     146      OSM      C3F      CTL2    -0.180000       12.0110           0
     14680 MEMB     146      OSM      H3F      HAL2     0.900000E-01   1.00800           0
     14681 MEMB     146      OSM      H3G      HAL2     0.900000E-01   1.00800           0
     14682 MEMB     146      OSM      C4F      CTL2    -0.180000       12.0110           0
     14683 MEMB     146      OSM      H4F      HAL2     0.900000E-01   1.00800           0
     14684 MEMB     146      OSM      H4G      HAL2     0.900000E-01   1.00800           0
     14685 MEMB     146      OSM      C5F      CTL2    -0.180000       12.0110           0
     14686 MEMB     146      OSM      H5F      HAL2     0.900000E-01   1.00800           0
     14687 MEMB     146      OSM      H5G      HAL2     0.900000E-01   1.00800           0
     14688 MEMB     146      OSM      C6F      CTL2    -0.180000       12.0110           0
     14689 MEMB     146      OSM      H6F      HAL2     0.900000E-01   1.00800           0
     14690 MEMB     146      OSM      H6G      HAL2     0.900000E-01   1.00800           0
     14691 MEMB     146      OSM      C7F      CTL2    -0.180000       12.0110           0
     14692 MEMB     146      OSM      H7F      HAL2     0.900000E-01   1.00800           0
     14693 MEMB     146      OSM      H7G      HAL2     0.900000E-01   1.00800           0
     14694 MEMB     146      OSM      C8F      CTL2    -0.180000       12.0110           0
     14695 MEMB     146      OSM      H8F      HAL2     0.900000E-01   1.00800           0
     14696 MEMB     146      OSM      H8G      HAL2     0.900000E-01   1.00800           0
     14697 MEMB     146      OSM      C9F      CEL1    -0.150000       12.0110           0
     14698 MEMB     146      OSM      H9F      HEL1     0.150000       1.00800           0
     14699 MEMB     146      OSM      C10F     CEL1    -0.150000       12.0110           0
     14700 MEMB     146      OSM      H10F     HEL1     0.150000       1.00800           0
     14701 MEMB     146      OSM      C11F     CTL2    -0.180000       12.0110           0
     14702 MEMB     146      OSM      H11F     HAL2     0.900000E-01   1.00800           0
     14703 MEMB     146      OSM      H11G     HAL2     0.900000E-01   1.00800           0
     14704 MEMB     146      OSM      C12F     CTL2    -0.180000       12.0110           0
     14705 MEMB     146      OSM      H12F     HAL2     0.900000E-01   1.00800           0
     14706 MEMB     146      OSM      H12G     HAL2     0.900000E-01   1.00800           0
     14707 MEMB     146      OSM      C13F     CTL2    -0.180000       12.0110           0
     14708 MEMB     146      OSM      H13F     HAL2     0.900000E-01   1.00800           0
     14709 MEMB     146      OSM      H13G     HAL2     0.900000E-01   1.00800           0
     14710 MEMB     146      OSM      C14F     CTL2    -0.180000       12.0110           0
     14711 MEMB     146      OSM      H14F     HAL2     0.900000E-01   1.00800           0
     14712 MEMB     146      OSM      H14G     HAL2     0.900000E-01   1.00800           0
     14713 MEMB     146      OSM      C15F     CTL2    -0.180000       12.0110           0
     14714 MEMB     146      OSM      H15F     HAL2     0.900000E-01   1.00800           0
     14715 MEMB     146      OSM      H15G     HAL2     0.900000E-01   1.00800           0
     14716 MEMB     146      OSM      C16F     CTL2    -0.180000       12.0110           0
     14717 MEMB     146      OSM      H16F     HAL2     0.900000E-01   1.00800           0
     14718 MEMB     146      OSM      H16G     HAL2     0.900000E-01   1.00800           0
     14719 MEMB     146      OSM      C17F     CTL2    -0.180000       12.0110           0
     14720 MEMB     146      OSM      H17F     HAL2     0.900000E-01   1.00800           0
     14721 MEMB     146      OSM      H17G     HAL2     0.900000E-01   1.00800           0
     14722 MEMB     146      OSM      C18F     CTL3    -0.270000       12.0110           0
     14723 MEMB     146      OSM      H18F     HAL3     0.900000E-01   1.00800           0
     14724 MEMB     146      OSM      H18G     HAL3     0.900000E-01   1.00800           0
     14725 MEMB     146      OSM      H18H     HAL3     0.900000E-01   1.00800           0
     14726 MEMB     148      OSM      N        NTL     -0.600000       14.0070           0
     14727 MEMB     148      OSM      C15      CTL5    -0.350000       12.0110           0
     14728 MEMB     148      OSM      H15A     HL       0.250000       1.00800           0
     14729 MEMB     148      OSM      H15B     HL       0.250000       1.00800           0
     14730 MEMB     148      OSM      H15C     HL       0.250000       1.00800           0
     14731 MEMB     148      OSM      C14      CTL5    -0.350000       12.0110           0
     14732 MEMB     148      OSM      H14A     HL       0.250000       1.00800           0
     14733 MEMB     148      OSM      H14B     HL       0.250000       1.00800           0
     14734 MEMB     148      OSM      H14C     HL       0.250000       1.00800           0
     14735 MEMB     148      OSM      C13      CTL5    -0.350000       12.0110           0
     14736 MEMB     148      OSM      H13A     HL       0.250000       1.00800           0
     14737 MEMB     148      OSM      H13B     HL       0.250000       1.00800           0
     14738 MEMB     148      OSM      H13C     HL       0.250000       1.00800           0
     14739 MEMB     148      OSM      C12      CTL2    -0.100000       12.0110           0
     14740 MEMB     148      OSM      H12A     HL       0.250000       1.00800           0
     14741 MEMB     148      OSM      H12B     HL       0.250000       1.00800           0
     14742 MEMB     148      OSM      C11      CTL2    -0.800000E-01   12.0110           0
     14743 MEMB     148      OSM      H11A     HAL2     0.900000E-01   1.00800           0
     14744 MEMB     148      OSM      H11B     HAL2     0.900000E-01   1.00800           0
     14745 MEMB     148      OSM      P        PL       1.500000       30.9740           0
     14746 MEMB     148      OSM      O13      O2L     -0.780000       15.9994           0
     14747 MEMB     148      OSM      O14      O2L     -0.780000       15.9994           0
     14748 MEMB     148      OSM      O11      OSLP    -0.570000       15.9994           0
     14749 MEMB     148      OSM      O12      OSLP    -0.570000       15.9994           0
     14750 MEMB     148      OSM      C1S      CTL2    -0.800000E-01   12.0110           0
     14751 MEMB     148      OSM      H1S      HAL2     0.900000E-01   1.00800           0
     14752 MEMB     148      OSM      H1T      HAL2     0.900000E-01   1.00800           0
     14753 MEMB     148      OSM      NF       NHL     -0.700000       14.0070           0
     14754 MEMB     148      OSM      HNF      H        0.350000       1.00800           0
     14755 MEMB     148      OSM      C2S      CTL1     0.300000       12.0110           0
     14756 MEMB     148      OSM      H2S      HAL1     0.500000E-01   1.00800           0
     14757 MEMB     148      OSM      C3S      CTO1     0.500000       12.0110           0
     14758 MEMB     148      OSM      H3S      HAL1    -0.110000       1.00800           0
     14759 MEMB     148      OSM      O3       OHL     -0.690000       15.9994           0
     14760 MEMB     148      OSM      HO3      HOL      0.300000       1.00800           0
     14761 MEMB     148      OSM      C4S      CEL3    -0.150000       12.0110           0
     14762 MEMB     148      OSM      H4S      HEL1     0.150000       1.00800           0
     14763 MEMB     148      OSM      C5S      CEL3    -0.150000       12.0110           0
     14764 MEMB     148      OSM      H5S      HEL1     0.150000       1.00800           0
     14765 MEMB     148      OSM      C6S      CTL2    -0.180000       12.0110           0
     14766 MEMB     148      OSM      H6S      HAL2     0.900000E-01   1.00800           0
     14767 MEMB     148      OSM      H6T      HAL2     0.900000E-01   1.00800           0
     14768 MEMB     148      OSM      C7S      CTL2    -0.180000       12.0110           0
     14769 MEMB     148      OSM      H7S      HAL2     0.900000E-01   1.00800           0
     14770 MEMB     148      OSM      H7T      HAL2     0.900000E-01   1.00800           0
     14771 MEMB     148      OSM      C8S      CTL2    -0.180000       12.0110           0
     14772 MEMB     148      OSM      H8S      HAL2     0.900000E-01   1.00800           0
     14773 MEMB     148      OSM      H8T      HAL2     0.900000E-01   1.00800           0
     14774 MEMB     148      OSM      C9S      CTL2    -0.180000       12.0110           0
     14775 MEMB     148      OSM      H9S      HAL2     0.900000E-01   1.00800           0
     14776 MEMB     148      OSM      H9T      HAL2     0.900000E-01   1.00800           0
     14777 MEMB     148      OSM      C10S     CTL2    -0.180000       12.0110           0
     14778 MEMB     148      OSM      H10S     HAL2     0.900000E-01   1.00800           0
     14779 MEMB     148      OSM      H10T     HAL2     0.900000E-01   1.00800           0
     14780 MEMB     148      OSM      C11S     CTL2    -0.180000       12.0110           0
     14781 MEMB     148      OSM      H11S     HAL2     0.900000E-01   1.00800           0
     14782 MEMB     148      OSM      H11T     HAL2     0.900000E-01   1.00800           0
     14783 MEMB     148      OSM      C12S     CTL2    -0.180000       12.0110           0
     14784 MEMB     148      OSM      H12S     HAL2     0.900000E-01   1.00800           0
     14785 MEMB     148      OSM      H12T     HAL2     0.900000E-01   1.00800           0
     14786 MEMB     148      OSM      C13S     CTL2    -0.180000       12.0110           0
     14787 MEMB     148      OSM      H13S     HAL2     0.900000E-01   1.00800           0
     14788 MEMB     148      OSM      H13T     HAL2     0.900000E-01   1.00800           0
     14789 MEMB     148      OSM      C14S     CTL2    -0.180000       12.0110           0
     14790 MEMB     148      OSM      H14S     HAL2     0.900000E-01   1.00800           0
     14791 MEMB     148      OSM      H14T     HAL2     0.900000E-01   1.00800           0
     14792 MEMB     148      OSM      C15S     CTL2    -0.180000       12.0110           0
     14793 MEMB     148      OSM      H15S     HAL2     0.900000E-01   1.00800           0
     14794 MEMB     148      OSM      H15T     HAL2     0.900000E-01   1.00800           0
     14795 MEMB     148      OSM      C16S     CTL2    -0.180000       12.0110           0
     14796 MEMB     148      OSM      H16S     HAL2     0.900000E-01   1.00800           0
     14797 MEMB     148      OSM      H16T     HAL2     0.900000E-01   1.00800           0
     14798 MEMB     148      OSM      C17S     CTL2    -0.180000       12.0110           0
     14799 MEMB     148      OSM      H17S     HAL2     0.900000E-01   1.00800           0
     14800 MEMB     148      OSM      H17T     HAL2     0.900000E-01   1.00800           0
     14801 MEMB     148      OSM      C18S     CTL3    -0.270000       12.0110           0
     14802 MEMB     148      OSM      H18S     HAL3     0.900000E-01   1.00800           0
     14803 MEMB     148      OSM      H18T     HAL3     0.900000E-01   1.00800           0
     14804 MEMB     148      OSM      H18U     HAL3     0.900000E-01   1.00800           0
     14805 MEMB     148      OSM      C1F      C        0.550000       12.0110           0
     14806 MEMB     148      OSM      OF       O       -0.600000       15.9994           0
     14807 MEMB     148      OSM      C2F      CTL2    -0.700000E-01   12.0110           0
     14808 MEMB     148      OSM      H2F      HAL2     0.600000E-01   1.00800           0
     14809 MEMB     148      OSM      H2G      HAL2     0.600000E-01   1.00800           0
     14810 MEMB     148      OSM      C3F      CTL2    -0.180000       12.0110           0
     14811 MEMB     148      OSM      H3F      HAL2     0.900000E-01   1.00800           0
     14812 MEMB     148      OSM      H3G      HAL2     0.900000E-01   1.00800           0
     14813 MEMB     148      OSM      C4F      CTL2    -0.180000       12.0110           0
     14814 MEMB     148      OSM      H4F      HAL2     0.900000E-01   1.00800           0
     14815 MEMB     148      OSM      H4G      HAL2     0.900000E-01   1.00800           0
     14816 MEMB     148      OSM      C5F      CTL2    -0.180000       12.0110           0
     14817 MEMB     148      OSM      H5F      HAL2     0.900000E-01   1.00800           0
     14818 MEMB     148      OSM      H5G      HAL2     0.900000E-01   1.00800           0
     14819 MEMB     148      OSM      C6F      CTL2    -0.180000       12.0110           0
     14820 MEMB     148      OSM      H6F      HAL2     0.900000E-01   1.00800           0
     14821 MEMB     148      OSM      H6G      HAL2     0.900000E-01   1.00800           0
     14822 MEMB     148      OSM      C7F      CTL2    -0.180000       12.0110           0
     14823 MEMB     148      OSM      H7F      HAL2     0.900000E-01   1.00800           0
     14824 MEMB     148      OSM      H7G      HAL2     0.900000E-01   1.00800           0
     14825 MEMB     148      OSM      C8F      CTL2    -0.180000       12.0110           0
     14826 MEMB     148      OSM      H8F      HAL2     0.900000E-01   1.00800           0
     14827 MEMB     148      OSM      H8G      HAL2     0.900000E-01   1.00800           0
     14828 MEMB     148      OSM      C9F      CEL1    -0.150000       12.0110           0
     14829 MEMB     148      OSM      H9F      HEL1     0.150000       1.00800           0
     14830 MEMB     148      OSM      C10F     CEL1    -0.150000       12.0110           0
     14831 MEMB     148      OSM      H10F     HEL1     0.150000       1.00800           0
     14832 MEMB     148      OSM      C11F     CTL2    -0.180000       12.0110           0
     14833 MEMB     148      OSM      H11F     HAL2     0.900000E-01   1.00800           0
     14834 MEMB     148      OSM      H11G     HAL2     0.900000E-01   1.00800           0
     14835 MEMB     148      OSM      C12F     CTL2    -0.180000       12.0110           0
     14836 MEMB     148      OSM      H12F     HAL2     0.900000E-01   1.00800           0
     14837 MEMB     148      OSM      H12G     HAL2     0.900000E-01   1.00800           0
     14838 MEMB     148      OSM      C13F     CTL2    -0.180000       12.0110           0
     14839 MEMB     148      OSM      H13F     HAL2     0.900000E-01   1.00800           0
     14840 MEMB     148      OSM      H13G     HAL2     0.900000E-01   1.00800           0
     14841 MEMB     148      OSM      C14F     CTL2    -0.180000       12.0110           0
     14842 MEMB     148      OSM      H14F     HAL2     0.900000E-01   1.00800           0
     14843 MEMB     148      OSM      H14G     HAL2     0.900000E-01   1.00800           0
     14844 MEMB     148      OSM      C15F     CTL2    -0.180000       12.0110           0
     14845 MEMB     148      OSM      H15F     HAL2     0.900000E-01   1.00800           0
     14846 MEMB     148      OSM      H15G     HAL2     0.900000E-01   1.00800           0
     14847 MEMB     148      OSM      C16F     CTL2    -0.180000       12.0110           0
     14848 MEMB     148      OSM      H16F     HAL2     0.900000E-01   1.00800           0
     14849 MEMB     148      OSM      H16G     HAL2     0.900000E-01   1.00800           0
     14850 MEMB     148      OSM      C17F     CTL2    -0.180000       12.0110           0
     14851 MEMB     148      OSM      H17F     HAL2     0.900000E-01   1.00800           0
     14852 MEMB     148      OSM      H17G     HAL2     0.900000E-01   1.00800           0
     14853 MEMB     148      OSM      C18F     CTL3    -0.270000       12.0110           0
     14854 MEMB     148      OSM      H18F     HAL3     0.900000E-01   1.00800           0
     14855 MEMB     148      OSM      H18G     HAL3     0.900000E-01   1.00800           0
     14856 MEMB     148      OSM      H18H     HAL3     0.900000E-01   1.00800           0
     14857 MEMB     150      OSM      N        NTL     -0.600000       14.0070           0
     14858 MEMB     150      OSM      C15      CTL5    -0.350000       12.0110           0
     14859 MEMB     150      OSM      H15A     HL       0.250000       1.00800           0
     14860 MEMB     150      OSM      H15B     HL       0.250000       1.00800           0
     14861 MEMB     150      OSM      H15C     HL       0.250000       1.00800           0
     14862 MEMB     150      OSM      C14      CTL5    -0.350000       12.0110           0
     14863 MEMB     150      OSM      H14A     HL       0.250000       1.00800           0
     14864 MEMB     150      OSM      H14B     HL       0.250000       1.00800           0
     14865 MEMB     150      OSM      H14C     HL       0.250000       1.00800           0
     14866 MEMB     150      OSM      C13      CTL5    -0.350000       12.0110           0
     14867 MEMB     150      OSM      H13A     HL       0.250000       1.00800           0
     14868 MEMB     150      OSM      H13B     HL       0.250000       1.00800           0
     14869 MEMB     150      OSM      H13C     HL       0.250000       1.00800           0
     14870 MEMB     150      OSM      C12      CTL2    -0.100000       12.0110           0
     14871 MEMB     150      OSM      H12A     HL       0.250000       1.00800           0
     14872 MEMB     150      OSM      H12B     HL       0.250000       1.00800           0
     14873 MEMB     150      OSM      C11      CTL2    -0.800000E-01   12.0110           0
     14874 MEMB     150      OSM      H11A     HAL2     0.900000E-01   1.00800           0
     14875 MEMB     150      OSM      H11B     HAL2     0.900000E-01   1.00800           0
     14876 MEMB     150      OSM      P        PL       1.500000       30.9740           0
     14877 MEMB     150      OSM      O13      O2L     -0.780000       15.9994           0
     14878 MEMB     150      OSM      O14      O2L     -0.780000       15.9994           0
     14879 MEMB     150      OSM      O11      OSLP    -0.570000       15.9994           0
     14880 MEMB     150      OSM      O12      OSLP    -0.570000       15.9994           0
     14881 MEMB     150      OSM      C1S      CTL2    -0.800000E-01   12.0110           0
     14882 MEMB     150      OSM      H1S      HAL2     0.900000E-01   1.00800           0
     14883 MEMB     150      OSM      H1T      HAL2     0.900000E-01   1.00800           0
     14884 MEMB     150      OSM      NF       NHL     -0.700000       14.0070           0
     14885 MEMB     150      OSM      HNF      H        0.350000       1.00800           0
     14886 MEMB     150      OSM      C2S      CTL1     0.300000       12.0110           0
     14887 MEMB     150      OSM      H2S      HAL1     0.500000E-01   1.00800           0
     14888 MEMB     150      OSM      C3S      CTO1     0.500000       12.0110           0
     14889 MEMB     150      OSM      H3S      HAL1    -0.110000       1.00800           0
     14890 MEMB     150      OSM      O3       OHL     -0.690000       15.9994           0
     14891 MEMB     150      OSM      HO3      HOL      0.300000       1.00800           0
     14892 MEMB     150      OSM      C4S      CEL3    -0.150000       12.0110           0
     14893 MEMB     150      OSM      H4S      HEL1     0.150000       1.00800           0
     14894 MEMB     150      OSM      C5S      CEL3    -0.150000       12.0110           0
     14895 MEMB     150      OSM      H5S      HEL1     0.150000       1.00800           0
     14896 MEMB     150      OSM      C6S      CTL2    -0.180000       12.0110           0
     14897 MEMB     150      OSM      H6S      HAL2     0.900000E-01   1.00800           0
     14898 MEMB     150      OSM      H6T      HAL2     0.900000E-01   1.00800           0
     14899 MEMB     150      OSM      C7S      CTL2    -0.180000       12.0110           0
     14900 MEMB     150      OSM      H7S      HAL2     0.900000E-01   1.00800           0
     14901 MEMB     150      OSM      H7T      HAL2     0.900000E-01   1.00800           0
     14902 MEMB     150      OSM      C8S      CTL2    -0.180000       12.0110           0
     14903 MEMB     150      OSM      H8S      HAL2     0.900000E-01   1.00800           0
     14904 MEMB     150      OSM      H8T      HAL2     0.900000E-01   1.00800           0
     14905 MEMB     150      OSM      C9S      CTL2    -0.180000       12.0110           0
     14906 MEMB     150      OSM      H9S      HAL2     0.900000E-01   1.00800           0
     14907 MEMB     150      OSM      H9T      HAL2     0.900000E-01   1.00800           0
     14908 MEMB     150      OSM      C10S     CTL2    -0.180000       12.0110           0
     14909 MEMB     150      OSM      H10S     HAL2     0.900000E-01   1.00800           0
     14910 MEMB     150      OSM      H10T     HAL2     0.900000E-01   1.00800           0
     14911 MEMB     150      OSM      C11S     CTL2    -0.180000       12.0110           0
     14912 MEMB     150      OSM      H11S     HAL2     0.900000E-01   1.00800           0
     14913 MEMB     150      OSM      H11T     HAL2     0.900000E-01   1.00800           0
     14914 MEMB     150      OSM      C12S     CTL2    -0.180000       12.0110           0
     14915 MEMB     150      OSM      H12S     HAL2     0.900000E-01   1.00800           0
     14916 MEMB     150      OSM      H12T     HAL2     0.900000E-01   1.00800           0
     14917 MEMB     150      OSM      C13S     CTL2    -0.180000       12.0110           0
     14918 MEMB     150      OSM      H13S     HAL2     0.900000E-01   1.00800           0
     14919 MEMB     150      OSM      H13T     HAL2     0.900000E-01   1.00800           0
     14920 MEMB     150      OSM      C14S     CTL2    -0.180000       12.0110           0
     14921 MEMB     150      OSM      H14S     HAL2     0.900000E-01   1.00800           0
     14922 MEMB     150      OSM      H14T     HAL2     0.900000E-01   1.00800           0
     14923 MEMB     150      OSM      C15S     CTL2    -0.180000       12.0110           0
     14924 MEMB     150      OSM      H15S     HAL2     0.900000E-01   1.00800           0
     14925 MEMB     150      OSM      H15T     HAL2     0.900000E-01   1.00800           0
     14926 MEMB     150      OSM      C16S     CTL2    -0.180000       12.0110           0
     14927 MEMB     150      OSM      H16S     HAL2     0.900000E-01   1.00800           0
     14928 MEMB     150      OSM      H16T     HAL2     0.900000E-01   1.00800           0
     14929 MEMB     150      OSM      C17S     CTL2    -0.180000       12.0110           0
     14930 MEMB     150      OSM      H17S     HAL2     0.900000E-01   1.00800           0
     14931 MEMB     150      OSM      H17T     HAL2     0.900000E-01   1.00800           0
     14932 MEMB     150      OSM      C18S     CTL3    -0.270000       12.0110           0
     14933 MEMB     150      OSM      H18S     HAL3     0.900000E-01   1.00800           0
     14934 MEMB     150      OSM      H18T     HAL3     0.900000E-01   1.00800           0
     14935 MEMB     150      OSM      H18U     HAL3     0.900000E-01   1.00800           0
     14936 MEMB     150      OSM      C1F      C        0.550000       12.0110           0
     14937 MEMB     150      OSM      OF       O       -0.600000       15.9994           0
     14938 MEMB     150      OSM      C2F      CTL2    -0.700000E-01   12.0110           0
     14939 MEMB     150      OSM      H2F      HAL2     0.600000E-01   1.00800           0
     14940 MEMB     150      OSM      H2G      HAL2     0.600000E-01   1.00800           0
     14941 MEMB     150      OSM      C3F      CTL2    -0.180000       12.0110           0
     14942 MEMB     150      OSM      H3F      HAL2     0.900000E-01   1.00800           0
     14943 MEMB     150      OSM      H3G      HAL2     0.900000E-01   1.00800           0
     14944 MEMB     150      OSM      C4F      CTL2    -0.180000       12.0110           0
     14945 MEMB     150      OSM      H4F      HAL2     0.900000E-01   1.00800           0
     14946 MEMB     150      OSM      H4G      HAL2     0.900000E-01   1.00800           0
     14947 MEMB     150      OSM      C5F      CTL2    -0.180000       12.0110           0
     14948 MEMB     150      OSM      H5F      HAL2     0.900000E-01   1.00800           0
     14949 MEMB     150      OSM      H5G      HAL2     0.900000E-01   1.00800           0
     14950 MEMB     150      OSM      C6F      CTL2    -0.180000       12.0110           0
     14951 MEMB     150      OSM      H6F      HAL2     0.900000E-01   1.00800           0
     14952 MEMB     150      OSM      H6G      HAL2     0.900000E-01   1.00800           0
     14953 MEMB     150      OSM      C7F      CTL2    -0.180000       12.0110           0
     14954 MEMB     150      OSM      H7F      HAL2     0.900000E-01   1.00800           0
     14955 MEMB     150      OSM      H7G      HAL2     0.900000E-01   1.00800           0
     14956 MEMB     150      OSM      C8F      CTL2    -0.180000       12.0110           0
     14957 MEMB     150      OSM      H8F      HAL2     0.900000E-01   1.00800           0
     14958 MEMB     150      OSM      H8G      HAL2     0.900000E-01   1.00800           0
     14959 MEMB     150      OSM      C9F      CEL1    -0.150000       12.0110           0
     14960 MEMB     150      OSM      H9F      HEL1     0.150000       1.00800           0
     14961 MEMB     150      OSM      C10F     CEL1    -0.150000       12.0110           0
     14962 MEMB     150      OSM      H10F     HEL1     0.150000       1.00800           0
     14963 MEMB     150      OSM      C11F     CTL2    -0.180000       12.0110           0
     14964 MEMB     150      OSM      H11F     HAL2     0.900000E-01   1.00800           0
     14965 MEMB     150      OSM      H11G     HAL2     0.900000E-01   1.00800           0
     14966 MEMB     150      OSM      C12F     CTL2    -0.180000       12.0110           0
     14967 MEMB     150      OSM      H12F     HAL2     0.900000E-01   1.00800           0
     14968 MEMB     150      OSM      H12G     HAL2     0.900000E-01   1.00800           0
     14969 MEMB     150      OSM      C13F     CTL2    -0.180000       12.0110           0
     14970 MEMB     150      OSM      H13F     HAL2     0.900000E-01   1.00800           0
     14971 MEMB     150      OSM      H13G     HAL2     0.900000E-01   1.00800           0
     14972 MEMB     150      OSM      C14F     CTL2    -0.180000       12.0110           0
     14973 MEMB     150      OSM      H14F     HAL2     0.900000E-01   1.00800           0
     14974 MEMB     150      OSM      H14G     HAL2     0.900000E-01   1.00800           0
     14975 MEMB     150      OSM      C15F     CTL2    -0.180000       12.0110           0
     14976 MEMB     150      OSM      H15F     HAL2     0.900000E-01   1.00800           0
     14977 MEMB     150      OSM      H15G     HAL2     0.900000E-01   1.00800           0
     14978 MEMB     150      OSM      C16F     CTL2    -0.180000       12.0110           0
     14979 MEMB     150      OSM      H16F     HAL2     0.900000E-01   1.00800           0
     14980 MEMB     150      OSM      H16G     HAL2     0.900000E-01   1.00800           0
     14981 MEMB     150      OSM      C17F     CTL2    -0.180000       12.0110           0
     14982 MEMB     150      OSM      H17F     HAL2     0.900000E-01   1.00800           0
     14983 MEMB     150      OSM      H17G     HAL2     0.900000E-01   1.00800           0
     14984 MEMB     150      OSM      C18F     CTL3    -0.270000       12.0110           0
     14985 MEMB     150      OSM      H18F     HAL3     0.900000E-01   1.00800           0
     14986 MEMB     150      OSM      H18G     HAL3     0.900000E-01   1.00800           0
     14987 MEMB     150      OSM      H18H     HAL3     0.900000E-01   1.00800           0
     14988 MEMB     152      OSM      N        NTL     -0.600000       14.0070           0
     14989 MEMB     152      OSM      C15      CTL5    -0.350000       12.0110           0
     14990 MEMB     152      OSM      H15A     HL       0.250000       1.00800           0
     14991 MEMB     152      OSM      H15B     HL       0.250000       1.00800           0
     14992 MEMB     152      OSM      H15C     HL       0.250000       1.00800           0
     14993 MEMB     152      OSM      C14      CTL5    -0.350000       12.0110           0
     14994 MEMB     152      OSM      H14A     HL       0.250000       1.00800           0
     14995 MEMB     152      OSM      H14B     HL       0.250000       1.00800           0
     14996 MEMB     152      OSM      H14C     HL       0.250000       1.00800           0
     14997 MEMB     152      OSM      C13      CTL5    -0.350000       12.0110           0
     14998 MEMB     152      OSM      H13A     HL       0.250000       1.00800           0
     14999 MEMB     152      OSM      H13B     HL       0.250000       1.00800           0
     15000 MEMB     152      OSM      H13C     HL       0.250000       1.00800           0
     15001 MEMB     152      OSM      C12      CTL2    -0.100000       12.0110           0
     15002 MEMB     152      OSM      H12A     HL       0.250000       1.00800           0
     15003 MEMB     152      OSM      H12B     HL       0.250000       1.00800           0
     15004 MEMB     152      OSM      C11      CTL2    -0.800000E-01   12.0110           0
     15005 MEMB     152      OSM      H11A     HAL2     0.900000E-01   1.00800           0
     15006 MEMB     152      OSM      H11B     HAL2     0.900000E-01   1.00800           0
     15007 MEMB     152      OSM      P        PL       1.500000       30.9740           0
     15008 MEMB     152      OSM      O13      O2L     -0.780000       15.9994           0
     15009 MEMB     152      OSM      O14      O2L     -0.780000       15.9994           0
     15010 MEMB     152      OSM      O11      OSLP    -0.570000       15.9994           0
     15011 MEMB     152      OSM      O12      OSLP    -0.570000       15.9994           0
     15012 MEMB     152      OSM      C1S      CTL2    -0.800000E-01   12.0110           0
     15013 MEMB     152      OSM      H1S      HAL2     0.900000E-01   1.00800           0
     15014 MEMB     152      OSM      H1T      HAL2     0.900000E-01   1.00800           0
     15015 MEMB     152      OSM      NF       NHL     -0.700000       14.0070           0
     15016 MEMB     152      OSM      HNF      H        0.350000       1.00800           0
     15017 MEMB     152      OSM      C2S      CTL1     0.300000       12.0110           0
     15018 MEMB     152      OSM      H2S      HAL1     0.500000E-01   1.00800           0
     15019 MEMB     152      OSM      C3S      CTO1     0.500000       12.0110           0
     15020 MEMB     152      OSM      H3S      HAL1    -0.110000       1.00800           0
     15021 MEMB     152      OSM      O3       OHL     -0.690000       15.9994           0
     15022 MEMB     152      OSM      HO3      HOL      0.300000       1.00800           0
     15023 MEMB     152      OSM      C4S      CEL3    -0.150000       12.0110           0
     15024 MEMB     152      OSM      H4S      HEL1     0.150000       1.00800           0
     15025 MEMB     152      OSM      C5S      CEL3    -0.150000       12.0110           0
     15026 MEMB     152      OSM      H5S      HEL1     0.150000       1.00800           0
     15027 MEMB     152      OSM      C6S      CTL2    -0.180000       12.0110           0
     15028 MEMB     152      OSM      H6S      HAL2     0.900000E-01   1.00800           0
     15029 MEMB     152      OSM      H6T      HAL2     0.900000E-01   1.00800           0
     15030 MEMB     152      OSM      C7S      CTL2    -0.180000       12.0110           0
     15031 MEMB     152      OSM      H7S      HAL2     0.900000E-01   1.00800           0
     15032 MEMB     152      OSM      H7T      HAL2     0.900000E-01   1.00800           0
     15033 MEMB     152      OSM      C8S      CTL2    -0.180000       12.0110           0
     15034 MEMB     152      OSM      H8S      HAL2     0.900000E-01   1.00800           0
     15035 MEMB     152      OSM      H8T      HAL2     0.900000E-01   1.00800           0
     15036 MEMB     152      OSM      C9S      CTL2    -0.180000       12.0110           0
     15037 MEMB     152      OSM      H9S      HAL2     0.900000E-01   1.00800           0
     15038 MEMB     152      OSM      H9T      HAL2     0.900000E-01   1.00800           0
     15039 MEMB     152      OSM      C10S     CTL2    -0.180000       12.0110           0
     15040 MEMB     152      OSM      H10S     HAL2     0.900000E-01   1.00800           0
     15041 MEMB     152      OSM      H10T     HAL2     0.900000E-01   1.00800           0
     15042 MEMB     152      OSM      C11S     CTL2    -0.180000       12.0110           0
     15043 MEMB     152      OSM      H11S     HAL2     0.900000E-01   1.00800           0
     15044 MEMB     152      OSM      H11T     HAL2     0.900000E-01   1.00800           0
     15045 MEMB     152      OSM      C12S     CTL2    -0.180000       12.0110           0
     15046 MEMB     152      OSM      H12S     HAL2     0.900000E-01   1.00800           0
     15047 MEMB     152      OSM      H12T     HAL2     0.900000E-01   1.00800           0
     15048 MEMB     152      OSM      C13S     CTL2    -0.180000       12.0110           0
     15049 MEMB     152      OSM      H13S     HAL2     0.900000E-01   1.00800           0
     15050 MEMB     152      OSM      H13T     HAL2     0.900000E-01   1.00800           0
     15051 MEMB     152      OSM      C14S     CTL2    -0.180000       12.0110           0
     15052 MEMB     152      OSM      H14S     HAL2     0.900000E-01   1.00800           0
     15053 MEMB     152      OSM      H14T     HAL2     0.900000E-01   1.00800           0
     15054 MEMB     152      OSM      C15S     CTL2    -0.180000       12.0110           0
     15055 MEMB     152      OSM      H15S     HAL2     0.900000E-01   1.00800           0
     15056 MEMB     152      OSM      H15T     HAL2     0.900000E-01   1.00800           0
     15057 MEMB     152      OSM      C16S     CTL2    -0.180000       12.0110           0
     15058 MEMB     152      OSM      H16S     HAL2     0.900000E-01   1.00800           0
     15059 MEMB     152      OSM      H16T     HAL2     0.900000E-01   1.00800           0
     15060 MEMB     152      OSM      C17S     CTL2    -0.180000       12.0110           0
     15061 MEMB     152      OSM      H17S     HAL2     0.900000E-01   1.00800           0
     15062 MEMB     152      OSM      H17T     HAL2     0.900000E-01   1.00800           0
     15063 MEMB     152      OSM      C18S     CTL3    -0.270000       12.0110           0
     15064 MEMB     152      OSM      H18S     HAL3     0.900000E-01   1.00800           0
     15065 MEMB     152      OSM      H18T     HAL3     0.900000E-01   1.00800           0
     15066 MEMB     152      OSM      H18U     HAL3     0.900000E-01   1.00800           0
     15067 MEMB     152      OSM      C1F      C        0.550000       12.0110           0
     15068 MEMB     152      OSM      OF       O       -0.600000       15.9994           0
     15069 MEMB     152      OSM      C2F      CTL2    -0.700000E-01   12.0110           0
     15070 MEMB     152      OSM      H2F      HAL2     0.600000E-01   1.00800           0
     15071 MEMB     152      OSM      H2G      HAL2     0.600000E-01   1.00800           0
     15072 MEMB     152      OSM      C3F      CTL2    -0.180000       12.0110           0
     15073 MEMB     152      OSM      H3F      HAL2     0.900000E-01   1.00800           0
     15074 MEMB     152      OSM      H3G      HAL2     0.900000E-01   1.00800           0
     15075 MEMB     152      OSM      C4F      CTL2    -0.180000       12.0110           0
     15076 MEMB     152      OSM      H4F      HAL2     0.900000E-01   1.00800           0
     15077 MEMB     152      OSM      H4G      HAL2     0.900000E-01   1.00800           0
     15078 MEMB     152      OSM      C5F      CTL2    -0.180000       12.0110           0
     15079 MEMB     152      OSM      H5F      HAL2     0.900000E-01   1.00800           0
     15080 MEMB     152      OSM      H5G      HAL2     0.900000E-01   1.00800           0
     15081 MEMB     152      OSM      C6F      CTL2    -0.180000       12.0110           0
     15082 MEMB     152      OSM      H6F      HAL2     0.900000E-01   1.00800           0
     15083 MEMB     152      OSM      H6G      HAL2     0.900000E-01   1.00800           0
     15084 MEMB     152      OSM      C7F      CTL2    -0.180000       12.0110           0
     15085 MEMB     152      OSM      H7F      HAL2     0.900000E-01   1.00800           0
     15086 MEMB     152      OSM      H7G      HAL2     0.900000E-01   1.00800           0
     15087 MEMB     152      OSM      C8F      CTL2    -0.180000       12.0110           0
     15088 MEMB     152      OSM      H8F      HAL2     0.900000E-01   1.00800           0
     15089 MEMB     152      OSM      H8G      HAL2     0.900000E-01   1.00800           0
     15090 MEMB     152      OSM      C9F      CEL1    -0.150000       12.0110           0
     15091 MEMB     152      OSM      H9F      HEL1     0.150000       1.00800           0
     15092 MEMB     152      OSM      C10F     CEL1    -0.150000       12.0110           0
     15093 MEMB     152      OSM      H10F     HEL1     0.150000       1.00800           0
     15094 MEMB     152      OSM      C11F     CTL2    -0.180000       12.0110           0
     15095 MEMB     152      OSM      H11F     HAL2     0.900000E-01   1.00800           0
     15096 MEMB     152      OSM      H11G     HAL2     0.900000E-01   1.00800           0
     15097 MEMB     152      OSM      C12F     CTL2    -0.180000       12.0110           0
     15098 MEMB     152      OSM      H12F     HAL2     0.900000E-01   1.00800           0
     15099 MEMB     152      OSM      H12G     HAL2     0.900000E-01   1.00800           0
     15100 MEMB     152      OSM      C13F     CTL2    -0.180000       12.0110           0
     15101 MEMB     152      OSM      H13F     HAL2     0.900000E-01   1.00800           0
     15102 MEMB     152      OSM      H13G     HAL2     0.900000E-01   1.00800           0
     15103 MEMB     152      OSM      C14F     CTL2    -0.180000       12.0110           0
     15104 MEMB     152      OSM      H14F     HAL2     0.900000E-01   1.00800           0
     15105 MEMB     152      OSM      H14G     HAL2     0.900000E-01   1.00800           0
     15106 MEMB     152      OSM      C15F     CTL2    -0.180000       12.0110           0
     15107 MEMB     152      OSM      H15F     HAL2     0.900000E-01   1.00800           0
     15108 MEMB     152      OSM      H15G     HAL2     0.900000E-01   1.00800           0
     15109 MEMB     152      OSM      C16F     CTL2    -0.180000       12.0110           0
     15110 MEMB     152      OSM      H16F     HAL2     0.900000E-01   1.00800           0
     15111 MEMB     152      OSM      H16G     HAL2     0.900000E-01   1.00800           0
     15112 MEMB     152      OSM      C17F     CTL2    -0.180000       12.0110           0
     15113 MEMB     152      OSM      H17F     HAL2     0.900000E-01   1.00800           0
     15114 MEMB     152      OSM      H17G     HAL2     0.900000E-01   1.00800           0
     15115 MEMB     152      OSM      C18F     CTL3    -0.270000       12.0110           0
     15116 MEMB     152      OSM      H18F     HAL3     0.900000E-01   1.00800           0
     15117 MEMB     152      OSM      H18G     HAL3     0.900000E-01   1.00800           0
     15118 MEMB     152      OSM      H18H     HAL3     0.900000E-01   1.00800           0
     15119 MEMB     166      OSM      N        NTL     -0.600000       14.0070           0
     15120 MEMB     166      OSM      C15      CTL5    -0.350000       12.0110           0
     15121 MEMB     166      OSM      H15A     HL       0.250000       1.00800           0
     15122 MEMB     166      OSM      H15B     HL       0.250000       1.00800           0
     15123 MEMB     166      OSM      H15C     HL       0.250000       1.00800           0
     15124 MEMB     166      OSM      C14      CTL5    -0.350000       12.0110           0
     15125 MEMB     166      OSM      H14A     HL       0.250000       1.00800           0
     15126 MEMB     166      OSM      H14B     HL       0.250000       1.00800           0
     15127 MEMB     166      OSM      H14C     HL       0.250000       1.00800           0
     15128 MEMB     166      OSM      C13      CTL5    -0.350000       12.0110           0
     15129 MEMB     166      OSM      H13A     HL       0.250000       1.00800           0
     15130 MEMB     166      OSM      H13B     HL       0.250000       1.00800           0
     15131 MEMB     166      OSM      H13C     HL       0.250000       1.00800           0
     15132 MEMB     166      OSM      C12      CTL2    -0.100000       12.0110           0
     15133 MEMB     166      OSM      H12A     HL       0.250000       1.00800           0
     15134 MEMB     166      OSM      H12B     HL       0.250000       1.00800           0
     15135 MEMB     166      OSM      C11      CTL2    -0.800000E-01   12.0110           0
     15136 MEMB     166      OSM      H11A     HAL2     0.900000E-01   1.00800           0
     15137 MEMB     166      OSM      H11B     HAL2     0.900000E-01   1.00800           0
     15138 MEMB     166      OSM      P        PL       1.500000       30.9740           0
     15139 MEMB     166      OSM      O13      O2L     -0.780000       15.9994           0
     15140 MEMB     166      OSM      O14      O2L     -0.780000       15.9994           0
     15141 MEMB     166      OSM      O11      OSLP    -0.570000       15.9994           0
     15142 MEMB     166      OSM      O12      OSLP    -0.570000       15.9994           0
     15143 MEMB     166      OSM      C1S      CTL2    -0.800000E-01   12.0110           0
     15144 MEMB     166      OSM      H1S      HAL2     0.900000E-01   1.00800           0
     15145 MEMB     166      OSM      H1T      HAL2     0.900000E-01   1.00800           0
     15146 MEMB     166      OSM      NF       NHL     -0.700000       14.0070           0
     15147 MEMB     166      OSM      HNF      H        0.350000       1.00800           0
     15148 MEMB     166      OSM      C2S      CTL1     0.300000       12.0110           0
     15149 MEMB     166      OSM      H2S      HAL1     0.500000E-01   1.00800           0
     15150 MEMB     166      OSM      C3S      CTO1     0.500000       12.0110           0
     15151 MEMB     166      OSM      H3S      HAL1    -0.110000       1.00800           0
     15152 MEMB     166      OSM      O3       OHL     -0.690000       15.9994           0
     15153 MEMB     166      OSM      HO3      HOL      0.300000       1.00800           0
     15154 MEMB     166      OSM      C4S      CEL3    -0.150000       12.0110           0
     15155 MEMB     166      OSM      H4S      HEL1     0.150000       1.00800           0
     15156 MEMB     166      OSM      C5S      CEL3    -0.150000       12.0110           0
     15157 MEMB     166      OSM      H5S      HEL1     0.150000       1.00800           0
     15158 MEMB     166      OSM      C6S      CTL2    -0.180000       12.0110           0
     15159 MEMB     166      OSM      H6S      HAL2     0.900000E-01   1.00800           0
     15160 MEMB     166      OSM      H6T      HAL2     0.900000E-01   1.00800           0
     15161 MEMB     166      OSM      C7S      CTL2    -0.180000       12.0110           0
     15162 MEMB     166      OSM      H7S      HAL2     0.900000E-01   1.00800           0
     15163 MEMB     166      OSM      H7T      HAL2     0.900000E-01   1.00800           0
     15164 MEMB     166      OSM      C8S      CTL2    -0.180000       12.0110           0
     15165 MEMB     166      OSM      H8S      HAL2     0.900000E-01   1.00800           0
     15166 MEMB     166      OSM      H8T      HAL2     0.900000E-01   1.00800           0
     15167 MEMB     166      OSM      C9S      CTL2    -0.180000       12.0110           0
     15168 MEMB     166      OSM      H9S      HAL2     0.900000E-01   1.00800           0
     15169 MEMB     166      OSM      H9T      HAL2     0.900000E-01   1.00800           0
     15170 MEMB     166      OSM      C10S     CTL2    -0.180000       12.0110           0
     15171 MEMB     166      OSM      H10S     HAL2     0.900000E-01   1.00800           0
     15172 MEMB     166      OSM      H10T     HAL2     0.900000E-01   1.00800           0
     15173 MEMB     166      OSM      C11S     CTL2    -0.180000       12.0110           0
     15174 MEMB     166      OSM      H11S     HAL2     0.900000E-01   1.00800           0
     15175 MEMB     166      OSM      H11T     HAL2     0.900000E-01   1.00800           0
     15176 MEMB     166      OSM      C12S     CTL2    -0.180000       12.0110           0
     15177 MEMB     166      OSM      H12S     HAL2     0.900000E-01   1.00800           0
     15178 MEMB     166      OSM      H12T     HAL2     0.900000E-01   1.00800           0
     15179 MEMB     166      OSM      C13S     CTL2    -0.180000       12.0110           0
     15180 MEMB     166      OSM      H13S     HAL2     0.900000E-01   1.00800           0
     15181 MEMB     166      OSM      H13T     HAL2     0.900000E-01   1.00800           0
     15182 MEMB     166      OSM      C14S     CTL2    -0.180000       12.0110           0
     15183 MEMB     166      OSM      H14S     HAL2     0.900000E-01   1.00800           0
     15184 MEMB     166      OSM      H14T     HAL2     0.900000E-01   1.00800           0
     15185 MEMB     166      OSM      C15S     CTL2    -0.180000       12.0110           0
     15186 MEMB     166      OSM      H15S     HAL2     0.900000E-01   1.00800           0
     15187 MEMB     166      OSM      H15T     HAL2     0.900000E-01   1.00800           0
     15188 MEMB     166      OSM      C16S     CTL2    -0.180000       12.0110           0
     15189 MEMB     166      OSM      H16S     HAL2     0.900000E-01   1.00800           0
     15190 MEMB     166      OSM      H16T     HAL2     0.900000E-01   1.00800           0
     15191 MEMB     166      OSM      C17S     CTL2    -0.180000       12.0110           0
     15192 MEMB     166      OSM      H17S     HAL2     0.900000E-01   1.00800           0
     15193 MEMB     166      OSM      H17T     HAL2     0.900000E-01   1.00800           0
     15194 MEMB     166      OSM      C18S     CTL3    -0.270000       12.0110           0
     15195 MEMB     166      OSM      H18S     HAL3     0.900000E-01   1.00800           0
     15196 MEMB     166      OSM      H18T     HAL3     0.900000E-01   1.00800           0
     15197 MEMB     166      OSM      H18U     HAL3     0.900000E-01   1.00800           0
     15198 MEMB     166      OSM      C1F      C        0.550000       12.0110           0
     15199 MEMB     166      OSM      OF       O       -0.600000       15.9994           0
     15200 MEMB     166      OSM      C2F      CTL2    -0.700000E-01   12.0110           0
     15201 MEMB     166      OSM      H2F      HAL2     0.600000E-01   1.00800           0
     15202 MEMB     166      OSM      H2G      HAL2     0.600000E-01   1.00800           0
     15203 MEMB     166      OSM      C3F      CTL2    -0.180000       12.0110           0
     15204 MEMB     166      OSM      H3F      HAL2     0.900000E-01   1.00800           0
     15205 MEMB     166      OSM      H3G      HAL2     0.900000E-01   1.00800           0
     15206 MEMB     166      OSM      C4F      CTL2    -0.180000       12.0110           0
     15207 MEMB     166      OSM      H4F      HAL2     0.900000E-01   1.00800           0
     15208 MEMB     166      OSM      H4G      HAL2     0.900000E-01   1.00800           0
     15209 MEMB     166      OSM      C5F      CTL2    -0.180000       12.0110           0
     15210 MEMB     166      OSM      H5F      HAL2     0.900000E-01   1.00800           0
     15211 MEMB     166      OSM      H5G      HAL2     0.900000E-01   1.00800           0
     15212 MEMB     166      OSM      C6F      CTL2    -0.180000       12.0110           0
     15213 MEMB     166      OSM      H6F      HAL2     0.900000E-01   1.00800           0
     15214 MEMB     166      OSM      H6G      HAL2     0.900000E-01   1.00800           0
     15215 MEMB     166      OSM      C7F      CTL2    -0.180000       12.0110           0
     15216 MEMB     166      OSM      H7F      HAL2     0.900000E-01   1.00800           0
     15217 MEMB     166      OSM      H7G      HAL2     0.900000E-01   1.00800           0
     15218 MEMB     166      OSM      C8F      CTL2    -0.180000       12.0110           0
     15219 MEMB     166      OSM      H8F      HAL2     0.900000E-01   1.00800           0
     15220 MEMB     166      OSM      H8G      HAL2     0.900000E-01   1.00800           0
     15221 MEMB     166      OSM      C9F      CEL1    -0.150000       12.0110           0
     15222 MEMB     166      OSM      H9F      HEL1     0.150000       1.00800           0
     15223 MEMB     166      OSM      C10F     CEL1    -0.150000       12.0110           0
     15224 MEMB     166      OSM      H10F     HEL1     0.150000       1.00800           0
     15225 MEMB     166      OSM      C11F     CTL2    -0.180000       12.0110           0
     15226 MEMB     166      OSM      H11F     HAL2     0.900000E-01   1.00800           0
     15227 MEMB     166      OSM      H11G     HAL2     0.900000E-01   1.00800           0
     15228 MEMB     166      OSM      C12F     CTL2    -0.180000       12.0110           0
     15229 MEMB     166      OSM      H12F     HAL2     0.900000E-01   1.00800           0
     15230 MEMB     166      OSM      H12G     HAL2     0.900000E-01   1.00800           0
     15231 MEMB     166      OSM      C13F     CTL2    -0.180000       12.0110           0
     15232 MEMB     166      OSM      H13F     HAL2     0.900000E-01   1.00800           0
     15233 MEMB     166      OSM      H13G     HAL2     0.900000E-01   1.00800           0
     15234 MEMB     166      OSM      C14F     CTL2    -0.180000       12.0110           0
     15235 MEMB     166      OSM      H14F     HAL2     0.900000E-01   1.00800           0
     15236 MEMB     166      OSM      H14G     HAL2     0.900000E-01   1.00800           0
     15237 MEMB     166      OSM      C15F     CTL2    -0.180000       12.0110           0
     15238 MEMB     166      OSM      H15F     HAL2     0.900000E-01   1.00800           0
     15239 MEMB     166      OSM      H15G     HAL2     0.900000E-01   1.00800           0
     15240 MEMB     166      OSM      C16F     CTL2    -0.180000       12.0110           0
     15241 MEMB     166      OSM      H16F     HAL2     0.900000E-01   1.00800           0
     15242 MEMB     166      OSM      H16G     HAL2     0.900000E-01   1.00800           0
     15243 MEMB     166      OSM      C17F     CTL2    -0.180000       12.0110           0
     15244 MEMB     166      OSM      H17F     HAL2     0.900000E-01   1.00800           0
     15245 MEMB     166      OSM      H17G     HAL2     0.900000E-01   1.00800           0
     15246 MEMB     166      OSM      C18F     CTL3    -0.270000       12.0110           0
     15247 MEMB     166      OSM      H18F     HAL3     0.900000E-01   1.00800           0
     15248 MEMB     166      OSM      H18G     HAL3     0.900000E-01   1.00800           0
     15249 MEMB     166      OSM      H18H     HAL3     0.900000E-01   1.00800           0
     15250 MEMB     177      OSM      N        NTL     -0.600000       14.0070           0
     15251 MEMB     177      OSM      C15      CTL5    -0.350000       12.0110           0
     15252 MEMB     177      OSM      H15A     HL       0.250000       1.00800           0
     15253 MEMB     177      OSM      H15B     HL       0.250000       1.00800           0
     15254 MEMB     177      OSM      H15C     HL       0.250000       1.00800           0
     15255 MEMB     177      OSM      C14      CTL5    -0.350000       12.0110           0
     15256 MEMB     177      OSM      H14A     HL       0.250000       1.00800           0
     15257 MEMB     177      OSM      H14B     HL       0.250000       1.00800           0
     15258 MEMB     177      OSM      H14C     HL       0.250000       1.00800           0
     15259 MEMB     177      OSM      C13      CTL5    -0.350000       12.0110           0
     15260 MEMB     177      OSM      H13A     HL       0.250000       1.00800           0
     15261 MEMB     177      OSM      H13B     HL       0.250000       1.00800           0
     15262 MEMB     177      OSM      H13C     HL       0.250000       1.00800           0
     15263 MEMB     177      OSM      C12      CTL2    -0.100000       12.0110           0
     15264 MEMB     177      OSM      H12A     HL       0.250000       1.00800           0
     15265 MEMB     177      OSM      H12B     HL       0.250000       1.00800           0
     15266 MEMB     177      OSM      C11      CTL2    -0.800000E-01   12.0110           0
     15267 MEMB     177      OSM      H11A     HAL2     0.900000E-01   1.00800           0
     15268 MEMB     177      OSM      H11B     HAL2     0.900000E-01   1.00800           0
     15269 MEMB     177      OSM      P        PL       1.500000       30.9740           0
     15270 MEMB     177      OSM      O13      O2L     -0.780000       15.9994           0
     15271 MEMB     177      OSM      O14      O2L     -0.780000       15.9994           0
     15272 MEMB     177      OSM      O11      OSLP    -0.570000       15.9994           0
     15273 MEMB     177      OSM      O12      OSLP    -0.570000       15.9994           0
     15274 MEMB     177      OSM      C1S      CTL2    -0.800000E-01   12.0110           0
     15275 MEMB     177      OSM      H1S      HAL2     0.900000E-01   1.00800           0
     15276 MEMB     177      OSM      H1T      HAL2     0.900000E-01   1.00800           0
     15277 MEMB     177      OSM      NF       NHL     -0.700000       14.0070           0
     15278 MEMB     177      OSM      HNF      H        0.350000       1.00800           0
     15279 MEMB     177      OSM      C2S      CTL1     0.300000       12.0110           0
     15280 MEMB     177      OSM      H2S      HAL1     0.500000E-01   1.00800           0
     15281 MEMB     177      OSM      C3S      CTO1     0.500000       12.0110           0
     15282 MEMB     177      OSM      H3S      HAL1    -0.110000       1.00800           0
     15283 MEMB     177      OSM      O3       OHL     -0.690000       15.9994           0
     15284 MEMB     177      OSM      HO3      HOL      0.300000       1.00800           0
     15285 MEMB     177      OSM      C4S      CEL3    -0.150000       12.0110           0
     15286 MEMB     177      OSM      H4S      HEL1     0.150000       1.00800           0
     15287 MEMB     177      OSM      C5S      CEL3    -0.150000       12.0110           0
     15288 MEMB     177      OSM      H5S      HEL1     0.150000       1.00800           0
     15289 MEMB     177      OSM      C6S      CTL2    -0.180000       12.0110           0
     15290 MEMB     177      OSM      H6S      HAL2     0.900000E-01   1.00800           0
     15291 MEMB     177      OSM      H6T      HAL2     0.900000E-01   1.00800           0
     15292 MEMB     177      OSM      C7S      CTL2    -0.180000       12.0110           0
     15293 MEMB     177      OSM      H7S      HAL2     0.900000E-01   1.00800           0
     15294 MEMB     177      OSM      H7T      HAL2     0.900000E-01   1.00800           0
     15295 MEMB     177      OSM      C8S      CTL2    -0.180000       12.0110           0
     15296 MEMB     177      OSM      H8S      HAL2     0.900000E-01   1.00800           0
     15297 MEMB     177      OSM      H8T      HAL2     0.900000E-01   1.00800           0
     15298 MEMB     177      OSM      C9S      CTL2    -0.180000       12.0110           0
     15299 MEMB     177      OSM      H9S      HAL2     0.900000E-01   1.00800           0
     15300 MEMB     177      OSM      H9T      HAL2     0.900000E-01   1.00800           0
     15301 MEMB     177      OSM      C10S     CTL2    -0.180000       12.0110           0
     15302 MEMB     177      OSM      H10S     HAL2     0.900000E-01   1.00800           0
     15303 MEMB     177      OSM      H10T     HAL2     0.900000E-01   1.00800           0
     15304 MEMB     177      OSM      C11S     CTL2    -0.180000       12.0110           0
     15305 MEMB     177      OSM      H11S     HAL2     0.900000E-01   1.00800           0
     15306 MEMB     177      OSM      H11T     HAL2     0.900000E-01   1.00800           0
     15307 MEMB     177      OSM      C12S     CTL2    -0.180000       12.0110           0
     15308 MEMB     177      OSM      H12S     HAL2     0.900000E-01   1.00800           0
     15309 MEMB     177      OSM      H12T     HAL2     0.900000E-01   1.00800           0
     15310 MEMB     177      OSM      C13S     CTL2    -0.180000       12.0110           0
     15311 MEMB     177      OSM      H13S     HAL2     0.900000E-01   1.00800           0
     15312 MEMB     177      OSM      H13T     HAL2     0.900000E-01   1.00800           0
     15313 MEMB     177      OSM      C14S     CTL2    -0.180000       12.0110           0
     15314 MEMB     177      OSM      H14S     HAL2     0.900000E-01   1.00800           0
     15315 MEMB     177      OSM      H14T     HAL2     0.900000E-01   1.00800           0
     15316 MEMB     177      OSM      C15S     CTL2    -0.180000       12.0110           0
     15317 MEMB     177      OSM      H15S     HAL2     0.900000E-01   1.00800           0
     15318 MEMB     177      OSM      H15T     HAL2     0.900000E-01   1.00800           0
     15319 MEMB     177      OSM      C16S     CTL2    -0.180000       12.0110           0
     15320 MEMB     177      OSM      H16S     HAL2     0.900000E-01   1.00800           0
     15321 MEMB     177      OSM      H16T     HAL2     0.900000E-01   1.00800           0
     15322 MEMB     177      OSM      C17S     CTL2    -0.180000       12.0110           0
     15323 MEMB     177      OSM      H17S     HAL2     0.900000E-01   1.00800           0
     15324 MEMB     177      OSM      H17T     HAL2     0.900000E-01   1.00800           0
     15325 MEMB     177      OSM      C18S     CTL3    -0.270000       12.0110           0
     15326 MEMB     177      OSM      H18S     HAL3     0.900000E-01   1.00800           0
     15327 MEMB     177      OSM      H18T     HAL3     0.900000E-01   1.00800           0
     15328 MEMB     177      OSM      H18U     HAL3     0.900000E-01   1.00800           0
     15329 MEMB     177      OSM      C1F      C        0.550000       12.0110           0
     15330 MEMB     177      OSM      OF       O       -0.600000       15.9994           0
     15331 MEMB     177      OSM      C2F      CTL2    -0.700000E-01   12.0110           0
     15332 MEMB     177      OSM      H2F      HAL2     0.600000E-01   1.00800           0
     15333 MEMB     177      OSM      H2G      HAL2     0.600000E-01   1.00800           0
     15334 MEMB     177      OSM      C3F      CTL2    -0.180000       12.0110           0
     15335 MEMB     177      OSM      H3F      HAL2     0.900000E-01   1.00800           0
     15336 MEMB     177      OSM      H3G      HAL2     0.900000E-01   1.00800           0
     15337 MEMB     177      OSM      C4F      CTL2    -0.180000       12.0110           0
     15338 MEMB     177      OSM      H4F      HAL2     0.900000E-01   1.00800           0
     15339 MEMB     177      OSM      H4G      HAL2     0.900000E-01   1.00800           0
     15340 MEMB     177      OSM      C5F      CTL2    -0.180000       12.0110           0
     15341 MEMB     177      OSM      H5F      HAL2     0.900000E-01   1.00800           0
     15342 MEMB     177      OSM      H5G      HAL2     0.900000E-01   1.00800           0
     15343 MEMB     177      OSM      C6F      CTL2    -0.180000       12.0110           0
     15344 MEMB     177      OSM      H6F      HAL2     0.900000E-01   1.00800           0
     15345 MEMB     177      OSM      H6G      HAL2     0.900000E-01   1.00800           0
     15346 MEMB     177      OSM      C7F      CTL2    -0.180000       12.0110           0
     15347 MEMB     177      OSM      H7F      HAL2     0.900000E-01   1.00800           0
     15348 MEMB     177      OSM      H7G      HAL2     0.900000E-01   1.00800           0
     15349 MEMB     177      OSM      C8F      CTL2    -0.180000       12.0110           0
     15350 MEMB     177      OSM      H8F      HAL2     0.900000E-01   1.00800           0
     15351 MEMB     177      OSM      H8G      HAL2     0.900000E-01   1.00800           0
     15352 MEMB     177      OSM      C9F      CEL1    -0.150000       12.0110           0
     15353 MEMB     177      OSM      H9F      HEL1     0.150000       1.00800           0
     15354 MEMB     177      OSM      C10F     CEL1    -0.150000       12.0110           0
     15355 MEMB     177      OSM      H10F     HEL1     0.150000       1.00800           0
     15356 MEMB     177      OSM      C11F     CTL2    -0.180000       12.0110           0
     15357 MEMB     177      OSM      H11F     HAL2     0.900000E-01   1.00800           0
     15358 MEMB     177      OSM      H11G     HAL2     0.900000E-01   1.00800           0
     15359 MEMB     177      OSM      C12F     CTL2    -0.180000       12.0110           0
     15360 MEMB     177      OSM      H12F     HAL2     0.900000E-01   1.00800           0
     15361 MEMB     177      OSM      H12G     HAL2     0.900000E-01   1.00800           0
     15362 MEMB     177      OSM      C13F     CTL2    -0.180000       12.0110           0
     15363 MEMB     177      OSM      H13F     HAL2     0.900000E-01   1.00800           0
     15364 MEMB     177      OSM      H13G     HAL2     0.900000E-01   1.00800           0
     15365 MEMB     177      OSM      C14F     CTL2    -0.180000       12.0110           0
     15366 MEMB     177      OSM      H14F     HAL2     0.900000E-01   1.00800           0
     15367 MEMB     177      OSM      H14G     HAL2     0.900000E-01   1.00800           0
     15368 MEMB     177      OSM      C15F     CTL2    -0.180000       12.0110           0
     15369 MEMB     177      OSM      H15F     HAL2     0.900000E-01   1.00800           0
     15370 MEMB     177      OSM      H15G     HAL2     0.900000E-01   1.00800           0
     15371 MEMB     177      OSM      C16F     CTL2    -0.180000       12.0110           0
     15372 MEMB     177      OSM      H16F     HAL2     0.900000E-01   1.00800           0
     15373 MEMB     177      OSM      H16G     HAL2     0.900000E-01   1.00800           0
     15374 MEMB     177      OSM      C17F     CTL2    -0.180000       12.0110           0
     15375 MEMB     177      OSM      H17F     HAL2     0.900000E-01   1.00800           0
     15376 MEMB     177      OSM      H17G     HAL2     0.900000E-01   1.00800           0
     15377 MEMB     177      OSM      C18F     CTL3    -0.270000       12.0110           0
     15378 MEMB     177      OSM      H18F     HAL3     0.900000E-01   1.00800           0
     15379 MEMB     177      OSM      H18G     HAL3     0.900000E-01   1.00800           0
     15380 MEMB     177      OSM      H18H     HAL3     0.900000E-01   1.00800           0
     15381 MEMB     178      OSM      N        NTL     -0.600000       14.0070           0
     15382 MEMB     178      OSM      C15      CTL5    -0.350000       12.0110           0
     15383 MEMB     178      OSM      H15A     HL       0.250000       1.00800           0
     15384 MEMB     178      OSM      H15B     HL       0.250000       1.00800           0
     15385 MEMB     178      OSM      H15C     HL       0.250000       1.00800           0
     15386 MEMB     178      OSM      C14      CTL5    -0.350000       12.0110           0
     15387 MEMB     178      OSM      H14A     HL       0.250000       1.00800           0
     15388 MEMB     178      OSM      H14B     HL       0.250000       1.00800           0
     15389 MEMB     178      OSM      H14C     HL       0.250000       1.00800           0
     15390 MEMB     178      OSM      C13      CTL5    -0.350000       12.0110           0
     15391 MEMB     178      OSM      H13A     HL       0.250000       1.00800           0
     15392 MEMB     178      OSM      H13B     HL       0.250000       1.00800           0
     15393 MEMB     178      OSM      H13C     HL       0.250000       1.00800           0
     15394 MEMB     178      OSM      C12      CTL2    -0.100000       12.0110           0
     15395 MEMB     178      OSM      H12A     HL       0.250000       1.00800           0
     15396 MEMB     178      OSM      H12B     HL       0.250000       1.00800           0
     15397 MEMB     178      OSM      C11      CTL2    -0.800000E-01   12.0110           0
     15398 MEMB     178      OSM      H11A     HAL2     0.900000E-01   1.00800           0
     15399 MEMB     178      OSM      H11B     HAL2     0.900000E-01   1.00800           0
     15400 MEMB     178      OSM      P        PL       1.500000       30.9740           0
     15401 MEMB     178      OSM      O13      O2L     -0.780000       15.9994           0
     15402 MEMB     178      OSM      O14      O2L     -0.780000       15.9994           0
     15403 MEMB     178      OSM      O11      OSLP    -0.570000       15.9994           0
     15404 MEMB     178      OSM      O12      OSLP    -0.570000       15.9994           0
     15405 MEMB     178      OSM      C1S      CTL2    -0.800000E-01   12.0110           0
     15406 MEMB     178      OSM      H1S      HAL2     0.900000E-01   1.00800           0
     15407 MEMB     178      OSM      H1T      HAL2     0.900000E-01   1.00800           0
     15408 MEMB     178      OSM      NF       NHL     -0.700000       14.0070           0
     15409 MEMB     178      OSM      HNF      H        0.350000       1.00800           0
     15410 MEMB     178      OSM      C2S      CTL1     0.300000       12.0110           0
     15411 MEMB     178      OSM      H2S      HAL1     0.500000E-01   1.00800           0
     15412 MEMB     178      OSM      C3S      CTO1     0.500000       12.0110           0
     15413 MEMB     178      OSM      H3S      HAL1    -0.110000       1.00800           0
     15414 MEMB     178      OSM      O3       OHL     -0.690000       15.9994           0
     15415 MEMB     178      OSM      HO3      HOL      0.300000       1.00800           0
     15416 MEMB     178      OSM      C4S      CEL3    -0.150000       12.0110           0
     15417 MEMB     178      OSM      H4S      HEL1     0.150000       1.00800           0
     15418 MEMB     178      OSM      C5S      CEL3    -0.150000       12.0110           0
     15419 MEMB     178      OSM      H5S      HEL1     0.150000       1.00800           0
     15420 MEMB     178      OSM      C6S      CTL2    -0.180000       12.0110           0
     15421 MEMB     178      OSM      H6S      HAL2     0.900000E-01   1.00800           0
     15422 MEMB     178      OSM      H6T      HAL2     0.900000E-01   1.00800           0
     15423 MEMB     178      OSM      C7S      CTL2    -0.180000       12.0110           0
     15424 MEMB     178      OSM      H7S      HAL2     0.900000E-01   1.00800           0
     15425 MEMB     178      OSM      H7T      HAL2     0.900000E-01   1.00800           0
     15426 MEMB     178      OSM      C8S      CTL2    -0.180000       12.0110           0
     15427 MEMB     178      OSM      H8S      HAL2     0.900000E-01   1.00800           0
     15428 MEMB     178      OSM      H8T      HAL2     0.900000E-01   1.00800           0
     15429 MEMB     178      OSM      C9S      CTL2    -0.180000       12.0110           0
     15430 MEMB     178      OSM      H9S      HAL2     0.900000E-01   1.00800           0
     15431 MEMB     178      OSM      H9T      HAL2     0.900000E-01   1.00800           0
     15432 MEMB     178      OSM      C10S     CTL2    -0.180000       12.0110           0
     15433 MEMB     178      OSM      H10S     HAL2     0.900000E-01   1.00800           0
     15434 MEMB     178      OSM      H10T     HAL2     0.900000E-01   1.00800           0
     15435 MEMB     178      OSM      C11S     CTL2    -0.180000       12.0110           0
     15436 MEMB     178      OSM      H11S     HAL2     0.900000E-01   1.00800           0
     15437 MEMB     178      OSM      H11T     HAL2     0.900000E-01   1.00800           0
     15438 MEMB     178      OSM      C12S     CTL2    -0.180000       12.0110           0
     15439 MEMB     178      OSM      H12S     HAL2     0.900000E-01   1.00800           0
     15440 MEMB     178      OSM      H12T     HAL2     0.900000E-01   1.00800           0
     15441 MEMB     178      OSM      C13S     CTL2    -0.180000       12.0110           0
     15442 MEMB     178      OSM      H13S     HAL2     0.900000E-01   1.00800           0
     15443 MEMB     178      OSM      H13T     HAL2     0.900000E-01   1.00800           0
     15444 MEMB     178      OSM      C14S     CTL2    -0.180000       12.0110           0
     15445 MEMB     178      OSM      H14S     HAL2     0.900000E-01   1.00800           0
     15446 MEMB     178      OSM      H14T     HAL2     0.900000E-01   1.00800           0
     15447 MEMB     178      OSM      C15S     CTL2    -0.180000       12.0110           0
     15448 MEMB     178      OSM      H15S     HAL2     0.900000E-01   1.00800           0
     15449 MEMB     178      OSM      H15T     HAL2     0.900000E-01   1.00800           0
     15450 MEMB     178      OSM      C16S     CTL2    -0.180000       12.0110           0
     15451 MEMB     178      OSM      H16S     HAL2     0.900000E-01   1.00800           0
     15452 MEMB     178      OSM      H16T     HAL2     0.900000E-01   1.00800           0
     15453 MEMB     178      OSM      C17S     CTL2    -0.180000       12.0110           0
     15454 MEMB     178      OSM      H17S     HAL2     0.900000E-01   1.00800           0
     15455 MEMB     178      OSM      H17T     HAL2     0.900000E-01   1.00800           0
     15456 MEMB     178      OSM      C18S     CTL3    -0.270000       12.0110           0
     15457 MEMB     178      OSM      H18S     HAL3     0.900000E-01   1.00800           0
     15458 MEMB     178      OSM      H18T     HAL3     0.900000E-01   1.00800           0
     15459 MEMB     178      OSM      H18U     HAL3     0.900000E-01   1.00800           0
     15460 MEMB     178      OSM      C1F      C        0.550000       12.0110           0
     15461 MEMB     178      OSM      OF       O       -0.600000       15.9994           0
     15462 MEMB     178      OSM      C2F      CTL2    -0.700000E-01   12.0110           0
     15463 MEMB     178      OSM      H2F      HAL2     0.600000E-01   1.00800           0
     15464 MEMB     178      OSM      H2G      HAL2     0.600000E-01   1.00800           0
     15465 MEMB     178      OSM      C3F      CTL2    -0.180000       12.0110           0
     15466 MEMB     178      OSM      H3F      HAL2     0.900000E-01   1.00800           0
     15467 MEMB     178      OSM      H3G      HAL2     0.900000E-01   1.00800           0
     15468 MEMB     178      OSM      C4F      CTL2    -0.180000       12.0110           0
     15469 MEMB     178      OSM      H4F      HAL2     0.900000E-01   1.00800           0
     15470 MEMB     178      OSM      H4G      HAL2     0.900000E-01   1.00800           0
     15471 MEMB     178      OSM      C5F      CTL2    -0.180000       12.0110           0
     15472 MEMB     178      OSM      H5F      HAL2     0.900000E-01   1.00800           0
     15473 MEMB     178      OSM      H5G      HAL2     0.900000E-01   1.00800           0
     15474 MEMB     178      OSM      C6F      CTL2    -0.180000       12.0110           0
     15475 MEMB     178      OSM      H6F      HAL2     0.900000E-01   1.00800           0
     15476 MEMB     178      OSM      H6G      HAL2     0.900000E-01   1.00800           0
     15477 MEMB     178      OSM      C7F      CTL2    -0.180000       12.0110           0
     15478 MEMB     178      OSM      H7F      HAL2     0.900000E-01   1.00800           0
     15479 MEMB     178      OSM      H7G      HAL2     0.900000E-01   1.00800           0
     15480 MEMB     178      OSM      C8F      CTL2    -0.180000       12.0110           0
     15481 MEMB     178      OSM      H8F      HAL2     0.900000E-01   1.00800           0
     15482 MEMB     178      OSM      H8G      HAL2     0.900000E-01   1.00800           0
     15483 MEMB     178      OSM      C9F      CEL1    -0.150000       12.0110           0
     15484 MEMB     178      OSM      H9F      HEL1     0.150000       1.00800           0
     15485 MEMB     178      OSM      C10F     CEL1    -0.150000       12.0110           0
     15486 MEMB     178      OSM      H10F     HEL1     0.150000       1.00800           0
     15487 MEMB     178      OSM      C11F     CTL2    -0.180000       12.0110           0
     15488 MEMB     178      OSM      H11F     HAL2     0.900000E-01   1.00800           0
     15489 MEMB     178      OSM      H11G     HAL2     0.900000E-01   1.00800           0
     15490 MEMB     178      OSM      C12F     CTL2    -0.180000       12.0110           0
     15491 MEMB     178      OSM      H12F     HAL2     0.900000E-01   1.00800           0
     15492 MEMB     178      OSM      H12G     HAL2     0.900000E-01   1.00800           0
     15493 MEMB     178      OSM      C13F     CTL2    -0.180000       12.0110           0
     15494 MEMB     178      OSM      H13F     HAL2     0.900000E-01   1.00800           0
     15495 MEMB     178      OSM      H13G     HAL2     0.900000E-01   1.00800           0
     15496 MEMB     178      OSM      C14F     CTL2    -0.180000       12.0110           0
     15497 MEMB     178      OSM      H14F     HAL2     0.900000E-01   1.00800           0
     15498 MEMB     178      OSM      H14G     HAL2     0.900000E-01   1.00800           0
     15499 MEMB     178      OSM      C15F     CTL2    -0.180000       12.0110           0
     15500 MEMB     178      OSM      H15F     HAL2     0.900000E-01   1.00800           0
     15501 MEMB     178      OSM      H15G     HAL2     0.900000E-01   1.00800           0
     15502 MEMB     178      OSM      C16F     CTL2    -0.180000       12.0110           0
     15503 MEMB     178      OSM      H16F     HAL2     0.900000E-01   1.00800           0
     15504 MEMB     178      OSM      H16G     HAL2     0.900000E-01   1.00800           0
     15505 MEMB     178      OSM      C17F     CTL2    -0.180000       12.0110           0
     15506 MEMB     178      OSM      H17F     HAL2     0.900000E-01   1.00800           0
     15507 MEMB     178      OSM      H17G     HAL2     0.900000E-01   1.00800           0
     15508 MEMB     178      OSM      C18F     CTL3    -0.270000       12.0110           0
     15509 MEMB     178      OSM      H18F     HAL3     0.900000E-01   1.00800           0
     15510 MEMB     178      OSM      H18G     HAL3     0.900000E-01   1.00800           0
     15511 MEMB     178      OSM      H18H     HAL3     0.900000E-01   1.00800           0
     15512 MEMB     183      OSM      N        NTL     -0.600000       14.0070           0
     15513 MEMB     183      OSM      C15      CTL5    -0.350000       12.0110           0
     15514 MEMB     183      OSM      H15A     HL       0.250000       1.00800           0
     15515 MEMB     183      OSM      H15B     HL       0.250000       1.00800           0
     15516 MEMB     183      OSM      H15C     HL       0.250000       1.00800           0
     15517 MEMB     183      OSM      C14      CTL5    -0.350000       12.0110           0
     15518 MEMB     183      OSM      H14A     HL       0.250000       1.00800           0
     15519 MEMB     183      OSM      H14B     HL       0.250000       1.00800           0
     15520 MEMB     183      OSM      H14C     HL       0.250000       1.00800           0
     15521 MEMB     183      OSM      C13      CTL5    -0.350000       12.0110           0
     15522 MEMB     183      OSM      H13A     HL       0.250000       1.00800           0
     15523 MEMB     183      OSM      H13B     HL       0.250000       1.00800           0
     15524 MEMB     183      OSM      H13C     HL       0.250000       1.00800           0
     15525 MEMB     183      OSM      C12      CTL2    -0.100000       12.0110           0
     15526 MEMB     183      OSM      H12A     HL       0.250000       1.00800           0
     15527 MEMB     183      OSM      H12B     HL       0.250000       1.00800           0
     15528 MEMB     183      OSM      C11      CTL2    -0.800000E-01   12.0110           0
     15529 MEMB     183      OSM      H11A     HAL2     0.900000E-01   1.00800           0
     15530 MEMB     183      OSM      H11B     HAL2     0.900000E-01   1.00800           0
     15531 MEMB     183      OSM      P        PL       1.500000       30.9740           0
     15532 MEMB     183      OSM      O13      O2L     -0.780000       15.9994           0
     15533 MEMB     183      OSM      O14      O2L     -0.780000       15.9994           0
     15534 MEMB     183      OSM      O11      OSLP    -0.570000       15.9994           0
     15535 MEMB     183      OSM      O12      OSLP    -0.570000       15.9994           0
     15536 MEMB     183      OSM      C1S      CTL2    -0.800000E-01   12.0110           0
     15537 MEMB     183      OSM      H1S      HAL2     0.900000E-01   1.00800           0
     15538 MEMB     183      OSM      H1T      HAL2     0.900000E-01   1.00800           0
     15539 MEMB     183      OSM      NF       NHL     -0.700000       14.0070           0
     15540 MEMB     183      OSM      HNF      H        0.350000       1.00800           0
     15541 MEMB     183      OSM      C2S      CTL1     0.300000       12.0110           0
     15542 MEMB     183      OSM      H2S      HAL1     0.500000E-01   1.00800           0
     15543 MEMB     183      OSM      C3S      CTO1     0.500000       12.0110           0
     15544 MEMB     183      OSM      H3S      HAL1    -0.110000       1.00800           0
     15545 MEMB     183      OSM      O3       OHL     -0.690000       15.9994           0
     15546 MEMB     183      OSM      HO3      HOL      0.300000       1.00800           0
     15547 MEMB     183      OSM      C4S      CEL3    -0.150000       12.0110           0
     15548 MEMB     183      OSM      H4S      HEL1     0.150000       1.00800           0
     15549 MEMB     183      OSM      C5S      CEL3    -0.150000       12.0110           0
     15550 MEMB     183      OSM      H5S      HEL1     0.150000       1.00800           0
     15551 MEMB     183      OSM      C6S      CTL2    -0.180000       12.0110           0
     15552 MEMB     183      OSM      H6S      HAL2     0.900000E-01   1.00800           0
     15553 MEMB     183      OSM      H6T      HAL2     0.900000E-01   1.00800           0
     15554 MEMB     183      OSM      C7S      CTL2    -0.180000       12.0110           0
     15555 MEMB     183      OSM      H7S      HAL2     0.900000E-01   1.00800           0
     15556 MEMB     183      OSM      H7T      HAL2     0.900000E-01   1.00800           0
     15557 MEMB     183      OSM      C8S      CTL2    -0.180000       12.0110           0
     15558 MEMB     183      OSM      H8S      HAL2     0.900000E-01   1.00800           0
     15559 MEMB     183      OSM      H8T      HAL2     0.900000E-01   1.00800           0
     15560 MEMB     183      OSM      C9S      CTL2    -0.180000       12.0110           0
     15561 MEMB     183      OSM      H9S      HAL2     0.900000E-01   1.00800           0
     15562 MEMB     183      OSM      H9T      HAL2     0.900000E-01   1.00800           0
     15563 MEMB     183      OSM      C10S     CTL2    -0.180000       12.0110           0
     15564 MEMB     183      OSM      H10S     HAL2     0.900000E-01   1.00800           0
     15565 MEMB     183      OSM      H10T     HAL2     0.900000E-01   1.00800           0
     15566 MEMB     183      OSM      C11S     CTL2    -0.180000       12.0110           0
     15567 MEMB     183      OSM      H11S     HAL2     0.900000E-01   1.00800           0
     15568 MEMB     183      OSM      H11T     HAL2     0.900000E-01   1.00800           0
     15569 MEMB     183      OSM      C12S     CTL2    -0.180000       12.0110           0
     15570 MEMB     183      OSM      H12S     HAL2     0.900000E-01   1.00800           0
     15571 MEMB     183      OSM      H12T     HAL2     0.900000E-01   1.00800           0
     15572 MEMB     183      OSM      C13S     CTL2    -0.180000       12.0110           0
     15573 MEMB     183      OSM      H13S     HAL2     0.900000E-01   1.00800           0
     15574 MEMB     183      OSM      H13T     HAL2     0.900000E-01   1.00800           0
     15575 MEMB     183      OSM      C14S     CTL2    -0.180000       12.0110           0
     15576 MEMB     183      OSM      H14S     HAL2     0.900000E-01   1.00800           0
     15577 MEMB     183      OSM      H14T     HAL2     0.900000E-01   1.00800           0
     15578 MEMB     183      OSM      C15S     CTL2    -0.180000       12.0110           0
     15579 MEMB     183      OSM      H15S     HAL2     0.900000E-01   1.00800           0
     15580 MEMB     183      OSM      H15T     HAL2     0.900000E-01   1.00800           0
     15581 MEMB     183      OSM      C16S     CTL2    -0.180000       12.0110           0
     15582 MEMB     183      OSM      H16S     HAL2     0.900000E-01   1.00800           0
     15583 MEMB     183      OSM      H16T     HAL2     0.900000E-01   1.00800           0
     15584 MEMB     183      OSM      C17S     CTL2    -0.180000       12.0110           0
     15585 MEMB     183      OSM      H17S     HAL2     0.900000E-01   1.00800           0
     15586 MEMB     183      OSM      H17T     HAL2     0.900000E-01   1.00800           0
     15587 MEMB     183      OSM      C18S     CTL3    -0.270000       12.0110           0
     15588 MEMB     183      OSM      H18S     HAL3     0.900000E-01   1.00800           0
     15589 MEMB     183      OSM      H18T     HAL3     0.900000E-01   1.00800           0
     15590 MEMB     183      OSM      H18U     HAL3     0.900000E-01   1.00800           0
     15591 MEMB     183      OSM      C1F      C        0.550000       12.0110           0
     15592 MEMB     183      OSM      OF       O       -0.600000       15.9994           0
     15593 MEMB     183      OSM      C2F      CTL2    -0.700000E-01   12.0110           0
     15594 MEMB     183      OSM      H2F      HAL2     0.600000E-01   1.00800           0
     15595 MEMB     183      OSM      H2G      HAL2     0.600000E-01   1.00800           0
     15596 MEMB     183      OSM      C3F      CTL2    -0.180000       12.0110           0
     15597 MEMB     183      OSM      H3F      HAL2     0.900000E-01   1.00800           0
     15598 MEMB     183      OSM      H3G      HAL2     0.900000E-01   1.00800           0
     15599 MEMB     183      OSM      C4F      CTL2    -0.180000       12.0110           0
     15600 MEMB     183      OSM      H4F      HAL2     0.900000E-01   1.00800           0
     15601 MEMB     183      OSM      H4G      HAL2     0.900000E-01   1.00800           0
     15602 MEMB     183      OSM      C5F      CTL2    -0.180000       12.0110           0
     15603 MEMB     183      OSM      H5F      HAL2     0.900000E-01   1.00800           0
     15604 MEMB     183      OSM      H5G      HAL2     0.900000E-01   1.00800           0
     15605 MEMB     183      OSM      C6F      CTL2    -0.180000       12.0110           0
     15606 MEMB     183      OSM      H6F      HAL2     0.900000E-01   1.00800           0
     15607 MEMB     183      OSM      H6G      HAL2     0.900000E-01   1.00800           0
     15608 MEMB     183      OSM      C7F      CTL2    -0.180000       12.0110           0
     15609 MEMB     183      OSM      H7F      HAL2     0.900000E-01   1.00800           0
     15610 MEMB     183      OSM      H7G      HAL2     0.900000E-01   1.00800           0
     15611 MEMB     183      OSM      C8F      CTL2    -0.180000       12.0110           0
     15612 MEMB     183      OSM      H8F      HAL2     0.900000E-01   1.00800           0
     15613 MEMB     183      OSM      H8G      HAL2     0.900000E-01   1.00800           0
     15614 MEMB     183      OSM      C9F      CEL1    -0.150000       12.0110           0
     15615 MEMB     183      OSM      H9F      HEL1     0.150000       1.00800           0
     15616 MEMB     183      OSM      C10F     CEL1    -0.150000       12.0110           0
     15617 MEMB     183      OSM      H10F     HEL1     0.150000       1.00800           0
     15618 MEMB     183      OSM      C11F     CTL2    -0.180000       12.0110           0
     15619 MEMB     183      OSM      H11F     HAL2     0.900000E-01   1.00800           0
     15620 MEMB     183      OSM      H11G     HAL2     0.900000E-01   1.00800           0
     15621 MEMB     183      OSM      C12F     CTL2    -0.180000       12.0110           0
     15622 MEMB     183      OSM      H12F     HAL2     0.900000E-01   1.00800           0
     15623 MEMB     183      OSM      H12G     HAL2     0.900000E-01   1.00800           0
     15624 MEMB     183      OSM      C13F     CTL2    -0.180000       12.0110           0
     15625 MEMB     183      OSM      H13F     HAL2     0.900000E-01   1.00800           0
     15626 MEMB     183      OSM      H13G     HAL2     0.900000E-01   1.00800           0
     15627 MEMB     183      OSM      C14F     CTL2    -0.180000       12.0110           0
     15628 MEMB     183      OSM      H14F     HAL2     0.900000E-01   1.00800           0
     15629 MEMB     183      OSM      H14G     HAL2     0.900000E-01   1.00800           0
     15630 MEMB     183      OSM      C15F     CTL2    -0.180000       12.0110           0
     15631 MEMB     183      OSM      H15F     HAL2     0.900000E-01   1.00800           0
     15632 MEMB     183      OSM      H15G     HAL2     0.900000E-01   1.00800           0
     15633 MEMB     183      OSM      C16F     CTL2    -0.180000       12.0110           0
     15634 MEMB     183      OSM      H16F     HAL2     0.900000E-01   1.00800           0
     15635 MEMB     183      OSM      H16G     HAL2     0.900000E-01   1.00800           0
     15636 MEMB     183      OSM      C17F     CTL2    -0.180000       12.0110           0
     15637 MEMB     183      OSM      H17F     HAL2     0.900000E-01   1.00800           0
     15638 MEMB     183      OSM      H17G     HAL2     0.900000E-01   1.00800           0
     15639 MEMB     183      OSM      C18F     CTL3    -0.270000       12.0110           0
     15640 MEMB     183      OSM      H18F     HAL3     0.900000E-01   1.00800           0
     15641 MEMB     183      OSM      H18G     HAL3     0.900000E-01   1.00800           0
     15642 MEMB     183      OSM      H18H     HAL3     0.900000E-01   1.00800           0
     15643 MEMB     188      OSM      N        NTL     -0.600000       14.0070           0
     15644 MEMB     188      OSM      C15      CTL5    -0.350000       12.0110           0
     15645 MEMB     188      OSM      H15A     HL       0.250000       1.00800           0
     15646 MEMB     188      OSM      H15B     HL       0.250000       1.00800           0
     15647 MEMB     188      OSM      H15C     HL       0.250000       1.00800           0
     15648 MEMB     188      OSM      C14      CTL5    -0.350000       12.0110           0
     15649 MEMB     188      OSM      H14A     HL       0.250000       1.00800           0
     15650 MEMB     188      OSM      H14B     HL       0.250000       1.00800           0
     15651 MEMB     188      OSM      H14C     HL       0.250000       1.00800           0
     15652 MEMB     188      OSM      C13      CTL5    -0.350000       12.0110           0
     15653 MEMB     188      OSM      H13A     HL       0.250000       1.00800           0
     15654 MEMB     188      OSM      H13B     HL       0.250000       1.00800           0
     15655 MEMB     188      OSM      H13C     HL       0.250000       1.00800           0
     15656 MEMB     188      OSM      C12      CTL2    -0.100000       12.0110           0
     15657 MEMB     188      OSM      H12A     HL       0.250000       1.00800           0
     15658 MEMB     188      OSM      H12B     HL       0.250000       1.00800           0
     15659 MEMB     188      OSM      C11      CTL2    -0.800000E-01   12.0110           0
     15660 MEMB     188      OSM      H11A     HAL2     0.900000E-01   1.00800           0
     15661 MEMB     188      OSM      H11B     HAL2     0.900000E-01   1.00800           0
     15662 MEMB     188      OSM      P        PL       1.500000       30.9740           0
     15663 MEMB     188      OSM      O13      O2L     -0.780000       15.9994           0
     15664 MEMB     188      OSM      O14      O2L     -0.780000       15.9994           0
     15665 MEMB     188      OSM      O11      OSLP    -0.570000       15.9994           0
     15666 MEMB     188      OSM      O12      OSLP    -0.570000       15.9994           0
     15667 MEMB     188      OSM      C1S      CTL2    -0.800000E-01   12.0110           0
     15668 MEMB     188      OSM      H1S      HAL2     0.900000E-01   1.00800           0
     15669 MEMB     188      OSM      H1T      HAL2     0.900000E-01   1.00800           0
     15670 MEMB     188      OSM      NF       NHL     -0.700000       14.0070           0
     15671 MEMB     188      OSM      HNF      H        0.350000       1.00800           0
     15672 MEMB     188      OSM      C2S      CTL1     0.300000       12.0110           0
     15673 MEMB     188      OSM      H2S      HAL1     0.500000E-01   1.00800           0
     15674 MEMB     188      OSM      C3S      CTO1     0.500000       12.0110           0
     15675 MEMB     188      OSM      H3S      HAL1    -0.110000       1.00800           0
     15676 MEMB     188      OSM      O3       OHL     -0.690000       15.9994           0
     15677 MEMB     188      OSM      HO3      HOL      0.300000       1.00800           0
     15678 MEMB     188      OSM      C4S      CEL3    -0.150000       12.0110           0
     15679 MEMB     188      OSM      H4S      HEL1     0.150000       1.00800           0
     15680 MEMB     188      OSM      C5S      CEL3    -0.150000       12.0110           0
     15681 MEMB     188      OSM      H5S      HEL1     0.150000       1.00800           0
     15682 MEMB     188      OSM      C6S      CTL2    -0.180000       12.0110           0
     15683 MEMB     188      OSM      H6S      HAL2     0.900000E-01   1.00800           0
     15684 MEMB     188      OSM      H6T      HAL2     0.900000E-01   1.00800           0
     15685 MEMB     188      OSM      C7S      CTL2    -0.180000       12.0110           0
     15686 MEMB     188      OSM      H7S      HAL2     0.900000E-01   1.00800           0
     15687 MEMB     188      OSM      H7T      HAL2     0.900000E-01   1.00800           0
     15688 MEMB     188      OSM      C8S      CTL2    -0.180000       12.0110           0
     15689 MEMB     188      OSM      H8S      HAL2     0.900000E-01   1.00800           0
     15690 MEMB     188      OSM      H8T      HAL2     0.900000E-01   1.00800           0
     15691 MEMB     188      OSM      C9S      CTL2    -0.180000       12.0110           0
     15692 MEMB     188      OSM      H9S      HAL2     0.900000E-01   1.00800           0
     15693 MEMB     188      OSM      H9T      HAL2     0.900000E-01   1.00800           0
     15694 MEMB     188      OSM      C10S     CTL2    -0.180000       12.0110           0
     15695 MEMB     188      OSM      H10S     HAL2     0.900000E-01   1.00800           0
     15696 MEMB     188      OSM      H10T     HAL2     0.900000E-01   1.00800           0
     15697 MEMB     188      OSM      C11S     CTL2    -0.180000       12.0110           0
     15698 MEMB     188      OSM      H11S     HAL2     0.900000E-01   1.00800           0
     15699 MEMB     188      OSM      H11T     HAL2     0.900000E-01   1.00800           0
     15700 MEMB     188      OSM      C12S     CTL2    -0.180000       12.0110           0
     15701 MEMB     188      OSM      H12S     HAL2     0.900000E-01   1.00800           0
     15702 MEMB     188      OSM      H12T     HAL2     0.900000E-01   1.00800           0
     15703 MEMB     188      OSM      C13S     CTL2    -0.180000       12.0110           0
     15704 MEMB     188      OSM      H13S     HAL2     0.900000E-01   1.00800           0
     15705 MEMB     188      OSM      H13T     HAL2     0.900000E-01   1.00800           0
     15706 MEMB     188      OSM      C14S     CTL2    -0.180000       12.0110           0
     15707 MEMB     188      OSM      H14S     HAL2     0.900000E-01   1.00800           0
     15708 MEMB     188      OSM      H14T     HAL2     0.900000E-01   1.00800           0
     15709 MEMB     188      OSM      C15S     CTL2    -0.180000       12.0110           0
     15710 MEMB     188      OSM      H15S     HAL2     0.900000E-01   1.00800           0
     15711 MEMB     188      OSM      H15T     HAL2     0.900000E-01   1.00800           0
     15712 MEMB     188      OSM      C16S     CTL2    -0.180000       12.0110           0
     15713 MEMB     188      OSM      H16S     HAL2     0.900000E-01   1.00800           0
     15714 MEMB     188      OSM      H16T     HAL2     0.900000E-01   1.00800           0
     15715 MEMB     188      OSM      C17S     CTL2    -0.180000       12.0110           0
     15716 MEMB     188      OSM      H17S     HAL2     0.900000E-01   1.00800           0
     15717 MEMB     188      OSM      H17T     HAL2     0.900000E-01   1.00800           0
     15718 MEMB     188      OSM      C18S     CTL3    -0.270000       12.0110           0
     15719 MEMB     188      OSM      H18S     HAL3     0.900000E-01   1.00800           0
     15720 MEMB     188      OSM      H18T     HAL3     0.900000E-01   1.00800           0
     15721 MEMB     188      OSM      H18U     HAL3     0.900000E-01   1.00800           0
     15722 MEMB     188      OSM      C1F      C        0.550000       12.0110           0
     15723 MEMB     188      OSM      OF       O       -0.600000       15.9994           0
     15724 MEMB     188      OSM      C2F      CTL2    -0.700000E-01   12.0110           0
     15725 MEMB     188      OSM      H2F      HAL2     0.600000E-01   1.00800           0
     15726 MEMB     188      OSM      H2G      HAL2     0.600000E-01   1.00800           0
     15727 MEMB     188      OSM      C3F      CTL2    -0.180000       12.0110           0
     15728 MEMB     188      OSM      H3F      HAL2     0.900000E-01   1.00800           0
     15729 MEMB     188      OSM      H3G      HAL2     0.900000E-01   1.00800           0
     15730 MEMB     188      OSM      C4F      CTL2    -0.180000       12.0110           0
     15731 MEMB     188      OSM      H4F      HAL2     0.900000E-01   1.00800           0
     15732 MEMB     188      OSM      H4G      HAL2     0.900000E-01   1.00800           0
     15733 MEMB     188      OSM      C5F      CTL2    -0.180000       12.0110           0
     15734 MEMB     188      OSM      H5F      HAL2     0.900000E-01   1.00800           0
     15735 MEMB     188      OSM      H5G      HAL2     0.900000E-01   1.00800           0
     15736 MEMB     188      OSM      C6F      CTL2    -0.180000       12.0110           0
     15737 MEMB     188      OSM      H6F      HAL2     0.900000E-01   1.00800           0
     15738 MEMB     188      OSM      H6G      HAL2     0.900000E-01   1.00800           0
     15739 MEMB     188      OSM      C7F      CTL2    -0.180000       12.0110           0
     15740 MEMB     188      OSM      H7F      HAL2     0.900000E-01   1.00800           0
     15741 MEMB     188      OSM      H7G      HAL2     0.900000E-01   1.00800           0
     15742 MEMB     188      OSM      C8F      CTL2    -0.180000       12.0110           0
     15743 MEMB     188      OSM      H8F      HAL2     0.900000E-01   1.00800           0
     15744 MEMB     188      OSM      H8G      HAL2     0.900000E-01   1.00800           0
     15745 MEMB     188      OSM      C9F      CEL1    -0.150000       12.0110           0
     15746 MEMB     188      OSM      H9F      HEL1     0.150000       1.00800           0
     15747 MEMB     188      OSM      C10F     CEL1    -0.150000       12.0110           0
     15748 MEMB     188      OSM      H10F     HEL1     0.150000       1.00800           0
     15749 MEMB     188      OSM      C11F     CTL2    -0.180000       12.0110           0
     15750 MEMB     188      OSM      H11F     HAL2     0.900000E-01   1.00800           0
     15751 MEMB     188      OSM      H11G     HAL2     0.900000E-01   1.00800           0
     15752 MEMB     188      OSM      C12F     CTL2    -0.180000       12.0110           0
     15753 MEMB     188      OSM      H12F     HAL2     0.900000E-01   1.00800           0
     15754 MEMB     188      OSM      H12G     HAL2     0.900000E-01   1.00800           0
     15755 MEMB     188      OSM      C13F     CTL2    -0.180000       12.0110           0
     15756 MEMB     188      OSM      H13F     HAL2     0.900000E-01   1.00800           0
     15757 MEMB     188      OSM      H13G     HAL2     0.900000E-01   1.00800           0
     15758 MEMB     188      OSM      C14F     CTL2    -0.180000       12.0110           0
     15759 MEMB     188      OSM      H14F     HAL2     0.900000E-01   1.00800           0
     15760 MEMB     188      OSM      H14G     HAL2     0.900000E-01   1.00800           0
     15761 MEMB     188      OSM      C15F     CTL2    -0.180000       12.0110           0
     15762 MEMB     188      OSM      H15F     HAL2     0.900000E-01   1.00800           0
     15763 MEMB     188      OSM      H15G     HAL2     0.900000E-01   1.00800           0
     15764 MEMB     188      OSM      C16F     CTL2    -0.180000       12.0110           0
     15765 MEMB     188      OSM      H16F     HAL2     0.900000E-01   1.00800           0
     15766 MEMB     188      OSM      H16G     HAL2     0.900000E-01   1.00800           0
     15767 MEMB     188      OSM      C17F     CTL2    -0.180000       12.0110           0
     15768 MEMB     188      OSM      H17F     HAL2     0.900000E-01   1.00800           0
     15769 MEMB     188      OSM      H17G     HAL2     0.900000E-01   1.00800           0
     15770 MEMB     188      OSM      C18F     CTL3    -0.270000       12.0110           0
     15771 MEMB     188      OSM      H18F     HAL3     0.900000E-01   1.00800           0
     15772 MEMB     188      OSM      H18G     HAL3     0.900000E-01   1.00800           0
     15773 MEMB     188      OSM      H18H     HAL3     0.900000E-01   1.00800           0
     15774 MEMB     189      OSM      N        NTL     -0.600000       14.0070           0
     15775 MEMB     189      OSM      C15      CTL5    -0.350000       12.0110           0
     15776 MEMB     189      OSM      H15A     HL       0.250000       1.00800           0
     15777 MEMB     189      OSM      H15B     HL       0.250000       1.00800           0
     15778 MEMB     189      OSM      H15C     HL       0.250000       1.00800           0
     15779 MEMB     189      OSM      C14      CTL5    -0.350000       12.0110           0
     15780 MEMB     189      OSM      H14A     HL       0.250000       1.00800           0
     15781 MEMB     189      OSM      H14B     HL       0.250000       1.00800           0
     15782 MEMB     189      OSM      H14C     HL       0.250000       1.00800           0
     15783 MEMB     189      OSM      C13      CTL5    -0.350000       12.0110           0
     15784 MEMB     189      OSM      H13A     HL       0.250000       1.00800           0
     15785 MEMB     189      OSM      H13B     HL       0.250000       1.00800           0
     15786 MEMB     189      OSM      H13C     HL       0.250000       1.00800           0
     15787 MEMB     189      OSM      C12      CTL2    -0.100000       12.0110           0
     15788 MEMB     189      OSM      H12A     HL       0.250000       1.00800           0
     15789 MEMB     189      OSM      H12B     HL       0.250000       1.00800           0
     15790 MEMB     189      OSM      C11      CTL2    -0.800000E-01   12.0110           0
     15791 MEMB     189      OSM      H11A     HAL2     0.900000E-01   1.00800           0
     15792 MEMB     189      OSM      H11B     HAL2     0.900000E-01   1.00800           0
     15793 MEMB     189      OSM      P        PL       1.500000       30.9740           0
     15794 MEMB     189      OSM      O13      O2L     -0.780000       15.9994           0
     15795 MEMB     189      OSM      O14      O2L     -0.780000       15.9994           0
     15796 MEMB     189      OSM      O11      OSLP    -0.570000       15.9994           0
     15797 MEMB     189      OSM      O12      OSLP    -0.570000       15.9994           0
     15798 MEMB     189      OSM      C1S      CTL2    -0.800000E-01   12.0110           0
     15799 MEMB     189      OSM      H1S      HAL2     0.900000E-01   1.00800           0
     15800 MEMB     189      OSM      H1T      HAL2     0.900000E-01   1.00800           0
     15801 MEMB     189      OSM      NF       NHL     -0.700000       14.0070           0
     15802 MEMB     189      OSM      HNF      H        0.350000       1.00800           0
     15803 MEMB     189      OSM      C2S      CTL1     0.300000       12.0110           0
     15804 MEMB     189      OSM      H2S      HAL1     0.500000E-01   1.00800           0
     15805 MEMB     189      OSM      C3S      CTO1     0.500000       12.0110           0
     15806 MEMB     189      OSM      H3S      HAL1    -0.110000       1.00800           0
     15807 MEMB     189      OSM      O3       OHL     -0.690000       15.9994           0
     15808 MEMB     189      OSM      HO3      HOL      0.300000       1.00800           0
     15809 MEMB     189      OSM      C4S      CEL3    -0.150000       12.0110           0
     15810 MEMB     189      OSM      H4S      HEL1     0.150000       1.00800           0
     15811 MEMB     189      OSM      C5S      CEL3    -0.150000       12.0110           0
     15812 MEMB     189      OSM      H5S      HEL1     0.150000       1.00800           0
     15813 MEMB     189      OSM      C6S      CTL2    -0.180000       12.0110           0
     15814 MEMB     189      OSM      H6S      HAL2     0.900000E-01   1.00800           0
     15815 MEMB     189      OSM      H6T      HAL2     0.900000E-01   1.00800           0
     15816 MEMB     189      OSM      C7S      CTL2    -0.180000       12.0110           0
     15817 MEMB     189      OSM      H7S      HAL2     0.900000E-01   1.00800           0
     15818 MEMB     189      OSM      H7T      HAL2     0.900000E-01   1.00800           0
     15819 MEMB     189      OSM      C8S      CTL2    -0.180000       12.0110           0
     15820 MEMB     189      OSM      H8S      HAL2     0.900000E-01   1.00800           0
     15821 MEMB     189      OSM      H8T      HAL2     0.900000E-01   1.00800           0
     15822 MEMB     189      OSM      C9S      CTL2    -0.180000       12.0110           0
     15823 MEMB     189      OSM      H9S      HAL2     0.900000E-01   1.00800           0
     15824 MEMB     189      OSM      H9T      HAL2     0.900000E-01   1.00800           0
     15825 MEMB     189      OSM      C10S     CTL2    -0.180000       12.0110           0
     15826 MEMB     189      OSM      H10S     HAL2     0.900000E-01   1.00800           0
     15827 MEMB     189      OSM      H10T     HAL2     0.900000E-01   1.00800           0
     15828 MEMB     189      OSM      C11S     CTL2    -0.180000       12.0110           0
     15829 MEMB     189      OSM      H11S     HAL2     0.900000E-01   1.00800           0
     15830 MEMB     189      OSM      H11T     HAL2     0.900000E-01   1.00800           0
     15831 MEMB     189      OSM      C12S     CTL2    -0.180000       12.0110           0
     15832 MEMB     189      OSM      H12S     HAL2     0.900000E-01   1.00800           0
     15833 MEMB     189      OSM      H12T     HAL2     0.900000E-01   1.00800           0
     15834 MEMB     189      OSM      C13S     CTL2    -0.180000       12.0110           0
     15835 MEMB     189      OSM      H13S     HAL2     0.900000E-01   1.00800           0
     15836 MEMB     189      OSM      H13T     HAL2     0.900000E-01   1.00800           0
     15837 MEMB     189      OSM      C14S     CTL2    -0.180000       12.0110           0
     15838 MEMB     189      OSM      H14S     HAL2     0.900000E-01   1.00800           0
     15839 MEMB     189      OSM      H14T     HAL2     0.900000E-01   1.00800           0
     15840 MEMB     189      OSM      C15S     CTL2    -0.180000       12.0110           0
     15841 MEMB     189      OSM      H15S     HAL2     0.900000E-01   1.00800           0
     15842 MEMB     189      OSM      H15T     HAL2     0.900000E-01   1.00800           0
     15843 MEMB     189      OSM      C16S     CTL2    -0.180000       12.0110           0
     15844 MEMB     189      OSM      H16S     HAL2     0.900000E-01   1.00800           0
     15845 MEMB     189      OSM      H16T     HAL2     0.900000E-01   1.00800           0
     15846 MEMB     189      OSM      C17S     CTL2    -0.180000       12.0110           0
     15847 MEMB     189      OSM      H17S     HAL2     0.900000E-01   1.00800           0
     15848 MEMB     189      OSM      H17T     HAL2     0.900000E-01   1.00800           0
     15849 MEMB     189      OSM      C18S     CTL3    -0.270000       12.0110           0
     15850 MEMB     189      OSM      H18S     HAL3     0.900000E-01   1.00800           0
     15851 MEMB     189      OSM      H18T     HAL3     0.900000E-01   1.00800           0
     15852 MEMB     189      OSM      H18U     HAL3     0.900000E-01   1.00800           0
     15853 MEMB     189      OSM      C1F      C        0.550000       12.0110           0
     15854 MEMB     189      OSM      OF       O       -0.600000       15.9994           0
     15855 MEMB     189      OSM      C2F      CTL2    -0.700000E-01   12.0110           0
     15856 MEMB     189      OSM      H2F      HAL2     0.600000E-01   1.00800           0
     15857 MEMB     189      OSM      H2G      HAL2     0.600000E-01   1.00800           0
     15858 MEMB     189      OSM      C3F      CTL2    -0.180000       12.0110           0
     15859 MEMB     189      OSM      H3F      HAL2     0.900000E-01   1.00800           0
     15860 MEMB     189      OSM      H3G      HAL2     0.900000E-01   1.00800           0
     15861 MEMB     189      OSM      C4F      CTL2    -0.180000       12.0110           0
     15862 MEMB     189      OSM      H4F      HAL2     0.900000E-01   1.00800           0
     15863 MEMB     189      OSM      H4G      HAL2     0.900000E-01   1.00800           0
     15864 MEMB     189      OSM      C5F      CTL2    -0.180000       12.0110           0
     15865 MEMB     189      OSM      H5F      HAL2     0.900000E-01   1.00800           0
     15866 MEMB     189      OSM      H5G      HAL2     0.900000E-01   1.00800           0
     15867 MEMB     189      OSM      C6F      CTL2    -0.180000       12.0110           0
     15868 MEMB     189      OSM      H6F      HAL2     0.900000E-01   1.00800           0
     15869 MEMB     189      OSM      H6G      HAL2     0.900000E-01   1.00800           0
     15870 MEMB     189      OSM      C7F      CTL2    -0.180000       12.0110           0
     15871 MEMB     189      OSM      H7F      HAL2     0.900000E-01   1.00800           0
     15872 MEMB     189      OSM      H7G      HAL2     0.900000E-01   1.00800           0
     15873 MEMB     189      OSM      C8F      CTL2    -0.180000       12.0110           0
     15874 MEMB     189      OSM      H8F      HAL2     0.900000E-01   1.00800           0
     15875 MEMB     189      OSM      H8G      HAL2     0.900000E-01   1.00800           0
     15876 MEMB     189      OSM      C9F      CEL1    -0.150000       12.0110           0
     15877 MEMB     189      OSM      H9F      HEL1     0.150000       1.00800           0
     15878 MEMB     189      OSM      C10F     CEL1    -0.150000       12.0110           0
     15879 MEMB     189      OSM      H10F     HEL1     0.150000       1.00800           0
     15880 MEMB     189      OSM      C11F     CTL2    -0.180000       12.0110           0
     15881 MEMB     189      OSM      H11F     HAL2     0.900000E-01   1.00800           0
     15882 MEMB     189      OSM      H11G     HAL2     0.900000E-01   1.00800           0
     15883 MEMB     189      OSM      C12F     CTL2    -0.180000       12.0110           0
     15884 MEMB     189      OSM      H12F     HAL2     0.900000E-01   1.00800           0
     15885 MEMB     189      OSM      H12G     HAL2     0.900000E-01   1.00800           0
     15886 MEMB     189      OSM      C13F     CTL2    -0.180000       12.0110           0
     15887 MEMB     189      OSM      H13F     HAL2     0.900000E-01   1.00800           0
     15888 MEMB     189      OSM      H13G     HAL2     0.900000E-01   1.00800           0
     15889 MEMB     189      OSM      C14F     CTL2    -0.180000       12.0110           0
     15890 MEMB     189      OSM      H14F     HAL2     0.900000E-01   1.00800           0
     15891 MEMB     189      OSM      H14G     HAL2     0.900000E-01   1.00800           0
     15892 MEMB     189      OSM      C15F     CTL2    -0.180000       12.0110           0
     15893 MEMB     189      OSM      H15F     HAL2     0.900000E-01   1.00800           0
     15894 MEMB     189      OSM      H15G     HAL2     0.900000E-01   1.00800           0
     15895 MEMB     189      OSM      C16F     CTL2    -0.180000       12.0110           0
     15896 MEMB     189      OSM      H16F     HAL2     0.900000E-01   1.00800           0
     15897 MEMB     189      OSM      H16G     HAL2     0.900000E-01   1.00800           0
     15898 MEMB     189      OSM      C17F     CTL2    -0.180000       12.0110           0
     15899 MEMB     189      OSM      H17F     HAL2     0.900000E-01   1.00800           0
     15900 MEMB     189      OSM      H17G     HAL2     0.900000E-01   1.00800           0
     15901 MEMB     189      OSM      C18F     CTL3    -0.270000       12.0110           0
     15902 MEMB     189      OSM      H18F     HAL3     0.900000E-01   1.00800           0
     15903 MEMB     189      OSM      H18G     HAL3     0.900000E-01   1.00800           0
     15904 MEMB     189      OSM      H18H     HAL3     0.900000E-01   1.00800           0
     15905 MEMB     9        SAPE     N        NH3L    -0.300000       14.0070           0
     15906 MEMB     9        SAPE     HN1      HCL      0.330000       1.00800           0
     15907 MEMB     9        SAPE     HN2      HCL      0.330000       1.00800           0
     15908 MEMB     9        SAPE     HN3      HCL      0.330000       1.00800           0
     15909 MEMB     9        SAPE     C12      CTL2     0.130000       12.0110           0
     15910 MEMB     9        SAPE     H12A     HAL2     0.900000E-01   1.00800           0
     15911 MEMB     9        SAPE     H12B     HAL2     0.900000E-01   1.00800           0
     15912 MEMB     9        SAPE     C11      CTL2    -0.800000E-01   12.0110           0
     15913 MEMB     9        SAPE     H11A     HAL2     0.900000E-01   1.00800           0
     15914 MEMB     9        SAPE     H11B     HAL2     0.900000E-01   1.00800           0
     15915 MEMB     9        SAPE     P        PL       1.500000       30.9740           0
     15916 MEMB     9        SAPE     O13      O2L     -0.780000       15.9994           0
     15917 MEMB     9        SAPE     O14      O2L     -0.780000       15.9994           0
     15918 MEMB     9        SAPE     O12      OSLP    -0.570000       15.9994           0
     15919 MEMB     9        SAPE     O11      OSLP    -0.570000       15.9994           0
     15920 MEMB     9        SAPE     C1       CTL2    -0.800000E-01   12.0110           0
     15921 MEMB     9        SAPE     HA       HAL2     0.900000E-01   1.00800           0
     15922 MEMB     9        SAPE     HB       HAL2     0.900000E-01   1.00800           0
     15923 MEMB     9        SAPE     C2       CTL1     0.170000       12.0110           0
     15924 MEMB     9        SAPE     HS       HAL1     0.900000E-01   1.00800           0
     15925 MEMB     9        SAPE     O21      OSL     -0.490000       15.9994           0
     15926 MEMB     9        SAPE     C21      CL       0.900000       12.0110           0
     15927 MEMB     9        SAPE     O22      OBL     -0.630000       15.9994           0
     15928 MEMB     9        SAPE     C22      CTL2    -0.220000       12.0110           0
     15929 MEMB     9        SAPE     H2R      HAL2     0.900000E-01   1.00800           0
     15930 MEMB     9        SAPE     H2S      HAL2     0.900000E-01   1.00800           0
     15931 MEMB     9        SAPE     C3       CTL2     0.800000E-01   12.0110           0
     15932 MEMB     9        SAPE     HX       HAL2     0.900000E-01   1.00800           0
     15933 MEMB     9        SAPE     HY       HAL2     0.900000E-01   1.00800           0
     15934 MEMB     9        SAPE     O31      OSL     -0.490000       15.9994           0
     15935 MEMB     9        SAPE     C31      CL       0.900000       12.0110           0
     15936 MEMB     9        SAPE     O32      OBL     -0.630000       15.9994           0
     15937 MEMB     9        SAPE     C32      CTL2    -0.220000       12.0110           0
     15938 MEMB     9        SAPE     H2X      HAL2     0.900000E-01   1.00800           0
     15939 MEMB     9        SAPE     H2Y      HAL2     0.900000E-01   1.00800           0
     15940 MEMB     9        SAPE     C23      CTL2    -0.180000       12.0110           0
     15941 MEMB     9        SAPE     H3R      HAL2     0.900000E-01   1.00800           0
     15942 MEMB     9        SAPE     H3S      HAL2     0.900000E-01   1.00800           0
     15943 MEMB     9        SAPE     C24      CTL2    -0.180000       12.0110           0
     15944 MEMB     9        SAPE     H4R      HAL2     0.900000E-01   1.00800           0
     15945 MEMB     9        SAPE     H4S      HAL2     0.900000E-01   1.00800           0
     15946 MEMB     9        SAPE     C25      CEL1    -0.150000       12.0110           0
     15947 MEMB     9        SAPE     H5R      HEL1     0.150000       1.00800           0
     15948 MEMB     9        SAPE     C26      CEL1    -0.150000       12.0110           0
     15949 MEMB     9        SAPE     H6R      HEL1     0.150000       1.00800           0
     15950 MEMB     9        SAPE     C27      CTL2    -0.180000       12.0110           0
     15951 MEMB     9        SAPE     H7R      HAL2     0.900000E-01   1.00800           0
     15952 MEMB     9        SAPE     H7S      HAL2     0.900000E-01   1.00800           0
     15953 MEMB     9        SAPE     C28      CEL1    -0.150000       12.0110           0
     15954 MEMB     9        SAPE     H8R      HEL1     0.150000       1.00800           0
     15955 MEMB     9        SAPE     C29      CEL1    -0.150000       12.0110           0
     15956 MEMB     9        SAPE     H9R      HEL1     0.150000       1.00800           0
     15957 MEMB     9        SAPE     C210     CTL2    -0.180000       12.0110           0
     15958 MEMB     9        SAPE     H10R     HAL2     0.900000E-01   1.00800           0
     15959 MEMB     9        SAPE     H10S     HAL2     0.900000E-01   1.00800           0
     15960 MEMB     9        SAPE     C211     CEL1    -0.150000       12.0110           0
     15961 MEMB     9        SAPE     H11R     HEL1     0.150000       1.00800           0
     15962 MEMB     9        SAPE     C212     CEL1    -0.150000       12.0110           0
     15963 MEMB     9        SAPE     H12R     HEL1     0.150000       1.00800           0
     15964 MEMB     9        SAPE     C213     CTL2    -0.180000       12.0110           0
     15965 MEMB     9        SAPE     H13R     HAL2     0.900000E-01   1.00800           0
     15966 MEMB     9        SAPE     H13S     HAL2     0.900000E-01   1.00800           0
     15967 MEMB     9        SAPE     C214     CEL1    -0.150000       12.0110           0
     15968 MEMB     9        SAPE     H14R     HEL1     0.150000       1.00800           0
     15969 MEMB     9        SAPE     C215     CEL1    -0.150000       12.0110           0
     15970 MEMB     9        SAPE     H15R     HEL1     0.150000       1.00800           0
     15971 MEMB     9        SAPE     C216     CTL2    -0.180000       12.0110           0
     15972 MEMB     9        SAPE     H16R     HAL2     0.900000E-01   1.00800           0
     15973 MEMB     9        SAPE     H16S     HAL2     0.900000E-01   1.00800           0
     15974 MEMB     9        SAPE     C217     CTL2    -0.180000       12.0110           0
     15975 MEMB     9        SAPE     H17R     HAL2     0.900000E-01   1.00800           0
     15976 MEMB     9        SAPE     H17S     HAL2     0.900000E-01   1.00800           0
     15977 MEMB     9        SAPE     C218     CTL2    -0.180000       12.0110           0
     15978 MEMB     9        SAPE     H18R     HAL2     0.900000E-01   1.00800           0
     15979 MEMB     9        SAPE     H18S     HAL2     0.900000E-01   1.00800           0
     15980 MEMB     9        SAPE     C219     CTL2    -0.180000       12.0110           0
     15981 MEMB     9        SAPE     H19R     HAL2     0.900000E-01   1.00800           0
     15982 MEMB     9        SAPE     H19S     HAL2     0.900000E-01   1.00800           0
     15983 MEMB     9        SAPE     C220     CTL3    -0.270000       12.0110           0
     15984 MEMB     9        SAPE     H20R     HAL3     0.900000E-01   1.00800           0
     15985 MEMB     9        SAPE     H20S     HAL3     0.900000E-01   1.00800           0
     15986 MEMB     9        SAPE     H20T     HAL3     0.900000E-01   1.00800           0
     15987 MEMB     9        SAPE     C33      CTL2    -0.180000       12.0110           0
     15988 MEMB     9        SAPE     H3X      HAL2     0.900000E-01   1.00800           0
     15989 MEMB     9        SAPE     H3Y      HAL2     0.900000E-01   1.00800           0
     15990 MEMB     9        SAPE     C34      CTL2    -0.180000       12.0110           0
     15991 MEMB     9        SAPE     H4X      HAL2     0.900000E-01   1.00800           0
     15992 MEMB     9        SAPE     H4Y      HAL2     0.900000E-01   1.00800           0
     15993 MEMB     9        SAPE     C35      CTL2    -0.180000       12.0110           0
     15994 MEMB     9        SAPE     H5X      HAL2     0.900000E-01   1.00800           0
     15995 MEMB     9        SAPE     H5Y      HAL2     0.900000E-01   1.00800           0
     15996 MEMB     9        SAPE     C36      CTL2    -0.180000       12.0110           0
     15997 MEMB     9        SAPE     H6X      HAL2     0.900000E-01   1.00800           0
     15998 MEMB     9        SAPE     H6Y      HAL2     0.900000E-01   1.00800           0
     15999 MEMB     9        SAPE     C37      CTL2    -0.180000       12.0110           0
     16000 MEMB     9        SAPE     H7X      HAL2     0.900000E-01   1.00800           0
     16001 MEMB     9        SAPE     H7Y      HAL2     0.900000E-01   1.00800           0
     16002 MEMB     9        SAPE     C38      CTL2    -0.180000       12.0110           0
     16003 MEMB     9        SAPE     H8X      HAL2     0.900000E-01   1.00800           0
     16004 MEMB     9        SAPE     H8Y      HAL2     0.900000E-01   1.00800           0
     16005 MEMB     9        SAPE     C39      CTL2    -0.180000       12.0110           0
     16006 MEMB     9        SAPE     H9X      HAL2     0.900000E-01   1.00800           0
     16007 MEMB     9        SAPE     H9Y      HAL2     0.900000E-01   1.00800           0
     16008 MEMB     9        SAPE     C310     CTL2    -0.180000       12.0110           0
     16009 MEMB     9        SAPE     H10X     HAL2     0.900000E-01   1.00800           0
     16010 MEMB     9        SAPE     H10Y     HAL2     0.900000E-01   1.00800           0
     16011 MEMB     9        SAPE     C311     CTL2    -0.180000       12.0110           0
     16012 MEMB     9        SAPE     H11X     HAL2     0.900000E-01   1.00800           0
     16013 MEMB     9        SAPE     H11Y     HAL2     0.900000E-01   1.00800           0
     16014 MEMB     9        SAPE     C312     CTL2    -0.180000       12.0110           0
     16015 MEMB     9        SAPE     H12X     HAL2     0.900000E-01   1.00800           0
     16016 MEMB     9        SAPE     H12Y     HAL2     0.900000E-01   1.00800           0
     16017 MEMB     9        SAPE     C313     CTL2    -0.180000       12.0110           0
     16018 MEMB     9        SAPE     H13X     HAL2     0.900000E-01   1.00800           0
     16019 MEMB     9        SAPE     H13Y     HAL2     0.900000E-01   1.00800           0
     16020 MEMB     9        SAPE     C314     CTL2    -0.180000       12.0110           0
     16021 MEMB     9        SAPE     H14X     HAL2     0.900000E-01   1.00800           0
     16022 MEMB     9        SAPE     H14Y     HAL2     0.900000E-01   1.00800           0
     16023 MEMB     9        SAPE     C315     CTL2    -0.180000       12.0110           0
     16024 MEMB     9        SAPE     H15X     HAL2     0.900000E-01   1.00800           0
     16025 MEMB     9        SAPE     H15Y     HAL2     0.900000E-01   1.00800           0
     16026 MEMB     9        SAPE     C316     CTL2    -0.180000       12.0110           0
     16027 MEMB     9        SAPE     H16X     HAL2     0.900000E-01   1.00800           0
     16028 MEMB     9        SAPE     H16Y     HAL2     0.900000E-01   1.00800           0
     16029 MEMB     9        SAPE     C317     CTL2    -0.180000       12.0110           0
     16030 MEMB     9        SAPE     H17X     HAL2     0.900000E-01   1.00800           0
     16031 MEMB     9        SAPE     H17Y     HAL2     0.900000E-01   1.00800           0
     16032 MEMB     9        SAPE     C318     CTL3    -0.270000       12.0110           0
     16033 MEMB     9        SAPE     H18X     HAL3     0.900000E-01   1.00800           0
     16034 MEMB     9        SAPE     H18Y     HAL3     0.900000E-01   1.00800           0
     16035 MEMB     9        SAPE     H18Z     HAL3     0.900000E-01   1.00800           0
     16036 MEMB     22       SAPE     N        NH3L    -0.300000       14.0070           0
     16037 MEMB     22       SAPE     HN1      HCL      0.330000       1.00800           0
     16038 MEMB     22       SAPE     HN2      HCL      0.330000       1.00800           0
     16039 MEMB     22       SAPE     HN3      HCL      0.330000       1.00800           0
     16040 MEMB     22       SAPE     C12      CTL2     0.130000       12.0110           0
     16041 MEMB     22       SAPE     H12A     HAL2     0.900000E-01   1.00800           0
     16042 MEMB     22       SAPE     H12B     HAL2     0.900000E-01   1.00800           0
     16043 MEMB     22       SAPE     C11      CTL2    -0.800000E-01   12.0110           0
     16044 MEMB     22       SAPE     H11A     HAL2     0.900000E-01   1.00800           0
     16045 MEMB     22       SAPE     H11B     HAL2     0.900000E-01   1.00800           0
     16046 MEMB     22       SAPE     P        PL       1.500000       30.9740           0
     16047 MEMB     22       SAPE     O13      O2L     -0.780000       15.9994           0
     16048 MEMB     22       SAPE     O14      O2L     -0.780000       15.9994           0
     16049 MEMB     22       SAPE     O12      OSLP    -0.570000       15.9994           0
     16050 MEMB     22       SAPE     O11      OSLP    -0.570000       15.9994           0
     16051 MEMB     22       SAPE     C1       CTL2    -0.800000E-01   12.0110           0
     16052 MEMB     22       SAPE     HA       HAL2     0.900000E-01   1.00800           0
     16053 MEMB     22       SAPE     HB       HAL2     0.900000E-01   1.00800           0
     16054 MEMB     22       SAPE     C2       CTL1     0.170000       12.0110           0
     16055 MEMB     22       SAPE     HS       HAL1     0.900000E-01   1.00800           0
     16056 MEMB     22       SAPE     O21      OSL     -0.490000       15.9994           0
     16057 MEMB     22       SAPE     C21      CL       0.900000       12.0110           0
     16058 MEMB     22       SAPE     O22      OBL     -0.630000       15.9994           0
     16059 MEMB     22       SAPE     C22      CTL2    -0.220000       12.0110           0
     16060 MEMB     22       SAPE     H2R      HAL2     0.900000E-01   1.00800           0
     16061 MEMB     22       SAPE     H2S      HAL2     0.900000E-01   1.00800           0
     16062 MEMB     22       SAPE     C3       CTL2     0.800000E-01   12.0110           0
     16063 MEMB     22       SAPE     HX       HAL2     0.900000E-01   1.00800           0
     16064 MEMB     22       SAPE     HY       HAL2     0.900000E-01   1.00800           0
     16065 MEMB     22       SAPE     O31      OSL     -0.490000       15.9994           0
     16066 MEMB     22       SAPE     C31      CL       0.900000       12.0110           0
     16067 MEMB     22       SAPE     O32      OBL     -0.630000       15.9994           0
     16068 MEMB     22       SAPE     C32      CTL2    -0.220000       12.0110           0
     16069 MEMB     22       SAPE     H2X      HAL2     0.900000E-01   1.00800           0
     16070 MEMB     22       SAPE     H2Y      HAL2     0.900000E-01   1.00800           0
     16071 MEMB     22       SAPE     C23      CTL2    -0.180000       12.0110           0
     16072 MEMB     22       SAPE     H3R      HAL2     0.900000E-01   1.00800           0
     16073 MEMB     22       SAPE     H3S      HAL2     0.900000E-01   1.00800           0
     16074 MEMB     22       SAPE     C24      CTL2    -0.180000       12.0110           0
     16075 MEMB     22       SAPE     H4R      HAL2     0.900000E-01   1.00800           0
     16076 MEMB     22       SAPE     H4S      HAL2     0.900000E-01   1.00800           0
     16077 MEMB     22       SAPE     C25      CEL1    -0.150000       12.0110           0
     16078 MEMB     22       SAPE     H5R      HEL1     0.150000       1.00800           0
     16079 MEMB     22       SAPE     C26      CEL1    -0.150000       12.0110           0
     16080 MEMB     22       SAPE     H6R      HEL1     0.150000       1.00800           0
     16081 MEMB     22       SAPE     C27      CTL2    -0.180000       12.0110           0
     16082 MEMB     22       SAPE     H7R      HAL2     0.900000E-01   1.00800           0
     16083 MEMB     22       SAPE     H7S      HAL2     0.900000E-01   1.00800           0
     16084 MEMB     22       SAPE     C28      CEL1    -0.150000       12.0110           0
     16085 MEMB     22       SAPE     H8R      HEL1     0.150000       1.00800           0
     16086 MEMB     22       SAPE     C29      CEL1    -0.150000       12.0110           0
     16087 MEMB     22       SAPE     H9R      HEL1     0.150000       1.00800           0
     16088 MEMB     22       SAPE     C210     CTL2    -0.180000       12.0110           0
     16089 MEMB     22       SAPE     H10R     HAL2     0.900000E-01   1.00800           0
     16090 MEMB     22       SAPE     H10S     HAL2     0.900000E-01   1.00800           0
     16091 MEMB     22       SAPE     C211     CEL1    -0.150000       12.0110           0
     16092 MEMB     22       SAPE     H11R     HEL1     0.150000       1.00800           0
     16093 MEMB     22       SAPE     C212     CEL1    -0.150000       12.0110           0
     16094 MEMB     22       SAPE     H12R     HEL1     0.150000       1.00800           0
     16095 MEMB     22       SAPE     C213     CTL2    -0.180000       12.0110           0
     16096 MEMB     22       SAPE     H13R     HAL2     0.900000E-01   1.00800           0
     16097 MEMB     22       SAPE     H13S     HAL2     0.900000E-01   1.00800           0
     16098 MEMB     22       SAPE     C214     CEL1    -0.150000       12.0110           0
     16099 MEMB     22       SAPE     H14R     HEL1     0.150000       1.00800           0
     16100 MEMB     22       SAPE     C215     CEL1    -0.150000       12.0110           0
     16101 MEMB     22       SAPE     H15R     HEL1     0.150000       1.00800           0
     16102 MEMB     22       SAPE     C216     CTL2    -0.180000       12.0110           0
     16103 MEMB     22       SAPE     H16R     HAL2     0.900000E-01   1.00800           0
     16104 MEMB     22       SAPE     H16S     HAL2     0.900000E-01   1.00800           0
     16105 MEMB     22       SAPE     C217     CTL2    -0.180000       12.0110           0
     16106 MEMB     22       SAPE     H17R     HAL2     0.900000E-01   1.00800           0
     16107 MEMB     22       SAPE     H17S     HAL2     0.900000E-01   1.00800           0
     16108 MEMB     22       SAPE     C218     CTL2    -0.180000       12.0110           0
     16109 MEMB     22       SAPE     H18R     HAL2     0.900000E-01   1.00800           0
     16110 MEMB     22       SAPE     H18S     HAL2     0.900000E-01   1.00800           0
     16111 MEMB     22       SAPE     C219     CTL2    -0.180000       12.0110           0
     16112 MEMB     22       SAPE     H19R     HAL2     0.900000E-01   1.00800           0
     16113 MEMB     22       SAPE     H19S     HAL2     0.900000E-01   1.00800           0
     16114 MEMB     22       SAPE     C220     CTL3    -0.270000       12.0110           0
     16115 MEMB     22       SAPE     H20R     HAL3     0.900000E-01   1.00800           0
     16116 MEMB     22       SAPE     H20S     HAL3     0.900000E-01   1.00800           0
     16117 MEMB     22       SAPE     H20T     HAL3     0.900000E-01   1.00800           0
     16118 MEMB     22       SAPE     C33      CTL2    -0.180000       12.0110           0
     16119 MEMB     22       SAPE     H3X      HAL2     0.900000E-01   1.00800           0
     16120 MEMB     22       SAPE     H3Y      HAL2     0.900000E-01   1.00800           0
     16121 MEMB     22       SAPE     C34      CTL2    -0.180000       12.0110           0
     16122 MEMB     22       SAPE     H4X      HAL2     0.900000E-01   1.00800           0
     16123 MEMB     22       SAPE     H4Y      HAL2     0.900000E-01   1.00800           0
     16124 MEMB     22       SAPE     C35      CTL2    -0.180000       12.0110           0
     16125 MEMB     22       SAPE     H5X      HAL2     0.900000E-01   1.00800           0
     16126 MEMB     22       SAPE     H5Y      HAL2     0.900000E-01   1.00800           0
     16127 MEMB     22       SAPE     C36      CTL2    -0.180000       12.0110           0
     16128 MEMB     22       SAPE     H6X      HAL2     0.900000E-01   1.00800           0
     16129 MEMB     22       SAPE     H6Y      HAL2     0.900000E-01   1.00800           0
     16130 MEMB     22       SAPE     C37      CTL2    -0.180000       12.0110           0
     16131 MEMB     22       SAPE     H7X      HAL2     0.900000E-01   1.00800           0
     16132 MEMB     22       SAPE     H7Y      HAL2     0.900000E-01   1.00800           0
     16133 MEMB     22       SAPE     C38      CTL2    -0.180000       12.0110           0
     16134 MEMB     22       SAPE     H8X      HAL2     0.900000E-01   1.00800           0
     16135 MEMB     22       SAPE     H8Y      HAL2     0.900000E-01   1.00800           0
     16136 MEMB     22       SAPE     C39      CTL2    -0.180000       12.0110           0
     16137 MEMB     22       SAPE     H9X      HAL2     0.900000E-01   1.00800           0
     16138 MEMB     22       SAPE     H9Y      HAL2     0.900000E-01   1.00800           0
     16139 MEMB     22       SAPE     C310     CTL2    -0.180000       12.0110           0
     16140 MEMB     22       SAPE     H10X     HAL2     0.900000E-01   1.00800           0
     16141 MEMB     22       SAPE     H10Y     HAL2     0.900000E-01   1.00800           0
     16142 MEMB     22       SAPE     C311     CTL2    -0.180000       12.0110           0
     16143 MEMB     22       SAPE     H11X     HAL2     0.900000E-01   1.00800           0
     16144 MEMB     22       SAPE     H11Y     HAL2     0.900000E-01   1.00800           0
     16145 MEMB     22       SAPE     C312     CTL2    -0.180000       12.0110           0
     16146 MEMB     22       SAPE     H12X     HAL2     0.900000E-01   1.00800           0
     16147 MEMB     22       SAPE     H12Y     HAL2     0.900000E-01   1.00800           0
     16148 MEMB     22       SAPE     C313     CTL2    -0.180000       12.0110           0
     16149 MEMB     22       SAPE     H13X     HAL2     0.900000E-01   1.00800           0
     16150 MEMB     22       SAPE     H13Y     HAL2     0.900000E-01   1.00800           0
     16151 MEMB     22       SAPE     C314     CTL2    -0.180000       12.0110           0
     16152 MEMB     22       SAPE     H14X     HAL2     0.900000E-01   1.00800           0
     16153 MEMB     22       SAPE     H14Y     HAL2     0.900000E-01   1.00800           0
     16154 MEMB     22       SAPE     C315     CTL2    -0.180000       12.0110           0
     16155 MEMB     22       SAPE     H15X     HAL2     0.900000E-01   1.00800           0
     16156 MEMB     22       SAPE     H15Y     HAL2     0.900000E-01   1.00800           0
     16157 MEMB     22       SAPE     C316     CTL2    -0.180000       12.0110           0
     16158 MEMB     22       SAPE     H16X     HAL2     0.900000E-01   1.00800           0
     16159 MEMB     22       SAPE     H16Y     HAL2     0.900000E-01   1.00800           0
     16160 MEMB     22       SAPE     C317     CTL2    -0.180000       12.0110           0
     16161 MEMB     22       SAPE     H17X     HAL2     0.900000E-01   1.00800           0
     16162 MEMB     22       SAPE     H17Y     HAL2     0.900000E-01   1.00800           0
     16163 MEMB     22       SAPE     C318     CTL3    -0.270000       12.0110           0
     16164 MEMB     22       SAPE     H18X     HAL3     0.900000E-01   1.00800           0
     16165 MEMB     22       SAPE     H18Y     HAL3     0.900000E-01   1.00800           0
     16166 MEMB     22       SAPE     H18Z     HAL3     0.900000E-01   1.00800           0
     16167 MEMB     35       SAPE     N        NH3L    -0.300000       14.0070           0
     16168 MEMB     35       SAPE     HN1      HCL      0.330000       1.00800           0
     16169 MEMB     35       SAPE     HN2      HCL      0.330000       1.00800           0
     16170 MEMB     35       SAPE     HN3      HCL      0.330000       1.00800           0
     16171 MEMB     35       SAPE     C12      CTL2     0.130000       12.0110           0
     16172 MEMB     35       SAPE     H12A     HAL2     0.900000E-01   1.00800           0
     16173 MEMB     35       SAPE     H12B     HAL2     0.900000E-01   1.00800           0
     16174 MEMB     35       SAPE     C11      CTL2    -0.800000E-01   12.0110           0
     16175 MEMB     35       SAPE     H11A     HAL2     0.900000E-01   1.00800           0
     16176 MEMB     35       SAPE     H11B     HAL2     0.900000E-01   1.00800           0
     16177 MEMB     35       SAPE     P        PL       1.500000       30.9740           0
     16178 MEMB     35       SAPE     O13      O2L     -0.780000       15.9994           0
     16179 MEMB     35       SAPE     O14      O2L     -0.780000       15.9994           0
     16180 MEMB     35       SAPE     O12      OSLP    -0.570000       15.9994           0
     16181 MEMB     35       SAPE     O11      OSLP    -0.570000       15.9994           0
     16182 MEMB     35       SAPE     C1       CTL2    -0.800000E-01   12.0110           0
     16183 MEMB     35       SAPE     HA       HAL2     0.900000E-01   1.00800           0
     16184 MEMB     35       SAPE     HB       HAL2     0.900000E-01   1.00800           0
     16185 MEMB     35       SAPE     C2       CTL1     0.170000       12.0110           0
     16186 MEMB     35       SAPE     HS       HAL1     0.900000E-01   1.00800           0
     16187 MEMB     35       SAPE     O21      OSL     -0.490000       15.9994           0
     16188 MEMB     35       SAPE     C21      CL       0.900000       12.0110           0
     16189 MEMB     35       SAPE     O22      OBL     -0.630000       15.9994           0
     16190 MEMB     35       SAPE     C22      CTL2    -0.220000       12.0110           0
     16191 MEMB     35       SAPE     H2R      HAL2     0.900000E-01   1.00800           0
     16192 MEMB     35       SAPE     H2S      HAL2     0.900000E-01   1.00800           0
     16193 MEMB     35       SAPE     C3       CTL2     0.800000E-01   12.0110           0
     16194 MEMB     35       SAPE     HX       HAL2     0.900000E-01   1.00800           0
     16195 MEMB     35       SAPE     HY       HAL2     0.900000E-01   1.00800           0
     16196 MEMB     35       SAPE     O31      OSL     -0.490000       15.9994           0
     16197 MEMB     35       SAPE     C31      CL       0.900000       12.0110           0
     16198 MEMB     35       SAPE     O32      OBL     -0.630000       15.9994           0
     16199 MEMB     35       SAPE     C32      CTL2    -0.220000       12.0110           0
     16200 MEMB     35       SAPE     H2X      HAL2     0.900000E-01   1.00800           0
     16201 MEMB     35       SAPE     H2Y      HAL2     0.900000E-01   1.00800           0
     16202 MEMB     35       SAPE     C23      CTL2    -0.180000       12.0110           0
     16203 MEMB     35       SAPE     H3R      HAL2     0.900000E-01   1.00800           0
     16204 MEMB     35       SAPE     H3S      HAL2     0.900000E-01   1.00800           0
     16205 MEMB     35       SAPE     C24      CTL2    -0.180000       12.0110           0
     16206 MEMB     35       SAPE     H4R      HAL2     0.900000E-01   1.00800           0
     16207 MEMB     35       SAPE     H4S      HAL2     0.900000E-01   1.00800           0
     16208 MEMB     35       SAPE     C25      CEL1    -0.150000       12.0110           0
     16209 MEMB     35       SAPE     H5R      HEL1     0.150000       1.00800           0
     16210 MEMB     35       SAPE     C26      CEL1    -0.150000       12.0110           0
     16211 MEMB     35       SAPE     H6R      HEL1     0.150000       1.00800           0
     16212 MEMB     35       SAPE     C27      CTL2    -0.180000       12.0110           0
     16213 MEMB     35       SAPE     H7R      HAL2     0.900000E-01   1.00800           0
     16214 MEMB     35       SAPE     H7S      HAL2     0.900000E-01   1.00800           0
     16215 MEMB     35       SAPE     C28      CEL1    -0.150000       12.0110           0
     16216 MEMB     35       SAPE     H8R      HEL1     0.150000       1.00800           0
     16217 MEMB     35       SAPE     C29      CEL1    -0.150000       12.0110           0
     16218 MEMB     35       SAPE     H9R      HEL1     0.150000       1.00800           0
     16219 MEMB     35       SAPE     C210     CTL2    -0.180000       12.0110           0
     16220 MEMB     35       SAPE     H10R     HAL2     0.900000E-01   1.00800           0
     16221 MEMB     35       SAPE     H10S     HAL2     0.900000E-01   1.00800           0
     16222 MEMB     35       SAPE     C211     CEL1    -0.150000       12.0110           0
     16223 MEMB     35       SAPE     H11R     HEL1     0.150000       1.00800           0
     16224 MEMB     35       SAPE     C212     CEL1    -0.150000       12.0110           0
     16225 MEMB     35       SAPE     H12R     HEL1     0.150000       1.00800           0
     16226 MEMB     35       SAPE     C213     CTL2    -0.180000       12.0110           0
     16227 MEMB     35       SAPE     H13R     HAL2     0.900000E-01   1.00800           0
     16228 MEMB     35       SAPE     H13S     HAL2     0.900000E-01   1.00800           0
     16229 MEMB     35       SAPE     C214     CEL1    -0.150000       12.0110           0
     16230 MEMB     35       SAPE     H14R     HEL1     0.150000       1.00800           0
     16231 MEMB     35       SAPE     C215     CEL1    -0.150000       12.0110           0
     16232 MEMB     35       SAPE     H15R     HEL1     0.150000       1.00800           0
     16233 MEMB     35       SAPE     C216     CTL2    -0.180000       12.0110           0
     16234 MEMB     35       SAPE     H16R     HAL2     0.900000E-01   1.00800           0
     16235 MEMB     35       SAPE     H16S     HAL2     0.900000E-01   1.00800           0
     16236 MEMB     35       SAPE     C217     CTL2    -0.180000       12.0110           0
     16237 MEMB     35       SAPE     H17R     HAL2     0.900000E-01   1.00800           0
     16238 MEMB     35       SAPE     H17S     HAL2     0.900000E-01   1.00800           0
     16239 MEMB     35       SAPE     C218     CTL2    -0.180000       12.0110           0
     16240 MEMB     35       SAPE     H18R     HAL2     0.900000E-01   1.00800           0
     16241 MEMB     35       SAPE     H18S     HAL2     0.900000E-01   1.00800           0
     16242 MEMB     35       SAPE     C219     CTL2    -0.180000       12.0110           0
     16243 MEMB     35       SAPE     H19R     HAL2     0.900000E-01   1.00800           0
     16244 MEMB     35       SAPE     H19S     HAL2     0.900000E-01   1.00800           0
     16245 MEMB     35       SAPE     C220     CTL3    -0.270000       12.0110           0
     16246 MEMB     35       SAPE     H20R     HAL3     0.900000E-01   1.00800           0
     16247 MEMB     35       SAPE     H20S     HAL3     0.900000E-01   1.00800           0
     16248 MEMB     35       SAPE     H20T     HAL3     0.900000E-01   1.00800           0
     16249 MEMB     35       SAPE     C33      CTL2    -0.180000       12.0110           0
     16250 MEMB     35       SAPE     H3X      HAL2     0.900000E-01   1.00800           0
     16251 MEMB     35       SAPE     H3Y      HAL2     0.900000E-01   1.00800           0
     16252 MEMB     35       SAPE     C34      CTL2    -0.180000       12.0110           0
     16253 MEMB     35       SAPE     H4X      HAL2     0.900000E-01   1.00800           0
     16254 MEMB     35       SAPE     H4Y      HAL2     0.900000E-01   1.00800           0
     16255 MEMB     35       SAPE     C35      CTL2    -0.180000       12.0110           0
     16256 MEMB     35       SAPE     H5X      HAL2     0.900000E-01   1.00800           0
     16257 MEMB     35       SAPE     H5Y      HAL2     0.900000E-01   1.00800           0
     16258 MEMB     35       SAPE     C36      CTL2    -0.180000       12.0110           0
     16259 MEMB     35       SAPE     H6X      HAL2     0.900000E-01   1.00800           0
     16260 MEMB     35       SAPE     H6Y      HAL2     0.900000E-01   1.00800           0
     16261 MEMB     35       SAPE     C37      CTL2    -0.180000       12.0110           0
     16262 MEMB     35       SAPE     H7X      HAL2     0.900000E-01   1.00800           0
     16263 MEMB     35       SAPE     H7Y      HAL2     0.900000E-01   1.00800           0
     16264 MEMB     35       SAPE     C38      CTL2    -0.180000       12.0110           0
     16265 MEMB     35       SAPE     H8X      HAL2     0.900000E-01   1.00800           0
     16266 MEMB     35       SAPE     H8Y      HAL2     0.900000E-01   1.00800           0
     16267 MEMB     35       SAPE     C39      CTL2    -0.180000       12.0110           0
     16268 MEMB     35       SAPE     H9X      HAL2     0.900000E-01   1.00800           0
     16269 MEMB     35       SAPE     H9Y      HAL2     0.900000E-01   1.00800           0
     16270 MEMB     35       SAPE     C310     CTL2    -0.180000       12.0110           0
     16271 MEMB     35       SAPE     H10X     HAL2     0.900000E-01   1.00800           0
     16272 MEMB     35       SAPE     H10Y     HAL2     0.900000E-01   1.00800           0
     16273 MEMB     35       SAPE     C311     CTL2    -0.180000       12.0110           0
     16274 MEMB     35       SAPE     H11X     HAL2     0.900000E-01   1.00800           0
     16275 MEMB     35       SAPE     H11Y     HAL2     0.900000E-01   1.00800           0
     16276 MEMB     35       SAPE     C312     CTL2    -0.180000       12.0110           0
     16277 MEMB     35       SAPE     H12X     HAL2     0.900000E-01   1.00800           0
     16278 MEMB     35       SAPE     H12Y     HAL2     0.900000E-01   1.00800           0
     16279 MEMB     35       SAPE     C313     CTL2    -0.180000       12.0110           0
     16280 MEMB     35       SAPE     H13X     HAL2     0.900000E-01   1.00800           0
     16281 MEMB     35       SAPE     H13Y     HAL2     0.900000E-01   1.00800           0
     16282 MEMB     35       SAPE     C314     CTL2    -0.180000       12.0110           0
     16283 MEMB     35       SAPE     H14X     HAL2     0.900000E-01   1.00800           0
     16284 MEMB     35       SAPE     H14Y     HAL2     0.900000E-01   1.00800           0
     16285 MEMB     35       SAPE     C315     CTL2    -0.180000       12.0110           0
     16286 MEMB     35       SAPE     H15X     HAL2     0.900000E-01   1.00800           0
     16287 MEMB     35       SAPE     H15Y     HAL2     0.900000E-01   1.00800           0
     16288 MEMB     35       SAPE     C316     CTL2    -0.180000       12.0110           0
     16289 MEMB     35       SAPE     H16X     HAL2     0.900000E-01   1.00800           0
     16290 MEMB     35       SAPE     H16Y     HAL2     0.900000E-01   1.00800           0
     16291 MEMB     35       SAPE     C317     CTL2    -0.180000       12.0110           0
     16292 MEMB     35       SAPE     H17X     HAL2     0.900000E-01   1.00800           0
     16293 MEMB     35       SAPE     H17Y     HAL2     0.900000E-01   1.00800           0
     16294 MEMB     35       SAPE     C318     CTL3    -0.270000       12.0110           0
     16295 MEMB     35       SAPE     H18X     HAL3     0.900000E-01   1.00800           0
     16296 MEMB     35       SAPE     H18Y     HAL3     0.900000E-01   1.00800           0
     16297 MEMB     35       SAPE     H18Z     HAL3     0.900000E-01   1.00800           0
     16298 MEMB     37       SAPE     N        NH3L    -0.300000       14.0070           0
     16299 MEMB     37       SAPE     HN1      HCL      0.330000       1.00800           0
     16300 MEMB     37       SAPE     HN2      HCL      0.330000       1.00800           0
     16301 MEMB     37       SAPE     HN3      HCL      0.330000       1.00800           0
     16302 MEMB     37       SAPE     C12      CTL2     0.130000       12.0110           0
     16303 MEMB     37       SAPE     H12A     HAL2     0.900000E-01   1.00800           0
     16304 MEMB     37       SAPE     H12B     HAL2     0.900000E-01   1.00800           0
     16305 MEMB     37       SAPE     C11      CTL2    -0.800000E-01   12.0110           0
     16306 MEMB     37       SAPE     H11A     HAL2     0.900000E-01   1.00800           0
     16307 MEMB     37       SAPE     H11B     HAL2     0.900000E-01   1.00800           0
     16308 MEMB     37       SAPE     P        PL       1.500000       30.9740           0
     16309 MEMB     37       SAPE     O13      O2L     -0.780000       15.9994           0
     16310 MEMB     37       SAPE     O14      O2L     -0.780000       15.9994           0
     16311 MEMB     37       SAPE     O12      OSLP    -0.570000       15.9994           0
     16312 MEMB     37       SAPE     O11      OSLP    -0.570000       15.9994           0
     16313 MEMB     37       SAPE     C1       CTL2    -0.800000E-01   12.0110           0
     16314 MEMB     37       SAPE     HA       HAL2     0.900000E-01   1.00800           0
     16315 MEMB     37       SAPE     HB       HAL2     0.900000E-01   1.00800           0
     16316 MEMB     37       SAPE     C2       CTL1     0.170000       12.0110           0
     16317 MEMB     37       SAPE     HS       HAL1     0.900000E-01   1.00800           0
     16318 MEMB     37       SAPE     O21      OSL     -0.490000       15.9994           0
     16319 MEMB     37       SAPE     C21      CL       0.900000       12.0110           0
     16320 MEMB     37       SAPE     O22      OBL     -0.630000       15.9994           0
     16321 MEMB     37       SAPE     C22      CTL2    -0.220000       12.0110           0
     16322 MEMB     37       SAPE     H2R      HAL2     0.900000E-01   1.00800           0
     16323 MEMB     37       SAPE     H2S      HAL2     0.900000E-01   1.00800           0
     16324 MEMB     37       SAPE     C3       CTL2     0.800000E-01   12.0110           0
     16325 MEMB     37       SAPE     HX       HAL2     0.900000E-01   1.00800           0
     16326 MEMB     37       SAPE     HY       HAL2     0.900000E-01   1.00800           0
     16327 MEMB     37       SAPE     O31      OSL     -0.490000       15.9994           0
     16328 MEMB     37       SAPE     C31      CL       0.900000       12.0110           0
     16329 MEMB     37       SAPE     O32      OBL     -0.630000       15.9994           0
     16330 MEMB     37       SAPE     C32      CTL2    -0.220000       12.0110           0
     16331 MEMB     37       SAPE     H2X      HAL2     0.900000E-01   1.00800           0
     16332 MEMB     37       SAPE     H2Y      HAL2     0.900000E-01   1.00800           0
     16333 MEMB     37       SAPE     C23      CTL2    -0.180000       12.0110           0
     16334 MEMB     37       SAPE     H3R      HAL2     0.900000E-01   1.00800           0
     16335 MEMB     37       SAPE     H3S      HAL2     0.900000E-01   1.00800           0
     16336 MEMB     37       SAPE     C24      CTL2    -0.180000       12.0110           0
     16337 MEMB     37       SAPE     H4R      HAL2     0.900000E-01   1.00800           0
     16338 MEMB     37       SAPE     H4S      HAL2     0.900000E-01   1.00800           0
     16339 MEMB     37       SAPE     C25      CEL1    -0.150000       12.0110           0
     16340 MEMB     37       SAPE     H5R      HEL1     0.150000       1.00800           0
     16341 MEMB     37       SAPE     C26      CEL1    -0.150000       12.0110           0
     16342 MEMB     37       SAPE     H6R      HEL1     0.150000       1.00800           0
     16343 MEMB     37       SAPE     C27      CTL2    -0.180000       12.0110           0
     16344 MEMB     37       SAPE     H7R      HAL2     0.900000E-01   1.00800           0
     16345 MEMB     37       SAPE     H7S      HAL2     0.900000E-01   1.00800           0
     16346 MEMB     37       SAPE     C28      CEL1    -0.150000       12.0110           0
     16347 MEMB     37       SAPE     H8R      HEL1     0.150000       1.00800           0
     16348 MEMB     37       SAPE     C29      CEL1    -0.150000       12.0110           0
     16349 MEMB     37       SAPE     H9R      HEL1     0.150000       1.00800           0
     16350 MEMB     37       SAPE     C210     CTL2    -0.180000       12.0110           0
     16351 MEMB     37       SAPE     H10R     HAL2     0.900000E-01   1.00800           0
     16352 MEMB     37       SAPE     H10S     HAL2     0.900000E-01   1.00800           0
     16353 MEMB     37       SAPE     C211     CEL1    -0.150000       12.0110           0
     16354 MEMB     37       SAPE     H11R     HEL1     0.150000       1.00800           0
     16355 MEMB     37       SAPE     C212     CEL1    -0.150000       12.0110           0
     16356 MEMB     37       SAPE     H12R     HEL1     0.150000       1.00800           0
     16357 MEMB     37       SAPE     C213     CTL2    -0.180000       12.0110           0
     16358 MEMB     37       SAPE     H13R     HAL2     0.900000E-01   1.00800           0
     16359 MEMB     37       SAPE     H13S     HAL2     0.900000E-01   1.00800           0
     16360 MEMB     37       SAPE     C214     CEL1    -0.150000       12.0110           0
     16361 MEMB     37       SAPE     H14R     HEL1     0.150000       1.00800           0
     16362 MEMB     37       SAPE     C215     CEL1    -0.150000       12.0110           0
     16363 MEMB     37       SAPE     H15R     HEL1     0.150000       1.00800           0
     16364 MEMB     37       SAPE     C216     CTL2    -0.180000       12.0110           0
     16365 MEMB     37       SAPE     H16R     HAL2     0.900000E-01   1.00800           0
     16366 MEMB     37       SAPE     H16S     HAL2     0.900000E-01   1.00800           0
     16367 MEMB     37       SAPE     C217     CTL2    -0.180000       12.0110           0
     16368 MEMB     37       SAPE     H17R     HAL2     0.900000E-01   1.00800           0
     16369 MEMB     37       SAPE     H17S     HAL2     0.900000E-01   1.00800           0
     16370 MEMB     37       SAPE     C218     CTL2    -0.180000       12.0110           0
     16371 MEMB     37       SAPE     H18R     HAL2     0.900000E-01   1.00800           0
     16372 MEMB     37       SAPE     H18S     HAL2     0.900000E-01   1.00800           0
     16373 MEMB     37       SAPE     C219     CTL2    -0.180000       12.0110           0
     16374 MEMB     37       SAPE     H19R     HAL2     0.900000E-01   1.00800           0
     16375 MEMB     37       SAPE     H19S     HAL2     0.900000E-01   1.00800           0
     16376 MEMB     37       SAPE     C220     CTL3    -0.270000       12.0110           0
     16377 MEMB     37       SAPE     H20R     HAL3     0.900000E-01   1.00800           0
     16378 MEMB     37       SAPE     H20S     HAL3     0.900000E-01   1.00800           0
     16379 MEMB     37       SAPE     H20T     HAL3     0.900000E-01   1.00800           0
     16380 MEMB     37       SAPE     C33      CTL2    -0.180000       12.0110           0
     16381 MEMB     37       SAPE     H3X      HAL2     0.900000E-01   1.00800           0
     16382 MEMB     37       SAPE     H3Y      HAL2     0.900000E-01   1.00800           0
     16383 MEMB     37       SAPE     C34      CTL2    -0.180000       12.0110           0
     16384 MEMB     37       SAPE     H4X      HAL2     0.900000E-01   1.00800           0
     16385 MEMB     37       SAPE     H4Y      HAL2     0.900000E-01   1.00800           0
     16386 MEMB     37       SAPE     C35      CTL2    -0.180000       12.0110           0
     16387 MEMB     37       SAPE     H5X      HAL2     0.900000E-01   1.00800           0
     16388 MEMB     37       SAPE     H5Y      HAL2     0.900000E-01   1.00800           0
     16389 MEMB     37       SAPE     C36      CTL2    -0.180000       12.0110           0
     16390 MEMB     37       SAPE     H6X      HAL2     0.900000E-01   1.00800           0
     16391 MEMB     37       SAPE     H6Y      HAL2     0.900000E-01   1.00800           0
     16392 MEMB     37       SAPE     C37      CTL2    -0.180000       12.0110           0
     16393 MEMB     37       SAPE     H7X      HAL2     0.900000E-01   1.00800           0
     16394 MEMB     37       SAPE     H7Y      HAL2     0.900000E-01   1.00800           0
     16395 MEMB     37       SAPE     C38      CTL2    -0.180000       12.0110           0
     16396 MEMB     37       SAPE     H8X      HAL2     0.900000E-01   1.00800           0
     16397 MEMB     37       SAPE     H8Y      HAL2     0.900000E-01   1.00800           0
     16398 MEMB     37       SAPE     C39      CTL2    -0.180000       12.0110           0
     16399 MEMB     37       SAPE     H9X      HAL2     0.900000E-01   1.00800           0
     16400 MEMB     37       SAPE     H9Y      HAL2     0.900000E-01   1.00800           0
     16401 MEMB     37       SAPE     C310     CTL2    -0.180000       12.0110           0
     16402 MEMB     37       SAPE     H10X     HAL2     0.900000E-01   1.00800           0
     16403 MEMB     37       SAPE     H10Y     HAL2     0.900000E-01   1.00800           0
     16404 MEMB     37       SAPE     C311     CTL2    -0.180000       12.0110           0
     16405 MEMB     37       SAPE     H11X     HAL2     0.900000E-01   1.00800           0
     16406 MEMB     37       SAPE     H11Y     HAL2     0.900000E-01   1.00800           0
     16407 MEMB     37       SAPE     C312     CTL2    -0.180000       12.0110           0
     16408 MEMB     37       SAPE     H12X     HAL2     0.900000E-01   1.00800           0
     16409 MEMB     37       SAPE     H12Y     HAL2     0.900000E-01   1.00800           0
     16410 MEMB     37       SAPE     C313     CTL2    -0.180000       12.0110           0
     16411 MEMB     37       SAPE     H13X     HAL2     0.900000E-01   1.00800           0
     16412 MEMB     37       SAPE     H13Y     HAL2     0.900000E-01   1.00800           0
     16413 MEMB     37       SAPE     C314     CTL2    -0.180000       12.0110           0
     16414 MEMB     37       SAPE     H14X     HAL2     0.900000E-01   1.00800           0
     16415 MEMB     37       SAPE     H14Y     HAL2     0.900000E-01   1.00800           0
     16416 MEMB     37       SAPE     C315     CTL2    -0.180000       12.0110           0
     16417 MEMB     37       SAPE     H15X     HAL2     0.900000E-01   1.00800           0
     16418 MEMB     37       SAPE     H15Y     HAL2     0.900000E-01   1.00800           0
     16419 MEMB     37       SAPE     C316     CTL2    -0.180000       12.0110           0
     16420 MEMB     37       SAPE     H16X     HAL2     0.900000E-01   1.00800           0
     16421 MEMB     37       SAPE     H16Y     HAL2     0.900000E-01   1.00800           0
     16422 MEMB     37       SAPE     C317     CTL2    -0.180000       12.0110           0
     16423 MEMB     37       SAPE     H17X     HAL2     0.900000E-01   1.00800           0
     16424 MEMB     37       SAPE     H17Y     HAL2     0.900000E-01   1.00800           0
     16425 MEMB     37       SAPE     C318     CTL3    -0.270000       12.0110           0
     16426 MEMB     37       SAPE     H18X     HAL3     0.900000E-01   1.00800           0
     16427 MEMB     37       SAPE     H18Y     HAL3     0.900000E-01   1.00800           0
     16428 MEMB     37       SAPE     H18Z     HAL3     0.900000E-01   1.00800           0
     16429 MEMB     38       SAPE     N        NH3L    -0.300000       14.0070           0
     16430 MEMB     38       SAPE     HN1      HCL      0.330000       1.00800           0
     16431 MEMB     38       SAPE     HN2      HCL      0.330000       1.00800           0
     16432 MEMB     38       SAPE     HN3      HCL      0.330000       1.00800           0
     16433 MEMB     38       SAPE     C12      CTL2     0.130000       12.0110           0
     16434 MEMB     38       SAPE     H12A     HAL2     0.900000E-01   1.00800           0
     16435 MEMB     38       SAPE     H12B     HAL2     0.900000E-01   1.00800           0
     16436 MEMB     38       SAPE     C11      CTL2    -0.800000E-01   12.0110           0
     16437 MEMB     38       SAPE     H11A     HAL2     0.900000E-01   1.00800           0
     16438 MEMB     38       SAPE     H11B     HAL2     0.900000E-01   1.00800           0
     16439 MEMB     38       SAPE     P        PL       1.500000       30.9740           0
     16440 MEMB     38       SAPE     O13      O2L     -0.780000       15.9994           0
     16441 MEMB     38       SAPE     O14      O2L     -0.780000       15.9994           0
     16442 MEMB     38       SAPE     O12      OSLP    -0.570000       15.9994           0
     16443 MEMB     38       SAPE     O11      OSLP    -0.570000       15.9994           0
     16444 MEMB     38       SAPE     C1       CTL2    -0.800000E-01   12.0110           0
     16445 MEMB     38       SAPE     HA       HAL2     0.900000E-01   1.00800           0
     16446 MEMB     38       SAPE     HB       HAL2     0.900000E-01   1.00800           0
     16447 MEMB     38       SAPE     C2       CTL1     0.170000       12.0110           0
     16448 MEMB     38       SAPE     HS       HAL1     0.900000E-01   1.00800           0
     16449 MEMB     38       SAPE     O21      OSL     -0.490000       15.9994           0
     16450 MEMB     38       SAPE     C21      CL       0.900000       12.0110           0
     16451 MEMB     38       SAPE     O22      OBL     -0.630000       15.9994           0
     16452 MEMB     38       SAPE     C22      CTL2    -0.220000       12.0110           0
     16453 MEMB     38       SAPE     H2R      HAL2     0.900000E-01   1.00800           0
     16454 MEMB     38       SAPE     H2S      HAL2     0.900000E-01   1.00800           0
     16455 MEMB     38       SAPE     C3       CTL2     0.800000E-01   12.0110           0
     16456 MEMB     38       SAPE     HX       HAL2     0.900000E-01   1.00800           0
     16457 MEMB     38       SAPE     HY       HAL2     0.900000E-01   1.00800           0
     16458 MEMB     38       SAPE     O31      OSL     -0.490000       15.9994           0
     16459 MEMB     38       SAPE     C31      CL       0.900000       12.0110           0
     16460 MEMB     38       SAPE     O32      OBL     -0.630000       15.9994           0
     16461 MEMB     38       SAPE     C32      CTL2    -0.220000       12.0110           0
     16462 MEMB     38       SAPE     H2X      HAL2     0.900000E-01   1.00800           0
     16463 MEMB     38       SAPE     H2Y      HAL2     0.900000E-01   1.00800           0
     16464 MEMB     38       SAPE     C23      CTL2    -0.180000       12.0110           0
     16465 MEMB     38       SAPE     H3R      HAL2     0.900000E-01   1.00800           0
     16466 MEMB     38       SAPE     H3S      HAL2     0.900000E-01   1.00800           0
     16467 MEMB     38       SAPE     C24      CTL2    -0.180000       12.0110           0
     16468 MEMB     38       SAPE     H4R      HAL2     0.900000E-01   1.00800           0
     16469 MEMB     38       SAPE     H4S      HAL2     0.900000E-01   1.00800           0
     16470 MEMB     38       SAPE     C25      CEL1    -0.150000       12.0110           0
     16471 MEMB     38       SAPE     H5R      HEL1     0.150000       1.00800           0
     16472 MEMB     38       SAPE     C26      CEL1    -0.150000       12.0110           0
     16473 MEMB     38       SAPE     H6R      HEL1     0.150000       1.00800           0
     16474 MEMB     38       SAPE     C27      CTL2    -0.180000       12.0110           0
     16475 MEMB     38       SAPE     H7R      HAL2     0.900000E-01   1.00800           0
     16476 MEMB     38       SAPE     H7S      HAL2     0.900000E-01   1.00800           0
     16477 MEMB     38       SAPE     C28      CEL1    -0.150000       12.0110           0
     16478 MEMB     38       SAPE     H8R      HEL1     0.150000       1.00800           0
     16479 MEMB     38       SAPE     C29      CEL1    -0.150000       12.0110           0
     16480 MEMB     38       SAPE     H9R      HEL1     0.150000       1.00800           0
     16481 MEMB     38       SAPE     C210     CTL2    -0.180000       12.0110           0
     16482 MEMB     38       SAPE     H10R     HAL2     0.900000E-01   1.00800           0
     16483 MEMB     38       SAPE     H10S     HAL2     0.900000E-01   1.00800           0
     16484 MEMB     38       SAPE     C211     CEL1    -0.150000       12.0110           0
     16485 MEMB     38       SAPE     H11R     HEL1     0.150000       1.00800           0
     16486 MEMB     38       SAPE     C212     CEL1    -0.150000       12.0110           0
     16487 MEMB     38       SAPE     H12R     HEL1     0.150000       1.00800           0
     16488 MEMB     38       SAPE     C213     CTL2    -0.180000       12.0110           0
     16489 MEMB     38       SAPE     H13R     HAL2     0.900000E-01   1.00800           0
     16490 MEMB     38       SAPE     H13S     HAL2     0.900000E-01   1.00800           0
     16491 MEMB     38       SAPE     C214     CEL1    -0.150000       12.0110           0
     16492 MEMB     38       SAPE     H14R     HEL1     0.150000       1.00800           0
     16493 MEMB     38       SAPE     C215     CEL1    -0.150000       12.0110           0
     16494 MEMB     38       SAPE     H15R     HEL1     0.150000       1.00800           0
     16495 MEMB     38       SAPE     C216     CTL2    -0.180000       12.0110           0
     16496 MEMB     38       SAPE     H16R     HAL2     0.900000E-01   1.00800           0
     16497 MEMB     38       SAPE     H16S     HAL2     0.900000E-01   1.00800           0
     16498 MEMB     38       SAPE     C217     CTL2    -0.180000       12.0110           0
     16499 MEMB     38       SAPE     H17R     HAL2     0.900000E-01   1.00800           0
     16500 MEMB     38       SAPE     H17S     HAL2     0.900000E-01   1.00800           0
     16501 MEMB     38       SAPE     C218     CTL2    -0.180000       12.0110           0
     16502 MEMB     38       SAPE     H18R     HAL2     0.900000E-01   1.00800           0
     16503 MEMB     38       SAPE     H18S     HAL2     0.900000E-01   1.00800           0
     16504 MEMB     38       SAPE     C219     CTL2    -0.180000       12.0110           0
     16505 MEMB     38       SAPE     H19R     HAL2     0.900000E-01   1.00800           0
     16506 MEMB     38       SAPE     H19S     HAL2     0.900000E-01   1.00800           0
     16507 MEMB     38       SAPE     C220     CTL3    -0.270000       12.0110           0
     16508 MEMB     38       SAPE     H20R     HAL3     0.900000E-01   1.00800           0
     16509 MEMB     38       SAPE     H20S     HAL3     0.900000E-01   1.00800           0
     16510 MEMB     38       SAPE     H20T     HAL3     0.900000E-01   1.00800           0
     16511 MEMB     38       SAPE     C33      CTL2    -0.180000       12.0110           0
     16512 MEMB     38       SAPE     H3X      HAL2     0.900000E-01   1.00800           0
     16513 MEMB     38       SAPE     H3Y      HAL2     0.900000E-01   1.00800           0
     16514 MEMB     38       SAPE     C34      CTL2    -0.180000       12.0110           0
     16515 MEMB     38       SAPE     H4X      HAL2     0.900000E-01   1.00800           0
     16516 MEMB     38       SAPE     H4Y      HAL2     0.900000E-01   1.00800           0
     16517 MEMB     38       SAPE     C35      CTL2    -0.180000       12.0110           0
     16518 MEMB     38       SAPE     H5X      HAL2     0.900000E-01   1.00800           0
     16519 MEMB     38       SAPE     H5Y      HAL2     0.900000E-01   1.00800           0
     16520 MEMB     38       SAPE     C36      CTL2    -0.180000       12.0110           0
     16521 MEMB     38       SAPE     H6X      HAL2     0.900000E-01   1.00800           0
     16522 MEMB     38       SAPE     H6Y      HAL2     0.900000E-01   1.00800           0
     16523 MEMB     38       SAPE     C37      CTL2    -0.180000       12.0110           0
     16524 MEMB     38       SAPE     H7X      HAL2     0.900000E-01   1.00800           0
     16525 MEMB     38       SAPE     H7Y      HAL2     0.900000E-01   1.00800           0
     16526 MEMB     38       SAPE     C38      CTL2    -0.180000       12.0110           0
     16527 MEMB     38       SAPE     H8X      HAL2     0.900000E-01   1.00800           0
     16528 MEMB     38       SAPE     H8Y      HAL2     0.900000E-01   1.00800           0
     16529 MEMB     38       SAPE     C39      CTL2    -0.180000       12.0110           0
     16530 MEMB     38       SAPE     H9X      HAL2     0.900000E-01   1.00800           0
     16531 MEMB     38       SAPE     H9Y      HAL2     0.900000E-01   1.00800           0
     16532 MEMB     38       SAPE     C310     CTL2    -0.180000       12.0110           0
     16533 MEMB     38       SAPE     H10X     HAL2     0.900000E-01   1.00800           0
     16534 MEMB     38       SAPE     H10Y     HAL2     0.900000E-01   1.00800           0
     16535 MEMB     38       SAPE     C311     CTL2    -0.180000       12.0110           0
     16536 MEMB     38       SAPE     H11X     HAL2     0.900000E-01   1.00800           0
     16537 MEMB     38       SAPE     H11Y     HAL2     0.900000E-01   1.00800           0
     16538 MEMB     38       SAPE     C312     CTL2    -0.180000       12.0110           0
     16539 MEMB     38       SAPE     H12X     HAL2     0.900000E-01   1.00800           0
     16540 MEMB     38       SAPE     H12Y     HAL2     0.900000E-01   1.00800           0
     16541 MEMB     38       SAPE     C313     CTL2    -0.180000       12.0110           0
     16542 MEMB     38       SAPE     H13X     HAL2     0.900000E-01   1.00800           0
     16543 MEMB     38       SAPE     H13Y     HAL2     0.900000E-01   1.00800           0
     16544 MEMB     38       SAPE     C314     CTL2    -0.180000       12.0110           0
     16545 MEMB     38       SAPE     H14X     HAL2     0.900000E-01   1.00800           0
     16546 MEMB     38       SAPE     H14Y     HAL2     0.900000E-01   1.00800           0
     16547 MEMB     38       SAPE     C315     CTL2    -0.180000       12.0110           0
     16548 MEMB     38       SAPE     H15X     HAL2     0.900000E-01   1.00800           0
     16549 MEMB     38       SAPE     H15Y     HAL2     0.900000E-01   1.00800           0
     16550 MEMB     38       SAPE     C316     CTL2    -0.180000       12.0110           0
     16551 MEMB     38       SAPE     H16X     HAL2     0.900000E-01   1.00800           0
     16552 MEMB     38       SAPE     H16Y     HAL2     0.900000E-01   1.00800           0
     16553 MEMB     38       SAPE     C317     CTL2    -0.180000       12.0110           0
     16554 MEMB     38       SAPE     H17X     HAL2     0.900000E-01   1.00800           0
     16555 MEMB     38       SAPE     H17Y     HAL2     0.900000E-01   1.00800           0
     16556 MEMB     38       SAPE     C318     CTL3    -0.270000       12.0110           0
     16557 MEMB     38       SAPE     H18X     HAL3     0.900000E-01   1.00800           0
     16558 MEMB     38       SAPE     H18Y     HAL3     0.900000E-01   1.00800           0
     16559 MEMB     38       SAPE     H18Z     HAL3     0.900000E-01   1.00800           0
     16560 MEMB     40       SAPE     N        NH3L    -0.300000       14.0070           0
     16561 MEMB     40       SAPE     HN1      HCL      0.330000       1.00800           0
     16562 MEMB     40       SAPE     HN2      HCL      0.330000       1.00800           0
     16563 MEMB     40       SAPE     HN3      HCL      0.330000       1.00800           0
     16564 MEMB     40       SAPE     C12      CTL2     0.130000       12.0110           0
     16565 MEMB     40       SAPE     H12A     HAL2     0.900000E-01   1.00800           0
     16566 MEMB     40       SAPE     H12B     HAL2     0.900000E-01   1.00800           0
     16567 MEMB     40       SAPE     C11      CTL2    -0.800000E-01   12.0110           0
     16568 MEMB     40       SAPE     H11A     HAL2     0.900000E-01   1.00800           0
     16569 MEMB     40       SAPE     H11B     HAL2     0.900000E-01   1.00800           0
     16570 MEMB     40       SAPE     P        PL       1.500000       30.9740           0
     16571 MEMB     40       SAPE     O13      O2L     -0.780000       15.9994           0
     16572 MEMB     40       SAPE     O14      O2L     -0.780000       15.9994           0
     16573 MEMB     40       SAPE     O12      OSLP    -0.570000       15.9994           0
     16574 MEMB     40       SAPE     O11      OSLP    -0.570000       15.9994           0
     16575 MEMB     40       SAPE     C1       CTL2    -0.800000E-01   12.0110           0
     16576 MEMB     40       SAPE     HA       HAL2     0.900000E-01   1.00800           0
     16577 MEMB     40       SAPE     HB       HAL2     0.900000E-01   1.00800           0
     16578 MEMB     40       SAPE     C2       CTL1     0.170000       12.0110           0
     16579 MEMB     40       SAPE     HS       HAL1     0.900000E-01   1.00800           0
     16580 MEMB     40       SAPE     O21      OSL     -0.490000       15.9994           0
     16581 MEMB     40       SAPE     C21      CL       0.900000       12.0110           0
     16582 MEMB     40       SAPE     O22      OBL     -0.630000       15.9994           0
     16583 MEMB     40       SAPE     C22      CTL2    -0.220000       12.0110           0
     16584 MEMB     40       SAPE     H2R      HAL2     0.900000E-01   1.00800           0
     16585 MEMB     40       SAPE     H2S      HAL2     0.900000E-01   1.00800           0
     16586 MEMB     40       SAPE     C3       CTL2     0.800000E-01   12.0110           0
     16587 MEMB     40       SAPE     HX       HAL2     0.900000E-01   1.00800           0
     16588 MEMB     40       SAPE     HY       HAL2     0.900000E-01   1.00800           0
     16589 MEMB     40       SAPE     O31      OSL     -0.490000       15.9994           0
     16590 MEMB     40       SAPE     C31      CL       0.900000       12.0110           0
     16591 MEMB     40       SAPE     O32      OBL     -0.630000       15.9994           0
     16592 MEMB     40       SAPE     C32      CTL2    -0.220000       12.0110           0
     16593 MEMB     40       SAPE     H2X      HAL2     0.900000E-01   1.00800           0
     16594 MEMB     40       SAPE     H2Y      HAL2     0.900000E-01   1.00800           0
     16595 MEMB     40       SAPE     C23      CTL2    -0.180000       12.0110           0
     16596 MEMB     40       SAPE     H3R      HAL2     0.900000E-01   1.00800           0
     16597 MEMB     40       SAPE     H3S      HAL2     0.900000E-01   1.00800           0
     16598 MEMB     40       SAPE     C24      CTL2    -0.180000       12.0110           0
     16599 MEMB     40       SAPE     H4R      HAL2     0.900000E-01   1.00800           0
     16600 MEMB     40       SAPE     H4S      HAL2     0.900000E-01   1.00800           0
     16601 MEMB     40       SAPE     C25      CEL1    -0.150000       12.0110           0
     16602 MEMB     40       SAPE     H5R      HEL1     0.150000       1.00800           0
     16603 MEMB     40       SAPE     C26      CEL1    -0.150000       12.0110           0
     16604 MEMB     40       SAPE     H6R      HEL1     0.150000       1.00800           0
     16605 MEMB     40       SAPE     C27      CTL2    -0.180000       12.0110           0
     16606 MEMB     40       SAPE     H7R      HAL2     0.900000E-01   1.00800           0
     16607 MEMB     40       SAPE     H7S      HAL2     0.900000E-01   1.00800           0
     16608 MEMB     40       SAPE     C28      CEL1    -0.150000       12.0110           0
     16609 MEMB     40       SAPE     H8R      HEL1     0.150000       1.00800           0
     16610 MEMB     40       SAPE     C29      CEL1    -0.150000       12.0110           0
     16611 MEMB     40       SAPE     H9R      HEL1     0.150000       1.00800           0
     16612 MEMB     40       SAPE     C210     CTL2    -0.180000       12.0110           0
     16613 MEMB     40       SAPE     H10R     HAL2     0.900000E-01   1.00800           0
     16614 MEMB     40       SAPE     H10S     HAL2     0.900000E-01   1.00800           0
     16615 MEMB     40       SAPE     C211     CEL1    -0.150000       12.0110           0
     16616 MEMB     40       SAPE     H11R     HEL1     0.150000       1.00800           0
     16617 MEMB     40       SAPE     C212     CEL1    -0.150000       12.0110           0
     16618 MEMB     40       SAPE     H12R     HEL1     0.150000       1.00800           0
     16619 MEMB     40       SAPE     C213     CTL2    -0.180000       12.0110           0
     16620 MEMB     40       SAPE     H13R     HAL2     0.900000E-01   1.00800           0
     16621 MEMB     40       SAPE     H13S     HAL2     0.900000E-01   1.00800           0
     16622 MEMB     40       SAPE     C214     CEL1    -0.150000       12.0110           0
     16623 MEMB     40       SAPE     H14R     HEL1     0.150000       1.00800           0
     16624 MEMB     40       SAPE     C215     CEL1    -0.150000       12.0110           0
     16625 MEMB     40       SAPE     H15R     HEL1     0.150000       1.00800           0
     16626 MEMB     40       SAPE     C216     CTL2    -0.180000       12.0110           0
     16627 MEMB     40       SAPE     H16R     HAL2     0.900000E-01   1.00800           0
     16628 MEMB     40       SAPE     H16S     HAL2     0.900000E-01   1.00800           0
     16629 MEMB     40       SAPE     C217     CTL2    -0.180000       12.0110           0
     16630 MEMB     40       SAPE     H17R     HAL2     0.900000E-01   1.00800           0
     16631 MEMB     40       SAPE     H17S     HAL2     0.900000E-01   1.00800           0
     16632 MEMB     40       SAPE     C218     CTL2    -0.180000       12.0110           0
     16633 MEMB     40       SAPE     H18R     HAL2     0.900000E-01   1.00800           0
     16634 MEMB     40       SAPE     H18S     HAL2     0.900000E-01   1.00800           0
     16635 MEMB     40       SAPE     C219     CTL2    -0.180000       12.0110           0
     16636 MEMB     40       SAPE     H19R     HAL2     0.900000E-01   1.00800           0
     16637 MEMB     40       SAPE     H19S     HAL2     0.900000E-01   1.00800           0
     16638 MEMB     40       SAPE     C220     CTL3    -0.270000       12.0110           0
     16639 MEMB     40       SAPE     H20R     HAL3     0.900000E-01   1.00800           0
     16640 MEMB     40       SAPE     H20S     HAL3     0.900000E-01   1.00800           0
     16641 MEMB     40       SAPE     H20T     HAL3     0.900000E-01   1.00800           0
     16642 MEMB     40       SAPE     C33      CTL2    -0.180000       12.0110           0
     16643 MEMB     40       SAPE     H3X      HAL2     0.900000E-01   1.00800           0
     16644 MEMB     40       SAPE     H3Y      HAL2     0.900000E-01   1.00800           0
     16645 MEMB     40       SAPE     C34      CTL2    -0.180000       12.0110           0
     16646 MEMB     40       SAPE     H4X      HAL2     0.900000E-01   1.00800           0
     16647 MEMB     40       SAPE     H4Y      HAL2     0.900000E-01   1.00800           0
     16648 MEMB     40       SAPE     C35      CTL2    -0.180000       12.0110           0
     16649 MEMB     40       SAPE     H5X      HAL2     0.900000E-01   1.00800           0
     16650 MEMB     40       SAPE     H5Y      HAL2     0.900000E-01   1.00800           0
     16651 MEMB     40       SAPE     C36      CTL2    -0.180000       12.0110           0
     16652 MEMB     40       SAPE     H6X      HAL2     0.900000E-01   1.00800           0
     16653 MEMB     40       SAPE     H6Y      HAL2     0.900000E-01   1.00800           0
     16654 MEMB     40       SAPE     C37      CTL2    -0.180000       12.0110           0
     16655 MEMB     40       SAPE     H7X      HAL2     0.900000E-01   1.00800           0
     16656 MEMB     40       SAPE     H7Y      HAL2     0.900000E-01   1.00800           0
     16657 MEMB     40       SAPE     C38      CTL2    -0.180000       12.0110           0
     16658 MEMB     40       SAPE     H8X      HAL2     0.900000E-01   1.00800           0
     16659 MEMB     40       SAPE     H8Y      HAL2     0.900000E-01   1.00800           0
     16660 MEMB     40       SAPE     C39      CTL2    -0.180000       12.0110           0
     16661 MEMB     40       SAPE     H9X      HAL2     0.900000E-01   1.00800           0
     16662 MEMB     40       SAPE     H9Y      HAL2     0.900000E-01   1.00800           0
     16663 MEMB     40       SAPE     C310     CTL2    -0.180000       12.0110           0
     16664 MEMB     40       SAPE     H10X     HAL2     0.900000E-01   1.00800           0
     16665 MEMB     40       SAPE     H10Y     HAL2     0.900000E-01   1.00800           0
     16666 MEMB     40       SAPE     C311     CTL2    -0.180000       12.0110           0
     16667 MEMB     40       SAPE     H11X     HAL2     0.900000E-01   1.00800           0
     16668 MEMB     40       SAPE     H11Y     HAL2     0.900000E-01   1.00800           0
     16669 MEMB     40       SAPE     C312     CTL2    -0.180000       12.0110           0
     16670 MEMB     40       SAPE     H12X     HAL2     0.900000E-01   1.00800           0
     16671 MEMB     40       SAPE     H12Y     HAL2     0.900000E-01   1.00800           0
     16672 MEMB     40       SAPE     C313     CTL2    -0.180000       12.0110           0
     16673 MEMB     40       SAPE     H13X     HAL2     0.900000E-01   1.00800           0
     16674 MEMB     40       SAPE     H13Y     HAL2     0.900000E-01   1.00800           0
     16675 MEMB     40       SAPE     C314     CTL2    -0.180000       12.0110           0
     16676 MEMB     40       SAPE     H14X     HAL2     0.900000E-01   1.00800           0
     16677 MEMB     40       SAPE     H14Y     HAL2     0.900000E-01   1.00800           0
     16678 MEMB     40       SAPE     C315     CTL2    -0.180000       12.0110           0
     16679 MEMB     40       SAPE     H15X     HAL2     0.900000E-01   1.00800           0
     16680 MEMB     40       SAPE     H15Y     HAL2     0.900000E-01   1.00800           0
     16681 MEMB     40       SAPE     C316     CTL2    -0.180000       12.0110           0
     16682 MEMB     40       SAPE     H16X     HAL2     0.900000E-01   1.00800           0
     16683 MEMB     40       SAPE     H16Y     HAL2     0.900000E-01   1.00800           0
     16684 MEMB     40       SAPE     C317     CTL2    -0.180000       12.0110           0
     16685 MEMB     40       SAPE     H17X     HAL2     0.900000E-01   1.00800           0
     16686 MEMB     40       SAPE     H17Y     HAL2     0.900000E-01   1.00800           0
     16687 MEMB     40       SAPE     C318     CTL3    -0.270000       12.0110           0
     16688 MEMB     40       SAPE     H18X     HAL3     0.900000E-01   1.00800           0
     16689 MEMB     40       SAPE     H18Y     HAL3     0.900000E-01   1.00800           0
     16690 MEMB     40       SAPE     H18Z     HAL3     0.900000E-01   1.00800           0
     16691 MEMB     45       SAPE     N        NH3L    -0.300000       14.0070           0
     16692 MEMB     45       SAPE     HN1      HCL      0.330000       1.00800           0
     16693 MEMB     45       SAPE     HN2      HCL      0.330000       1.00800           0
     16694 MEMB     45       SAPE     HN3      HCL      0.330000       1.00800           0
     16695 MEMB     45       SAPE     C12      CTL2     0.130000       12.0110           0
     16696 MEMB     45       SAPE     H12A     HAL2     0.900000E-01   1.00800           0
     16697 MEMB     45       SAPE     H12B     HAL2     0.900000E-01   1.00800           0
     16698 MEMB     45       SAPE     C11      CTL2    -0.800000E-01   12.0110           0
     16699 MEMB     45       SAPE     H11A     HAL2     0.900000E-01   1.00800           0
     16700 MEMB     45       SAPE     H11B     HAL2     0.900000E-01   1.00800           0
     16701 MEMB     45       SAPE     P        PL       1.500000       30.9740           0
     16702 MEMB     45       SAPE     O13      O2L     -0.780000       15.9994           0
     16703 MEMB     45       SAPE     O14      O2L     -0.780000       15.9994           0
     16704 MEMB     45       SAPE     O12      OSLP    -0.570000       15.9994           0
     16705 MEMB     45       SAPE     O11      OSLP    -0.570000       15.9994           0
     16706 MEMB     45       SAPE     C1       CTL2    -0.800000E-01   12.0110           0
     16707 MEMB     45       SAPE     HA       HAL2     0.900000E-01   1.00800           0
     16708 MEMB     45       SAPE     HB       HAL2     0.900000E-01   1.00800           0
     16709 MEMB     45       SAPE     C2       CTL1     0.170000       12.0110           0
     16710 MEMB     45       SAPE     HS       HAL1     0.900000E-01   1.00800           0
     16711 MEMB     45       SAPE     O21      OSL     -0.490000       15.9994           0
     16712 MEMB     45       SAPE     C21      CL       0.900000       12.0110           0
     16713 MEMB     45       SAPE     O22      OBL     -0.630000       15.9994           0
     16714 MEMB     45       SAPE     C22      CTL2    -0.220000       12.0110           0
     16715 MEMB     45       SAPE     H2R      HAL2     0.900000E-01   1.00800           0
     16716 MEMB     45       SAPE     H2S      HAL2     0.900000E-01   1.00800           0
     16717 MEMB     45       SAPE     C3       CTL2     0.800000E-01   12.0110           0
     16718 MEMB     45       SAPE     HX       HAL2     0.900000E-01   1.00800           0
     16719 MEMB     45       SAPE     HY       HAL2     0.900000E-01   1.00800           0
     16720 MEMB     45       SAPE     O31      OSL     -0.490000       15.9994           0
     16721 MEMB     45       SAPE     C31      CL       0.900000       12.0110           0
     16722 MEMB     45       SAPE     O32      OBL     -0.630000       15.9994           0
     16723 MEMB     45       SAPE     C32      CTL2    -0.220000       12.0110           0
     16724 MEMB     45       SAPE     H2X      HAL2     0.900000E-01   1.00800           0
     16725 MEMB     45       SAPE     H2Y      HAL2     0.900000E-01   1.00800           0
     16726 MEMB     45       SAPE     C23      CTL2    -0.180000       12.0110           0
     16727 MEMB     45       SAPE     H3R      HAL2     0.900000E-01   1.00800           0
     16728 MEMB     45       SAPE     H3S      HAL2     0.900000E-01   1.00800           0
     16729 MEMB     45       SAPE     C24      CTL2    -0.180000       12.0110           0
     16730 MEMB     45       SAPE     H4R      HAL2     0.900000E-01   1.00800           0
     16731 MEMB     45       SAPE     H4S      HAL2     0.900000E-01   1.00800           0
     16732 MEMB     45       SAPE     C25      CEL1    -0.150000       12.0110           0
     16733 MEMB     45       SAPE     H5R      HEL1     0.150000       1.00800           0
     16734 MEMB     45       SAPE     C26      CEL1    -0.150000       12.0110           0
     16735 MEMB     45       SAPE     H6R      HEL1     0.150000       1.00800           0
     16736 MEMB     45       SAPE     C27      CTL2    -0.180000       12.0110           0
     16737 MEMB     45       SAPE     H7R      HAL2     0.900000E-01   1.00800           0
     16738 MEMB     45       SAPE     H7S      HAL2     0.900000E-01   1.00800           0
     16739 MEMB     45       SAPE     C28      CEL1    -0.150000       12.0110           0
     16740 MEMB     45       SAPE     H8R      HEL1     0.150000       1.00800           0
     16741 MEMB     45       SAPE     C29      CEL1    -0.150000       12.0110           0
     16742 MEMB     45       SAPE     H9R      HEL1     0.150000       1.00800           0
     16743 MEMB     45       SAPE     C210     CTL2    -0.180000       12.0110           0
     16744 MEMB     45       SAPE     H10R     HAL2     0.900000E-01   1.00800           0
     16745 MEMB     45       SAPE     H10S     HAL2     0.900000E-01   1.00800           0
     16746 MEMB     45       SAPE     C211     CEL1    -0.150000       12.0110           0
     16747 MEMB     45       SAPE     H11R     HEL1     0.150000       1.00800           0
     16748 MEMB     45       SAPE     C212     CEL1    -0.150000       12.0110           0
     16749 MEMB     45       SAPE     H12R     HEL1     0.150000       1.00800           0
     16750 MEMB     45       SAPE     C213     CTL2    -0.180000       12.0110           0
     16751 MEMB     45       SAPE     H13R     HAL2     0.900000E-01   1.00800           0
     16752 MEMB     45       SAPE     H13S     HAL2     0.900000E-01   1.00800           0
     16753 MEMB     45       SAPE     C214     CEL1    -0.150000       12.0110           0
     16754 MEMB     45       SAPE     H14R     HEL1     0.150000       1.00800           0
     16755 MEMB     45       SAPE     C215     CEL1    -0.150000       12.0110           0
     16756 MEMB     45       SAPE     H15R     HEL1     0.150000       1.00800           0
     16757 MEMB     45       SAPE     C216     CTL2    -0.180000       12.0110           0
     16758 MEMB     45       SAPE     H16R     HAL2     0.900000E-01   1.00800           0
     16759 MEMB     45       SAPE     H16S     HAL2     0.900000E-01   1.00800           0
     16760 MEMB     45       SAPE     C217     CTL2    -0.180000       12.0110           0
     16761 MEMB     45       SAPE     H17R     HAL2     0.900000E-01   1.00800           0
     16762 MEMB     45       SAPE     H17S     HAL2     0.900000E-01   1.00800           0
     16763 MEMB     45       SAPE     C218     CTL2    -0.180000       12.0110           0
     16764 MEMB     45       SAPE     H18R     HAL2     0.900000E-01   1.00800           0
     16765 MEMB     45       SAPE     H18S     HAL2     0.900000E-01   1.00800           0
     16766 MEMB     45       SAPE     C219     CTL2    -0.180000       12.0110           0
     16767 MEMB     45       SAPE     H19R     HAL2     0.900000E-01   1.00800           0
     16768 MEMB     45       SAPE     H19S     HAL2     0.900000E-01   1.00800           0
     16769 MEMB     45       SAPE     C220     CTL3    -0.270000       12.0110           0
     16770 MEMB     45       SAPE     H20R     HAL3     0.900000E-01   1.00800           0
     16771 MEMB     45       SAPE     H20S     HAL3     0.900000E-01   1.00800           0
     16772 MEMB     45       SAPE     H20T     HAL3     0.900000E-01   1.00800           0
     16773 MEMB     45       SAPE     C33      CTL2    -0.180000       12.0110           0
     16774 MEMB     45       SAPE     H3X      HAL2     0.900000E-01   1.00800           0
     16775 MEMB     45       SAPE     H3Y      HAL2     0.900000E-01   1.00800           0
     16776 MEMB     45       SAPE     C34      CTL2    -0.180000       12.0110           0
     16777 MEMB     45       SAPE     H4X      HAL2     0.900000E-01   1.00800           0
     16778 MEMB     45       SAPE     H4Y      HAL2     0.900000E-01   1.00800           0
     16779 MEMB     45       SAPE     C35      CTL2    -0.180000       12.0110           0
     16780 MEMB     45       SAPE     H5X      HAL2     0.900000E-01   1.00800           0
     16781 MEMB     45       SAPE     H5Y      HAL2     0.900000E-01   1.00800           0
     16782 MEMB     45       SAPE     C36      CTL2    -0.180000       12.0110           0
     16783 MEMB     45       SAPE     H6X      HAL2     0.900000E-01   1.00800           0
     16784 MEMB     45       SAPE     H6Y      HAL2     0.900000E-01   1.00800           0
     16785 MEMB     45       SAPE     C37      CTL2    -0.180000       12.0110           0
     16786 MEMB     45       SAPE     H7X      HAL2     0.900000E-01   1.00800           0
     16787 MEMB     45       SAPE     H7Y      HAL2     0.900000E-01   1.00800           0
     16788 MEMB     45       SAPE     C38      CTL2    -0.180000       12.0110           0
     16789 MEMB     45       SAPE     H8X      HAL2     0.900000E-01   1.00800           0
     16790 MEMB     45       SAPE     H8Y      HAL2     0.900000E-01   1.00800           0
     16791 MEMB     45       SAPE     C39      CTL2    -0.180000       12.0110           0
     16792 MEMB     45       SAPE     H9X      HAL2     0.900000E-01   1.00800           0
     16793 MEMB     45       SAPE     H9Y      HAL2     0.900000E-01   1.00800           0
     16794 MEMB     45       SAPE     C310     CTL2    -0.180000       12.0110           0
     16795 MEMB     45       SAPE     H10X     HAL2     0.900000E-01   1.00800           0
     16796 MEMB     45       SAPE     H10Y     HAL2     0.900000E-01   1.00800           0
     16797 MEMB     45       SAPE     C311     CTL2    -0.180000       12.0110           0
     16798 MEMB     45       SAPE     H11X     HAL2     0.900000E-01   1.00800           0
     16799 MEMB     45       SAPE     H11Y     HAL2     0.900000E-01   1.00800           0
     16800 MEMB     45       SAPE     C312     CTL2    -0.180000       12.0110           0
     16801 MEMB     45       SAPE     H12X     HAL2     0.900000E-01   1.00800           0
     16802 MEMB     45       SAPE     H12Y     HAL2     0.900000E-01   1.00800           0
     16803 MEMB     45       SAPE     C313     CTL2    -0.180000       12.0110           0
     16804 MEMB     45       SAPE     H13X     HAL2     0.900000E-01   1.00800           0
     16805 MEMB     45       SAPE     H13Y     HAL2     0.900000E-01   1.00800           0
     16806 MEMB     45       SAPE     C314     CTL2    -0.180000       12.0110           0
     16807 MEMB     45       SAPE     H14X     HAL2     0.900000E-01   1.00800           0
     16808 MEMB     45       SAPE     H14Y     HAL2     0.900000E-01   1.00800           0
     16809 MEMB     45       SAPE     C315     CTL2    -0.180000       12.0110           0
     16810 MEMB     45       SAPE     H15X     HAL2     0.900000E-01   1.00800           0
     16811 MEMB     45       SAPE     H15Y     HAL2     0.900000E-01   1.00800           0
     16812 MEMB     45       SAPE     C316     CTL2    -0.180000       12.0110           0
     16813 MEMB     45       SAPE     H16X     HAL2     0.900000E-01   1.00800           0
     16814 MEMB     45       SAPE     H16Y     HAL2     0.900000E-01   1.00800           0
     16815 MEMB     45       SAPE     C317     CTL2    -0.180000       12.0110           0
     16816 MEMB     45       SAPE     H17X     HAL2     0.900000E-01   1.00800           0
     16817 MEMB     45       SAPE     H17Y     HAL2     0.900000E-01   1.00800           0
     16818 MEMB     45       SAPE     C318     CTL3    -0.270000       12.0110           0
     16819 MEMB     45       SAPE     H18X     HAL3     0.900000E-01   1.00800           0
     16820 MEMB     45       SAPE     H18Y     HAL3     0.900000E-01   1.00800           0
     16821 MEMB     45       SAPE     H18Z     HAL3     0.900000E-01   1.00800           0
     16822 MEMB     71       SAPE     N        NH3L    -0.300000       14.0070           0
     16823 MEMB     71       SAPE     HN1      HCL      0.330000       1.00800           0
     16824 MEMB     71       SAPE     HN2      HCL      0.330000       1.00800           0
     16825 MEMB     71       SAPE     HN3      HCL      0.330000       1.00800           0
     16826 MEMB     71       SAPE     C12      CTL2     0.130000       12.0110           0
     16827 MEMB     71       SAPE     H12A     HAL2     0.900000E-01   1.00800           0
     16828 MEMB     71       SAPE     H12B     HAL2     0.900000E-01   1.00800           0
     16829 MEMB     71       SAPE     C11      CTL2    -0.800000E-01   12.0110           0
     16830 MEMB     71       SAPE     H11A     HAL2     0.900000E-01   1.00800           0
     16831 MEMB     71       SAPE     H11B     HAL2     0.900000E-01   1.00800           0
     16832 MEMB     71       SAPE     P        PL       1.500000       30.9740           0
     16833 MEMB     71       SAPE     O13      O2L     -0.780000       15.9994           0
     16834 MEMB     71       SAPE     O14      O2L     -0.780000       15.9994           0
     16835 MEMB     71       SAPE     O12      OSLP    -0.570000       15.9994           0
     16836 MEMB     71       SAPE     O11      OSLP    -0.570000       15.9994           0
     16837 MEMB     71       SAPE     C1       CTL2    -0.800000E-01   12.0110           0
     16838 MEMB     71       SAPE     HA       HAL2     0.900000E-01   1.00800           0
     16839 MEMB     71       SAPE     HB       HAL2     0.900000E-01   1.00800           0
     16840 MEMB     71       SAPE     C2       CTL1     0.170000       12.0110           0
     16841 MEMB     71       SAPE     HS       HAL1     0.900000E-01   1.00800           0
     16842 MEMB     71       SAPE     O21      OSL     -0.490000       15.9994           0
     16843 MEMB     71       SAPE     C21      CL       0.900000       12.0110           0
     16844 MEMB     71       SAPE     O22      OBL     -0.630000       15.9994           0
     16845 MEMB     71       SAPE     C22      CTL2    -0.220000       12.0110           0
     16846 MEMB     71       SAPE     H2R      HAL2     0.900000E-01   1.00800           0
     16847 MEMB     71       SAPE     H2S      HAL2     0.900000E-01   1.00800           0
     16848 MEMB     71       SAPE     C3       CTL2     0.800000E-01   12.0110           0
     16849 MEMB     71       SAPE     HX       HAL2     0.900000E-01   1.00800           0
     16850 MEMB     71       SAPE     HY       HAL2     0.900000E-01   1.00800           0
     16851 MEMB     71       SAPE     O31      OSL     -0.490000       15.9994           0
     16852 MEMB     71       SAPE     C31      CL       0.900000       12.0110           0
     16853 MEMB     71       SAPE     O32      OBL     -0.630000       15.9994           0
     16854 MEMB     71       SAPE     C32      CTL2    -0.220000       12.0110           0
     16855 MEMB     71       SAPE     H2X      HAL2     0.900000E-01   1.00800           0
     16856 MEMB     71       SAPE     H2Y      HAL2     0.900000E-01   1.00800           0
     16857 MEMB     71       SAPE     C23      CTL2    -0.180000       12.0110           0
     16858 MEMB     71       SAPE     H3R      HAL2     0.900000E-01   1.00800           0
     16859 MEMB     71       SAPE     H3S      HAL2     0.900000E-01   1.00800           0
     16860 MEMB     71       SAPE     C24      CTL2    -0.180000       12.0110           0
     16861 MEMB     71       SAPE     H4R      HAL2     0.900000E-01   1.00800           0
     16862 MEMB     71       SAPE     H4S      HAL2     0.900000E-01   1.00800           0
     16863 MEMB     71       SAPE     C25      CEL1    -0.150000       12.0110           0
     16864 MEMB     71       SAPE     H5R      HEL1     0.150000       1.00800           0
     16865 MEMB     71       SAPE     C26      CEL1    -0.150000       12.0110           0
     16866 MEMB     71       SAPE     H6R      HEL1     0.150000       1.00800           0
     16867 MEMB     71       SAPE     C27      CTL2    -0.180000       12.0110           0
     16868 MEMB     71       SAPE     H7R      HAL2     0.900000E-01   1.00800           0
     16869 MEMB     71       SAPE     H7S      HAL2     0.900000E-01   1.00800           0
     16870 MEMB     71       SAPE     C28      CEL1    -0.150000       12.0110           0
     16871 MEMB     71       SAPE     H8R      HEL1     0.150000       1.00800           0
     16872 MEMB     71       SAPE     C29      CEL1    -0.150000       12.0110           0
     16873 MEMB     71       SAPE     H9R      HEL1     0.150000       1.00800           0
     16874 MEMB     71       SAPE     C210     CTL2    -0.180000       12.0110           0
     16875 MEMB     71       SAPE     H10R     HAL2     0.900000E-01   1.00800           0
     16876 MEMB     71       SAPE     H10S     HAL2     0.900000E-01   1.00800           0
     16877 MEMB     71       SAPE     C211     CEL1    -0.150000       12.0110           0
     16878 MEMB     71       SAPE     H11R     HEL1     0.150000       1.00800           0
     16879 MEMB     71       SAPE     C212     CEL1    -0.150000       12.0110           0
     16880 MEMB     71       SAPE     H12R     HEL1     0.150000       1.00800           0
     16881 MEMB     71       SAPE     C213     CTL2    -0.180000       12.0110           0
     16882 MEMB     71       SAPE     H13R     HAL2     0.900000E-01   1.00800           0
     16883 MEMB     71       SAPE     H13S     HAL2     0.900000E-01   1.00800           0
     16884 MEMB     71       SAPE     C214     CEL1    -0.150000       12.0110           0
     16885 MEMB     71       SAPE     H14R     HEL1     0.150000       1.00800           0
     16886 MEMB     71       SAPE     C215     CEL1    -0.150000       12.0110           0
     16887 MEMB     71       SAPE     H15R     HEL1     0.150000       1.00800           0
     16888 MEMB     71       SAPE     C216     CTL2    -0.180000       12.0110           0
     16889 MEMB     71       SAPE     H16R     HAL2     0.900000E-01   1.00800           0
     16890 MEMB     71       SAPE     H16S     HAL2     0.900000E-01   1.00800           0
     16891 MEMB     71       SAPE     C217     CTL2    -0.180000       12.0110           0
     16892 MEMB     71       SAPE     H17R     HAL2     0.900000E-01   1.00800           0
     16893 MEMB     71       SAPE     H17S     HAL2     0.900000E-01   1.00800           0
     16894 MEMB     71       SAPE     C218     CTL2    -0.180000       12.0110           0
     16895 MEMB     71       SAPE     H18R     HAL2     0.900000E-01   1.00800           0
     16896 MEMB     71       SAPE     H18S     HAL2     0.900000E-01   1.00800           0
     16897 MEMB     71       SAPE     C219     CTL2    -0.180000       12.0110           0
     16898 MEMB     71       SAPE     H19R     HAL2     0.900000E-01   1.00800           0
     16899 MEMB     71       SAPE     H19S     HAL2     0.900000E-01   1.00800           0
     16900 MEMB     71       SAPE     C220     CTL3    -0.270000       12.0110           0
     16901 MEMB     71       SAPE     H20R     HAL3     0.900000E-01   1.00800           0
     16902 MEMB     71       SAPE     H20S     HAL3     0.900000E-01   1.00800           0
     16903 MEMB     71       SAPE     H20T     HAL3     0.900000E-01   1.00800           0
     16904 MEMB     71       SAPE     C33      CTL2    -0.180000       12.0110           0
     16905 MEMB     71       SAPE     H3X      HAL2     0.900000E-01   1.00800           0
     16906 MEMB     71       SAPE     H3Y      HAL2     0.900000E-01   1.00800           0
     16907 MEMB     71       SAPE     C34      CTL2    -0.180000       12.0110           0
     16908 MEMB     71       SAPE     H4X      HAL2     0.900000E-01   1.00800           0
     16909 MEMB     71       SAPE     H4Y      HAL2     0.900000E-01   1.00800           0
     16910 MEMB     71       SAPE     C35      CTL2    -0.180000       12.0110           0
     16911 MEMB     71       SAPE     H5X      HAL2     0.900000E-01   1.00800           0
     16912 MEMB     71       SAPE     H5Y      HAL2     0.900000E-01   1.00800           0
     16913 MEMB     71       SAPE     C36      CTL2    -0.180000       12.0110           0
     16914 MEMB     71       SAPE     H6X      HAL2     0.900000E-01   1.00800           0
     16915 MEMB     71       SAPE     H6Y      HAL2     0.900000E-01   1.00800           0
     16916 MEMB     71       SAPE     C37      CTL2    -0.180000       12.0110           0
     16917 MEMB     71       SAPE     H7X      HAL2     0.900000E-01   1.00800           0
     16918 MEMB     71       SAPE     H7Y      HAL2     0.900000E-01   1.00800           0
     16919 MEMB     71       SAPE     C38      CTL2    -0.180000       12.0110           0
     16920 MEMB     71       SAPE     H8X      HAL2     0.900000E-01   1.00800           0
     16921 MEMB     71       SAPE     H8Y      HAL2     0.900000E-01   1.00800           0
     16922 MEMB     71       SAPE     C39      CTL2    -0.180000       12.0110           0
     16923 MEMB     71       SAPE     H9X      HAL2     0.900000E-01   1.00800           0
     16924 MEMB     71       SAPE     H9Y      HAL2     0.900000E-01   1.00800           0
     16925 MEMB     71       SAPE     C310     CTL2    -0.180000       12.0110           0
     16926 MEMB     71       SAPE     H10X     HAL2     0.900000E-01   1.00800           0
     16927 MEMB     71       SAPE     H10Y     HAL2     0.900000E-01   1.00800           0
     16928 MEMB     71       SAPE     C311     CTL2    -0.180000       12.0110           0
     16929 MEMB     71       SAPE     H11X     HAL2     0.900000E-01   1.00800           0
     16930 MEMB     71       SAPE     H11Y     HAL2     0.900000E-01   1.00800           0
     16931 MEMB     71       SAPE     C312     CTL2    -0.180000       12.0110           0
     16932 MEMB     71       SAPE     H12X     HAL2     0.900000E-01   1.00800           0
     16933 MEMB     71       SAPE     H12Y     HAL2     0.900000E-01   1.00800           0
     16934 MEMB     71       SAPE     C313     CTL2    -0.180000       12.0110           0
     16935 MEMB     71       SAPE     H13X     HAL2     0.900000E-01   1.00800           0
     16936 MEMB     71       SAPE     H13Y     HAL2     0.900000E-01   1.00800           0
     16937 MEMB     71       SAPE     C314     CTL2    -0.180000       12.0110           0
     16938 MEMB     71       SAPE     H14X     HAL2     0.900000E-01   1.00800           0
     16939 MEMB     71       SAPE     H14Y     HAL2     0.900000E-01   1.00800           0
     16940 MEMB     71       SAPE     C315     CTL2    -0.180000       12.0110           0
     16941 MEMB     71       SAPE     H15X     HAL2     0.900000E-01   1.00800           0
     16942 MEMB     71       SAPE     H15Y     HAL2     0.900000E-01   1.00800           0
     16943 MEMB     71       SAPE     C316     CTL2    -0.180000       12.0110           0
     16944 MEMB     71       SAPE     H16X     HAL2     0.900000E-01   1.00800           0
     16945 MEMB     71       SAPE     H16Y     HAL2     0.900000E-01   1.00800           0
     16946 MEMB     71       SAPE     C317     CTL2    -0.180000       12.0110           0
     16947 MEMB     71       SAPE     H17X     HAL2     0.900000E-01   1.00800           0
     16948 MEMB     71       SAPE     H17Y     HAL2     0.900000E-01   1.00800           0
     16949 MEMB     71       SAPE     C318     CTL3    -0.270000       12.0110           0
     16950 MEMB     71       SAPE     H18X     HAL3     0.900000E-01   1.00800           0
     16951 MEMB     71       SAPE     H18Y     HAL3     0.900000E-01   1.00800           0
     16952 MEMB     71       SAPE     H18Z     HAL3     0.900000E-01   1.00800           0
     16953 MEMB     84       SAPE     N        NH3L    -0.300000       14.0070           0
     16954 MEMB     84       SAPE     HN1      HCL      0.330000       1.00800           0
     16955 MEMB     84       SAPE     HN2      HCL      0.330000       1.00800           0
     16956 MEMB     84       SAPE     HN3      HCL      0.330000       1.00800           0
     16957 MEMB     84       SAPE     C12      CTL2     0.130000       12.0110           0
     16958 MEMB     84       SAPE     H12A     HAL2     0.900000E-01   1.00800           0
     16959 MEMB     84       SAPE     H12B     HAL2     0.900000E-01   1.00800           0
     16960 MEMB     84       SAPE     C11      CTL2    -0.800000E-01   12.0110           0
     16961 MEMB     84       SAPE     H11A     HAL2     0.900000E-01   1.00800           0
     16962 MEMB     84       SAPE     H11B     HAL2     0.900000E-01   1.00800           0
     16963 MEMB     84       SAPE     P        PL       1.500000       30.9740           0
     16964 MEMB     84       SAPE     O13      O2L     -0.780000       15.9994           0
     16965 MEMB     84       SAPE     O14      O2L     -0.780000       15.9994           0
     16966 MEMB     84       SAPE     O12      OSLP    -0.570000       15.9994           0
     16967 MEMB     84       SAPE     O11      OSLP    -0.570000       15.9994           0
     16968 MEMB     84       SAPE     C1       CTL2    -0.800000E-01   12.0110           0
     16969 MEMB     84       SAPE     HA       HAL2     0.900000E-01   1.00800           0
     16970 MEMB     84       SAPE     HB       HAL2     0.900000E-01   1.00800           0
     16971 MEMB     84       SAPE     C2       CTL1     0.170000       12.0110           0
     16972 MEMB     84       SAPE     HS       HAL1     0.900000E-01   1.00800           0
     16973 MEMB     84       SAPE     O21      OSL     -0.490000       15.9994           0
     16974 MEMB     84       SAPE     C21      CL       0.900000       12.0110           0
     16975 MEMB     84       SAPE     O22      OBL     -0.630000       15.9994           0
     16976 MEMB     84       SAPE     C22      CTL2    -0.220000       12.0110           0
     16977 MEMB     84       SAPE     H2R      HAL2     0.900000E-01   1.00800           0
     16978 MEMB     84       SAPE     H2S      HAL2     0.900000E-01   1.00800           0
     16979 MEMB     84       SAPE     C3       CTL2     0.800000E-01   12.0110           0
     16980 MEMB     84       SAPE     HX       HAL2     0.900000E-01   1.00800           0
     16981 MEMB     84       SAPE     HY       HAL2     0.900000E-01   1.00800           0
     16982 MEMB     84       SAPE     O31      OSL     -0.490000       15.9994           0
     16983 MEMB     84       SAPE     C31      CL       0.900000       12.0110           0
     16984 MEMB     84       SAPE     O32      OBL     -0.630000       15.9994           0
     16985 MEMB     84       SAPE     C32      CTL2    -0.220000       12.0110           0
     16986 MEMB     84       SAPE     H2X      HAL2     0.900000E-01   1.00800           0
     16987 MEMB     84       SAPE     H2Y      HAL2     0.900000E-01   1.00800           0
     16988 MEMB     84       SAPE     C23      CTL2    -0.180000       12.0110           0
     16989 MEMB     84       SAPE     H3R      HAL2     0.900000E-01   1.00800           0
     16990 MEMB     84       SAPE     H3S      HAL2     0.900000E-01   1.00800           0
     16991 MEMB     84       SAPE     C24      CTL2    -0.180000       12.0110           0
     16992 MEMB     84       SAPE     H4R      HAL2     0.900000E-01   1.00800           0
     16993 MEMB     84       SAPE     H4S      HAL2     0.900000E-01   1.00800           0
     16994 MEMB     84       SAPE     C25      CEL1    -0.150000       12.0110           0
     16995 MEMB     84       SAPE     H5R      HEL1     0.150000       1.00800           0
     16996 MEMB     84       SAPE     C26      CEL1    -0.150000       12.0110           0
     16997 MEMB     84       SAPE     H6R      HEL1     0.150000       1.00800           0
     16998 MEMB     84       SAPE     C27      CTL2    -0.180000       12.0110           0
     16999 MEMB     84       SAPE     H7R      HAL2     0.900000E-01   1.00800           0
     17000 MEMB     84       SAPE     H7S      HAL2     0.900000E-01   1.00800           0
     17001 MEMB     84       SAPE     C28      CEL1    -0.150000       12.0110           0
     17002 MEMB     84       SAPE     H8R      HEL1     0.150000       1.00800           0
     17003 MEMB     84       SAPE     C29      CEL1    -0.150000       12.0110           0
     17004 MEMB     84       SAPE     H9R      HEL1     0.150000       1.00800           0
     17005 MEMB     84       SAPE     C210     CTL2    -0.180000       12.0110           0
     17006 MEMB     84       SAPE     H10R     HAL2     0.900000E-01   1.00800           0
     17007 MEMB     84       SAPE     H10S     HAL2     0.900000E-01   1.00800           0
     17008 MEMB     84       SAPE     C211     CEL1    -0.150000       12.0110           0
     17009 MEMB     84       SAPE     H11R     HEL1     0.150000       1.00800           0
     17010 MEMB     84       SAPE     C212     CEL1    -0.150000       12.0110           0
     17011 MEMB     84       SAPE     H12R     HEL1     0.150000       1.00800           0
     17012 MEMB     84       SAPE     C213     CTL2    -0.180000       12.0110           0
     17013 MEMB     84       SAPE     H13R     HAL2     0.900000E-01   1.00800           0
     17014 MEMB     84       SAPE     H13S     HAL2     0.900000E-01   1.00800           0
     17015 MEMB     84       SAPE     C214     CEL1    -0.150000       12.0110           0
     17016 MEMB     84       SAPE     H14R     HEL1     0.150000       1.00800           0
     17017 MEMB     84       SAPE     C215     CEL1    -0.150000       12.0110           0
     17018 MEMB     84       SAPE     H15R     HEL1     0.150000       1.00800           0
     17019 MEMB     84       SAPE     C216     CTL2    -0.180000       12.0110           0
     17020 MEMB     84       SAPE     H16R     HAL2     0.900000E-01   1.00800           0
     17021 MEMB     84       SAPE     H16S     HAL2     0.900000E-01   1.00800           0
     17022 MEMB     84       SAPE     C217     CTL2    -0.180000       12.0110           0
     17023 MEMB     84       SAPE     H17R     HAL2     0.900000E-01   1.00800           0
     17024 MEMB     84       SAPE     H17S     HAL2     0.900000E-01   1.00800           0
     17025 MEMB     84       SAPE     C218     CTL2    -0.180000       12.0110           0
     17026 MEMB     84       SAPE     H18R     HAL2     0.900000E-01   1.00800           0
     17027 MEMB     84       SAPE     H18S     HAL2     0.900000E-01   1.00800           0
     17028 MEMB     84       SAPE     C219     CTL2    -0.180000       12.0110           0
     17029 MEMB     84       SAPE     H19R     HAL2     0.900000E-01   1.00800           0
     17030 MEMB     84       SAPE     H19S     HAL2     0.900000E-01   1.00800           0
     17031 MEMB     84       SAPE     C220     CTL3    -0.270000       12.0110           0
     17032 MEMB     84       SAPE     H20R     HAL3     0.900000E-01   1.00800           0
     17033 MEMB     84       SAPE     H20S     HAL3     0.900000E-01   1.00800           0
     17034 MEMB     84       SAPE     H20T     HAL3     0.900000E-01   1.00800           0
     17035 MEMB     84       SAPE     C33      CTL2    -0.180000       12.0110           0
     17036 MEMB     84       SAPE     H3X      HAL2     0.900000E-01   1.00800           0
     17037 MEMB     84       SAPE     H3Y      HAL2     0.900000E-01   1.00800           0
     17038 MEMB     84       SAPE     C34      CTL2    -0.180000       12.0110           0
     17039 MEMB     84       SAPE     H4X      HAL2     0.900000E-01   1.00800           0
     17040 MEMB     84       SAPE     H4Y      HAL2     0.900000E-01   1.00800           0
     17041 MEMB     84       SAPE     C35      CTL2    -0.180000       12.0110           0
     17042 MEMB     84       SAPE     H5X      HAL2     0.900000E-01   1.00800           0
     17043 MEMB     84       SAPE     H5Y      HAL2     0.900000E-01   1.00800           0
     17044 MEMB     84       SAPE     C36      CTL2    -0.180000       12.0110           0
     17045 MEMB     84       SAPE     H6X      HAL2     0.900000E-01   1.00800           0
     17046 MEMB     84       SAPE     H6Y      HAL2     0.900000E-01   1.00800           0
     17047 MEMB     84       SAPE     C37      CTL2    -0.180000       12.0110           0
     17048 MEMB     84       SAPE     H7X      HAL2     0.900000E-01   1.00800           0
     17049 MEMB     84       SAPE     H7Y      HAL2     0.900000E-01   1.00800           0
     17050 MEMB     84       SAPE     C38      CTL2    -0.180000       12.0110           0
     17051 MEMB     84       SAPE     H8X      HAL2     0.900000E-01   1.00800           0
     17052 MEMB     84       SAPE     H8Y      HAL2     0.900000E-01   1.00800           0
     17053 MEMB     84       SAPE     C39      CTL2    -0.180000       12.0110           0
     17054 MEMB     84       SAPE     H9X      HAL2     0.900000E-01   1.00800           0
     17055 MEMB     84       SAPE     H9Y      HAL2     0.900000E-01   1.00800           0
     17056 MEMB     84       SAPE     C310     CTL2    -0.180000       12.0110           0
     17057 MEMB     84       SAPE     H10X     HAL2     0.900000E-01   1.00800           0
     17058 MEMB     84       SAPE     H10Y     HAL2     0.900000E-01   1.00800           0
     17059 MEMB     84       SAPE     C311     CTL2    -0.180000       12.0110           0
     17060 MEMB     84       SAPE     H11X     HAL2     0.900000E-01   1.00800           0
     17061 MEMB     84       SAPE     H11Y     HAL2     0.900000E-01   1.00800           0
     17062 MEMB     84       SAPE     C312     CTL2    -0.180000       12.0110           0
     17063 MEMB     84       SAPE     H12X     HAL2     0.900000E-01   1.00800           0
     17064 MEMB     84       SAPE     H12Y     HAL2     0.900000E-01   1.00800           0
     17065 MEMB     84       SAPE     C313     CTL2    -0.180000       12.0110           0
     17066 MEMB     84       SAPE     H13X     HAL2     0.900000E-01   1.00800           0
     17067 MEMB     84       SAPE     H13Y     HAL2     0.900000E-01   1.00800           0
     17068 MEMB     84       SAPE     C314     CTL2    -0.180000       12.0110           0
     17069 MEMB     84       SAPE     H14X     HAL2     0.900000E-01   1.00800           0
     17070 MEMB     84       SAPE     H14Y     HAL2     0.900000E-01   1.00800           0
     17071 MEMB     84       SAPE     C315     CTL2    -0.180000       12.0110           0
     17072 MEMB     84       SAPE     H15X     HAL2     0.900000E-01   1.00800           0
     17073 MEMB     84       SAPE     H15Y     HAL2     0.900000E-01   1.00800           0
     17074 MEMB     84       SAPE     C316     CTL2    -0.180000       12.0110           0
     17075 MEMB     84       SAPE     H16X     HAL2     0.900000E-01   1.00800           0
     17076 MEMB     84       SAPE     H16Y     HAL2     0.900000E-01   1.00800           0
     17077 MEMB     84       SAPE     C317     CTL2    -0.180000       12.0110           0
     17078 MEMB     84       SAPE     H17X     HAL2     0.900000E-01   1.00800           0
     17079 MEMB     84       SAPE     H17Y     HAL2     0.900000E-01   1.00800           0
     17080 MEMB     84       SAPE     C318     CTL3    -0.270000       12.0110           0
     17081 MEMB     84       SAPE     H18X     HAL3     0.900000E-01   1.00800           0
     17082 MEMB     84       SAPE     H18Y     HAL3     0.900000E-01   1.00800           0
     17083 MEMB     84       SAPE     H18Z     HAL3     0.900000E-01   1.00800           0
     17084 MEMB     85       SAPE     N        NH3L    -0.300000       14.0070           0
     17085 MEMB     85       SAPE     HN1      HCL      0.330000       1.00800           0
     17086 MEMB     85       SAPE     HN2      HCL      0.330000       1.00800           0
     17087 MEMB     85       SAPE     HN3      HCL      0.330000       1.00800           0
     17088 MEMB     85       SAPE     C12      CTL2     0.130000       12.0110           0
     17089 MEMB     85       SAPE     H12A     HAL2     0.900000E-01   1.00800           0
     17090 MEMB     85       SAPE     H12B     HAL2     0.900000E-01   1.00800           0
     17091 MEMB     85       SAPE     C11      CTL2    -0.800000E-01   12.0110           0
     17092 MEMB     85       SAPE     H11A     HAL2     0.900000E-01   1.00800           0
     17093 MEMB     85       SAPE     H11B     HAL2     0.900000E-01   1.00800           0
     17094 MEMB     85       SAPE     P        PL       1.500000       30.9740           0
     17095 MEMB     85       SAPE     O13      O2L     -0.780000       15.9994           0
     17096 MEMB     85       SAPE     O14      O2L     -0.780000       15.9994           0
     17097 MEMB     85       SAPE     O12      OSLP    -0.570000       15.9994           0
     17098 MEMB     85       SAPE     O11      OSLP    -0.570000       15.9994           0
     17099 MEMB     85       SAPE     C1       CTL2    -0.800000E-01   12.0110           0
     17100 MEMB     85       SAPE     HA       HAL2     0.900000E-01   1.00800           0
     17101 MEMB     85       SAPE     HB       HAL2     0.900000E-01   1.00800           0
     17102 MEMB     85       SAPE     C2       CTL1     0.170000       12.0110           0
     17103 MEMB     85       SAPE     HS       HAL1     0.900000E-01   1.00800           0
     17104 MEMB     85       SAPE     O21      OSL     -0.490000       15.9994           0
     17105 MEMB     85       SAPE     C21      CL       0.900000       12.0110           0
     17106 MEMB     85       SAPE     O22      OBL     -0.630000       15.9994           0
     17107 MEMB     85       SAPE     C22      CTL2    -0.220000       12.0110           0
     17108 MEMB     85       SAPE     H2R      HAL2     0.900000E-01   1.00800           0
     17109 MEMB     85       SAPE     H2S      HAL2     0.900000E-01   1.00800           0
     17110 MEMB     85       SAPE     C3       CTL2     0.800000E-01   12.0110           0
     17111 MEMB     85       SAPE     HX       HAL2     0.900000E-01   1.00800           0
     17112 MEMB     85       SAPE     HY       HAL2     0.900000E-01   1.00800           0
     17113 MEMB     85       SAPE     O31      OSL     -0.490000       15.9994           0
     17114 MEMB     85       SAPE     C31      CL       0.900000       12.0110           0
     17115 MEMB     85       SAPE     O32      OBL     -0.630000       15.9994           0
     17116 MEMB     85       SAPE     C32      CTL2    -0.220000       12.0110           0
     17117 MEMB     85       SAPE     H2X      HAL2     0.900000E-01   1.00800           0
     17118 MEMB     85       SAPE     H2Y      HAL2     0.900000E-01   1.00800           0
     17119 MEMB     85       SAPE     C23      CTL2    -0.180000       12.0110           0
     17120 MEMB     85       SAPE     H3R      HAL2     0.900000E-01   1.00800           0
     17121 MEMB     85       SAPE     H3S      HAL2     0.900000E-01   1.00800           0
     17122 MEMB     85       SAPE     C24      CTL2    -0.180000       12.0110           0
     17123 MEMB     85       SAPE     H4R      HAL2     0.900000E-01   1.00800           0
     17124 MEMB     85       SAPE     H4S      HAL2     0.900000E-01   1.00800           0
     17125 MEMB     85       SAPE     C25      CEL1    -0.150000       12.0110           0
     17126 MEMB     85       SAPE     H5R      HEL1     0.150000       1.00800           0
     17127 MEMB     85       SAPE     C26      CEL1    -0.150000       12.0110           0
     17128 MEMB     85       SAPE     H6R      HEL1     0.150000       1.00800           0
     17129 MEMB     85       SAPE     C27      CTL2    -0.180000       12.0110           0
     17130 MEMB     85       SAPE     H7R      HAL2     0.900000E-01   1.00800           0
     17131 MEMB     85       SAPE     H7S      HAL2     0.900000E-01   1.00800           0
     17132 MEMB     85       SAPE     C28      CEL1    -0.150000       12.0110           0
     17133 MEMB     85       SAPE     H8R      HEL1     0.150000       1.00800           0
     17134 MEMB     85       SAPE     C29      CEL1    -0.150000       12.0110           0
     17135 MEMB     85       SAPE     H9R      HEL1     0.150000       1.00800           0
     17136 MEMB     85       SAPE     C210     CTL2    -0.180000       12.0110           0
     17137 MEMB     85       SAPE     H10R     HAL2     0.900000E-01   1.00800           0
     17138 MEMB     85       SAPE     H10S     HAL2     0.900000E-01   1.00800           0
     17139 MEMB     85       SAPE     C211     CEL1    -0.150000       12.0110           0
     17140 MEMB     85       SAPE     H11R     HEL1     0.150000       1.00800           0
     17141 MEMB     85       SAPE     C212     CEL1    -0.150000       12.0110           0
     17142 MEMB     85       SAPE     H12R     HEL1     0.150000       1.00800           0
     17143 MEMB     85       SAPE     C213     CTL2    -0.180000       12.0110           0
     17144 MEMB     85       SAPE     H13R     HAL2     0.900000E-01   1.00800           0
     17145 MEMB     85       SAPE     H13S     HAL2     0.900000E-01   1.00800           0
     17146 MEMB     85       SAPE     C214     CEL1    -0.150000       12.0110           0
     17147 MEMB     85       SAPE     H14R     HEL1     0.150000       1.00800           0
     17148 MEMB     85       SAPE     C215     CEL1    -0.150000       12.0110           0
     17149 MEMB     85       SAPE     H15R     HEL1     0.150000       1.00800           0
     17150 MEMB     85       SAPE     C216     CTL2    -0.180000       12.0110           0
     17151 MEMB     85       SAPE     H16R     HAL2     0.900000E-01   1.00800           0
     17152 MEMB     85       SAPE     H16S     HAL2     0.900000E-01   1.00800           0
     17153 MEMB     85       SAPE     C217     CTL2    -0.180000       12.0110           0
     17154 MEMB     85       SAPE     H17R     HAL2     0.900000E-01   1.00800           0
     17155 MEMB     85       SAPE     H17S     HAL2     0.900000E-01   1.00800           0
     17156 MEMB     85       SAPE     C218     CTL2    -0.180000       12.0110           0
     17157 MEMB     85       SAPE     H18R     HAL2     0.900000E-01   1.00800           0
     17158 MEMB     85       SAPE     H18S     HAL2     0.900000E-01   1.00800           0
     17159 MEMB     85       SAPE     C219     CTL2    -0.180000       12.0110           0
     17160 MEMB     85       SAPE     H19R     HAL2     0.900000E-01   1.00800           0
     17161 MEMB     85       SAPE     H19S     HAL2     0.900000E-01   1.00800           0
     17162 MEMB     85       SAPE     C220     CTL3    -0.270000       12.0110           0
     17163 MEMB     85       SAPE     H20R     HAL3     0.900000E-01   1.00800           0
     17164 MEMB     85       SAPE     H20S     HAL3     0.900000E-01   1.00800           0
     17165 MEMB     85       SAPE     H20T     HAL3     0.900000E-01   1.00800           0
     17166 MEMB     85       SAPE     C33      CTL2    -0.180000       12.0110           0
     17167 MEMB     85       SAPE     H3X      HAL2     0.900000E-01   1.00800           0
     17168 MEMB     85       SAPE     H3Y      HAL2     0.900000E-01   1.00800           0
     17169 MEMB     85       SAPE     C34      CTL2    -0.180000       12.0110           0
     17170 MEMB     85       SAPE     H4X      HAL2     0.900000E-01   1.00800           0
     17171 MEMB     85       SAPE     H4Y      HAL2     0.900000E-01   1.00800           0
     17172 MEMB     85       SAPE     C35      CTL2    -0.180000       12.0110           0
     17173 MEMB     85       SAPE     H5X      HAL2     0.900000E-01   1.00800           0
     17174 MEMB     85       SAPE     H5Y      HAL2     0.900000E-01   1.00800           0
     17175 MEMB     85       SAPE     C36      CTL2    -0.180000       12.0110           0
     17176 MEMB     85       SAPE     H6X      HAL2     0.900000E-01   1.00800           0
     17177 MEMB     85       SAPE     H6Y      HAL2     0.900000E-01   1.00800           0
     17178 MEMB     85       SAPE     C37      CTL2    -0.180000       12.0110           0
     17179 MEMB     85       SAPE     H7X      HAL2     0.900000E-01   1.00800           0
     17180 MEMB     85       SAPE     H7Y      HAL2     0.900000E-01   1.00800           0
     17181 MEMB     85       SAPE     C38      CTL2    -0.180000       12.0110           0
     17182 MEMB     85       SAPE     H8X      HAL2     0.900000E-01   1.00800           0
     17183 MEMB     85       SAPE     H8Y      HAL2     0.900000E-01   1.00800           0
     17184 MEMB     85       SAPE     C39      CTL2    -0.180000       12.0110           0
     17185 MEMB     85       SAPE     H9X      HAL2     0.900000E-01   1.00800           0
     17186 MEMB     85       SAPE     H9Y      HAL2     0.900000E-01   1.00800           0
     17187 MEMB     85       SAPE     C310     CTL2    -0.180000       12.0110           0
     17188 MEMB     85       SAPE     H10X     HAL2     0.900000E-01   1.00800           0
     17189 MEMB     85       SAPE     H10Y     HAL2     0.900000E-01   1.00800           0
     17190 MEMB     85       SAPE     C311     CTL2    -0.180000       12.0110           0
     17191 MEMB     85       SAPE     H11X     HAL2     0.900000E-01   1.00800           0
     17192 MEMB     85       SAPE     H11Y     HAL2     0.900000E-01   1.00800           0
     17193 MEMB     85       SAPE     C312     CTL2    -0.180000       12.0110           0
     17194 MEMB     85       SAPE     H12X     HAL2     0.900000E-01   1.00800           0
     17195 MEMB     85       SAPE     H12Y     HAL2     0.900000E-01   1.00800           0
     17196 MEMB     85       SAPE     C313     CTL2    -0.180000       12.0110           0
     17197 MEMB     85       SAPE     H13X     HAL2     0.900000E-01   1.00800           0
     17198 MEMB     85       SAPE     H13Y     HAL2     0.900000E-01   1.00800           0
     17199 MEMB     85       SAPE     C314     CTL2    -0.180000       12.0110           0
     17200 MEMB     85       SAPE     H14X     HAL2     0.900000E-01   1.00800           0
     17201 MEMB     85       SAPE     H14Y     HAL2     0.900000E-01   1.00800           0
     17202 MEMB     85       SAPE     C315     CTL2    -0.180000       12.0110           0
     17203 MEMB     85       SAPE     H15X     HAL2     0.900000E-01   1.00800           0
     17204 MEMB     85       SAPE     H15Y     HAL2     0.900000E-01   1.00800           0
     17205 MEMB     85       SAPE     C316     CTL2    -0.180000       12.0110           0
     17206 MEMB     85       SAPE     H16X     HAL2     0.900000E-01   1.00800           0
     17207 MEMB     85       SAPE     H16Y     HAL2     0.900000E-01   1.00800           0
     17208 MEMB     85       SAPE     C317     CTL2    -0.180000       12.0110           0
     17209 MEMB     85       SAPE     H17X     HAL2     0.900000E-01   1.00800           0
     17210 MEMB     85       SAPE     H17Y     HAL2     0.900000E-01   1.00800           0
     17211 MEMB     85       SAPE     C318     CTL3    -0.270000       12.0110           0
     17212 MEMB     85       SAPE     H18X     HAL3     0.900000E-01   1.00800           0
     17213 MEMB     85       SAPE     H18Y     HAL3     0.900000E-01   1.00800           0
     17214 MEMB     85       SAPE     H18Z     HAL3     0.900000E-01   1.00800           0
     17215 MEMB     88       SAPE     N        NH3L    -0.300000       14.0070           0
     17216 MEMB     88       SAPE     HN1      HCL      0.330000       1.00800           0
     17217 MEMB     88       SAPE     HN2      HCL      0.330000       1.00800           0
     17218 MEMB     88       SAPE     HN3      HCL      0.330000       1.00800           0
     17219 MEMB     88       SAPE     C12      CTL2     0.130000       12.0110           0
     17220 MEMB     88       SAPE     H12A     HAL2     0.900000E-01   1.00800           0
     17221 MEMB     88       SAPE     H12B     HAL2     0.900000E-01   1.00800           0
     17222 MEMB     88       SAPE     C11      CTL2    -0.800000E-01   12.0110           0
     17223 MEMB     88       SAPE     H11A     HAL2     0.900000E-01   1.00800           0
     17224 MEMB     88       SAPE     H11B     HAL2     0.900000E-01   1.00800           0
     17225 MEMB     88       SAPE     P        PL       1.500000       30.9740           0
     17226 MEMB     88       SAPE     O13      O2L     -0.780000       15.9994           0
     17227 MEMB     88       SAPE     O14      O2L     -0.780000       15.9994           0
     17228 MEMB     88       SAPE     O12      OSLP    -0.570000       15.9994           0
     17229 MEMB     88       SAPE     O11      OSLP    -0.570000       15.9994           0
     17230 MEMB     88       SAPE     C1       CTL2    -0.800000E-01   12.0110           0
     17231 MEMB     88       SAPE     HA       HAL2     0.900000E-01   1.00800           0
     17232 MEMB     88       SAPE     HB       HAL2     0.900000E-01   1.00800           0
     17233 MEMB     88       SAPE     C2       CTL1     0.170000       12.0110           0
     17234 MEMB     88       SAPE     HS       HAL1     0.900000E-01   1.00800           0
     17235 MEMB     88       SAPE     O21      OSL     -0.490000       15.9994           0
     17236 MEMB     88       SAPE     C21      CL       0.900000       12.0110           0
     17237 MEMB     88       SAPE     O22      OBL     -0.630000       15.9994           0
     17238 MEMB     88       SAPE     C22      CTL2    -0.220000       12.0110           0
     17239 MEMB     88       SAPE     H2R      HAL2     0.900000E-01   1.00800           0
     17240 MEMB     88       SAPE     H2S      HAL2     0.900000E-01   1.00800           0
     17241 MEMB     88       SAPE     C3       CTL2     0.800000E-01   12.0110           0
     17242 MEMB     88       SAPE     HX       HAL2     0.900000E-01   1.00800           0
     17243 MEMB     88       SAPE     HY       HAL2     0.900000E-01   1.00800           0
     17244 MEMB     88       SAPE     O31      OSL     -0.490000       15.9994           0
     17245 MEMB     88       SAPE     C31      CL       0.900000       12.0110           0
     17246 MEMB     88       SAPE     O32      OBL     -0.630000       15.9994           0
     17247 MEMB     88       SAPE     C32      CTL2    -0.220000       12.0110           0
     17248 MEMB     88       SAPE     H2X      HAL2     0.900000E-01   1.00800           0
     17249 MEMB     88       SAPE     H2Y      HAL2     0.900000E-01   1.00800           0
     17250 MEMB     88       SAPE     C23      CTL2    -0.180000       12.0110           0
     17251 MEMB     88       SAPE     H3R      HAL2     0.900000E-01   1.00800           0
     17252 MEMB     88       SAPE     H3S      HAL2     0.900000E-01   1.00800           0
     17253 MEMB     88       SAPE     C24      CTL2    -0.180000       12.0110           0
     17254 MEMB     88       SAPE     H4R      HAL2     0.900000E-01   1.00800           0
     17255 MEMB     88       SAPE     H4S      HAL2     0.900000E-01   1.00800           0
     17256 MEMB     88       SAPE     C25      CEL1    -0.150000       12.0110           0
     17257 MEMB     88       SAPE     H5R      HEL1     0.150000       1.00800           0
     17258 MEMB     88       SAPE     C26      CEL1    -0.150000       12.0110           0
     17259 MEMB     88       SAPE     H6R      HEL1     0.150000       1.00800           0
     17260 MEMB     88       SAPE     C27      CTL2    -0.180000       12.0110           0
     17261 MEMB     88       SAPE     H7R      HAL2     0.900000E-01   1.00800           0
     17262 MEMB     88       SAPE     H7S      HAL2     0.900000E-01   1.00800           0
     17263 MEMB     88       SAPE     C28      CEL1    -0.150000       12.0110           0
     17264 MEMB     88       SAPE     H8R      HEL1     0.150000       1.00800           0
     17265 MEMB     88       SAPE     C29      CEL1    -0.150000       12.0110           0
     17266 MEMB     88       SAPE     H9R      HEL1     0.150000       1.00800           0
     17267 MEMB     88       SAPE     C210     CTL2    -0.180000       12.0110           0
     17268 MEMB     88       SAPE     H10R     HAL2     0.900000E-01   1.00800           0
     17269 MEMB     88       SAPE     H10S     HAL2     0.900000E-01   1.00800           0
     17270 MEMB     88       SAPE     C211     CEL1    -0.150000       12.0110           0
     17271 MEMB     88       SAPE     H11R     HEL1     0.150000       1.00800           0
     17272 MEMB     88       SAPE     C212     CEL1    -0.150000       12.0110           0
     17273 MEMB     88       SAPE     H12R     HEL1     0.150000       1.00800           0
     17274 MEMB     88       SAPE     C213     CTL2    -0.180000       12.0110           0
     17275 MEMB     88       SAPE     H13R     HAL2     0.900000E-01   1.00800           0
     17276 MEMB     88       SAPE     H13S     HAL2     0.900000E-01   1.00800           0
     17277 MEMB     88       SAPE     C214     CEL1    -0.150000       12.0110           0
     17278 MEMB     88       SAPE     H14R     HEL1     0.150000       1.00800           0
     17279 MEMB     88       SAPE     C215     CEL1    -0.150000       12.0110           0
     17280 MEMB     88       SAPE     H15R     HEL1     0.150000       1.00800           0
     17281 MEMB     88       SAPE     C216     CTL2    -0.180000       12.0110           0
     17282 MEMB     88       SAPE     H16R     HAL2     0.900000E-01   1.00800           0
     17283 MEMB     88       SAPE     H16S     HAL2     0.900000E-01   1.00800           0
     17284 MEMB     88       SAPE     C217     CTL2    -0.180000       12.0110           0
     17285 MEMB     88       SAPE     H17R     HAL2     0.900000E-01   1.00800           0
     17286 MEMB     88       SAPE     H17S     HAL2     0.900000E-01   1.00800           0
     17287 MEMB     88       SAPE     C218     CTL2    -0.180000       12.0110           0
     17288 MEMB     88       SAPE     H18R     HAL2     0.900000E-01   1.00800           0
     17289 MEMB     88       SAPE     H18S     HAL2     0.900000E-01   1.00800           0
     17290 MEMB     88       SAPE     C219     CTL2    -0.180000       12.0110           0
     17291 MEMB     88       SAPE     H19R     HAL2     0.900000E-01   1.00800           0
     17292 MEMB     88       SAPE     H19S     HAL2     0.900000E-01   1.00800           0
     17293 MEMB     88       SAPE     C220     CTL3    -0.270000       12.0110           0
     17294 MEMB     88       SAPE     H20R     HAL3     0.900000E-01   1.00800           0
     17295 MEMB     88       SAPE     H20S     HAL3     0.900000E-01   1.00800           0
     17296 MEMB     88       SAPE     H20T     HAL3     0.900000E-01   1.00800           0
     17297 MEMB     88       SAPE     C33      CTL2    -0.180000       12.0110           0
     17298 MEMB     88       SAPE     H3X      HAL2     0.900000E-01   1.00800           0
     17299 MEMB     88       SAPE     H3Y      HAL2     0.900000E-01   1.00800           0
     17300 MEMB     88       SAPE     C34      CTL2    -0.180000       12.0110           0
     17301 MEMB     88       SAPE     H4X      HAL2     0.900000E-01   1.00800           0
     17302 MEMB     88       SAPE     H4Y      HAL2     0.900000E-01   1.00800           0
     17303 MEMB     88       SAPE     C35      CTL2    -0.180000       12.0110           0
     17304 MEMB     88       SAPE     H5X      HAL2     0.900000E-01   1.00800           0
     17305 MEMB     88       SAPE     H5Y      HAL2     0.900000E-01   1.00800           0
     17306 MEMB     88       SAPE     C36      CTL2    -0.180000       12.0110           0
     17307 MEMB     88       SAPE     H6X      HAL2     0.900000E-01   1.00800           0
     17308 MEMB     88       SAPE     H6Y      HAL2     0.900000E-01   1.00800           0
     17309 MEMB     88       SAPE     C37      CTL2    -0.180000       12.0110           0
     17310 MEMB     88       SAPE     H7X      HAL2     0.900000E-01   1.00800           0
     17311 MEMB     88       SAPE     H7Y      HAL2     0.900000E-01   1.00800           0
     17312 MEMB     88       SAPE     C38      CTL2    -0.180000       12.0110           0
     17313 MEMB     88       SAPE     H8X      HAL2     0.900000E-01   1.00800           0
     17314 MEMB     88       SAPE     H8Y      HAL2     0.900000E-01   1.00800           0
     17315 MEMB     88       SAPE     C39      CTL2    -0.180000       12.0110           0
     17316 MEMB     88       SAPE     H9X      HAL2     0.900000E-01   1.00800           0
     17317 MEMB     88       SAPE     H9Y      HAL2     0.900000E-01   1.00800           0
     17318 MEMB     88       SAPE     C310     CTL2    -0.180000       12.0110           0
     17319 MEMB     88       SAPE     H10X     HAL2     0.900000E-01   1.00800           0
     17320 MEMB     88       SAPE     H10Y     HAL2     0.900000E-01   1.00800           0
     17321 MEMB     88       SAPE     C311     CTL2    -0.180000       12.0110           0
     17322 MEMB     88       SAPE     H11X     HAL2     0.900000E-01   1.00800           0
     17323 MEMB     88       SAPE     H11Y     HAL2     0.900000E-01   1.00800           0
     17324 MEMB     88       SAPE     C312     CTL2    -0.180000       12.0110           0
     17325 MEMB     88       SAPE     H12X     HAL2     0.900000E-01   1.00800           0
     17326 MEMB     88       SAPE     H12Y     HAL2     0.900000E-01   1.00800           0
     17327 MEMB     88       SAPE     C313     CTL2    -0.180000       12.0110           0
     17328 MEMB     88       SAPE     H13X     HAL2     0.900000E-01   1.00800           0
     17329 MEMB     88       SAPE     H13Y     HAL2     0.900000E-01   1.00800           0
     17330 MEMB     88       SAPE     C314     CTL2    -0.180000       12.0110           0
     17331 MEMB     88       SAPE     H14X     HAL2     0.900000E-01   1.00800           0
     17332 MEMB     88       SAPE     H14Y     HAL2     0.900000E-01   1.00800           0
     17333 MEMB     88       SAPE     C315     CTL2    -0.180000       12.0110           0
     17334 MEMB     88       SAPE     H15X     HAL2     0.900000E-01   1.00800           0
     17335 MEMB     88       SAPE     H15Y     HAL2     0.900000E-01   1.00800           0
     17336 MEMB     88       SAPE     C316     CTL2    -0.180000       12.0110           0
     17337 MEMB     88       SAPE     H16X     HAL2     0.900000E-01   1.00800           0
     17338 MEMB     88       SAPE     H16Y     HAL2     0.900000E-01   1.00800           0
     17339 MEMB     88       SAPE     C317     CTL2    -0.180000       12.0110           0
     17340 MEMB     88       SAPE     H17X     HAL2     0.900000E-01   1.00800           0
     17341 MEMB     88       SAPE     H17Y     HAL2     0.900000E-01   1.00800           0
     17342 MEMB     88       SAPE     C318     CTL3    -0.270000       12.0110           0
     17343 MEMB     88       SAPE     H18X     HAL3     0.900000E-01   1.00800           0
     17344 MEMB     88       SAPE     H18Y     HAL3     0.900000E-01   1.00800           0
     17345 MEMB     88       SAPE     H18Z     HAL3     0.900000E-01   1.00800           0
     17346 MEMB     89       SAPE     N        NH3L    -0.300000       14.0070           0
     17347 MEMB     89       SAPE     HN1      HCL      0.330000       1.00800           0
     17348 MEMB     89       SAPE     HN2      HCL      0.330000       1.00800           0
     17349 MEMB     89       SAPE     HN3      HCL      0.330000       1.00800           0
     17350 MEMB     89       SAPE     C12      CTL2     0.130000       12.0110           0
     17351 MEMB     89       SAPE     H12A     HAL2     0.900000E-01   1.00800           0
     17352 MEMB     89       SAPE     H12B     HAL2     0.900000E-01   1.00800           0
     17353 MEMB     89       SAPE     C11      CTL2    -0.800000E-01   12.0110           0
     17354 MEMB     89       SAPE     H11A     HAL2     0.900000E-01   1.00800           0
     17355 MEMB     89       SAPE     H11B     HAL2     0.900000E-01   1.00800           0
     17356 MEMB     89       SAPE     P        PL       1.500000       30.9740           0
     17357 MEMB     89       SAPE     O13      O2L     -0.780000       15.9994           0
     17358 MEMB     89       SAPE     O14      O2L     -0.780000       15.9994           0
     17359 MEMB     89       SAPE     O12      OSLP    -0.570000       15.9994           0
     17360 MEMB     89       SAPE     O11      OSLP    -0.570000       15.9994           0
     17361 MEMB     89       SAPE     C1       CTL2    -0.800000E-01   12.0110           0
     17362 MEMB     89       SAPE     HA       HAL2     0.900000E-01   1.00800           0
     17363 MEMB     89       SAPE     HB       HAL2     0.900000E-01   1.00800           0
     17364 MEMB     89       SAPE     C2       CTL1     0.170000       12.0110           0
     17365 MEMB     89       SAPE     HS       HAL1     0.900000E-01   1.00800           0
     17366 MEMB     89       SAPE     O21      OSL     -0.490000       15.9994           0
     17367 MEMB     89       SAPE     C21      CL       0.900000       12.0110           0
     17368 MEMB     89       SAPE     O22      OBL     -0.630000       15.9994           0
     17369 MEMB     89       SAPE     C22      CTL2    -0.220000       12.0110           0
     17370 MEMB     89       SAPE     H2R      HAL2     0.900000E-01   1.00800           0
     17371 MEMB     89       SAPE     H2S      HAL2     0.900000E-01   1.00800           0
     17372 MEMB     89       SAPE     C3       CTL2     0.800000E-01   12.0110           0
     17373 MEMB     89       SAPE     HX       HAL2     0.900000E-01   1.00800           0
     17374 MEMB     89       SAPE     HY       HAL2     0.900000E-01   1.00800           0
     17375 MEMB     89       SAPE     O31      OSL     -0.490000       15.9994           0
     17376 MEMB     89       SAPE     C31      CL       0.900000       12.0110           0
     17377 MEMB     89       SAPE     O32      OBL     -0.630000       15.9994           0
     17378 MEMB     89       SAPE     C32      CTL2    -0.220000       12.0110           0
     17379 MEMB     89       SAPE     H2X      HAL2     0.900000E-01   1.00800           0
     17380 MEMB     89       SAPE     H2Y      HAL2     0.900000E-01   1.00800           0
     17381 MEMB     89       SAPE     C23      CTL2    -0.180000       12.0110           0
     17382 MEMB     89       SAPE     H3R      HAL2     0.900000E-01   1.00800           0
     17383 MEMB     89       SAPE     H3S      HAL2     0.900000E-01   1.00800           0
     17384 MEMB     89       SAPE     C24      CTL2    -0.180000       12.0110           0
     17385 MEMB     89       SAPE     H4R      HAL2     0.900000E-01   1.00800           0
     17386 MEMB     89       SAPE     H4S      HAL2     0.900000E-01   1.00800           0
     17387 MEMB     89       SAPE     C25      CEL1    -0.150000       12.0110           0
     17388 MEMB     89       SAPE     H5R      HEL1     0.150000       1.00800           0
     17389 MEMB     89       SAPE     C26      CEL1    -0.150000       12.0110           0
     17390 MEMB     89       SAPE     H6R      HEL1     0.150000       1.00800           0
     17391 MEMB     89       SAPE     C27      CTL2    -0.180000       12.0110           0
     17392 MEMB     89       SAPE     H7R      HAL2     0.900000E-01   1.00800           0
     17393 MEMB     89       SAPE     H7S      HAL2     0.900000E-01   1.00800           0
     17394 MEMB     89       SAPE     C28      CEL1    -0.150000       12.0110           0
     17395 MEMB     89       SAPE     H8R      HEL1     0.150000       1.00800           0
     17396 MEMB     89       SAPE     C29      CEL1    -0.150000       12.0110           0
     17397 MEMB     89       SAPE     H9R      HEL1     0.150000       1.00800           0
     17398 MEMB     89       SAPE     C210     CTL2    -0.180000       12.0110           0
     17399 MEMB     89       SAPE     H10R     HAL2     0.900000E-01   1.00800           0
     17400 MEMB     89       SAPE     H10S     HAL2     0.900000E-01   1.00800           0
     17401 MEMB     89       SAPE     C211     CEL1    -0.150000       12.0110           0
     17402 MEMB     89       SAPE     H11R     HEL1     0.150000       1.00800           0
     17403 MEMB     89       SAPE     C212     CEL1    -0.150000       12.0110           0
     17404 MEMB     89       SAPE     H12R     HEL1     0.150000       1.00800           0
     17405 MEMB     89       SAPE     C213     CTL2    -0.180000       12.0110           0
     17406 MEMB     89       SAPE     H13R     HAL2     0.900000E-01   1.00800           0
     17407 MEMB     89       SAPE     H13S     HAL2     0.900000E-01   1.00800           0
     17408 MEMB     89       SAPE     C214     CEL1    -0.150000       12.0110           0
     17409 MEMB     89       SAPE     H14R     HEL1     0.150000       1.00800           0
     17410 MEMB     89       SAPE     C215     CEL1    -0.150000       12.0110           0
     17411 MEMB     89       SAPE     H15R     HEL1     0.150000       1.00800           0
     17412 MEMB     89       SAPE     C216     CTL2    -0.180000       12.0110           0
     17413 MEMB     89       SAPE     H16R     HAL2     0.900000E-01   1.00800           0
     17414 MEMB     89       SAPE     H16S     HAL2     0.900000E-01   1.00800           0
     17415 MEMB     89       SAPE     C217     CTL2    -0.180000       12.0110           0
     17416 MEMB     89       SAPE     H17R     HAL2     0.900000E-01   1.00800           0
     17417 MEMB     89       SAPE     H17S     HAL2     0.900000E-01   1.00800           0
     17418 MEMB     89       SAPE     C218     CTL2    -0.180000       12.0110           0
     17419 MEMB     89       SAPE     H18R     HAL2     0.900000E-01   1.00800           0
     17420 MEMB     89       SAPE     H18S     HAL2     0.900000E-01   1.00800           0
     17421 MEMB     89       SAPE     C219     CTL2    -0.180000       12.0110           0
     17422 MEMB     89       SAPE     H19R     HAL2     0.900000E-01   1.00800           0
     17423 MEMB     89       SAPE     H19S     HAL2     0.900000E-01   1.00800           0
     17424 MEMB     89       SAPE     C220     CTL3    -0.270000       12.0110           0
     17425 MEMB     89       SAPE     H20R     HAL3     0.900000E-01   1.00800           0
     17426 MEMB     89       SAPE     H20S     HAL3     0.900000E-01   1.00800           0
     17427 MEMB     89       SAPE     H20T     HAL3     0.900000E-01   1.00800           0
     17428 MEMB     89       SAPE     C33      CTL2    -0.180000       12.0110           0
     17429 MEMB     89       SAPE     H3X      HAL2     0.900000E-01   1.00800           0
     17430 MEMB     89       SAPE     H3Y      HAL2     0.900000E-01   1.00800           0
     17431 MEMB     89       SAPE     C34      CTL2    -0.180000       12.0110           0
     17432 MEMB     89       SAPE     H4X      HAL2     0.900000E-01   1.00800           0
     17433 MEMB     89       SAPE     H4Y      HAL2     0.900000E-01   1.00800           0
     17434 MEMB     89       SAPE     C35      CTL2    -0.180000       12.0110           0
     17435 MEMB     89       SAPE     H5X      HAL2     0.900000E-01   1.00800           0
     17436 MEMB     89       SAPE     H5Y      HAL2     0.900000E-01   1.00800           0
     17437 MEMB     89       SAPE     C36      CTL2    -0.180000       12.0110           0
     17438 MEMB     89       SAPE     H6X      HAL2     0.900000E-01   1.00800           0
     17439 MEMB     89       SAPE     H6Y      HAL2     0.900000E-01   1.00800           0
     17440 MEMB     89       SAPE     C37      CTL2    -0.180000       12.0110           0
     17441 MEMB     89       SAPE     H7X      HAL2     0.900000E-01   1.00800           0
     17442 MEMB     89       SAPE     H7Y      HAL2     0.900000E-01   1.00800           0
     17443 MEMB     89       SAPE     C38      CTL2    -0.180000       12.0110           0
     17444 MEMB     89       SAPE     H8X      HAL2     0.900000E-01   1.00800           0
     17445 MEMB     89       SAPE     H8Y      HAL2     0.900000E-01   1.00800           0
     17446 MEMB     89       SAPE     C39      CTL2    -0.180000       12.0110           0
     17447 MEMB     89       SAPE     H9X      HAL2     0.900000E-01   1.00800           0
     17448 MEMB     89       SAPE     H9Y      HAL2     0.900000E-01   1.00800           0
     17449 MEMB     89       SAPE     C310     CTL2    -0.180000       12.0110           0
     17450 MEMB     89       SAPE     H10X     HAL2     0.900000E-01   1.00800           0
     17451 MEMB     89       SAPE     H10Y     HAL2     0.900000E-01   1.00800           0
     17452 MEMB     89       SAPE     C311     CTL2    -0.180000       12.0110           0
     17453 MEMB     89       SAPE     H11X     HAL2     0.900000E-01   1.00800           0
     17454 MEMB     89       SAPE     H11Y     HAL2     0.900000E-01   1.00800           0
     17455 MEMB     89       SAPE     C312     CTL2    -0.180000       12.0110           0
     17456 MEMB     89       SAPE     H12X     HAL2     0.900000E-01   1.00800           0
     17457 MEMB     89       SAPE     H12Y     HAL2     0.900000E-01   1.00800           0
     17458 MEMB     89       SAPE     C313     CTL2    -0.180000       12.0110           0
     17459 MEMB     89       SAPE     H13X     HAL2     0.900000E-01   1.00800           0
     17460 MEMB     89       SAPE     H13Y     HAL2     0.900000E-01   1.00800           0
     17461 MEMB     89       SAPE     C314     CTL2    -0.180000       12.0110           0
     17462 MEMB     89       SAPE     H14X     HAL2     0.900000E-01   1.00800           0
     17463 MEMB     89       SAPE     H14Y     HAL2     0.900000E-01   1.00800           0
     17464 MEMB     89       SAPE     C315     CTL2    -0.180000       12.0110           0
     17465 MEMB     89       SAPE     H15X     HAL2     0.900000E-01   1.00800           0
     17466 MEMB     89       SAPE     H15Y     HAL2     0.900000E-01   1.00800           0
     17467 MEMB     89       SAPE     C316     CTL2    -0.180000       12.0110           0
     17468 MEMB     89       SAPE     H16X     HAL2     0.900000E-01   1.00800           0
     17469 MEMB     89       SAPE     H16Y     HAL2     0.900000E-01   1.00800           0
     17470 MEMB     89       SAPE     C317     CTL2    -0.180000       12.0110           0
     17471 MEMB     89       SAPE     H17X     HAL2     0.900000E-01   1.00800           0
     17472 MEMB     89       SAPE     H17Y     HAL2     0.900000E-01   1.00800           0
     17473 MEMB     89       SAPE     C318     CTL3    -0.270000       12.0110           0
     17474 MEMB     89       SAPE     H18X     HAL3     0.900000E-01   1.00800           0
     17475 MEMB     89       SAPE     H18Y     HAL3     0.900000E-01   1.00800           0
     17476 MEMB     89       SAPE     H18Z     HAL3     0.900000E-01   1.00800           0
     17477 MEMB     90       SAPE     N        NH3L    -0.300000       14.0070           0
     17478 MEMB     90       SAPE     HN1      HCL      0.330000       1.00800           0
     17479 MEMB     90       SAPE     HN2      HCL      0.330000       1.00800           0
     17480 MEMB     90       SAPE     HN3      HCL      0.330000       1.00800           0
     17481 MEMB     90       SAPE     C12      CTL2     0.130000       12.0110           0
     17482 MEMB     90       SAPE     H12A     HAL2     0.900000E-01   1.00800           0
     17483 MEMB     90       SAPE     H12B     HAL2     0.900000E-01   1.00800           0
     17484 MEMB     90       SAPE     C11      CTL2    -0.800000E-01   12.0110           0
     17485 MEMB     90       SAPE     H11A     HAL2     0.900000E-01   1.00800           0
     17486 MEMB     90       SAPE     H11B     HAL2     0.900000E-01   1.00800           0
     17487 MEMB     90       SAPE     P        PL       1.500000       30.9740           0
     17488 MEMB     90       SAPE     O13      O2L     -0.780000       15.9994           0
     17489 MEMB     90       SAPE     O14      O2L     -0.780000       15.9994           0
     17490 MEMB     90       SAPE     O12      OSLP    -0.570000       15.9994           0
     17491 MEMB     90       SAPE     O11      OSLP    -0.570000       15.9994           0
     17492 MEMB     90       SAPE     C1       CTL2    -0.800000E-01   12.0110           0
     17493 MEMB     90       SAPE     HA       HAL2     0.900000E-01   1.00800           0
     17494 MEMB     90       SAPE     HB       HAL2     0.900000E-01   1.00800           0
     17495 MEMB     90       SAPE     C2       CTL1     0.170000       12.0110           0
     17496 MEMB     90       SAPE     HS       HAL1     0.900000E-01   1.00800           0
     17497 MEMB     90       SAPE     O21      OSL     -0.490000       15.9994           0
     17498 MEMB     90       SAPE     C21      CL       0.900000       12.0110           0
     17499 MEMB     90       SAPE     O22      OBL     -0.630000       15.9994           0
     17500 MEMB     90       SAPE     C22      CTL2    -0.220000       12.0110           0
     17501 MEMB     90       SAPE     H2R      HAL2     0.900000E-01   1.00800           0
     17502 MEMB     90       SAPE     H2S      HAL2     0.900000E-01   1.00800           0
     17503 MEMB     90       SAPE     C3       CTL2     0.800000E-01   12.0110           0
     17504 MEMB     90       SAPE     HX       HAL2     0.900000E-01   1.00800           0
     17505 MEMB     90       SAPE     HY       HAL2     0.900000E-01   1.00800           0
     17506 MEMB     90       SAPE     O31      OSL     -0.490000       15.9994           0
     17507 MEMB     90       SAPE     C31      CL       0.900000       12.0110           0
     17508 MEMB     90       SAPE     O32      OBL     -0.630000       15.9994           0
     17509 MEMB     90       SAPE     C32      CTL2    -0.220000       12.0110           0
     17510 MEMB     90       SAPE     H2X      HAL2     0.900000E-01   1.00800           0
     17511 MEMB     90       SAPE     H2Y      HAL2     0.900000E-01   1.00800           0
     17512 MEMB     90       SAPE     C23      CTL2    -0.180000       12.0110           0
     17513 MEMB     90       SAPE     H3R      HAL2     0.900000E-01   1.00800           0
     17514 MEMB     90       SAPE     H3S      HAL2     0.900000E-01   1.00800           0
     17515 MEMB     90       SAPE     C24      CTL2    -0.180000       12.0110           0
     17516 MEMB     90       SAPE     H4R      HAL2     0.900000E-01   1.00800           0
     17517 MEMB     90       SAPE     H4S      HAL2     0.900000E-01   1.00800           0
     17518 MEMB     90       SAPE     C25      CEL1    -0.150000       12.0110           0
     17519 MEMB     90       SAPE     H5R      HEL1     0.150000       1.00800           0
     17520 MEMB     90       SAPE     C26      CEL1    -0.150000       12.0110           0
     17521 MEMB     90       SAPE     H6R      HEL1     0.150000       1.00800           0
     17522 MEMB     90       SAPE     C27      CTL2    -0.180000       12.0110           0
     17523 MEMB     90       SAPE     H7R      HAL2     0.900000E-01   1.00800           0
     17524 MEMB     90       SAPE     H7S      HAL2     0.900000E-01   1.00800           0
     17525 MEMB     90       SAPE     C28      CEL1    -0.150000       12.0110           0
     17526 MEMB     90       SAPE     H8R      HEL1     0.150000       1.00800           0
     17527 MEMB     90       SAPE     C29      CEL1    -0.150000       12.0110           0
     17528 MEMB     90       SAPE     H9R      HEL1     0.150000       1.00800           0
     17529 MEMB     90       SAPE     C210     CTL2    -0.180000       12.0110           0
     17530 MEMB     90       SAPE     H10R     HAL2     0.900000E-01   1.00800           0
     17531 MEMB     90       SAPE     H10S     HAL2     0.900000E-01   1.00800           0
     17532 MEMB     90       SAPE     C211     CEL1    -0.150000       12.0110           0
     17533 MEMB     90       SAPE     H11R     HEL1     0.150000       1.00800           0
     17534 MEMB     90       SAPE     C212     CEL1    -0.150000       12.0110           0
     17535 MEMB     90       SAPE     H12R     HEL1     0.150000       1.00800           0
     17536 MEMB     90       SAPE     C213     CTL2    -0.180000       12.0110           0
     17537 MEMB     90       SAPE     H13R     HAL2     0.900000E-01   1.00800           0
     17538 MEMB     90       SAPE     H13S     HAL2     0.900000E-01   1.00800           0
     17539 MEMB     90       SAPE     C214     CEL1    -0.150000       12.0110           0
     17540 MEMB     90       SAPE     H14R     HEL1     0.150000       1.00800           0
     17541 MEMB     90       SAPE     C215     CEL1    -0.150000       12.0110           0
     17542 MEMB     90       SAPE     H15R     HEL1     0.150000       1.00800           0
     17543 MEMB     90       SAPE     C216     CTL2    -0.180000       12.0110           0
     17544 MEMB     90       SAPE     H16R     HAL2     0.900000E-01   1.00800           0
     17545 MEMB     90       SAPE     H16S     HAL2     0.900000E-01   1.00800           0
     17546 MEMB     90       SAPE     C217     CTL2    -0.180000       12.0110           0
     17547 MEMB     90       SAPE     H17R     HAL2     0.900000E-01   1.00800           0
     17548 MEMB     90       SAPE     H17S     HAL2     0.900000E-01   1.00800           0
     17549 MEMB     90       SAPE     C218     CTL2    -0.180000       12.0110           0
     17550 MEMB     90       SAPE     H18R     HAL2     0.900000E-01   1.00800           0
     17551 MEMB     90       SAPE     H18S     HAL2     0.900000E-01   1.00800           0
     17552 MEMB     90       SAPE     C219     CTL2    -0.180000       12.0110           0
     17553 MEMB     90       SAPE     H19R     HAL2     0.900000E-01   1.00800           0
     17554 MEMB     90       SAPE     H19S     HAL2     0.900000E-01   1.00800           0
     17555 MEMB     90       SAPE     C220     CTL3    -0.270000       12.0110           0
     17556 MEMB     90       SAPE     H20R     HAL3     0.900000E-01   1.00800           0
     17557 MEMB     90       SAPE     H20S     HAL3     0.900000E-01   1.00800           0
     17558 MEMB     90       SAPE     H20T     HAL3     0.900000E-01   1.00800           0
     17559 MEMB     90       SAPE     C33      CTL2    -0.180000       12.0110           0
     17560 MEMB     90       SAPE     H3X      HAL2     0.900000E-01   1.00800           0
     17561 MEMB     90       SAPE     H3Y      HAL2     0.900000E-01   1.00800           0
     17562 MEMB     90       SAPE     C34      CTL2    -0.180000       12.0110           0
     17563 MEMB     90       SAPE     H4X      HAL2     0.900000E-01   1.00800           0
     17564 MEMB     90       SAPE     H4Y      HAL2     0.900000E-01   1.00800           0
     17565 MEMB     90       SAPE     C35      CTL2    -0.180000       12.0110           0
     17566 MEMB     90       SAPE     H5X      HAL2     0.900000E-01   1.00800           0
     17567 MEMB     90       SAPE     H5Y      HAL2     0.900000E-01   1.00800           0
     17568 MEMB     90       SAPE     C36      CTL2    -0.180000       12.0110           0
     17569 MEMB     90       SAPE     H6X      HAL2     0.900000E-01   1.00800           0
     17570 MEMB     90       SAPE     H6Y      HAL2     0.900000E-01   1.00800           0
     17571 MEMB     90       SAPE     C37      CTL2    -0.180000       12.0110           0
     17572 MEMB     90       SAPE     H7X      HAL2     0.900000E-01   1.00800           0
     17573 MEMB     90       SAPE     H7Y      HAL2     0.900000E-01   1.00800           0
     17574 MEMB     90       SAPE     C38      CTL2    -0.180000       12.0110           0
     17575 MEMB     90       SAPE     H8X      HAL2     0.900000E-01   1.00800           0
     17576 MEMB     90       SAPE     H8Y      HAL2     0.900000E-01   1.00800           0
     17577 MEMB     90       SAPE     C39      CTL2    -0.180000       12.0110           0
     17578 MEMB     90       SAPE     H9X      HAL2     0.900000E-01   1.00800           0
     17579 MEMB     90       SAPE     H9Y      HAL2     0.900000E-01   1.00800           0
     17580 MEMB     90       SAPE     C310     CTL2    -0.180000       12.0110           0
     17581 MEMB     90       SAPE     H10X     HAL2     0.900000E-01   1.00800           0
     17582 MEMB     90       SAPE     H10Y     HAL2     0.900000E-01   1.00800           0
     17583 MEMB     90       SAPE     C311     CTL2    -0.180000       12.0110           0
     17584 MEMB     90       SAPE     H11X     HAL2     0.900000E-01   1.00800           0
     17585 MEMB     90       SAPE     H11Y     HAL2     0.900000E-01   1.00800           0
     17586 MEMB     90       SAPE     C312     CTL2    -0.180000       12.0110           0
     17587 MEMB     90       SAPE     H12X     HAL2     0.900000E-01   1.00800           0
     17588 MEMB     90       SAPE     H12Y     HAL2     0.900000E-01   1.00800           0
     17589 MEMB     90       SAPE     C313     CTL2    -0.180000       12.0110           0
     17590 MEMB     90       SAPE     H13X     HAL2     0.900000E-01   1.00800           0
     17591 MEMB     90       SAPE     H13Y     HAL2     0.900000E-01   1.00800           0
     17592 MEMB     90       SAPE     C314     CTL2    -0.180000       12.0110           0
     17593 MEMB     90       SAPE     H14X     HAL2     0.900000E-01   1.00800           0
     17594 MEMB     90       SAPE     H14Y     HAL2     0.900000E-01   1.00800           0
     17595 MEMB     90       SAPE     C315     CTL2    -0.180000       12.0110           0
     17596 MEMB     90       SAPE     H15X     HAL2     0.900000E-01   1.00800           0
     17597 MEMB     90       SAPE     H15Y     HAL2     0.900000E-01   1.00800           0
     17598 MEMB     90       SAPE     C316     CTL2    -0.180000       12.0110           0
     17599 MEMB     90       SAPE     H16X     HAL2     0.900000E-01   1.00800           0
     17600 MEMB     90       SAPE     H16Y     HAL2     0.900000E-01   1.00800           0
     17601 MEMB     90       SAPE     C317     CTL2    -0.180000       12.0110           0
     17602 MEMB     90       SAPE     H17X     HAL2     0.900000E-01   1.00800           0
     17603 MEMB     90       SAPE     H17Y     HAL2     0.900000E-01   1.00800           0
     17604 MEMB     90       SAPE     C318     CTL3    -0.270000       12.0110           0
     17605 MEMB     90       SAPE     H18X     HAL3     0.900000E-01   1.00800           0
     17606 MEMB     90       SAPE     H18Y     HAL3     0.900000E-01   1.00800           0
     17607 MEMB     90       SAPE     H18Z     HAL3     0.900000E-01   1.00800           0
     17608 MEMB     93       SAPE     N        NH3L    -0.300000       14.0070           0
     17609 MEMB     93       SAPE     HN1      HCL      0.330000       1.00800           0
     17610 MEMB     93       SAPE     HN2      HCL      0.330000       1.00800           0
     17611 MEMB     93       SAPE     HN3      HCL      0.330000       1.00800           0
     17612 MEMB     93       SAPE     C12      CTL2     0.130000       12.0110           0
     17613 MEMB     93       SAPE     H12A     HAL2     0.900000E-01   1.00800           0
     17614 MEMB     93       SAPE     H12B     HAL2     0.900000E-01   1.00800           0
     17615 MEMB     93       SAPE     C11      CTL2    -0.800000E-01   12.0110           0
     17616 MEMB     93       SAPE     H11A     HAL2     0.900000E-01   1.00800           0
     17617 MEMB     93       SAPE     H11B     HAL2     0.900000E-01   1.00800           0
     17618 MEMB     93       SAPE     P        PL       1.500000       30.9740           0
     17619 MEMB     93       SAPE     O13      O2L     -0.780000       15.9994           0
     17620 MEMB     93       SAPE     O14      O2L     -0.780000       15.9994           0
     17621 MEMB     93       SAPE     O12      OSLP    -0.570000       15.9994           0
     17622 MEMB     93       SAPE     O11      OSLP    -0.570000       15.9994           0
     17623 MEMB     93       SAPE     C1       CTL2    -0.800000E-01   12.0110           0
     17624 MEMB     93       SAPE     HA       HAL2     0.900000E-01   1.00800           0
     17625 MEMB     93       SAPE     HB       HAL2     0.900000E-01   1.00800           0
     17626 MEMB     93       SAPE     C2       CTL1     0.170000       12.0110           0
     17627 MEMB     93       SAPE     HS       HAL1     0.900000E-01   1.00800           0
     17628 MEMB     93       SAPE     O21      OSL     -0.490000       15.9994           0
     17629 MEMB     93       SAPE     C21      CL       0.900000       12.0110           0
     17630 MEMB     93       SAPE     O22      OBL     -0.630000       15.9994           0
     17631 MEMB     93       SAPE     C22      CTL2    -0.220000       12.0110           0
     17632 MEMB     93       SAPE     H2R      HAL2     0.900000E-01   1.00800           0
     17633 MEMB     93       SAPE     H2S      HAL2     0.900000E-01   1.00800           0
     17634 MEMB     93       SAPE     C3       CTL2     0.800000E-01   12.0110           0
     17635 MEMB     93       SAPE     HX       HAL2     0.900000E-01   1.00800           0
     17636 MEMB     93       SAPE     HY       HAL2     0.900000E-01   1.00800           0
     17637 MEMB     93       SAPE     O31      OSL     -0.490000       15.9994           0
     17638 MEMB     93       SAPE     C31      CL       0.900000       12.0110           0
     17639 MEMB     93       SAPE     O32      OBL     -0.630000       15.9994           0
     17640 MEMB     93       SAPE     C32      CTL2    -0.220000       12.0110           0
     17641 MEMB     93       SAPE     H2X      HAL2     0.900000E-01   1.00800           0
     17642 MEMB     93       SAPE     H2Y      HAL2     0.900000E-01   1.00800           0
     17643 MEMB     93       SAPE     C23      CTL2    -0.180000       12.0110           0
     17644 MEMB     93       SAPE     H3R      HAL2     0.900000E-01   1.00800           0
     17645 MEMB     93       SAPE     H3S      HAL2     0.900000E-01   1.00800           0
     17646 MEMB     93       SAPE     C24      CTL2    -0.180000       12.0110           0
     17647 MEMB     93       SAPE     H4R      HAL2     0.900000E-01   1.00800           0
     17648 MEMB     93       SAPE     H4S      HAL2     0.900000E-01   1.00800           0
     17649 MEMB     93       SAPE     C25      CEL1    -0.150000       12.0110           0
     17650 MEMB     93       SAPE     H5R      HEL1     0.150000       1.00800           0
     17651 MEMB     93       SAPE     C26      CEL1    -0.150000       12.0110           0
     17652 MEMB     93       SAPE     H6R      HEL1     0.150000       1.00800           0
     17653 MEMB     93       SAPE     C27      CTL2    -0.180000       12.0110           0
     17654 MEMB     93       SAPE     H7R      HAL2     0.900000E-01   1.00800           0
     17655 MEMB     93       SAPE     H7S      HAL2     0.900000E-01   1.00800           0
     17656 MEMB     93       SAPE     C28      CEL1    -0.150000       12.0110           0
     17657 MEMB     93       SAPE     H8R      HEL1     0.150000       1.00800           0
     17658 MEMB     93       SAPE     C29      CEL1    -0.150000       12.0110           0
     17659 MEMB     93       SAPE     H9R      HEL1     0.150000       1.00800           0
     17660 MEMB     93       SAPE     C210     CTL2    -0.180000       12.0110           0
     17661 MEMB     93       SAPE     H10R     HAL2     0.900000E-01   1.00800           0
     17662 MEMB     93       SAPE     H10S     HAL2     0.900000E-01   1.00800           0
     17663 MEMB     93       SAPE     C211     CEL1    -0.150000       12.0110           0
     17664 MEMB     93       SAPE     H11R     HEL1     0.150000       1.00800           0
     17665 MEMB     93       SAPE     C212     CEL1    -0.150000       12.0110           0
     17666 MEMB     93       SAPE     H12R     HEL1     0.150000       1.00800           0
     17667 MEMB     93       SAPE     C213     CTL2    -0.180000       12.0110           0
     17668 MEMB     93       SAPE     H13R     HAL2     0.900000E-01   1.00800           0
     17669 MEMB     93       SAPE     H13S     HAL2     0.900000E-01   1.00800           0
     17670 MEMB     93       SAPE     C214     CEL1    -0.150000       12.0110           0
     17671 MEMB     93       SAPE     H14R     HEL1     0.150000       1.00800           0
     17672 MEMB     93       SAPE     C215     CEL1    -0.150000       12.0110           0
     17673 MEMB     93       SAPE     H15R     HEL1     0.150000       1.00800           0
     17674 MEMB     93       SAPE     C216     CTL2    -0.180000       12.0110           0
     17675 MEMB     93       SAPE     H16R     HAL2     0.900000E-01   1.00800           0
     17676 MEMB     93       SAPE     H16S     HAL2     0.900000E-01   1.00800           0
     17677 MEMB     93       SAPE     C217     CTL2    -0.180000       12.0110           0
     17678 MEMB     93       SAPE     H17R     HAL2     0.900000E-01   1.00800           0
     17679 MEMB     93       SAPE     H17S     HAL2     0.900000E-01   1.00800           0
     17680 MEMB     93       SAPE     C218     CTL2    -0.180000       12.0110           0
     17681 MEMB     93       SAPE     H18R     HAL2     0.900000E-01   1.00800           0
     17682 MEMB     93       SAPE     H18S     HAL2     0.900000E-01   1.00800           0
     17683 MEMB     93       SAPE     C219     CTL2    -0.180000       12.0110           0
     17684 MEMB     93       SAPE     H19R     HAL2     0.900000E-01   1.00800           0
     17685 MEMB     93       SAPE     H19S     HAL2     0.900000E-01   1.00800           0
     17686 MEMB     93       SAPE     C220     CTL3    -0.270000       12.0110           0
     17687 MEMB     93       SAPE     H20R     HAL3     0.900000E-01   1.00800           0
     17688 MEMB     93       SAPE     H20S     HAL3     0.900000E-01   1.00800           0
     17689 MEMB     93       SAPE     H20T     HAL3     0.900000E-01   1.00800           0
     17690 MEMB     93       SAPE     C33      CTL2    -0.180000       12.0110           0
     17691 MEMB     93       SAPE     H3X      HAL2     0.900000E-01   1.00800           0
     17692 MEMB     93       SAPE     H3Y      HAL2     0.900000E-01   1.00800           0
     17693 MEMB     93       SAPE     C34      CTL2    -0.180000       12.0110           0
     17694 MEMB     93       SAPE     H4X      HAL2     0.900000E-01   1.00800           0
     17695 MEMB     93       SAPE     H4Y      HAL2     0.900000E-01   1.00800           0
     17696 MEMB     93       SAPE     C35      CTL2    -0.180000       12.0110           0
     17697 MEMB     93       SAPE     H5X      HAL2     0.900000E-01   1.00800           0
     17698 MEMB     93       SAPE     H5Y      HAL2     0.900000E-01   1.00800           0
     17699 MEMB     93       SAPE     C36      CTL2    -0.180000       12.0110           0
     17700 MEMB     93       SAPE     H6X      HAL2     0.900000E-01   1.00800           0
     17701 MEMB     93       SAPE     H6Y      HAL2     0.900000E-01   1.00800           0
     17702 MEMB     93       SAPE     C37      CTL2    -0.180000       12.0110           0
     17703 MEMB     93       SAPE     H7X      HAL2     0.900000E-01   1.00800           0
     17704 MEMB     93       SAPE     H7Y      HAL2     0.900000E-01   1.00800           0
     17705 MEMB     93       SAPE     C38      CTL2    -0.180000       12.0110           0
     17706 MEMB     93       SAPE     H8X      HAL2     0.900000E-01   1.00800           0
     17707 MEMB     93       SAPE     H8Y      HAL2     0.900000E-01   1.00800           0
     17708 MEMB     93       SAPE     C39      CTL2    -0.180000       12.0110           0
     17709 MEMB     93       SAPE     H9X      HAL2     0.900000E-01   1.00800           0
     17710 MEMB     93       SAPE     H9Y      HAL2     0.900000E-01   1.00800           0
     17711 MEMB     93       SAPE     C310     CTL2    -0.180000       12.0110           0
     17712 MEMB     93       SAPE     H10X     HAL2     0.900000E-01   1.00800           0
     17713 MEMB     93       SAPE     H10Y     HAL2     0.900000E-01   1.00800           0
     17714 MEMB     93       SAPE     C311     CTL2    -0.180000       12.0110           0
     17715 MEMB     93       SAPE     H11X     HAL2     0.900000E-01   1.00800           0
     17716 MEMB     93       SAPE     H11Y     HAL2     0.900000E-01   1.00800           0
     17717 MEMB     93       SAPE     C312     CTL2    -0.180000       12.0110           0
     17718 MEMB     93       SAPE     H12X     HAL2     0.900000E-01   1.00800           0
     17719 MEMB     93       SAPE     H12Y     HAL2     0.900000E-01   1.00800           0
     17720 MEMB     93       SAPE     C313     CTL2    -0.180000       12.0110           0
     17721 MEMB     93       SAPE     H13X     HAL2     0.900000E-01   1.00800           0
     17722 MEMB     93       SAPE     H13Y     HAL2     0.900000E-01   1.00800           0
     17723 MEMB     93       SAPE     C314     CTL2    -0.180000       12.0110           0
     17724 MEMB     93       SAPE     H14X     HAL2     0.900000E-01   1.00800           0
     17725 MEMB     93       SAPE     H14Y     HAL2     0.900000E-01   1.00800           0
     17726 MEMB     93       SAPE     C315     CTL2    -0.180000       12.0110           0
     17727 MEMB     93       SAPE     H15X     HAL2     0.900000E-01   1.00800           0
     17728 MEMB     93       SAPE     H15Y     HAL2     0.900000E-01   1.00800           0
     17729 MEMB     93       SAPE     C316     CTL2    -0.180000       12.0110           0
     17730 MEMB     93       SAPE     H16X     HAL2     0.900000E-01   1.00800           0
     17731 MEMB     93       SAPE     H16Y     HAL2     0.900000E-01   1.00800           0
     17732 MEMB     93       SAPE     C317     CTL2    -0.180000       12.0110           0
     17733 MEMB     93       SAPE     H17X     HAL2     0.900000E-01   1.00800           0
     17734 MEMB     93       SAPE     H17Y     HAL2     0.900000E-01   1.00800           0
     17735 MEMB     93       SAPE     C318     CTL3    -0.270000       12.0110           0
     17736 MEMB     93       SAPE     H18X     HAL3     0.900000E-01   1.00800           0
     17737 MEMB     93       SAPE     H18Y     HAL3     0.900000E-01   1.00800           0
     17738 MEMB     93       SAPE     H18Z     HAL3     0.900000E-01   1.00800           0
     17739 MEMB     100      SAPE     N        NH3L    -0.300000       14.0070           0
     17740 MEMB     100      SAPE     HN1      HCL      0.330000       1.00800           0
     17741 MEMB     100      SAPE     HN2      HCL      0.330000       1.00800           0
     17742 MEMB     100      SAPE     HN3      HCL      0.330000       1.00800           0
     17743 MEMB     100      SAPE     C12      CTL2     0.130000       12.0110           0
     17744 MEMB     100      SAPE     H12A     HAL2     0.900000E-01   1.00800           0
     17745 MEMB     100      SAPE     H12B     HAL2     0.900000E-01   1.00800           0
     17746 MEMB     100      SAPE     C11      CTL2    -0.800000E-01   12.0110           0
     17747 MEMB     100      SAPE     H11A     HAL2     0.900000E-01   1.00800           0
     17748 MEMB     100      SAPE     H11B     HAL2     0.900000E-01   1.00800           0
     17749 MEMB     100      SAPE     P        PL       1.500000       30.9740           0
     17750 MEMB     100      SAPE     O13      O2L     -0.780000       15.9994           0
     17751 MEMB     100      SAPE     O14      O2L     -0.780000       15.9994           0
     17752 MEMB     100      SAPE     O12      OSLP    -0.570000       15.9994           0
     17753 MEMB     100      SAPE     O11      OSLP    -0.570000       15.9994           0
     17754 MEMB     100      SAPE     C1       CTL2    -0.800000E-01   12.0110           0
     17755 MEMB     100      SAPE     HA       HAL2     0.900000E-01   1.00800           0
     17756 MEMB     100      SAPE     HB       HAL2     0.900000E-01   1.00800           0
     17757 MEMB     100      SAPE     C2       CTL1     0.170000       12.0110           0
     17758 MEMB     100      SAPE     HS       HAL1     0.900000E-01   1.00800           0
     17759 MEMB     100      SAPE     O21      OSL     -0.490000       15.9994           0
     17760 MEMB     100      SAPE     C21      CL       0.900000       12.0110           0
     17761 MEMB     100      SAPE     O22      OBL     -0.630000       15.9994           0
     17762 MEMB     100      SAPE     C22      CTL2    -0.220000       12.0110           0
     17763 MEMB     100      SAPE     H2R      HAL2     0.900000E-01   1.00800           0
     17764 MEMB     100      SAPE     H2S      HAL2     0.900000E-01   1.00800           0
     17765 MEMB     100      SAPE     C3       CTL2     0.800000E-01   12.0110           0
     17766 MEMB     100      SAPE     HX       HAL2     0.900000E-01   1.00800           0
     17767 MEMB     100      SAPE     HY       HAL2     0.900000E-01   1.00800           0
     17768 MEMB     100      SAPE     O31      OSL     -0.490000       15.9994           0
     17769 MEMB     100      SAPE     C31      CL       0.900000       12.0110           0
     17770 MEMB     100      SAPE     O32      OBL     -0.630000       15.9994           0
     17771 MEMB     100      SAPE     C32      CTL2    -0.220000       12.0110           0
     17772 MEMB     100      SAPE     H2X      HAL2     0.900000E-01   1.00800           0
     17773 MEMB     100      SAPE     H2Y      HAL2     0.900000E-01   1.00800           0
     17774 MEMB     100      SAPE     C23      CTL2    -0.180000       12.0110           0
     17775 MEMB     100      SAPE     H3R      HAL2     0.900000E-01   1.00800           0
     17776 MEMB     100      SAPE     H3S      HAL2     0.900000E-01   1.00800           0
     17777 MEMB     100      SAPE     C24      CTL2    -0.180000       12.0110           0
     17778 MEMB     100      SAPE     H4R      HAL2     0.900000E-01   1.00800           0
     17779 MEMB     100      SAPE     H4S      HAL2     0.900000E-01   1.00800           0
     17780 MEMB     100      SAPE     C25      CEL1    -0.150000       12.0110           0
     17781 MEMB     100      SAPE     H5R      HEL1     0.150000       1.00800           0
     17782 MEMB     100      SAPE     C26      CEL1    -0.150000       12.0110           0
     17783 MEMB     100      SAPE     H6R      HEL1     0.150000       1.00800           0
     17784 MEMB     100      SAPE     C27      CTL2    -0.180000       12.0110           0
     17785 MEMB     100      SAPE     H7R      HAL2     0.900000E-01   1.00800           0
     17786 MEMB     100      SAPE     H7S      HAL2     0.900000E-01   1.00800           0
     17787 MEMB     100      SAPE     C28      CEL1    -0.150000       12.0110           0
     17788 MEMB     100      SAPE     H8R      HEL1     0.150000       1.00800           0
     17789 MEMB     100      SAPE     C29      CEL1    -0.150000       12.0110           0
     17790 MEMB     100      SAPE     H9R      HEL1     0.150000       1.00800           0
     17791 MEMB     100      SAPE     C210     CTL2    -0.180000       12.0110           0
     17792 MEMB     100      SAPE     H10R     HAL2     0.900000E-01   1.00800           0
     17793 MEMB     100      SAPE     H10S     HAL2     0.900000E-01   1.00800           0
     17794 MEMB     100      SAPE     C211     CEL1    -0.150000       12.0110           0
     17795 MEMB     100      SAPE     H11R     HEL1     0.150000       1.00800           0
     17796 MEMB     100      SAPE     C212     CEL1    -0.150000       12.0110           0
     17797 MEMB     100      SAPE     H12R     HEL1     0.150000       1.00800           0
     17798 MEMB     100      SAPE     C213     CTL2    -0.180000       12.0110           0
     17799 MEMB     100      SAPE     H13R     HAL2     0.900000E-01   1.00800           0
     17800 MEMB     100      SAPE     H13S     HAL2     0.900000E-01   1.00800           0
     17801 MEMB     100      SAPE     C214     CEL1    -0.150000       12.0110           0
     17802 MEMB     100      SAPE     H14R     HEL1     0.150000       1.00800           0
     17803 MEMB     100      SAPE     C215     CEL1    -0.150000       12.0110           0
     17804 MEMB     100      SAPE     H15R     HEL1     0.150000       1.00800           0
     17805 MEMB     100      SAPE     C216     CTL2    -0.180000       12.0110           0
     17806 MEMB     100      SAPE     H16R     HAL2     0.900000E-01   1.00800           0
     17807 MEMB     100      SAPE     H16S     HAL2     0.900000E-01   1.00800           0
     17808 MEMB     100      SAPE     C217     CTL2    -0.180000       12.0110           0
     17809 MEMB     100      SAPE     H17R     HAL2     0.900000E-01   1.00800           0
     17810 MEMB     100      SAPE     H17S     HAL2     0.900000E-01   1.00800           0
     17811 MEMB     100      SAPE     C218     CTL2    -0.180000       12.0110           0
     17812 MEMB     100      SAPE     H18R     HAL2     0.900000E-01   1.00800           0
     17813 MEMB     100      SAPE     H18S     HAL2     0.900000E-01   1.00800           0
     17814 MEMB     100      SAPE     C219     CTL2    -0.180000       12.0110           0
     17815 MEMB     100      SAPE     H19R     HAL2     0.900000E-01   1.00800           0
     17816 MEMB     100      SAPE     H19S     HAL2     0.900000E-01   1.00800           0
     17817 MEMB     100      SAPE     C220     CTL3    -0.270000       12.0110           0
     17818 MEMB     100      SAPE     H20R     HAL3     0.900000E-01   1.00800           0
     17819 MEMB     100      SAPE     H20S     HAL3     0.900000E-01   1.00800           0
     17820 MEMB     100      SAPE     H20T     HAL3     0.900000E-01   1.00800           0
     17821 MEMB     100      SAPE     C33      CTL2    -0.180000       12.0110           0
     17822 MEMB     100      SAPE     H3X      HAL2     0.900000E-01   1.00800           0
     17823 MEMB     100      SAPE     H3Y      HAL2     0.900000E-01   1.00800           0
     17824 MEMB     100      SAPE     C34      CTL2    -0.180000       12.0110           0
     17825 MEMB     100      SAPE     H4X      HAL2     0.900000E-01   1.00800           0
     17826 MEMB     100      SAPE     H4Y      HAL2     0.900000E-01   1.00800           0
     17827 MEMB     100      SAPE     C35      CTL2    -0.180000       12.0110           0
     17828 MEMB     100      SAPE     H5X      HAL2     0.900000E-01   1.00800           0
     17829 MEMB     100      SAPE     H5Y      HAL2     0.900000E-01   1.00800           0
     17830 MEMB     100      SAPE     C36      CTL2    -0.180000       12.0110           0
     17831 MEMB     100      SAPE     H6X      HAL2     0.900000E-01   1.00800           0
     17832 MEMB     100      SAPE     H6Y      HAL2     0.900000E-01   1.00800           0
     17833 MEMB     100      SAPE     C37      CTL2    -0.180000       12.0110           0
     17834 MEMB     100      SAPE     H7X      HAL2     0.900000E-01   1.00800           0
     17835 MEMB     100      SAPE     H7Y      HAL2     0.900000E-01   1.00800           0
     17836 MEMB     100      SAPE     C38      CTL2    -0.180000       12.0110           0
     17837 MEMB     100      SAPE     H8X      HAL2     0.900000E-01   1.00800           0
     17838 MEMB     100      SAPE     H8Y      HAL2     0.900000E-01   1.00800           0
     17839 MEMB     100      SAPE     C39      CTL2    -0.180000       12.0110           0
     17840 MEMB     100      SAPE     H9X      HAL2     0.900000E-01   1.00800           0
     17841 MEMB     100      SAPE     H9Y      HAL2     0.900000E-01   1.00800           0
     17842 MEMB     100      SAPE     C310     CTL2    -0.180000       12.0110           0
     17843 MEMB     100      SAPE     H10X     HAL2     0.900000E-01   1.00800           0
     17844 MEMB     100      SAPE     H10Y     HAL2     0.900000E-01   1.00800           0
     17845 MEMB     100      SAPE     C311     CTL2    -0.180000       12.0110           0
     17846 MEMB     100      SAPE     H11X     HAL2     0.900000E-01   1.00800           0
     17847 MEMB     100      SAPE     H11Y     HAL2     0.900000E-01   1.00800           0
     17848 MEMB     100      SAPE     C312     CTL2    -0.180000       12.0110           0
     17849 MEMB     100      SAPE     H12X     HAL2     0.900000E-01   1.00800           0
     17850 MEMB     100      SAPE     H12Y     HAL2     0.900000E-01   1.00800           0
     17851 MEMB     100      SAPE     C313     CTL2    -0.180000       12.0110           0
     17852 MEMB     100      SAPE     H13X     HAL2     0.900000E-01   1.00800           0
     17853 MEMB     100      SAPE     H13Y     HAL2     0.900000E-01   1.00800           0
     17854 MEMB     100      SAPE     C314     CTL2    -0.180000       12.0110           0
     17855 MEMB     100      SAPE     H14X     HAL2     0.900000E-01   1.00800           0
     17856 MEMB     100      SAPE     H14Y     HAL2     0.900000E-01   1.00800           0
     17857 MEMB     100      SAPE     C315     CTL2    -0.180000       12.0110           0
     17858 MEMB     100      SAPE     H15X     HAL2     0.900000E-01   1.00800           0
     17859 MEMB     100      SAPE     H15Y     HAL2     0.900000E-01   1.00800           0
     17860 MEMB     100      SAPE     C316     CTL2    -0.180000       12.0110           0
     17861 MEMB     100      SAPE     H16X     HAL2     0.900000E-01   1.00800           0
     17862 MEMB     100      SAPE     H16Y     HAL2     0.900000E-01   1.00800           0
     17863 MEMB     100      SAPE     C317     CTL2    -0.180000       12.0110           0
     17864 MEMB     100      SAPE     H17X     HAL2     0.900000E-01   1.00800           0
     17865 MEMB     100      SAPE     H17Y     HAL2     0.900000E-01   1.00800           0
     17866 MEMB     100      SAPE     C318     CTL3    -0.270000       12.0110           0
     17867 MEMB     100      SAPE     H18X     HAL3     0.900000E-01   1.00800           0
     17868 MEMB     100      SAPE     H18Y     HAL3     0.900000E-01   1.00800           0
     17869 MEMB     100      SAPE     H18Z     HAL3     0.900000E-01   1.00800           0
     17870 MEMB     104      SAPE     N        NH3L    -0.300000       14.0070           0
     17871 MEMB     104      SAPE     HN1      HCL      0.330000       1.00800           0
     17872 MEMB     104      SAPE     HN2      HCL      0.330000       1.00800           0
     17873 MEMB     104      SAPE     HN3      HCL      0.330000       1.00800           0
     17874 MEMB     104      SAPE     C12      CTL2     0.130000       12.0110           0
     17875 MEMB     104      SAPE     H12A     HAL2     0.900000E-01   1.00800           0
     17876 MEMB     104      SAPE     H12B     HAL2     0.900000E-01   1.00800           0
     17877 MEMB     104      SAPE     C11      CTL2    -0.800000E-01   12.0110           0
     17878 MEMB     104      SAPE     H11A     HAL2     0.900000E-01   1.00800           0
     17879 MEMB     104      SAPE     H11B     HAL2     0.900000E-01   1.00800           0
     17880 MEMB     104      SAPE     P        PL       1.500000       30.9740           0
     17881 MEMB     104      SAPE     O13      O2L     -0.780000       15.9994           0
     17882 MEMB     104      SAPE     O14      O2L     -0.780000       15.9994           0
     17883 MEMB     104      SAPE     O12      OSLP    -0.570000       15.9994           0
     17884 MEMB     104      SAPE     O11      OSLP    -0.570000       15.9994           0
     17885 MEMB     104      SAPE     C1       CTL2    -0.800000E-01   12.0110           0
     17886 MEMB     104      SAPE     HA       HAL2     0.900000E-01   1.00800           0
     17887 MEMB     104      SAPE     HB       HAL2     0.900000E-01   1.00800           0
     17888 MEMB     104      SAPE     C2       CTL1     0.170000       12.0110           0
     17889 MEMB     104      SAPE     HS       HAL1     0.900000E-01   1.00800           0
     17890 MEMB     104      SAPE     O21      OSL     -0.490000       15.9994           0
     17891 MEMB     104      SAPE     C21      CL       0.900000       12.0110           0
     17892 MEMB     104      SAPE     O22      OBL     -0.630000       15.9994           0
     17893 MEMB     104      SAPE     C22      CTL2    -0.220000       12.0110           0
     17894 MEMB     104      SAPE     H2R      HAL2     0.900000E-01   1.00800           0
     17895 MEMB     104      SAPE     H2S      HAL2     0.900000E-01   1.00800           0
     17896 MEMB     104      SAPE     C3       CTL2     0.800000E-01   12.0110           0
     17897 MEMB     104      SAPE     HX       HAL2     0.900000E-01   1.00800           0
     17898 MEMB     104      SAPE     HY       HAL2     0.900000E-01   1.00800           0
     17899 MEMB     104      SAPE     O31      OSL     -0.490000       15.9994           0
     17900 MEMB     104      SAPE     C31      CL       0.900000       12.0110           0
     17901 MEMB     104      SAPE     O32      OBL     -0.630000       15.9994           0
     17902 MEMB     104      SAPE     C32      CTL2    -0.220000       12.0110           0
     17903 MEMB     104      SAPE     H2X      HAL2     0.900000E-01   1.00800           0
     17904 MEMB     104      SAPE     H2Y      HAL2     0.900000E-01   1.00800           0
     17905 MEMB     104      SAPE     C23      CTL2    -0.180000       12.0110           0
     17906 MEMB     104      SAPE     H3R      HAL2     0.900000E-01   1.00800           0
     17907 MEMB     104      SAPE     H3S      HAL2     0.900000E-01   1.00800           0
     17908 MEMB     104      SAPE     C24      CTL2    -0.180000       12.0110           0
     17909 MEMB     104      SAPE     H4R      HAL2     0.900000E-01   1.00800           0
     17910 MEMB     104      SAPE     H4S      HAL2     0.900000E-01   1.00800           0
     17911 MEMB     104      SAPE     C25      CEL1    -0.150000       12.0110           0
     17912 MEMB     104      SAPE     H5R      HEL1     0.150000       1.00800           0
     17913 MEMB     104      SAPE     C26      CEL1    -0.150000       12.0110           0
     17914 MEMB     104      SAPE     H6R      HEL1     0.150000       1.00800           0
     17915 MEMB     104      SAPE     C27      CTL2    -0.180000       12.0110           0
     17916 MEMB     104      SAPE     H7R      HAL2     0.900000E-01   1.00800           0
     17917 MEMB     104      SAPE     H7S      HAL2     0.900000E-01   1.00800           0
     17918 MEMB     104      SAPE     C28      CEL1    -0.150000       12.0110           0
     17919 MEMB     104      SAPE     H8R      HEL1     0.150000       1.00800           0
     17920 MEMB     104      SAPE     C29      CEL1    -0.150000       12.0110           0
     17921 MEMB     104      SAPE     H9R      HEL1     0.150000       1.00800           0
     17922 MEMB     104      SAPE     C210     CTL2    -0.180000       12.0110           0
     17923 MEMB     104      SAPE     H10R     HAL2     0.900000E-01   1.00800           0
     17924 MEMB     104      SAPE     H10S     HAL2     0.900000E-01   1.00800           0
     17925 MEMB     104      SAPE     C211     CEL1    -0.150000       12.0110           0
     17926 MEMB     104      SAPE     H11R     HEL1     0.150000       1.00800           0
     17927 MEMB     104      SAPE     C212     CEL1    -0.150000       12.0110           0
     17928 MEMB     104      SAPE     H12R     HEL1     0.150000       1.00800           0
     17929 MEMB     104      SAPE     C213     CTL2    -0.180000       12.0110           0
     17930 MEMB     104      SAPE     H13R     HAL2     0.900000E-01   1.00800           0
     17931 MEMB     104      SAPE     H13S     HAL2     0.900000E-01   1.00800           0
     17932 MEMB     104      SAPE     C214     CEL1    -0.150000       12.0110           0
     17933 MEMB     104      SAPE     H14R     HEL1     0.150000       1.00800           0
     17934 MEMB     104      SAPE     C215     CEL1    -0.150000       12.0110           0
     17935 MEMB     104      SAPE     H15R     HEL1     0.150000       1.00800           0
     17936 MEMB     104      SAPE     C216     CTL2    -0.180000       12.0110           0
     17937 MEMB     104      SAPE     H16R     HAL2     0.900000E-01   1.00800           0
     17938 MEMB     104      SAPE     H16S     HAL2     0.900000E-01   1.00800           0
     17939 MEMB     104      SAPE     C217     CTL2    -0.180000       12.0110           0
     17940 MEMB     104      SAPE     H17R     HAL2     0.900000E-01   1.00800           0
     17941 MEMB     104      SAPE     H17S     HAL2     0.900000E-01   1.00800           0
     17942 MEMB     104      SAPE     C218     CTL2    -0.180000       12.0110           0
     17943 MEMB     104      SAPE     H18R     HAL2     0.900000E-01   1.00800           0
     17944 MEMB     104      SAPE     H18S     HAL2     0.900000E-01   1.00800           0
     17945 MEMB     104      SAPE     C219     CTL2    -0.180000       12.0110           0
     17946 MEMB     104      SAPE     H19R     HAL2     0.900000E-01   1.00800           0
     17947 MEMB     104      SAPE     H19S     HAL2     0.900000E-01   1.00800           0
     17948 MEMB     104      SAPE     C220     CTL3    -0.270000       12.0110           0
     17949 MEMB     104      SAPE     H20R     HAL3     0.900000E-01   1.00800           0
     17950 MEMB     104      SAPE     H20S     HAL3     0.900000E-01   1.00800           0
     17951 MEMB     104      SAPE     H20T     HAL3     0.900000E-01   1.00800           0
     17952 MEMB     104      SAPE     C33      CTL2    -0.180000       12.0110           0
     17953 MEMB     104      SAPE     H3X      HAL2     0.900000E-01   1.00800           0
     17954 MEMB     104      SAPE     H3Y      HAL2     0.900000E-01   1.00800           0
     17955 MEMB     104      SAPE     C34      CTL2    -0.180000       12.0110           0
     17956 MEMB     104      SAPE     H4X      HAL2     0.900000E-01   1.00800           0
     17957 MEMB     104      SAPE     H4Y      HAL2     0.900000E-01   1.00800           0
     17958 MEMB     104      SAPE     C35      CTL2    -0.180000       12.0110           0
     17959 MEMB     104      SAPE     H5X      HAL2     0.900000E-01   1.00800           0
     17960 MEMB     104      SAPE     H5Y      HAL2     0.900000E-01   1.00800           0
     17961 MEMB     104      SAPE     C36      CTL2    -0.180000       12.0110           0
     17962 MEMB     104      SAPE     H6X      HAL2     0.900000E-01   1.00800           0
     17963 MEMB     104      SAPE     H6Y      HAL2     0.900000E-01   1.00800           0
     17964 MEMB     104      SAPE     C37      CTL2    -0.180000       12.0110           0
     17965 MEMB     104      SAPE     H7X      HAL2     0.900000E-01   1.00800           0
     17966 MEMB     104      SAPE     H7Y      HAL2     0.900000E-01   1.00800           0
     17967 MEMB     104      SAPE     C38      CTL2    -0.180000       12.0110           0
     17968 MEMB     104      SAPE     H8X      HAL2     0.900000E-01   1.00800           0
     17969 MEMB     104      SAPE     H8Y      HAL2     0.900000E-01   1.00800           0
     17970 MEMB     104      SAPE     C39      CTL2    -0.180000       12.0110           0
     17971 MEMB     104      SAPE     H9X      HAL2     0.900000E-01   1.00800           0
     17972 MEMB     104      SAPE     H9Y      HAL2     0.900000E-01   1.00800           0
     17973 MEMB     104      SAPE     C310     CTL2    -0.180000       12.0110           0
     17974 MEMB     104      SAPE     H10X     HAL2     0.900000E-01   1.00800           0
     17975 MEMB     104      SAPE     H10Y     HAL2     0.900000E-01   1.00800           0
     17976 MEMB     104      SAPE     C311     CTL2    -0.180000       12.0110           0
     17977 MEMB     104      SAPE     H11X     HAL2     0.900000E-01   1.00800           0
     17978 MEMB     104      SAPE     H11Y     HAL2     0.900000E-01   1.00800           0
     17979 MEMB     104      SAPE     C312     CTL2    -0.180000       12.0110           0
     17980 MEMB     104      SAPE     H12X     HAL2     0.900000E-01   1.00800           0
     17981 MEMB     104      SAPE     H12Y     HAL2     0.900000E-01   1.00800           0
     17982 MEMB     104      SAPE     C313     CTL2    -0.180000       12.0110           0
     17983 MEMB     104      SAPE     H13X     HAL2     0.900000E-01   1.00800           0
     17984 MEMB     104      SAPE     H13Y     HAL2     0.900000E-01   1.00800           0
     17985 MEMB     104      SAPE     C314     CTL2    -0.180000       12.0110           0
     17986 MEMB     104      SAPE     H14X     HAL2     0.900000E-01   1.00800           0
     17987 MEMB     104      SAPE     H14Y     HAL2     0.900000E-01   1.00800           0
     17988 MEMB     104      SAPE     C315     CTL2    -0.180000       12.0110           0
     17989 MEMB     104      SAPE     H15X     HAL2     0.900000E-01   1.00800           0
     17990 MEMB     104      SAPE     H15Y     HAL2     0.900000E-01   1.00800           0
     17991 MEMB     104      SAPE     C316     CTL2    -0.180000       12.0110           0
     17992 MEMB     104      SAPE     H16X     HAL2     0.900000E-01   1.00800           0
     17993 MEMB     104      SAPE     H16Y     HAL2     0.900000E-01   1.00800           0
     17994 MEMB     104      SAPE     C317     CTL2    -0.180000       12.0110           0
     17995 MEMB     104      SAPE     H17X     HAL2     0.900000E-01   1.00800           0
     17996 MEMB     104      SAPE     H17Y     HAL2     0.900000E-01   1.00800           0
     17997 MEMB     104      SAPE     C318     CTL3    -0.270000       12.0110           0
     17998 MEMB     104      SAPE     H18X     HAL3     0.900000E-01   1.00800           0
     17999 MEMB     104      SAPE     H18Y     HAL3     0.900000E-01   1.00800           0
     18000 MEMB     104      SAPE     H18Z     HAL3     0.900000E-01   1.00800           0
     18001 MEMB     109      SAPE     N        NH3L    -0.300000       14.0070           0
     18002 MEMB     109      SAPE     HN1      HCL      0.330000       1.00800           0
     18003 MEMB     109      SAPE     HN2      HCL      0.330000       1.00800           0
     18004 MEMB     109      SAPE     HN3      HCL      0.330000       1.00800           0
     18005 MEMB     109      SAPE     C12      CTL2     0.130000       12.0110           0
     18006 MEMB     109      SAPE     H12A     HAL2     0.900000E-01   1.00800           0
     18007 MEMB     109      SAPE     H12B     HAL2     0.900000E-01   1.00800           0
     18008 MEMB     109      SAPE     C11      CTL2    -0.800000E-01   12.0110           0
     18009 MEMB     109      SAPE     H11A     HAL2     0.900000E-01   1.00800           0
     18010 MEMB     109      SAPE     H11B     HAL2     0.900000E-01   1.00800           0
     18011 MEMB     109      SAPE     P        PL       1.500000       30.9740           0
     18012 MEMB     109      SAPE     O13      O2L     -0.780000       15.9994           0
     18013 MEMB     109      SAPE     O14      O2L     -0.780000       15.9994           0
     18014 MEMB     109      SAPE     O12      OSLP    -0.570000       15.9994           0
     18015 MEMB     109      SAPE     O11      OSLP    -0.570000       15.9994           0
     18016 MEMB     109      SAPE     C1       CTL2    -0.800000E-01   12.0110           0
     18017 MEMB     109      SAPE     HA       HAL2     0.900000E-01   1.00800           0
     18018 MEMB     109      SAPE     HB       HAL2     0.900000E-01   1.00800           0
     18019 MEMB     109      SAPE     C2       CTL1     0.170000       12.0110           0
     18020 MEMB     109      SAPE     HS       HAL1     0.900000E-01   1.00800           0
     18021 MEMB     109      SAPE     O21      OSL     -0.490000       15.9994           0
     18022 MEMB     109      SAPE     C21      CL       0.900000       12.0110           0
     18023 MEMB     109      SAPE     O22      OBL     -0.630000       15.9994           0
     18024 MEMB     109      SAPE     C22      CTL2    -0.220000       12.0110           0
     18025 MEMB     109      SAPE     H2R      HAL2     0.900000E-01   1.00800           0
     18026 MEMB     109      SAPE     H2S      HAL2     0.900000E-01   1.00800           0
     18027 MEMB     109      SAPE     C3       CTL2     0.800000E-01   12.0110           0
     18028 MEMB     109      SAPE     HX       HAL2     0.900000E-01   1.00800           0
     18029 MEMB     109      SAPE     HY       HAL2     0.900000E-01   1.00800           0
     18030 MEMB     109      SAPE     O31      OSL     -0.490000       15.9994           0
     18031 MEMB     109      SAPE     C31      CL       0.900000       12.0110           0
     18032 MEMB     109      SAPE     O32      OBL     -0.630000       15.9994           0
     18033 MEMB     109      SAPE     C32      CTL2    -0.220000       12.0110           0
     18034 MEMB     109      SAPE     H2X      HAL2     0.900000E-01   1.00800           0
     18035 MEMB     109      SAPE     H2Y      HAL2     0.900000E-01   1.00800           0
     18036 MEMB     109      SAPE     C23      CTL2    -0.180000       12.0110           0
     18037 MEMB     109      SAPE     H3R      HAL2     0.900000E-01   1.00800           0
     18038 MEMB     109      SAPE     H3S      HAL2     0.900000E-01   1.00800           0
     18039 MEMB     109      SAPE     C24      CTL2    -0.180000       12.0110           0
     18040 MEMB     109      SAPE     H4R      HAL2     0.900000E-01   1.00800           0
     18041 MEMB     109      SAPE     H4S      HAL2     0.900000E-01   1.00800           0
     18042 MEMB     109      SAPE     C25      CEL1    -0.150000       12.0110           0
     18043 MEMB     109      SAPE     H5R      HEL1     0.150000       1.00800           0
     18044 MEMB     109      SAPE     C26      CEL1    -0.150000       12.0110           0
     18045 MEMB     109      SAPE     H6R      HEL1     0.150000       1.00800           0
     18046 MEMB     109      SAPE     C27      CTL2    -0.180000       12.0110           0
     18047 MEMB     109      SAPE     H7R      HAL2     0.900000E-01   1.00800           0
     18048 MEMB     109      SAPE     H7S      HAL2     0.900000E-01   1.00800           0
     18049 MEMB     109      SAPE     C28      CEL1    -0.150000       12.0110           0
     18050 MEMB     109      SAPE     H8R      HEL1     0.150000       1.00800           0
     18051 MEMB     109      SAPE     C29      CEL1    -0.150000       12.0110           0
     18052 MEMB     109      SAPE     H9R      HEL1     0.150000       1.00800           0
     18053 MEMB     109      SAPE     C210     CTL2    -0.180000       12.0110           0
     18054 MEMB     109      SAPE     H10R     HAL2     0.900000E-01   1.00800           0
     18055 MEMB     109      SAPE     H10S     HAL2     0.900000E-01   1.00800           0
     18056 MEMB     109      SAPE     C211     CEL1    -0.150000       12.0110           0
     18057 MEMB     109      SAPE     H11R     HEL1     0.150000       1.00800           0
     18058 MEMB     109      SAPE     C212     CEL1    -0.150000       12.0110           0
     18059 MEMB     109      SAPE     H12R     HEL1     0.150000       1.00800           0
     18060 MEMB     109      SAPE     C213     CTL2    -0.180000       12.0110           0
     18061 MEMB     109      SAPE     H13R     HAL2     0.900000E-01   1.00800           0
     18062 MEMB     109      SAPE     H13S     HAL2     0.900000E-01   1.00800           0
     18063 MEMB     109      SAPE     C214     CEL1    -0.150000       12.0110           0
     18064 MEMB     109      SAPE     H14R     HEL1     0.150000       1.00800           0
     18065 MEMB     109      SAPE     C215     CEL1    -0.150000       12.0110           0
     18066 MEMB     109      SAPE     H15R     HEL1     0.150000       1.00800           0
     18067 MEMB     109      SAPE     C216     CTL2    -0.180000       12.0110           0
     18068 MEMB     109      SAPE     H16R     HAL2     0.900000E-01   1.00800           0
     18069 MEMB     109      SAPE     H16S     HAL2     0.900000E-01   1.00800           0
     18070 MEMB     109      SAPE     C217     CTL2    -0.180000       12.0110           0
     18071 MEMB     109      SAPE     H17R     HAL2     0.900000E-01   1.00800           0
     18072 MEMB     109      SAPE     H17S     HAL2     0.900000E-01   1.00800           0
     18073 MEMB     109      SAPE     C218     CTL2    -0.180000       12.0110           0
     18074 MEMB     109      SAPE     H18R     HAL2     0.900000E-01   1.00800           0
     18075 MEMB     109      SAPE     H18S     HAL2     0.900000E-01   1.00800           0
     18076 MEMB     109      SAPE     C219     CTL2    -0.180000       12.0110           0
     18077 MEMB     109      SAPE     H19R     HAL2     0.900000E-01   1.00800           0
     18078 MEMB     109      SAPE     H19S     HAL2     0.900000E-01   1.00800           0
     18079 MEMB     109      SAPE     C220     CTL3    -0.270000       12.0110           0
     18080 MEMB     109      SAPE     H20R     HAL3     0.900000E-01   1.00800           0
     18081 MEMB     109      SAPE     H20S     HAL3     0.900000E-01   1.00800           0
     18082 MEMB     109      SAPE     H20T     HAL3     0.900000E-01   1.00800           0
     18083 MEMB     109      SAPE     C33      CTL2    -0.180000       12.0110           0
     18084 MEMB     109      SAPE     H3X      HAL2     0.900000E-01   1.00800           0
     18085 MEMB     109      SAPE     H3Y      HAL2     0.900000E-01   1.00800           0
     18086 MEMB     109      SAPE     C34      CTL2    -0.180000       12.0110           0
     18087 MEMB     109      SAPE     H4X      HAL2     0.900000E-01   1.00800           0
     18088 MEMB     109      SAPE     H4Y      HAL2     0.900000E-01   1.00800           0
     18089 MEMB     109      SAPE     C35      CTL2    -0.180000       12.0110           0
     18090 MEMB     109      SAPE     H5X      HAL2     0.900000E-01   1.00800           0
     18091 MEMB     109      SAPE     H5Y      HAL2     0.900000E-01   1.00800           0
     18092 MEMB     109      SAPE     C36      CTL2    -0.180000       12.0110           0
     18093 MEMB     109      SAPE     H6X      HAL2     0.900000E-01   1.00800           0
     18094 MEMB     109      SAPE     H6Y      HAL2     0.900000E-01   1.00800           0
     18095 MEMB     109      SAPE     C37      CTL2    -0.180000       12.0110           0
     18096 MEMB     109      SAPE     H7X      HAL2     0.900000E-01   1.00800           0
     18097 MEMB     109      SAPE     H7Y      HAL2     0.900000E-01   1.00800           0
     18098 MEMB     109      SAPE     C38      CTL2    -0.180000       12.0110           0
     18099 MEMB     109      SAPE     H8X      HAL2     0.900000E-01   1.00800           0
     18100 MEMB     109      SAPE     H8Y      HAL2     0.900000E-01   1.00800           0
     18101 MEMB     109      SAPE     C39      CTL2    -0.180000       12.0110           0
     18102 MEMB     109      SAPE     H9X      HAL2     0.900000E-01   1.00800           0
     18103 MEMB     109      SAPE     H9Y      HAL2     0.900000E-01   1.00800           0
     18104 MEMB     109      SAPE     C310     CTL2    -0.180000       12.0110           0
     18105 MEMB     109      SAPE     H10X     HAL2     0.900000E-01   1.00800           0
     18106 MEMB     109      SAPE     H10Y     HAL2     0.900000E-01   1.00800           0
     18107 MEMB     109      SAPE     C311     CTL2    -0.180000       12.0110           0
     18108 MEMB     109      SAPE     H11X     HAL2     0.900000E-01   1.00800           0
     18109 MEMB     109      SAPE     H11Y     HAL2     0.900000E-01   1.00800           0
     18110 MEMB     109      SAPE     C312     CTL2    -0.180000       12.0110           0
     18111 MEMB     109      SAPE     H12X     HAL2     0.900000E-01   1.00800           0
     18112 MEMB     109      SAPE     H12Y     HAL2     0.900000E-01   1.00800           0
     18113 MEMB     109      SAPE     C313     CTL2    -0.180000       12.0110           0
     18114 MEMB     109      SAPE     H13X     HAL2     0.900000E-01   1.00800           0
     18115 MEMB     109      SAPE     H13Y     HAL2     0.900000E-01   1.00800           0
     18116 MEMB     109      SAPE     C314     CTL2    -0.180000       12.0110           0
     18117 MEMB     109      SAPE     H14X     HAL2     0.900000E-01   1.00800           0
     18118 MEMB     109      SAPE     H14Y     HAL2     0.900000E-01   1.00800           0
     18119 MEMB     109      SAPE     C315     CTL2    -0.180000       12.0110           0
     18120 MEMB     109      SAPE     H15X     HAL2     0.900000E-01   1.00800           0
     18121 MEMB     109      SAPE     H15Y     HAL2     0.900000E-01   1.00800           0
     18122 MEMB     109      SAPE     C316     CTL2    -0.180000       12.0110           0
     18123 MEMB     109      SAPE     H16X     HAL2     0.900000E-01   1.00800           0
     18124 MEMB     109      SAPE     H16Y     HAL2     0.900000E-01   1.00800           0
     18125 MEMB     109      SAPE     C317     CTL2    -0.180000       12.0110           0
     18126 MEMB     109      SAPE     H17X     HAL2     0.900000E-01   1.00800           0
     18127 MEMB     109      SAPE     H17Y     HAL2     0.900000E-01   1.00800           0
     18128 MEMB     109      SAPE     C318     CTL3    -0.270000       12.0110           0
     18129 MEMB     109      SAPE     H18X     HAL3     0.900000E-01   1.00800           0
     18130 MEMB     109      SAPE     H18Y     HAL3     0.900000E-01   1.00800           0
     18131 MEMB     109      SAPE     H18Z     HAL3     0.900000E-01   1.00800           0
     18132 MEMB     114      SAPE     N        NH3L    -0.300000       14.0070           0
     18133 MEMB     114      SAPE     HN1      HCL      0.330000       1.00800           0
     18134 MEMB     114      SAPE     HN2      HCL      0.330000       1.00800           0
     18135 MEMB     114      SAPE     HN3      HCL      0.330000       1.00800           0
     18136 MEMB     114      SAPE     C12      CTL2     0.130000       12.0110           0
     18137 MEMB     114      SAPE     H12A     HAL2     0.900000E-01   1.00800           0
     18138 MEMB     114      SAPE     H12B     HAL2     0.900000E-01   1.00800           0
     18139 MEMB     114      SAPE     C11      CTL2    -0.800000E-01   12.0110           0
     18140 MEMB     114      SAPE     H11A     HAL2     0.900000E-01   1.00800           0
     18141 MEMB     114      SAPE     H11B     HAL2     0.900000E-01   1.00800           0
     18142 MEMB     114      SAPE     P        PL       1.500000       30.9740           0
     18143 MEMB     114      SAPE     O13      O2L     -0.780000       15.9994           0
     18144 MEMB     114      SAPE     O14      O2L     -0.780000       15.9994           0
     18145 MEMB     114      SAPE     O12      OSLP    -0.570000       15.9994           0
     18146 MEMB     114      SAPE     O11      OSLP    -0.570000       15.9994           0
     18147 MEMB     114      SAPE     C1       CTL2    -0.800000E-01   12.0110           0
     18148 MEMB     114      SAPE     HA       HAL2     0.900000E-01   1.00800           0
     18149 MEMB     114      SAPE     HB       HAL2     0.900000E-01   1.00800           0
     18150 MEMB     114      SAPE     C2       CTL1     0.170000       12.0110           0
     18151 MEMB     114      SAPE     HS       HAL1     0.900000E-01   1.00800           0
     18152 MEMB     114      SAPE     O21      OSL     -0.490000       15.9994           0
     18153 MEMB     114      SAPE     C21      CL       0.900000       12.0110           0
     18154 MEMB     114      SAPE     O22      OBL     -0.630000       15.9994           0
     18155 MEMB     114      SAPE     C22      CTL2    -0.220000       12.0110           0
     18156 MEMB     114      SAPE     H2R      HAL2     0.900000E-01   1.00800           0
     18157 MEMB     114      SAPE     H2S      HAL2     0.900000E-01   1.00800           0
     18158 MEMB     114      SAPE     C3       CTL2     0.800000E-01   12.0110           0
     18159 MEMB     114      SAPE     HX       HAL2     0.900000E-01   1.00800           0
     18160 MEMB     114      SAPE     HY       HAL2     0.900000E-01   1.00800           0
     18161 MEMB     114      SAPE     O31      OSL     -0.490000       15.9994           0
     18162 MEMB     114      SAPE     C31      CL       0.900000       12.0110           0
     18163 MEMB     114      SAPE     O32      OBL     -0.630000       15.9994           0
     18164 MEMB     114      SAPE     C32      CTL2    -0.220000       12.0110           0
     18165 MEMB     114      SAPE     H2X      HAL2     0.900000E-01   1.00800           0
     18166 MEMB     114      SAPE     H2Y      HAL2     0.900000E-01   1.00800           0
     18167 MEMB     114      SAPE     C23      CTL2    -0.180000       12.0110           0
     18168 MEMB     114      SAPE     H3R      HAL2     0.900000E-01   1.00800           0
     18169 MEMB     114      SAPE     H3S      HAL2     0.900000E-01   1.00800           0
     18170 MEMB     114      SAPE     C24      CTL2    -0.180000       12.0110           0
     18171 MEMB     114      SAPE     H4R      HAL2     0.900000E-01   1.00800           0
     18172 MEMB     114      SAPE     H4S      HAL2     0.900000E-01   1.00800           0
     18173 MEMB     114      SAPE     C25      CEL1    -0.150000       12.0110           0
     18174 MEMB     114      SAPE     H5R      HEL1     0.150000       1.00800           0
     18175 MEMB     114      SAPE     C26      CEL1    -0.150000       12.0110           0
     18176 MEMB     114      SAPE     H6R      HEL1     0.150000       1.00800           0
     18177 MEMB     114      SAPE     C27      CTL2    -0.180000       12.0110           0
     18178 MEMB     114      SAPE     H7R      HAL2     0.900000E-01   1.00800           0
     18179 MEMB     114      SAPE     H7S      HAL2     0.900000E-01   1.00800           0
     18180 MEMB     114      SAPE     C28      CEL1    -0.150000       12.0110           0
     18181 MEMB     114      SAPE     H8R      HEL1     0.150000       1.00800           0
     18182 MEMB     114      SAPE     C29      CEL1    -0.150000       12.0110           0
     18183 MEMB     114      SAPE     H9R      HEL1     0.150000       1.00800           0
     18184 MEMB     114      SAPE     C210     CTL2    -0.180000       12.0110           0
     18185 MEMB     114      SAPE     H10R     HAL2     0.900000E-01   1.00800           0
     18186 MEMB     114      SAPE     H10S     HAL2     0.900000E-01   1.00800           0
     18187 MEMB     114      SAPE     C211     CEL1    -0.150000       12.0110           0
     18188 MEMB     114      SAPE     H11R     HEL1     0.150000       1.00800           0
     18189 MEMB     114      SAPE     C212     CEL1    -0.150000       12.0110           0
     18190 MEMB     114      SAPE     H12R     HEL1     0.150000       1.00800           0
     18191 MEMB     114      SAPE     C213     CTL2    -0.180000       12.0110           0
     18192 MEMB     114      SAPE     H13R     HAL2     0.900000E-01   1.00800           0
     18193 MEMB     114      SAPE     H13S     HAL2     0.900000E-01   1.00800           0
     18194 MEMB     114      SAPE     C214     CEL1    -0.150000       12.0110           0
     18195 MEMB     114      SAPE     H14R     HEL1     0.150000       1.00800           0
     18196 MEMB     114      SAPE     C215     CEL1    -0.150000       12.0110           0
     18197 MEMB     114      SAPE     H15R     HEL1     0.150000       1.00800           0
     18198 MEMB     114      SAPE     C216     CTL2    -0.180000       12.0110           0
     18199 MEMB     114      SAPE     H16R     HAL2     0.900000E-01   1.00800           0
     18200 MEMB     114      SAPE     H16S     HAL2     0.900000E-01   1.00800           0
     18201 MEMB     114      SAPE     C217     CTL2    -0.180000       12.0110           0
     18202 MEMB     114      SAPE     H17R     HAL2     0.900000E-01   1.00800           0
     18203 MEMB     114      SAPE     H17S     HAL2     0.900000E-01   1.00800           0
     18204 MEMB     114      SAPE     C218     CTL2    -0.180000       12.0110           0
     18205 MEMB     114      SAPE     H18R     HAL2     0.900000E-01   1.00800           0
     18206 MEMB     114      SAPE     H18S     HAL2     0.900000E-01   1.00800           0
     18207 MEMB     114      SAPE     C219     CTL2    -0.180000       12.0110           0
     18208 MEMB     114      SAPE     H19R     HAL2     0.900000E-01   1.00800           0
     18209 MEMB     114      SAPE     H19S     HAL2     0.900000E-01   1.00800           0
     18210 MEMB     114      SAPE     C220     CTL3    -0.270000       12.0110           0
     18211 MEMB     114      SAPE     H20R     HAL3     0.900000E-01   1.00800           0
     18212 MEMB     114      SAPE     H20S     HAL3     0.900000E-01   1.00800           0
     18213 MEMB     114      SAPE     H20T     HAL3     0.900000E-01   1.00800           0
     18214 MEMB     114      SAPE     C33      CTL2    -0.180000       12.0110           0
     18215 MEMB     114      SAPE     H3X      HAL2     0.900000E-01   1.00800           0
     18216 MEMB     114      SAPE     H3Y      HAL2     0.900000E-01   1.00800           0
     18217 MEMB     114      SAPE     C34      CTL2    -0.180000       12.0110           0
     18218 MEMB     114      SAPE     H4X      HAL2     0.900000E-01   1.00800           0
     18219 MEMB     114      SAPE     H4Y      HAL2     0.900000E-01   1.00800           0
     18220 MEMB     114      SAPE     C35      CTL2    -0.180000       12.0110           0
     18221 MEMB     114      SAPE     H5X      HAL2     0.900000E-01   1.00800           0
     18222 MEMB     114      SAPE     H5Y      HAL2     0.900000E-01   1.00800           0
     18223 MEMB     114      SAPE     C36      CTL2    -0.180000       12.0110           0
     18224 MEMB     114      SAPE     H6X      HAL2     0.900000E-01   1.00800           0
     18225 MEMB     114      SAPE     H6Y      HAL2     0.900000E-01   1.00800           0
     18226 MEMB     114      SAPE     C37      CTL2    -0.180000       12.0110           0
     18227 MEMB     114      SAPE     H7X      HAL2     0.900000E-01   1.00800           0
     18228 MEMB     114      SAPE     H7Y      HAL2     0.900000E-01   1.00800           0
     18229 MEMB     114      SAPE     C38      CTL2    -0.180000       12.0110           0
     18230 MEMB     114      SAPE     H8X      HAL2     0.900000E-01   1.00800           0
     18231 MEMB     114      SAPE     H8Y      HAL2     0.900000E-01   1.00800           0
     18232 MEMB     114      SAPE     C39      CTL2    -0.180000       12.0110           0
     18233 MEMB     114      SAPE     H9X      HAL2     0.900000E-01   1.00800           0
     18234 MEMB     114      SAPE     H9Y      HAL2     0.900000E-01   1.00800           0
     18235 MEMB     114      SAPE     C310     CTL2    -0.180000       12.0110           0
     18236 MEMB     114      SAPE     H10X     HAL2     0.900000E-01   1.00800           0
     18237 MEMB     114      SAPE     H10Y     HAL2     0.900000E-01   1.00800           0
     18238 MEMB     114      SAPE     C311     CTL2    -0.180000       12.0110           0
     18239 MEMB     114      SAPE     H11X     HAL2     0.900000E-01   1.00800           0
     18240 MEMB     114      SAPE     H11Y     HAL2     0.900000E-01   1.00800           0
     18241 MEMB     114      SAPE     C312     CTL2    -0.180000       12.0110           0
     18242 MEMB     114      SAPE     H12X     HAL2     0.900000E-01   1.00800           0
     18243 MEMB     114      SAPE     H12Y     HAL2     0.900000E-01   1.00800           0
     18244 MEMB     114      SAPE     C313     CTL2    -0.180000       12.0110           0
     18245 MEMB     114      SAPE     H13X     HAL2     0.900000E-01   1.00800           0
     18246 MEMB     114      SAPE     H13Y     HAL2     0.900000E-01   1.00800           0
     18247 MEMB     114      SAPE     C314     CTL2    -0.180000       12.0110           0
     18248 MEMB     114      SAPE     H14X     HAL2     0.900000E-01   1.00800           0
     18249 MEMB     114      SAPE     H14Y     HAL2     0.900000E-01   1.00800           0
     18250 MEMB     114      SAPE     C315     CTL2    -0.180000       12.0110           0
     18251 MEMB     114      SAPE     H15X     HAL2     0.900000E-01   1.00800           0
     18252 MEMB     114      SAPE     H15Y     HAL2     0.900000E-01   1.00800           0
     18253 MEMB     114      SAPE     C316     CTL2    -0.180000       12.0110           0
     18254 MEMB     114      SAPE     H16X     HAL2     0.900000E-01   1.00800           0
     18255 MEMB     114      SAPE     H16Y     HAL2     0.900000E-01   1.00800           0
     18256 MEMB     114      SAPE     C317     CTL2    -0.180000       12.0110           0
     18257 MEMB     114      SAPE     H17X     HAL2     0.900000E-01   1.00800           0
     18258 MEMB     114      SAPE     H17Y     HAL2     0.900000E-01   1.00800           0
     18259 MEMB     114      SAPE     C318     CTL3    -0.270000       12.0110           0
     18260 MEMB     114      SAPE     H18X     HAL3     0.900000E-01   1.00800           0
     18261 MEMB     114      SAPE     H18Y     HAL3     0.900000E-01   1.00800           0
     18262 MEMB     114      SAPE     H18Z     HAL3     0.900000E-01   1.00800           0
     18263 MEMB     129      SAPE     N        NH3L    -0.300000       14.0070           0
     18264 MEMB     129      SAPE     HN1      HCL      0.330000       1.00800           0
     18265 MEMB     129      SAPE     HN2      HCL      0.330000       1.00800           0
     18266 MEMB     129      SAPE     HN3      HCL      0.330000       1.00800           0
     18267 MEMB     129      SAPE     C12      CTL2     0.130000       12.0110           0
     18268 MEMB     129      SAPE     H12A     HAL2     0.900000E-01   1.00800           0
     18269 MEMB     129      SAPE     H12B     HAL2     0.900000E-01   1.00800           0
     18270 MEMB     129      SAPE     C11      CTL2    -0.800000E-01   12.0110           0
     18271 MEMB     129      SAPE     H11A     HAL2     0.900000E-01   1.00800           0
     18272 MEMB     129      SAPE     H11B     HAL2     0.900000E-01   1.00800           0
     18273 MEMB     129      SAPE     P        PL       1.500000       30.9740           0
     18274 MEMB     129      SAPE     O13      O2L     -0.780000       15.9994           0
     18275 MEMB     129      SAPE     O14      O2L     -0.780000       15.9994           0
     18276 MEMB     129      SAPE     O12      OSLP    -0.570000       15.9994           0
     18277 MEMB     129      SAPE     O11      OSLP    -0.570000       15.9994           0
     18278 MEMB     129      SAPE     C1       CTL2    -0.800000E-01   12.0110           0
     18279 MEMB     129      SAPE     HA       HAL2     0.900000E-01   1.00800           0
     18280 MEMB     129      SAPE     HB       HAL2     0.900000E-01   1.00800           0
     18281 MEMB     129      SAPE     C2       CTL1     0.170000       12.0110           0
     18282 MEMB     129      SAPE     HS       HAL1     0.900000E-01   1.00800           0
     18283 MEMB     129      SAPE     O21      OSL     -0.490000       15.9994           0
     18284 MEMB     129      SAPE     C21      CL       0.900000       12.0110           0
     18285 MEMB     129      SAPE     O22      OBL     -0.630000       15.9994           0
     18286 MEMB     129      SAPE     C22      CTL2    -0.220000       12.0110           0
     18287 MEMB     129      SAPE     H2R      HAL2     0.900000E-01   1.00800           0
     18288 MEMB     129      SAPE     H2S      HAL2     0.900000E-01   1.00800           0
     18289 MEMB     129      SAPE     C3       CTL2     0.800000E-01   12.0110           0
     18290 MEMB     129      SAPE     HX       HAL2     0.900000E-01   1.00800           0
     18291 MEMB     129      SAPE     HY       HAL2     0.900000E-01   1.00800           0
     18292 MEMB     129      SAPE     O31      OSL     -0.490000       15.9994           0
     18293 MEMB     129      SAPE     C31      CL       0.900000       12.0110           0
     18294 MEMB     129      SAPE     O32      OBL     -0.630000       15.9994           0
     18295 MEMB     129      SAPE     C32      CTL2    -0.220000       12.0110           0
     18296 MEMB     129      SAPE     H2X      HAL2     0.900000E-01   1.00800           0
     18297 MEMB     129      SAPE     H2Y      HAL2     0.900000E-01   1.00800           0
     18298 MEMB     129      SAPE     C23      CTL2    -0.180000       12.0110           0
     18299 MEMB     129      SAPE     H3R      HAL2     0.900000E-01   1.00800           0
     18300 MEMB     129      SAPE     H3S      HAL2     0.900000E-01   1.00800           0
     18301 MEMB     129      SAPE     C24      CTL2    -0.180000       12.0110           0
     18302 MEMB     129      SAPE     H4R      HAL2     0.900000E-01   1.00800           0
     18303 MEMB     129      SAPE     H4S      HAL2     0.900000E-01   1.00800           0
     18304 MEMB     129      SAPE     C25      CEL1    -0.150000       12.0110           0
     18305 MEMB     129      SAPE     H5R      HEL1     0.150000       1.00800           0
     18306 MEMB     129      SAPE     C26      CEL1    -0.150000       12.0110           0
     18307 MEMB     129      SAPE     H6R      HEL1     0.150000       1.00800           0
     18308 MEMB     129      SAPE     C27      CTL2    -0.180000       12.0110           0
     18309 MEMB     129      SAPE     H7R      HAL2     0.900000E-01   1.00800           0
     18310 MEMB     129      SAPE     H7S      HAL2     0.900000E-01   1.00800           0
     18311 MEMB     129      SAPE     C28      CEL1    -0.150000       12.0110           0
     18312 MEMB     129      SAPE     H8R      HEL1     0.150000       1.00800           0
     18313 MEMB     129      SAPE     C29      CEL1    -0.150000       12.0110           0
     18314 MEMB     129      SAPE     H9R      HEL1     0.150000       1.00800           0
     18315 MEMB     129      SAPE     C210     CTL2    -0.180000       12.0110           0
     18316 MEMB     129      SAPE     H10R     HAL2     0.900000E-01   1.00800           0
     18317 MEMB     129      SAPE     H10S     HAL2     0.900000E-01   1.00800           0
     18318 MEMB     129      SAPE     C211     CEL1    -0.150000       12.0110           0
     18319 MEMB     129      SAPE     H11R     HEL1     0.150000       1.00800           0
     18320 MEMB     129      SAPE     C212     CEL1    -0.150000       12.0110           0
     18321 MEMB     129      SAPE     H12R     HEL1     0.150000       1.00800           0
     18322 MEMB     129      SAPE     C213     CTL2    -0.180000       12.0110           0
     18323 MEMB     129      SAPE     H13R     HAL2     0.900000E-01   1.00800           0
     18324 MEMB     129      SAPE     H13S     HAL2     0.900000E-01   1.00800           0
     18325 MEMB     129      SAPE     C214     CEL1    -0.150000       12.0110           0
     18326 MEMB     129      SAPE     H14R     HEL1     0.150000       1.00800           0
     18327 MEMB     129      SAPE     C215     CEL1    -0.150000       12.0110           0
     18328 MEMB     129      SAPE     H15R     HEL1     0.150000       1.00800           0
     18329 MEMB     129      SAPE     C216     CTL2    -0.180000       12.0110           0
     18330 MEMB     129      SAPE     H16R     HAL2     0.900000E-01   1.00800           0
     18331 MEMB     129      SAPE     H16S     HAL2     0.900000E-01   1.00800           0
     18332 MEMB     129      SAPE     C217     CTL2    -0.180000       12.0110           0
     18333 MEMB     129      SAPE     H17R     HAL2     0.900000E-01   1.00800           0
     18334 MEMB     129      SAPE     H17S     HAL2     0.900000E-01   1.00800           0
     18335 MEMB     129      SAPE     C218     CTL2    -0.180000       12.0110           0
     18336 MEMB     129      SAPE     H18R     HAL2     0.900000E-01   1.00800           0
     18337 MEMB     129      SAPE     H18S     HAL2     0.900000E-01   1.00800           0
     18338 MEMB     129      SAPE     C219     CTL2    -0.180000       12.0110           0
     18339 MEMB     129      SAPE     H19R     HAL2     0.900000E-01   1.00800           0
     18340 MEMB     129      SAPE     H19S     HAL2     0.900000E-01   1.00800           0
     18341 MEMB     129      SAPE     C220     CTL3    -0.270000       12.0110           0
     18342 MEMB     129      SAPE     H20R     HAL3     0.900000E-01   1.00800           0
     18343 MEMB     129      SAPE     H20S     HAL3     0.900000E-01   1.00800           0
     18344 MEMB     129      SAPE     H20T     HAL3     0.900000E-01   1.00800           0
     18345 MEMB     129      SAPE     C33      CTL2    -0.180000       12.0110           0
     18346 MEMB     129      SAPE     H3X      HAL2     0.900000E-01   1.00800           0
     18347 MEMB     129      SAPE     H3Y      HAL2     0.900000E-01   1.00800           0
     18348 MEMB     129      SAPE     C34      CTL2    -0.180000       12.0110           0
     18349 MEMB     129      SAPE     H4X      HAL2     0.900000E-01   1.00800           0
     18350 MEMB     129      SAPE     H4Y      HAL2     0.900000E-01   1.00800           0
     18351 MEMB     129      SAPE     C35      CTL2    -0.180000       12.0110           0
     18352 MEMB     129      SAPE     H5X      HAL2     0.900000E-01   1.00800           0
     18353 MEMB     129      SAPE     H5Y      HAL2     0.900000E-01   1.00800           0
     18354 MEMB     129      SAPE     C36      CTL2    -0.180000       12.0110           0
     18355 MEMB     129      SAPE     H6X      HAL2     0.900000E-01   1.00800           0
     18356 MEMB     129      SAPE     H6Y      HAL2     0.900000E-01   1.00800           0
     18357 MEMB     129      SAPE     C37      CTL2    -0.180000       12.0110           0
     18358 MEMB     129      SAPE     H7X      HAL2     0.900000E-01   1.00800           0
     18359 MEMB     129      SAPE     H7Y      HAL2     0.900000E-01   1.00800           0
     18360 MEMB     129      SAPE     C38      CTL2    -0.180000       12.0110           0
     18361 MEMB     129      SAPE     H8X      HAL2     0.900000E-01   1.00800           0
     18362 MEMB     129      SAPE     H8Y      HAL2     0.900000E-01   1.00800           0
     18363 MEMB     129      SAPE     C39      CTL2    -0.180000       12.0110           0
     18364 MEMB     129      SAPE     H9X      HAL2     0.900000E-01   1.00800           0
     18365 MEMB     129      SAPE     H9Y      HAL2     0.900000E-01   1.00800           0
     18366 MEMB     129      SAPE     C310     CTL2    -0.180000       12.0110           0
     18367 MEMB     129      SAPE     H10X     HAL2     0.900000E-01   1.00800           0
     18368 MEMB     129      SAPE     H10Y     HAL2     0.900000E-01   1.00800           0
     18369 MEMB     129      SAPE     C311     CTL2    -0.180000       12.0110           0
     18370 MEMB     129      SAPE     H11X     HAL2     0.900000E-01   1.00800           0
     18371 MEMB     129      SAPE     H11Y     HAL2     0.900000E-01   1.00800           0
     18372 MEMB     129      SAPE     C312     CTL2    -0.180000       12.0110           0
     18373 MEMB     129      SAPE     H12X     HAL2     0.900000E-01   1.00800           0
     18374 MEMB     129      SAPE     H12Y     HAL2     0.900000E-01   1.00800           0
     18375 MEMB     129      SAPE     C313     CTL2    -0.180000       12.0110           0
     18376 MEMB     129      SAPE     H13X     HAL2     0.900000E-01   1.00800           0
     18377 MEMB     129      SAPE     H13Y     HAL2     0.900000E-01   1.00800           0
     18378 MEMB     129      SAPE     C314     CTL2    -0.180000       12.0110           0
     18379 MEMB     129      SAPE     H14X     HAL2     0.900000E-01   1.00800           0
     18380 MEMB     129      SAPE     H14Y     HAL2     0.900000E-01   1.00800           0
     18381 MEMB     129      SAPE     C315     CTL2    -0.180000       12.0110           0
     18382 MEMB     129      SAPE     H15X     HAL2     0.900000E-01   1.00800           0
     18383 MEMB     129      SAPE     H15Y     HAL2     0.900000E-01   1.00800           0
     18384 MEMB     129      SAPE     C316     CTL2    -0.180000       12.0110           0
     18385 MEMB     129      SAPE     H16X     HAL2     0.900000E-01   1.00800           0
     18386 MEMB     129      SAPE     H16Y     HAL2     0.900000E-01   1.00800           0
     18387 MEMB     129      SAPE     C317     CTL2    -0.180000       12.0110           0
     18388 MEMB     129      SAPE     H17X     HAL2     0.900000E-01   1.00800           0
     18389 MEMB     129      SAPE     H17Y     HAL2     0.900000E-01   1.00800           0
     18390 MEMB     129      SAPE     C318     CTL3    -0.270000       12.0110           0
     18391 MEMB     129      SAPE     H18X     HAL3     0.900000E-01   1.00800           0
     18392 MEMB     129      SAPE     H18Y     HAL3     0.900000E-01   1.00800           0
     18393 MEMB     129      SAPE     H18Z     HAL3     0.900000E-01   1.00800           0
     18394 MEMB     149      SAPE     N        NH3L    -0.300000       14.0070           0
     18395 MEMB     149      SAPE     HN1      HCL      0.330000       1.00800           0
     18396 MEMB     149      SAPE     HN2      HCL      0.330000       1.00800           0
     18397 MEMB     149      SAPE     HN3      HCL      0.330000       1.00800           0
     18398 MEMB     149      SAPE     C12      CTL2     0.130000       12.0110           0
     18399 MEMB     149      SAPE     H12A     HAL2     0.900000E-01   1.00800           0
     18400 MEMB     149      SAPE     H12B     HAL2     0.900000E-01   1.00800           0
     18401 MEMB     149      SAPE     C11      CTL2    -0.800000E-01   12.0110           0
     18402 MEMB     149      SAPE     H11A     HAL2     0.900000E-01   1.00800           0
     18403 MEMB     149      SAPE     H11B     HAL2     0.900000E-01   1.00800           0
     18404 MEMB     149      SAPE     P        PL       1.500000       30.9740           0
     18405 MEMB     149      SAPE     O13      O2L     -0.780000       15.9994           0
     18406 MEMB     149      SAPE     O14      O2L     -0.780000       15.9994           0
     18407 MEMB     149      SAPE     O12      OSLP    -0.570000       15.9994           0
     18408 MEMB     149      SAPE     O11      OSLP    -0.570000       15.9994           0
     18409 MEMB     149      SAPE     C1       CTL2    -0.800000E-01   12.0110           0
     18410 MEMB     149      SAPE     HA       HAL2     0.900000E-01   1.00800           0
     18411 MEMB     149      SAPE     HB       HAL2     0.900000E-01   1.00800           0
     18412 MEMB     149      SAPE     C2       CTL1     0.170000       12.0110           0
     18413 MEMB     149      SAPE     HS       HAL1     0.900000E-01   1.00800           0
     18414 MEMB     149      SAPE     O21      OSL     -0.490000       15.9994           0
     18415 MEMB     149      SAPE     C21      CL       0.900000       12.0110           0
     18416 MEMB     149      SAPE     O22      OBL     -0.630000       15.9994           0
     18417 MEMB     149      SAPE     C22      CTL2    -0.220000       12.0110           0
     18418 MEMB     149      SAPE     H2R      HAL2     0.900000E-01   1.00800           0
     18419 MEMB     149      SAPE     H2S      HAL2     0.900000E-01   1.00800           0
     18420 MEMB     149      SAPE     C3       CTL2     0.800000E-01   12.0110           0
     18421 MEMB     149      SAPE     HX       HAL2     0.900000E-01   1.00800           0
     18422 MEMB     149      SAPE     HY       HAL2     0.900000E-01   1.00800           0
     18423 MEMB     149      SAPE     O31      OSL     -0.490000       15.9994           0
     18424 MEMB     149      SAPE     C31      CL       0.900000       12.0110           0
     18425 MEMB     149      SAPE     O32      OBL     -0.630000       15.9994           0
     18426 MEMB     149      SAPE     C32      CTL2    -0.220000       12.0110           0
     18427 MEMB     149      SAPE     H2X      HAL2     0.900000E-01   1.00800           0
     18428 MEMB     149      SAPE     H2Y      HAL2     0.900000E-01   1.00800           0
     18429 MEMB     149      SAPE     C23      CTL2    -0.180000       12.0110           0
     18430 MEMB     149      SAPE     H3R      HAL2     0.900000E-01   1.00800           0
     18431 MEMB     149      SAPE     H3S      HAL2     0.900000E-01   1.00800           0
     18432 MEMB     149      SAPE     C24      CTL2    -0.180000       12.0110           0
     18433 MEMB     149      SAPE     H4R      HAL2     0.900000E-01   1.00800           0
     18434 MEMB     149      SAPE     H4S      HAL2     0.900000E-01   1.00800           0
     18435 MEMB     149      SAPE     C25      CEL1    -0.150000       12.0110           0
     18436 MEMB     149      SAPE     H5R      HEL1     0.150000       1.00800           0
     18437 MEMB     149      SAPE     C26      CEL1    -0.150000       12.0110           0
     18438 MEMB     149      SAPE     H6R      HEL1     0.150000       1.00800           0
     18439 MEMB     149      SAPE     C27      CTL2    -0.180000       12.0110           0
     18440 MEMB     149      SAPE     H7R      HAL2     0.900000E-01   1.00800           0
     18441 MEMB     149      SAPE     H7S      HAL2     0.900000E-01   1.00800           0
     18442 MEMB     149      SAPE     C28      CEL1    -0.150000       12.0110           0
     18443 MEMB     149      SAPE     H8R      HEL1     0.150000       1.00800           0
     18444 MEMB     149      SAPE     C29      CEL1    -0.150000       12.0110           0
     18445 MEMB     149      SAPE     H9R      HEL1     0.150000       1.00800           0
     18446 MEMB     149      SAPE     C210     CTL2    -0.180000       12.0110           0
     18447 MEMB     149      SAPE     H10R     HAL2     0.900000E-01   1.00800           0
     18448 MEMB     149      SAPE     H10S     HAL2     0.900000E-01   1.00800           0
     18449 MEMB     149      SAPE     C211     CEL1    -0.150000       12.0110           0
     18450 MEMB     149      SAPE     H11R     HEL1     0.150000       1.00800           0
     18451 MEMB     149      SAPE     C212     CEL1    -0.150000       12.0110           0
     18452 MEMB     149      SAPE     H12R     HEL1     0.150000       1.00800           0
     18453 MEMB     149      SAPE     C213     CTL2    -0.180000       12.0110           0
     18454 MEMB     149      SAPE     H13R     HAL2     0.900000E-01   1.00800           0
     18455 MEMB     149      SAPE     H13S     HAL2     0.900000E-01   1.00800           0
     18456 MEMB     149      SAPE     C214     CEL1    -0.150000       12.0110           0
     18457 MEMB     149      SAPE     H14R     HEL1     0.150000       1.00800           0
     18458 MEMB     149      SAPE     C215     CEL1    -0.150000       12.0110           0
     18459 MEMB     149      SAPE     H15R     HEL1     0.150000       1.00800           0
     18460 MEMB     149      SAPE     C216     CTL2    -0.180000       12.0110           0
     18461 MEMB     149      SAPE     H16R     HAL2     0.900000E-01   1.00800           0
     18462 MEMB     149      SAPE     H16S     HAL2     0.900000E-01   1.00800           0
     18463 MEMB     149      SAPE     C217     CTL2    -0.180000       12.0110           0
     18464 MEMB     149      SAPE     H17R     HAL2     0.900000E-01   1.00800           0
     18465 MEMB     149      SAPE     H17S     HAL2     0.900000E-01   1.00800           0
     18466 MEMB     149      SAPE     C218     CTL2    -0.180000       12.0110           0
     18467 MEMB     149      SAPE     H18R     HAL2     0.900000E-01   1.00800           0
     18468 MEMB     149      SAPE     H18S     HAL2     0.900000E-01   1.00800           0
     18469 MEMB     149      SAPE     C219     CTL2    -0.180000       12.0110           0
     18470 MEMB     149      SAPE     H19R     HAL2     0.900000E-01   1.00800           0
     18471 MEMB     149      SAPE     H19S     HAL2     0.900000E-01   1.00800           0
     18472 MEMB     149      SAPE     C220     CTL3    -0.270000       12.0110           0
     18473 MEMB     149      SAPE     H20R     HAL3     0.900000E-01   1.00800           0
     18474 MEMB     149      SAPE     H20S     HAL3     0.900000E-01   1.00800           0
     18475 MEMB     149      SAPE     H20T     HAL3     0.900000E-01   1.00800           0
     18476 MEMB     149      SAPE     C33      CTL2    -0.180000       12.0110           0
     18477 MEMB     149      SAPE     H3X      HAL2     0.900000E-01   1.00800           0
     18478 MEMB     149      SAPE     H3Y      HAL2     0.900000E-01   1.00800           0
     18479 MEMB     149      SAPE     C34      CTL2    -0.180000       12.0110           0
     18480 MEMB     149      SAPE     H4X      HAL2     0.900000E-01   1.00800           0
     18481 MEMB     149      SAPE     H4Y      HAL2     0.900000E-01   1.00800           0
     18482 MEMB     149      SAPE     C35      CTL2    -0.180000       12.0110           0
     18483 MEMB     149      SAPE     H5X      HAL2     0.900000E-01   1.00800           0
     18484 MEMB     149      SAPE     H5Y      HAL2     0.900000E-01   1.00800           0
     18485 MEMB     149      SAPE     C36      CTL2    -0.180000       12.0110           0
     18486 MEMB     149      SAPE     H6X      HAL2     0.900000E-01   1.00800           0
     18487 MEMB     149      SAPE     H6Y      HAL2     0.900000E-01   1.00800           0
     18488 MEMB     149      SAPE     C37      CTL2    -0.180000       12.0110           0
     18489 MEMB     149      SAPE     H7X      HAL2     0.900000E-01   1.00800           0
     18490 MEMB     149      SAPE     H7Y      HAL2     0.900000E-01   1.00800           0
     18491 MEMB     149      SAPE     C38      CTL2    -0.180000       12.0110           0
     18492 MEMB     149      SAPE     H8X      HAL2     0.900000E-01   1.00800           0
     18493 MEMB     149      SAPE     H8Y      HAL2     0.900000E-01   1.00800           0
     18494 MEMB     149      SAPE     C39      CTL2    -0.180000       12.0110           0
     18495 MEMB     149      SAPE     H9X      HAL2     0.900000E-01   1.00800           0
     18496 MEMB     149      SAPE     H9Y      HAL2     0.900000E-01   1.00800           0
     18497 MEMB     149      SAPE     C310     CTL2    -0.180000       12.0110           0
     18498 MEMB     149      SAPE     H10X     HAL2     0.900000E-01   1.00800           0
     18499 MEMB     149      SAPE     H10Y     HAL2     0.900000E-01   1.00800           0
     18500 MEMB     149      SAPE     C311     CTL2    -0.180000       12.0110           0
     18501 MEMB     149      SAPE     H11X     HAL2     0.900000E-01   1.00800           0
     18502 MEMB     149      SAPE     H11Y     HAL2     0.900000E-01   1.00800           0
     18503 MEMB     149      SAPE     C312     CTL2    -0.180000       12.0110           0
     18504 MEMB     149      SAPE     H12X     HAL2     0.900000E-01   1.00800           0
     18505 MEMB     149      SAPE     H12Y     HAL2     0.900000E-01   1.00800           0
     18506 MEMB     149      SAPE     C313     CTL2    -0.180000       12.0110           0
     18507 MEMB     149      SAPE     H13X     HAL2     0.900000E-01   1.00800           0
     18508 MEMB     149      SAPE     H13Y     HAL2     0.900000E-01   1.00800           0
     18509 MEMB     149      SAPE     C314     CTL2    -0.180000       12.0110           0
     18510 MEMB     149      SAPE     H14X     HAL2     0.900000E-01   1.00800           0
     18511 MEMB     149      SAPE     H14Y     HAL2     0.900000E-01   1.00800           0
     18512 MEMB     149      SAPE     C315     CTL2    -0.180000       12.0110           0
     18513 MEMB     149      SAPE     H15X     HAL2     0.900000E-01   1.00800           0
     18514 MEMB     149      SAPE     H15Y     HAL2     0.900000E-01   1.00800           0
     18515 MEMB     149      SAPE     C316     CTL2    -0.180000       12.0110           0
     18516 MEMB     149      SAPE     H16X     HAL2     0.900000E-01   1.00800           0
     18517 MEMB     149      SAPE     H16Y     HAL2     0.900000E-01   1.00800           0
     18518 MEMB     149      SAPE     C317     CTL2    -0.180000       12.0110           0
     18519 MEMB     149      SAPE     H17X     HAL2     0.900000E-01   1.00800           0
     18520 MEMB     149      SAPE     H17Y     HAL2     0.900000E-01   1.00800           0
     18521 MEMB     149      SAPE     C318     CTL3    -0.270000       12.0110           0
     18522 MEMB     149      SAPE     H18X     HAL3     0.900000E-01   1.00800           0
     18523 MEMB     149      SAPE     H18Y     HAL3     0.900000E-01   1.00800           0
     18524 MEMB     149      SAPE     H18Z     HAL3     0.900000E-01   1.00800           0
     18525 MEMB     154      SAPE     N        NH3L    -0.300000       14.0070           0
     18526 MEMB     154      SAPE     HN1      HCL      0.330000       1.00800           0
     18527 MEMB     154      SAPE     HN2      HCL      0.330000       1.00800           0
     18528 MEMB     154      SAPE     HN3      HCL      0.330000       1.00800           0
     18529 MEMB     154      SAPE     C12      CTL2     0.130000       12.0110           0
     18530 MEMB     154      SAPE     H12A     HAL2     0.900000E-01   1.00800           0
     18531 MEMB     154      SAPE     H12B     HAL2     0.900000E-01   1.00800           0
     18532 MEMB     154      SAPE     C11      CTL2    -0.800000E-01   12.0110           0
     18533 MEMB     154      SAPE     H11A     HAL2     0.900000E-01   1.00800           0
     18534 MEMB     154      SAPE     H11B     HAL2     0.900000E-01   1.00800           0
     18535 MEMB     154      SAPE     P        PL       1.500000       30.9740           0
     18536 MEMB     154      SAPE     O13      O2L     -0.780000       15.9994           0
     18537 MEMB     154      SAPE     O14      O2L     -0.780000       15.9994           0
     18538 MEMB     154      SAPE     O12      OSLP    -0.570000       15.9994           0
     18539 MEMB     154      SAPE     O11      OSLP    -0.570000       15.9994           0
     18540 MEMB     154      SAPE     C1       CTL2    -0.800000E-01   12.0110           0
     18541 MEMB     154      SAPE     HA       HAL2     0.900000E-01   1.00800           0
     18542 MEMB     154      SAPE     HB       HAL2     0.900000E-01   1.00800           0
     18543 MEMB     154      SAPE     C2       CTL1     0.170000       12.0110           0
     18544 MEMB     154      SAPE     HS       HAL1     0.900000E-01   1.00800           0
     18545 MEMB     154      SAPE     O21      OSL     -0.490000       15.9994           0
     18546 MEMB     154      SAPE     C21      CL       0.900000       12.0110           0
     18547 MEMB     154      SAPE     O22      OBL     -0.630000       15.9994           0
     18548 MEMB     154      SAPE     C22      CTL2    -0.220000       12.0110           0
     18549 MEMB     154      SAPE     H2R      HAL2     0.900000E-01   1.00800           0
     18550 MEMB     154      SAPE     H2S      HAL2     0.900000E-01   1.00800           0
     18551 MEMB     154      SAPE     C3       CTL2     0.800000E-01   12.0110           0
     18552 MEMB     154      SAPE     HX       HAL2     0.900000E-01   1.00800           0
     18553 MEMB     154      SAPE     HY       HAL2     0.900000E-01   1.00800           0
     18554 MEMB     154      SAPE     O31      OSL     -0.490000       15.9994           0
     18555 MEMB     154      SAPE     C31      CL       0.900000       12.0110           0
     18556 MEMB     154      SAPE     O32      OBL     -0.630000       15.9994           0
     18557 MEMB     154      SAPE     C32      CTL2    -0.220000       12.0110           0
     18558 MEMB     154      SAPE     H2X      HAL2     0.900000E-01   1.00800           0
     18559 MEMB     154      SAPE     H2Y      HAL2     0.900000E-01   1.00800           0
     18560 MEMB     154      SAPE     C23      CTL2    -0.180000       12.0110           0
     18561 MEMB     154      SAPE     H3R      HAL2     0.900000E-01   1.00800           0
     18562 MEMB     154      SAPE     H3S      HAL2     0.900000E-01   1.00800           0
     18563 MEMB     154      SAPE     C24      CTL2    -0.180000       12.0110           0
     18564 MEMB     154      SAPE     H4R      HAL2     0.900000E-01   1.00800           0
     18565 MEMB     154      SAPE     H4S      HAL2     0.900000E-01   1.00800           0
     18566 MEMB     154      SAPE     C25      CEL1    -0.150000       12.0110           0
     18567 MEMB     154      SAPE     H5R      HEL1     0.150000       1.00800           0
     18568 MEMB     154      SAPE     C26      CEL1    -0.150000       12.0110           0
     18569 MEMB     154      SAPE     H6R      HEL1     0.150000       1.00800           0
     18570 MEMB     154      SAPE     C27      CTL2    -0.180000       12.0110           0
     18571 MEMB     154      SAPE     H7R      HAL2     0.900000E-01   1.00800           0
     18572 MEMB     154      SAPE     H7S      HAL2     0.900000E-01   1.00800           0
     18573 MEMB     154      SAPE     C28      CEL1    -0.150000       12.0110           0
     18574 MEMB     154      SAPE     H8R      HEL1     0.150000       1.00800           0
     18575 MEMB     154      SAPE     C29      CEL1    -0.150000       12.0110           0
     18576 MEMB     154      SAPE     H9R      HEL1     0.150000       1.00800           0
     18577 MEMB     154      SAPE     C210     CTL2    -0.180000       12.0110           0
     18578 MEMB     154      SAPE     H10R     HAL2     0.900000E-01   1.00800           0
     18579 MEMB     154      SAPE     H10S     HAL2     0.900000E-01   1.00800           0
     18580 MEMB     154      SAPE     C211     CEL1    -0.150000       12.0110           0
     18581 MEMB     154      SAPE     H11R     HEL1     0.150000       1.00800           0
     18582 MEMB     154      SAPE     C212     CEL1    -0.150000       12.0110           0
     18583 MEMB     154      SAPE     H12R     HEL1     0.150000       1.00800           0
     18584 MEMB     154      SAPE     C213     CTL2    -0.180000       12.0110           0
     18585 MEMB     154      SAPE     H13R     HAL2     0.900000E-01   1.00800           0
     18586 MEMB     154      SAPE     H13S     HAL2     0.900000E-01   1.00800           0
     18587 MEMB     154      SAPE     C214     CEL1    -0.150000       12.0110           0
     18588 MEMB     154      SAPE     H14R     HEL1     0.150000       1.00800           0
     18589 MEMB     154      SAPE     C215     CEL1    -0.150000       12.0110           0
     18590 MEMB     154      SAPE     H15R     HEL1     0.150000       1.00800           0
     18591 MEMB     154      SAPE     C216     CTL2    -0.180000       12.0110           0
     18592 MEMB     154      SAPE     H16R     HAL2     0.900000E-01   1.00800           0
     18593 MEMB     154      SAPE     H16S     HAL2     0.900000E-01   1.00800           0
     18594 MEMB     154      SAPE     C217     CTL2    -0.180000       12.0110           0
     18595 MEMB     154      SAPE     H17R     HAL2     0.900000E-01   1.00800           0
     18596 MEMB     154      SAPE     H17S     HAL2     0.900000E-01   1.00800           0
     18597 MEMB     154      SAPE     C218     CTL2    -0.180000       12.0110           0
     18598 MEMB     154      SAPE     H18R     HAL2     0.900000E-01   1.00800           0
     18599 MEMB     154      SAPE     H18S     HAL2     0.900000E-01   1.00800           0
     18600 MEMB     154      SAPE     C219     CTL2    -0.180000       12.0110           0
     18601 MEMB     154      SAPE     H19R     HAL2     0.900000E-01   1.00800           0
     18602 MEMB     154      SAPE     H19S     HAL2     0.900000E-01   1.00800           0
     18603 MEMB     154      SAPE     C220     CTL3    -0.270000       12.0110           0
     18604 MEMB     154      SAPE     H20R     HAL3     0.900000E-01   1.00800           0
     18605 MEMB     154      SAPE     H20S     HAL3     0.900000E-01   1.00800           0
     18606 MEMB     154      SAPE     H20T     HAL3     0.900000E-01   1.00800           0
     18607 MEMB     154      SAPE     C33      CTL2    -0.180000       12.0110           0
     18608 MEMB     154      SAPE     H3X      HAL2     0.900000E-01   1.00800           0
     18609 MEMB     154      SAPE     H3Y      HAL2     0.900000E-01   1.00800           0
     18610 MEMB     154      SAPE     C34      CTL2    -0.180000       12.0110           0
     18611 MEMB     154      SAPE     H4X      HAL2     0.900000E-01   1.00800           0
     18612 MEMB     154      SAPE     H4Y      HAL2     0.900000E-01   1.00800           0
     18613 MEMB     154      SAPE     C35      CTL2    -0.180000       12.0110           0
     18614 MEMB     154      SAPE     H5X      HAL2     0.900000E-01   1.00800           0
     18615 MEMB     154      SAPE     H5Y      HAL2     0.900000E-01   1.00800           0
     18616 MEMB     154      SAPE     C36      CTL2    -0.180000       12.0110           0
     18617 MEMB     154      SAPE     H6X      HAL2     0.900000E-01   1.00800           0
     18618 MEMB     154      SAPE     H6Y      HAL2     0.900000E-01   1.00800           0
     18619 MEMB     154      SAPE     C37      CTL2    -0.180000       12.0110           0
     18620 MEMB     154      SAPE     H7X      HAL2     0.900000E-01   1.00800           0
     18621 MEMB     154      SAPE     H7Y      HAL2     0.900000E-01   1.00800           0
     18622 MEMB     154      SAPE     C38      CTL2    -0.180000       12.0110           0
     18623 MEMB     154      SAPE     H8X      HAL2     0.900000E-01   1.00800           0
     18624 MEMB     154      SAPE     H8Y      HAL2     0.900000E-01   1.00800           0
     18625 MEMB     154      SAPE     C39      CTL2    -0.180000       12.0110           0
     18626 MEMB     154      SAPE     H9X      HAL2     0.900000E-01   1.00800           0
     18627 MEMB     154      SAPE     H9Y      HAL2     0.900000E-01   1.00800           0
     18628 MEMB     154      SAPE     C310     CTL2    -0.180000       12.0110           0
     18629 MEMB     154      SAPE     H10X     HAL2     0.900000E-01   1.00800           0
     18630 MEMB     154      SAPE     H10Y     HAL2     0.900000E-01   1.00800           0
     18631 MEMB     154      SAPE     C311     CTL2    -0.180000       12.0110           0
     18632 MEMB     154      SAPE     H11X     HAL2     0.900000E-01   1.00800           0
     18633 MEMB     154      SAPE     H11Y     HAL2     0.900000E-01   1.00800           0
     18634 MEMB     154      SAPE     C312     CTL2    -0.180000       12.0110           0
     18635 MEMB     154      SAPE     H12X     HAL2     0.900000E-01   1.00800           0
     18636 MEMB     154      SAPE     H12Y     HAL2     0.900000E-01   1.00800           0
     18637 MEMB     154      SAPE     C313     CTL2    -0.180000       12.0110           0
     18638 MEMB     154      SAPE     H13X     HAL2     0.900000E-01   1.00800           0
     18639 MEMB     154      SAPE     H13Y     HAL2     0.900000E-01   1.00800           0
     18640 MEMB     154      SAPE     C314     CTL2    -0.180000       12.0110           0
     18641 MEMB     154      SAPE     H14X     HAL2     0.900000E-01   1.00800           0
     18642 MEMB     154      SAPE     H14Y     HAL2     0.900000E-01   1.00800           0
     18643 MEMB     154      SAPE     C315     CTL2    -0.180000       12.0110           0
     18644 MEMB     154      SAPE     H15X     HAL2     0.900000E-01   1.00800           0
     18645 MEMB     154      SAPE     H15Y     HAL2     0.900000E-01   1.00800           0
     18646 MEMB     154      SAPE     C316     CTL2    -0.180000       12.0110           0
     18647 MEMB     154      SAPE     H16X     HAL2     0.900000E-01   1.00800           0
     18648 MEMB     154      SAPE     H16Y     HAL2     0.900000E-01   1.00800           0
     18649 MEMB     154      SAPE     C317     CTL2    -0.180000       12.0110           0
     18650 MEMB     154      SAPE     H17X     HAL2     0.900000E-01   1.00800           0
     18651 MEMB     154      SAPE     H17Y     HAL2     0.900000E-01   1.00800           0
     18652 MEMB     154      SAPE     C318     CTL3    -0.270000       12.0110           0
     18653 MEMB     154      SAPE     H18X     HAL3     0.900000E-01   1.00800           0
     18654 MEMB     154      SAPE     H18Y     HAL3     0.900000E-01   1.00800           0
     18655 MEMB     154      SAPE     H18Z     HAL3     0.900000E-01   1.00800           0
     18656 MEMB     165      SAPE     N        NH3L    -0.300000       14.0070           0
     18657 MEMB     165      SAPE     HN1      HCL      0.330000       1.00800           0
     18658 MEMB     165      SAPE     HN2      HCL      0.330000       1.00800           0
     18659 MEMB     165      SAPE     HN3      HCL      0.330000       1.00800           0
     18660 MEMB     165      SAPE     C12      CTL2     0.130000       12.0110           0
     18661 MEMB     165      SAPE     H12A     HAL2     0.900000E-01   1.00800           0
     18662 MEMB     165      SAPE     H12B     HAL2     0.900000E-01   1.00800           0
     18663 MEMB     165      SAPE     C11      CTL2    -0.800000E-01   12.0110           0
     18664 MEMB     165      SAPE     H11A     HAL2     0.900000E-01   1.00800           0
     18665 MEMB     165      SAPE     H11B     HAL2     0.900000E-01   1.00800           0
     18666 MEMB     165      SAPE     P        PL       1.500000       30.9740           0
     18667 MEMB     165      SAPE     O13      O2L     -0.780000       15.9994           0
     18668 MEMB     165      SAPE     O14      O2L     -0.780000       15.9994           0
     18669 MEMB     165      SAPE     O12      OSLP    -0.570000       15.9994           0
     18670 MEMB     165      SAPE     O11      OSLP    -0.570000       15.9994           0
     18671 MEMB     165      SAPE     C1       CTL2    -0.800000E-01   12.0110           0
     18672 MEMB     165      SAPE     HA       HAL2     0.900000E-01   1.00800           0
     18673 MEMB     165      SAPE     HB       HAL2     0.900000E-01   1.00800           0
     18674 MEMB     165      SAPE     C2       CTL1     0.170000       12.0110           0
     18675 MEMB     165      SAPE     HS       HAL1     0.900000E-01   1.00800           0
     18676 MEMB     165      SAPE     O21      OSL     -0.490000       15.9994           0
     18677 MEMB     165      SAPE     C21      CL       0.900000       12.0110           0
     18678 MEMB     165      SAPE     O22      OBL     -0.630000       15.9994           0
     18679 MEMB     165      SAPE     C22      CTL2    -0.220000       12.0110           0
     18680 MEMB     165      SAPE     H2R      HAL2     0.900000E-01   1.00800           0
     18681 MEMB     165      SAPE     H2S      HAL2     0.900000E-01   1.00800           0
     18682 MEMB     165      SAPE     C3       CTL2     0.800000E-01   12.0110           0
     18683 MEMB     165      SAPE     HX       HAL2     0.900000E-01   1.00800           0
     18684 MEMB     165      SAPE     HY       HAL2     0.900000E-01   1.00800           0
     18685 MEMB     165      SAPE     O31      OSL     -0.490000       15.9994           0
     18686 MEMB     165      SAPE     C31      CL       0.900000       12.0110           0
     18687 MEMB     165      SAPE     O32      OBL     -0.630000       15.9994           0
     18688 MEMB     165      SAPE     C32      CTL2    -0.220000       12.0110           0
     18689 MEMB     165      SAPE     H2X      HAL2     0.900000E-01   1.00800           0
     18690 MEMB     165      SAPE     H2Y      HAL2     0.900000E-01   1.00800           0
     18691 MEMB     165      SAPE     C23      CTL2    -0.180000       12.0110           0
     18692 MEMB     165      SAPE     H3R      HAL2     0.900000E-01   1.00800           0
     18693 MEMB     165      SAPE     H3S      HAL2     0.900000E-01   1.00800           0
     18694 MEMB     165      SAPE     C24      CTL2    -0.180000       12.0110           0
     18695 MEMB     165      SAPE     H4R      HAL2     0.900000E-01   1.00800           0
     18696 MEMB     165      SAPE     H4S      HAL2     0.900000E-01   1.00800           0
     18697 MEMB     165      SAPE     C25      CEL1    -0.150000       12.0110           0
     18698 MEMB     165      SAPE     H5R      HEL1     0.150000       1.00800           0
     18699 MEMB     165      SAPE     C26      CEL1    -0.150000       12.0110           0
     18700 MEMB     165      SAPE     H6R      HEL1     0.150000       1.00800           0
     18701 MEMB     165      SAPE     C27      CTL2    -0.180000       12.0110           0
     18702 MEMB     165      SAPE     H7R      HAL2     0.900000E-01   1.00800           0
     18703 MEMB     165      SAPE     H7S      HAL2     0.900000E-01   1.00800           0
     18704 MEMB     165      SAPE     C28      CEL1    -0.150000       12.0110           0
     18705 MEMB     165      SAPE     H8R      HEL1     0.150000       1.00800           0
     18706 MEMB     165      SAPE     C29      CEL1    -0.150000       12.0110           0
     18707 MEMB     165      SAPE     H9R      HEL1     0.150000       1.00800           0
     18708 MEMB     165      SAPE     C210     CTL2    -0.180000       12.0110           0
     18709 MEMB     165      SAPE     H10R     HAL2     0.900000E-01   1.00800           0
     18710 MEMB     165      SAPE     H10S     HAL2     0.900000E-01   1.00800           0
     18711 MEMB     165      SAPE     C211     CEL1    -0.150000       12.0110           0
     18712 MEMB     165      SAPE     H11R     HEL1     0.150000       1.00800           0
     18713 MEMB     165      SAPE     C212     CEL1    -0.150000       12.0110           0
     18714 MEMB     165      SAPE     H12R     HEL1     0.150000       1.00800           0
     18715 MEMB     165      SAPE     C213     CTL2    -0.180000       12.0110           0
     18716 MEMB     165      SAPE     H13R     HAL2     0.900000E-01   1.00800           0
     18717 MEMB     165      SAPE     H13S     HAL2     0.900000E-01   1.00800           0
     18718 MEMB     165      SAPE     C214     CEL1    -0.150000       12.0110           0
     18719 MEMB     165      SAPE     H14R     HEL1     0.150000       1.00800           0
     18720 MEMB     165      SAPE     C215     CEL1    -0.150000       12.0110           0
     18721 MEMB     165      SAPE     H15R     HEL1     0.150000       1.00800           0
     18722 MEMB     165      SAPE     C216     CTL2    -0.180000       12.0110           0
     18723 MEMB     165      SAPE     H16R     HAL2     0.900000E-01   1.00800           0
     18724 MEMB     165      SAPE     H16S     HAL2     0.900000E-01   1.00800           0
     18725 MEMB     165      SAPE     C217     CTL2    -0.180000       12.0110           0
     18726 MEMB     165      SAPE     H17R     HAL2     0.900000E-01   1.00800           0
     18727 MEMB     165      SAPE     H17S     HAL2     0.900000E-01   1.00800           0
     18728 MEMB     165      SAPE     C218     CTL2    -0.180000       12.0110           0
     18729 MEMB     165      SAPE     H18R     HAL2     0.900000E-01   1.00800           0
     18730 MEMB     165      SAPE     H18S     HAL2     0.900000E-01   1.00800           0
     18731 MEMB     165      SAPE     C219     CTL2    -0.180000       12.0110           0
     18732 MEMB     165      SAPE     H19R     HAL2     0.900000E-01   1.00800           0
     18733 MEMB     165      SAPE     H19S     HAL2     0.900000E-01   1.00800           0
     18734 MEMB     165      SAPE     C220     CTL3    -0.270000       12.0110           0
     18735 MEMB     165      SAPE     H20R     HAL3     0.900000E-01   1.00800           0
     18736 MEMB     165      SAPE     H20S     HAL3     0.900000E-01   1.00800           0
     18737 MEMB     165      SAPE     H20T     HAL3     0.900000E-01   1.00800           0
     18738 MEMB     165      SAPE     C33      CTL2    -0.180000       12.0110           0
     18739 MEMB     165      SAPE     H3X      HAL2     0.900000E-01   1.00800           0
     18740 MEMB     165      SAPE     H3Y      HAL2     0.900000E-01   1.00800           0
     18741 MEMB     165      SAPE     C34      CTL2    -0.180000       12.0110           0
     18742 MEMB     165      SAPE     H4X      HAL2     0.900000E-01   1.00800           0
     18743 MEMB     165      SAPE     H4Y      HAL2     0.900000E-01   1.00800           0
     18744 MEMB     165      SAPE     C35      CTL2    -0.180000       12.0110           0
     18745 MEMB     165      SAPE     H5X      HAL2     0.900000E-01   1.00800           0
     18746 MEMB     165      SAPE     H5Y      HAL2     0.900000E-01   1.00800           0
     18747 MEMB     165      SAPE     C36      CTL2    -0.180000       12.0110           0
     18748 MEMB     165      SAPE     H6X      HAL2     0.900000E-01   1.00800           0
     18749 MEMB     165      SAPE     H6Y      HAL2     0.900000E-01   1.00800           0
     18750 MEMB     165      SAPE     C37      CTL2    -0.180000       12.0110           0
     18751 MEMB     165      SAPE     H7X      HAL2     0.900000E-01   1.00800           0
     18752 MEMB     165      SAPE     H7Y      HAL2     0.900000E-01   1.00800           0
     18753 MEMB     165      SAPE     C38      CTL2    -0.180000       12.0110           0
     18754 MEMB     165      SAPE     H8X      HAL2     0.900000E-01   1.00800           0
     18755 MEMB     165      SAPE     H8Y      HAL2     0.900000E-01   1.00800           0
     18756 MEMB     165      SAPE     C39      CTL2    -0.180000       12.0110           0
     18757 MEMB     165      SAPE     H9X      HAL2     0.900000E-01   1.00800           0
     18758 MEMB     165      SAPE     H9Y      HAL2     0.900000E-01   1.00800           0
     18759 MEMB     165      SAPE     C310     CTL2    -0.180000       12.0110           0
     18760 MEMB     165      SAPE     H10X     HAL2     0.900000E-01   1.00800           0
     18761 MEMB     165      SAPE     H10Y     HAL2     0.900000E-01   1.00800           0
     18762 MEMB     165      SAPE     C311     CTL2    -0.180000       12.0110           0
     18763 MEMB     165      SAPE     H11X     HAL2     0.900000E-01   1.00800           0
     18764 MEMB     165      SAPE     H11Y     HAL2     0.900000E-01   1.00800           0
     18765 MEMB     165      SAPE     C312     CTL2    -0.180000       12.0110           0
     18766 MEMB     165      SAPE     H12X     HAL2     0.900000E-01   1.00800           0
     18767 MEMB     165      SAPE     H12Y     HAL2     0.900000E-01   1.00800           0
     18768 MEMB     165      SAPE     C313     CTL2    -0.180000       12.0110           0
     18769 MEMB     165      SAPE     H13X     HAL2     0.900000E-01   1.00800           0
     18770 MEMB     165      SAPE     H13Y     HAL2     0.900000E-01   1.00800           0
     18771 MEMB     165      SAPE     C314     CTL2    -0.180000       12.0110           0
     18772 MEMB     165      SAPE     H14X     HAL2     0.900000E-01   1.00800           0
     18773 MEMB     165      SAPE     H14Y     HAL2     0.900000E-01   1.00800           0
     18774 MEMB     165      SAPE     C315     CTL2    -0.180000       12.0110           0
     18775 MEMB     165      SAPE     H15X     HAL2     0.900000E-01   1.00800           0
     18776 MEMB     165      SAPE     H15Y     HAL2     0.900000E-01   1.00800           0
     18777 MEMB     165      SAPE     C316     CTL2    -0.180000       12.0110           0
     18778 MEMB     165      SAPE     H16X     HAL2     0.900000E-01   1.00800           0
     18779 MEMB     165      SAPE     H16Y     HAL2     0.900000E-01   1.00800           0
     18780 MEMB     165      SAPE     C317     CTL2    -0.180000       12.0110           0
     18781 MEMB     165      SAPE     H17X     HAL2     0.900000E-01   1.00800           0
     18782 MEMB     165      SAPE     H17Y     HAL2     0.900000E-01   1.00800           0
     18783 MEMB     165      SAPE     C318     CTL3    -0.270000       12.0110           0
     18784 MEMB     165      SAPE     H18X     HAL3     0.900000E-01   1.00800           0
     18785 MEMB     165      SAPE     H18Y     HAL3     0.900000E-01   1.00800           0
     18786 MEMB     165      SAPE     H18Z     HAL3     0.900000E-01   1.00800           0
     18787 MEMB     168      SAPE     N        NH3L    -0.300000       14.0070           0
     18788 MEMB     168      SAPE     HN1      HCL      0.330000       1.00800           0
     18789 MEMB     168      SAPE     HN2      HCL      0.330000       1.00800           0
     18790 MEMB     168      SAPE     HN3      HCL      0.330000       1.00800           0
     18791 MEMB     168      SAPE     C12      CTL2     0.130000       12.0110           0
     18792 MEMB     168      SAPE     H12A     HAL2     0.900000E-01   1.00800           0
     18793 MEMB     168      SAPE     H12B     HAL2     0.900000E-01   1.00800           0
     18794 MEMB     168      SAPE     C11      CTL2    -0.800000E-01   12.0110           0
     18795 MEMB     168      SAPE     H11A     HAL2     0.900000E-01   1.00800           0
     18796 MEMB     168      SAPE     H11B     HAL2     0.900000E-01   1.00800           0
     18797 MEMB     168      SAPE     P        PL       1.500000       30.9740           0
     18798 MEMB     168      SAPE     O13      O2L     -0.780000       15.9994           0
     18799 MEMB     168      SAPE     O14      O2L     -0.780000       15.9994           0
     18800 MEMB     168      SAPE     O12      OSLP    -0.570000       15.9994           0
     18801 MEMB     168      SAPE     O11      OSLP    -0.570000       15.9994           0
     18802 MEMB     168      SAPE     C1       CTL2    -0.800000E-01   12.0110           0
     18803 MEMB     168      SAPE     HA       HAL2     0.900000E-01   1.00800           0
     18804 MEMB     168      SAPE     HB       HAL2     0.900000E-01   1.00800           0
     18805 MEMB     168      SAPE     C2       CTL1     0.170000       12.0110           0
     18806 MEMB     168      SAPE     HS       HAL1     0.900000E-01   1.00800           0
     18807 MEMB     168      SAPE     O21      OSL     -0.490000       15.9994           0
     18808 MEMB     168      SAPE     C21      CL       0.900000       12.0110           0
     18809 MEMB     168      SAPE     O22      OBL     -0.630000       15.9994           0
     18810 MEMB     168      SAPE     C22      CTL2    -0.220000       12.0110           0
     18811 MEMB     168      SAPE     H2R      HAL2     0.900000E-01   1.00800           0
     18812 MEMB     168      SAPE     H2S      HAL2     0.900000E-01   1.00800           0
     18813 MEMB     168      SAPE     C3       CTL2     0.800000E-01   12.0110           0
     18814 MEMB     168      SAPE     HX       HAL2     0.900000E-01   1.00800           0
     18815 MEMB     168      SAPE     HY       HAL2     0.900000E-01   1.00800           0
     18816 MEMB     168      SAPE     O31      OSL     -0.490000       15.9994           0
     18817 MEMB     168      SAPE     C31      CL       0.900000       12.0110           0
     18818 MEMB     168      SAPE     O32      OBL     -0.630000       15.9994           0
     18819 MEMB     168      SAPE     C32      CTL2    -0.220000       12.0110           0
     18820 MEMB     168      SAPE     H2X      HAL2     0.900000E-01   1.00800           0
     18821 MEMB     168      SAPE     H2Y      HAL2     0.900000E-01   1.00800           0
     18822 MEMB     168      SAPE     C23      CTL2    -0.180000       12.0110           0
     18823 MEMB     168      SAPE     H3R      HAL2     0.900000E-01   1.00800           0
     18824 MEMB     168      SAPE     H3S      HAL2     0.900000E-01   1.00800           0
     18825 MEMB     168      SAPE     C24      CTL2    -0.180000       12.0110           0
     18826 MEMB     168      SAPE     H4R      HAL2     0.900000E-01   1.00800           0
     18827 MEMB     168      SAPE     H4S      HAL2     0.900000E-01   1.00800           0
     18828 MEMB     168      SAPE     C25      CEL1    -0.150000       12.0110           0
     18829 MEMB     168      SAPE     H5R      HEL1     0.150000       1.00800           0
     18830 MEMB     168      SAPE     C26      CEL1    -0.150000       12.0110           0
     18831 MEMB     168      SAPE     H6R      HEL1     0.150000       1.00800           0
     18832 MEMB     168      SAPE     C27      CTL2    -0.180000       12.0110           0
     18833 MEMB     168      SAPE     H7R      HAL2     0.900000E-01   1.00800           0
     18834 MEMB     168      SAPE     H7S      HAL2     0.900000E-01   1.00800           0
     18835 MEMB     168      SAPE     C28      CEL1    -0.150000       12.0110           0
     18836 MEMB     168      SAPE     H8R      HEL1     0.150000       1.00800           0
     18837 MEMB     168      SAPE     C29      CEL1    -0.150000       12.0110           0
     18838 MEMB     168      SAPE     H9R      HEL1     0.150000       1.00800           0
     18839 MEMB     168      SAPE     C210     CTL2    -0.180000       12.0110           0
     18840 MEMB     168      SAPE     H10R     HAL2     0.900000E-01   1.00800           0
     18841 MEMB     168      SAPE     H10S     HAL2     0.900000E-01   1.00800           0
     18842 MEMB     168      SAPE     C211     CEL1    -0.150000       12.0110           0
     18843 MEMB     168      SAPE     H11R     HEL1     0.150000       1.00800           0
     18844 MEMB     168      SAPE     C212     CEL1    -0.150000       12.0110           0
     18845 MEMB     168      SAPE     H12R     HEL1     0.150000       1.00800           0
     18846 MEMB     168      SAPE     C213     CTL2    -0.180000       12.0110           0
     18847 MEMB     168      SAPE     H13R     HAL2     0.900000E-01   1.00800           0
     18848 MEMB     168      SAPE     H13S     HAL2     0.900000E-01   1.00800           0
     18849 MEMB     168      SAPE     C214     CEL1    -0.150000       12.0110           0
     18850 MEMB     168      SAPE     H14R     HEL1     0.150000       1.00800           0
     18851 MEMB     168      SAPE     C215     CEL1    -0.150000       12.0110           0
     18852 MEMB     168      SAPE     H15R     HEL1     0.150000       1.00800           0
     18853 MEMB     168      SAPE     C216     CTL2    -0.180000       12.0110           0
     18854 MEMB     168      SAPE     H16R     HAL2     0.900000E-01   1.00800           0
     18855 MEMB     168      SAPE     H16S     HAL2     0.900000E-01   1.00800           0
     18856 MEMB     168      SAPE     C217     CTL2    -0.180000       12.0110           0
     18857 MEMB     168      SAPE     H17R     HAL2     0.900000E-01   1.00800           0
     18858 MEMB     168      SAPE     H17S     HAL2     0.900000E-01   1.00800           0
     18859 MEMB     168      SAPE     C218     CTL2    -0.180000       12.0110           0
     18860 MEMB     168      SAPE     H18R     HAL2     0.900000E-01   1.00800           0
     18861 MEMB     168      SAPE     H18S     HAL2     0.900000E-01   1.00800           0
     18862 MEMB     168      SAPE     C219     CTL2    -0.180000       12.0110           0
     18863 MEMB     168      SAPE     H19R     HAL2     0.900000E-01   1.00800           0
     18864 MEMB     168      SAPE     H19S     HAL2     0.900000E-01   1.00800           0
     18865 MEMB     168      SAPE     C220     CTL3    -0.270000       12.0110           0
     18866 MEMB     168      SAPE     H20R     HAL3     0.900000E-01   1.00800           0
     18867 MEMB     168      SAPE     H20S     HAL3     0.900000E-01   1.00800           0
     18868 MEMB     168      SAPE     H20T     HAL3     0.900000E-01   1.00800           0
     18869 MEMB     168      SAPE     C33      CTL2    -0.180000       12.0110           0
     18870 MEMB     168      SAPE     H3X      HAL2     0.900000E-01   1.00800           0
     18871 MEMB     168      SAPE     H3Y      HAL2     0.900000E-01   1.00800           0
     18872 MEMB     168      SAPE     C34      CTL2    -0.180000       12.0110           0
     18873 MEMB     168      SAPE     H4X      HAL2     0.900000E-01   1.00800           0
     18874 MEMB     168      SAPE     H4Y      HAL2     0.900000E-01   1.00800           0
     18875 MEMB     168      SAPE     C35      CTL2    -0.180000       12.0110           0
     18876 MEMB     168      SAPE     H5X      HAL2     0.900000E-01   1.00800           0
     18877 MEMB     168      SAPE     H5Y      HAL2     0.900000E-01   1.00800           0
     18878 MEMB     168      SAPE     C36      CTL2    -0.180000       12.0110           0
     18879 MEMB     168      SAPE     H6X      HAL2     0.900000E-01   1.00800           0
     18880 MEMB     168      SAPE     H6Y      HAL2     0.900000E-01   1.00800           0
     18881 MEMB     168      SAPE     C37      CTL2    -0.180000       12.0110           0
     18882 MEMB     168      SAPE     H7X      HAL2     0.900000E-01   1.00800           0
     18883 MEMB     168      SAPE     H7Y      HAL2     0.900000E-01   1.00800           0
     18884 MEMB     168      SAPE     C38      CTL2    -0.180000       12.0110           0
     18885 MEMB     168      SAPE     H8X      HAL2     0.900000E-01   1.00800           0
     18886 MEMB     168      SAPE     H8Y      HAL2     0.900000E-01   1.00800           0
     18887 MEMB     168      SAPE     C39      CTL2    -0.180000       12.0110           0
     18888 MEMB     168      SAPE     H9X      HAL2     0.900000E-01   1.00800           0
     18889 MEMB     168      SAPE     H9Y      HAL2     0.900000E-01   1.00800           0
     18890 MEMB     168      SAPE     C310     CTL2    -0.180000       12.0110           0
     18891 MEMB     168      SAPE     H10X     HAL2     0.900000E-01   1.00800           0
     18892 MEMB     168      SAPE     H10Y     HAL2     0.900000E-01   1.00800           0
     18893 MEMB     168      SAPE     C311     CTL2    -0.180000       12.0110           0
     18894 MEMB     168      SAPE     H11X     HAL2     0.900000E-01   1.00800           0
     18895 MEMB     168      SAPE     H11Y     HAL2     0.900000E-01   1.00800           0
     18896 MEMB     168      SAPE     C312     CTL2    -0.180000       12.0110           0
     18897 MEMB     168      SAPE     H12X     HAL2     0.900000E-01   1.00800           0
     18898 MEMB     168      SAPE     H12Y     HAL2     0.900000E-01   1.00800           0
     18899 MEMB     168      SAPE     C313     CTL2    -0.180000       12.0110           0
     18900 MEMB     168      SAPE     H13X     HAL2     0.900000E-01   1.00800           0
     18901 MEMB     168      SAPE     H13Y     HAL2     0.900000E-01   1.00800           0
     18902 MEMB     168      SAPE     C314     CTL2    -0.180000       12.0110           0
     18903 MEMB     168      SAPE     H14X     HAL2     0.900000E-01   1.00800           0
     18904 MEMB     168      SAPE     H14Y     HAL2     0.900000E-01   1.00800           0
     18905 MEMB     168      SAPE     C315     CTL2    -0.180000       12.0110           0
     18906 MEMB     168      SAPE     H15X     HAL2     0.900000E-01   1.00800           0
     18907 MEMB     168      SAPE     H15Y     HAL2     0.900000E-01   1.00800           0
     18908 MEMB     168      SAPE     C316     CTL2    -0.180000       12.0110           0
     18909 MEMB     168      SAPE     H16X     HAL2     0.900000E-01   1.00800           0
     18910 MEMB     168      SAPE     H16Y     HAL2     0.900000E-01   1.00800           0
     18911 MEMB     168      SAPE     C317     CTL2    -0.180000       12.0110           0
     18912 MEMB     168      SAPE     H17X     HAL2     0.900000E-01   1.00800           0
     18913 MEMB     168      SAPE     H17Y     HAL2     0.900000E-01   1.00800           0
     18914 MEMB     168      SAPE     C318     CTL3    -0.270000       12.0110           0
     18915 MEMB     168      SAPE     H18X     HAL3     0.900000E-01   1.00800           0
     18916 MEMB     168      SAPE     H18Y     HAL3     0.900000E-01   1.00800           0
     18917 MEMB     168      SAPE     H18Z     HAL3     0.900000E-01   1.00800           0
     18918 MEMB     175      SAPE     N        NH3L    -0.300000       14.0070           0
     18919 MEMB     175      SAPE     HN1      HCL      0.330000       1.00800           0
     18920 MEMB     175      SAPE     HN2      HCL      0.330000       1.00800           0
     18921 MEMB     175      SAPE     HN3      HCL      0.330000       1.00800           0
     18922 MEMB     175      SAPE     C12      CTL2     0.130000       12.0110           0
     18923 MEMB     175      SAPE     H12A     HAL2     0.900000E-01   1.00800           0
     18924 MEMB     175      SAPE     H12B     HAL2     0.900000E-01   1.00800           0
     18925 MEMB     175      SAPE     C11      CTL2    -0.800000E-01   12.0110           0
     18926 MEMB     175      SAPE     H11A     HAL2     0.900000E-01   1.00800           0
     18927 MEMB     175      SAPE     H11B     HAL2     0.900000E-01   1.00800           0
     18928 MEMB     175      SAPE     P        PL       1.500000       30.9740           0
     18929 MEMB     175      SAPE     O13      O2L     -0.780000       15.9994           0
     18930 MEMB     175      SAPE     O14      O2L     -0.780000       15.9994           0
     18931 MEMB     175      SAPE     O12      OSLP    -0.570000       15.9994           0
     18932 MEMB     175      SAPE     O11      OSLP    -0.570000       15.9994           0
     18933 MEMB     175      SAPE     C1       CTL2    -0.800000E-01   12.0110           0
     18934 MEMB     175      SAPE     HA       HAL2     0.900000E-01   1.00800           0
     18935 MEMB     175      SAPE     HB       HAL2     0.900000E-01   1.00800           0
     18936 MEMB     175      SAPE     C2       CTL1     0.170000       12.0110           0
     18937 MEMB     175      SAPE     HS       HAL1     0.900000E-01   1.00800           0
     18938 MEMB     175      SAPE     O21      OSL     -0.490000       15.9994           0
     18939 MEMB     175      SAPE     C21      CL       0.900000       12.0110           0
     18940 MEMB     175      SAPE     O22      OBL     -0.630000       15.9994           0
     18941 MEMB     175      SAPE     C22      CTL2    -0.220000       12.0110           0
     18942 MEMB     175      SAPE     H2R      HAL2     0.900000E-01   1.00800           0
     18943 MEMB     175      SAPE     H2S      HAL2     0.900000E-01   1.00800           0
     18944 MEMB     175      SAPE     C3       CTL2     0.800000E-01   12.0110           0
     18945 MEMB     175      SAPE     HX       HAL2     0.900000E-01   1.00800           0
     18946 MEMB     175      SAPE     HY       HAL2     0.900000E-01   1.00800           0
     18947 MEMB     175      SAPE     O31      OSL     -0.490000       15.9994           0
     18948 MEMB     175      SAPE     C31      CL       0.900000       12.0110           0
     18949 MEMB     175      SAPE     O32      OBL     -0.630000       15.9994           0
     18950 MEMB     175      SAPE     C32      CTL2    -0.220000       12.0110           0
     18951 MEMB     175      SAPE     H2X      HAL2     0.900000E-01   1.00800           0
     18952 MEMB     175      SAPE     H2Y      HAL2     0.900000E-01   1.00800           0
     18953 MEMB     175      SAPE     C23      CTL2    -0.180000       12.0110           0
     18954 MEMB     175      SAPE     H3R      HAL2     0.900000E-01   1.00800           0
     18955 MEMB     175      SAPE     H3S      HAL2     0.900000E-01   1.00800           0
     18956 MEMB     175      SAPE     C24      CTL2    -0.180000       12.0110           0
     18957 MEMB     175      SAPE     H4R      HAL2     0.900000E-01   1.00800           0
     18958 MEMB     175      SAPE     H4S      HAL2     0.900000E-01   1.00800           0
     18959 MEMB     175      SAPE     C25      CEL1    -0.150000       12.0110           0
     18960 MEMB     175      SAPE     H5R      HEL1     0.150000       1.00800           0
     18961 MEMB     175      SAPE     C26      CEL1    -0.150000       12.0110           0
     18962 MEMB     175      SAPE     H6R      HEL1     0.150000       1.00800           0
     18963 MEMB     175      SAPE     C27      CTL2    -0.180000       12.0110           0
     18964 MEMB     175      SAPE     H7R      HAL2     0.900000E-01   1.00800           0
     18965 MEMB     175      SAPE     H7S      HAL2     0.900000E-01   1.00800           0
     18966 MEMB     175      SAPE     C28      CEL1    -0.150000       12.0110           0
     18967 MEMB     175      SAPE     H8R      HEL1     0.150000       1.00800           0
     18968 MEMB     175      SAPE     C29      CEL1    -0.150000       12.0110           0
     18969 MEMB     175      SAPE     H9R      HEL1     0.150000       1.00800           0
     18970 MEMB     175      SAPE     C210     CTL2    -0.180000       12.0110           0
     18971 MEMB     175      SAPE     H10R     HAL2     0.900000E-01   1.00800           0
     18972 MEMB     175      SAPE     H10S     HAL2     0.900000E-01   1.00800           0
     18973 MEMB     175      SAPE     C211     CEL1    -0.150000       12.0110           0
     18974 MEMB     175      SAPE     H11R     HEL1     0.150000       1.00800           0
     18975 MEMB     175      SAPE     C212     CEL1    -0.150000       12.0110           0
     18976 MEMB     175      SAPE     H12R     HEL1     0.150000       1.00800           0
     18977 MEMB     175      SAPE     C213     CTL2    -0.180000       12.0110           0
     18978 MEMB     175      SAPE     H13R     HAL2     0.900000E-01   1.00800           0
     18979 MEMB     175      SAPE     H13S     HAL2     0.900000E-01   1.00800           0
     18980 MEMB     175      SAPE     C214     CEL1    -0.150000       12.0110           0
     18981 MEMB     175      SAPE     H14R     HEL1     0.150000       1.00800           0
     18982 MEMB     175      SAPE     C215     CEL1    -0.150000       12.0110           0
     18983 MEMB     175      SAPE     H15R     HEL1     0.150000       1.00800           0
     18984 MEMB     175      SAPE     C216     CTL2    -0.180000       12.0110           0
     18985 MEMB     175      SAPE     H16R     HAL2     0.900000E-01   1.00800           0
     18986 MEMB     175      SAPE     H16S     HAL2     0.900000E-01   1.00800           0
     18987 MEMB     175      SAPE     C217     CTL2    -0.180000       12.0110           0
     18988 MEMB     175      SAPE     H17R     HAL2     0.900000E-01   1.00800           0
     18989 MEMB     175      SAPE     H17S     HAL2     0.900000E-01   1.00800           0
     18990 MEMB     175      SAPE     C218     CTL2    -0.180000       12.0110           0
     18991 MEMB     175      SAPE     H18R     HAL2     0.900000E-01   1.00800           0
     18992 MEMB     175      SAPE     H18S     HAL2     0.900000E-01   1.00800           0
     18993 MEMB     175      SAPE     C219     CTL2    -0.180000       12.0110           0
     18994 MEMB     175      SAPE     H19R     HAL2     0.900000E-01   1.00800           0
     18995 MEMB     175      SAPE     H19S     HAL2     0.900000E-01   1.00800           0
     18996 MEMB     175      SAPE     C220     CTL3    -0.270000       12.0110           0
     18997 MEMB     175      SAPE     H20R     HAL3     0.900000E-01   1.00800           0
     18998 MEMB     175      SAPE     H20S     HAL3     0.900000E-01   1.00800           0
     18999 MEMB     175      SAPE     H20T     HAL3     0.900000E-01   1.00800           0
     19000 MEMB     175      SAPE     C33      CTL2    -0.180000       12.0110           0
     19001 MEMB     175      SAPE     H3X      HAL2     0.900000E-01   1.00800           0
     19002 MEMB     175      SAPE     H3Y      HAL2     0.900000E-01   1.00800           0
     19003 MEMB     175      SAPE     C34      CTL2    -0.180000       12.0110           0
     19004 MEMB     175      SAPE     H4X      HAL2     0.900000E-01   1.00800           0
     19005 MEMB     175      SAPE     H4Y      HAL2     0.900000E-01   1.00800           0
     19006 MEMB     175      SAPE     C35      CTL2    -0.180000       12.0110           0
     19007 MEMB     175      SAPE     H5X      HAL2     0.900000E-01   1.00800           0
     19008 MEMB     175      SAPE     H5Y      HAL2     0.900000E-01   1.00800           0
     19009 MEMB     175      SAPE     C36      CTL2    -0.180000       12.0110           0
     19010 MEMB     175      SAPE     H6X      HAL2     0.900000E-01   1.00800           0
     19011 MEMB     175      SAPE     H6Y      HAL2     0.900000E-01   1.00800           0
     19012 MEMB     175      SAPE     C37      CTL2    -0.180000       12.0110           0
     19013 MEMB     175      SAPE     H7X      HAL2     0.900000E-01   1.00800           0
     19014 MEMB     175      SAPE     H7Y      HAL2     0.900000E-01   1.00800           0
     19015 MEMB     175      SAPE     C38      CTL2    -0.180000       12.0110           0
     19016 MEMB     175      SAPE     H8X      HAL2     0.900000E-01   1.00800           0
     19017 MEMB     175      SAPE     H8Y      HAL2     0.900000E-01   1.00800           0
     19018 MEMB     175      SAPE     C39      CTL2    -0.180000       12.0110           0
     19019 MEMB     175      SAPE     H9X      HAL2     0.900000E-01   1.00800           0
     19020 MEMB     175      SAPE     H9Y      HAL2     0.900000E-01   1.00800           0
     19021 MEMB     175      SAPE     C310     CTL2    -0.180000       12.0110           0
     19022 MEMB     175      SAPE     H10X     HAL2     0.900000E-01   1.00800           0
     19023 MEMB     175      SAPE     H10Y     HAL2     0.900000E-01   1.00800           0
     19024 MEMB     175      SAPE     C311     CTL2    -0.180000       12.0110           0
     19025 MEMB     175      SAPE     H11X     HAL2     0.900000E-01   1.00800           0
     19026 MEMB     175      SAPE     H11Y     HAL2     0.900000E-01   1.00800           0
     19027 MEMB     175      SAPE     C312     CTL2    -0.180000       12.0110           0
     19028 MEMB     175      SAPE     H12X     HAL2     0.900000E-01   1.00800           0
     19029 MEMB     175      SAPE     H12Y     HAL2     0.900000E-01   1.00800           0
     19030 MEMB     175      SAPE     C313     CTL2    -0.180000       12.0110           0
     19031 MEMB     175      SAPE     H13X     HAL2     0.900000E-01   1.00800           0
     19032 MEMB     175      SAPE     H13Y     HAL2     0.900000E-01   1.00800           0
     19033 MEMB     175      SAPE     C314     CTL2    -0.180000       12.0110           0
     19034 MEMB     175      SAPE     H14X     HAL2     0.900000E-01   1.00800           0
     19035 MEMB     175      SAPE     H14Y     HAL2     0.900000E-01   1.00800           0
     19036 MEMB     175      SAPE     C315     CTL2    -0.180000       12.0110           0
     19037 MEMB     175      SAPE     H15X     HAL2     0.900000E-01   1.00800           0
     19038 MEMB     175      SAPE     H15Y     HAL2     0.900000E-01   1.00800           0
     19039 MEMB     175      SAPE     C316     CTL2    -0.180000       12.0110           0
     19040 MEMB     175      SAPE     H16X     HAL2     0.900000E-01   1.00800           0
     19041 MEMB     175      SAPE     H16Y     HAL2     0.900000E-01   1.00800           0
     19042 MEMB     175      SAPE     C317     CTL2    -0.180000       12.0110           0
     19043 MEMB     175      SAPE     H17X     HAL2     0.900000E-01   1.00800           0
     19044 MEMB     175      SAPE     H17Y     HAL2     0.900000E-01   1.00800           0
     19045 MEMB     175      SAPE     C318     CTL3    -0.270000       12.0110           0
     19046 MEMB     175      SAPE     H18X     HAL3     0.900000E-01   1.00800           0
     19047 MEMB     175      SAPE     H18Y     HAL3     0.900000E-01   1.00800           0
     19048 MEMB     175      SAPE     H18Z     HAL3     0.900000E-01   1.00800           0
     19049 MEMB     181      SAPE     N        NH3L    -0.300000       14.0070           0
     19050 MEMB     181      SAPE     HN1      HCL      0.330000       1.00800           0
     19051 MEMB     181      SAPE     HN2      HCL      0.330000       1.00800           0
     19052 MEMB     181      SAPE     HN3      HCL      0.330000       1.00800           0
     19053 MEMB     181      SAPE     C12      CTL2     0.130000       12.0110           0
     19054 MEMB     181      SAPE     H12A     HAL2     0.900000E-01   1.00800           0
     19055 MEMB     181      SAPE     H12B     HAL2     0.900000E-01   1.00800           0
     19056 MEMB     181      SAPE     C11      CTL2    -0.800000E-01   12.0110           0
     19057 MEMB     181      SAPE     H11A     HAL2     0.900000E-01   1.00800           0
     19058 MEMB     181      SAPE     H11B     HAL2     0.900000E-01   1.00800           0
     19059 MEMB     181      SAPE     P        PL       1.500000       30.9740           0
     19060 MEMB     181      SAPE     O13      O2L     -0.780000       15.9994           0
     19061 MEMB     181      SAPE     O14      O2L     -0.780000       15.9994           0
     19062 MEMB     181      SAPE     O12      OSLP    -0.570000       15.9994           0
     19063 MEMB     181      SAPE     O11      OSLP    -0.570000       15.9994           0
     19064 MEMB     181      SAPE     C1       CTL2    -0.800000E-01   12.0110           0
     19065 MEMB     181      SAPE     HA       HAL2     0.900000E-01   1.00800           0
     19066 MEMB     181      SAPE     HB       HAL2     0.900000E-01   1.00800           0
     19067 MEMB     181      SAPE     C2       CTL1     0.170000       12.0110           0
     19068 MEMB     181      SAPE     HS       HAL1     0.900000E-01   1.00800           0
     19069 MEMB     181      SAPE     O21      OSL     -0.490000       15.9994           0
     19070 MEMB     181      SAPE     C21      CL       0.900000       12.0110           0
     19071 MEMB     181      SAPE     O22      OBL     -0.630000       15.9994           0
     19072 MEMB     181      SAPE     C22      CTL2    -0.220000       12.0110           0
     19073 MEMB     181      SAPE     H2R      HAL2     0.900000E-01   1.00800           0
     19074 MEMB     181      SAPE     H2S      HAL2     0.900000E-01   1.00800           0
     19075 MEMB     181      SAPE     C3       CTL2     0.800000E-01   12.0110           0
     19076 MEMB     181      SAPE     HX       HAL2     0.900000E-01   1.00800           0
     19077 MEMB     181      SAPE     HY       HAL2     0.900000E-01   1.00800           0
     19078 MEMB     181      SAPE     O31      OSL     -0.490000       15.9994           0
     19079 MEMB     181      SAPE     C31      CL       0.900000       12.0110           0
     19080 MEMB     181      SAPE     O32      OBL     -0.630000       15.9994           0
     19081 MEMB     181      SAPE     C32      CTL2    -0.220000       12.0110           0
     19082 MEMB     181      SAPE     H2X      HAL2     0.900000E-01   1.00800           0
     19083 MEMB     181      SAPE     H2Y      HAL2     0.900000E-01   1.00800           0
     19084 MEMB     181      SAPE     C23      CTL2    -0.180000       12.0110           0
     19085 MEMB     181      SAPE     H3R      HAL2     0.900000E-01   1.00800           0
     19086 MEMB     181      SAPE     H3S      HAL2     0.900000E-01   1.00800           0
     19087 MEMB     181      SAPE     C24      CTL2    -0.180000       12.0110           0
     19088 MEMB     181      SAPE     H4R      HAL2     0.900000E-01   1.00800           0
     19089 MEMB     181      SAPE     H4S      HAL2     0.900000E-01   1.00800           0
     19090 MEMB     181      SAPE     C25      CEL1    -0.150000       12.0110           0
     19091 MEMB     181      SAPE     H5R      HEL1     0.150000       1.00800           0
     19092 MEMB     181      SAPE     C26      CEL1    -0.150000       12.0110           0
     19093 MEMB     181      SAPE     H6R      HEL1     0.150000       1.00800           0
     19094 MEMB     181      SAPE     C27      CTL2    -0.180000       12.0110           0
     19095 MEMB     181      SAPE     H7R      HAL2     0.900000E-01   1.00800           0
     19096 MEMB     181      SAPE     H7S      HAL2     0.900000E-01   1.00800           0
     19097 MEMB     181      SAPE     C28      CEL1    -0.150000       12.0110           0
     19098 MEMB     181      SAPE     H8R      HEL1     0.150000       1.00800           0
     19099 MEMB     181      SAPE     C29      CEL1    -0.150000       12.0110           0
     19100 MEMB     181      SAPE     H9R      HEL1     0.150000       1.00800           0
     19101 MEMB     181      SAPE     C210     CTL2    -0.180000       12.0110           0
     19102 MEMB     181      SAPE     H10R     HAL2     0.900000E-01   1.00800           0
     19103 MEMB     181      SAPE     H10S     HAL2     0.900000E-01   1.00800           0
     19104 MEMB     181      SAPE     C211     CEL1    -0.150000       12.0110           0
     19105 MEMB     181      SAPE     H11R     HEL1     0.150000       1.00800           0
     19106 MEMB     181      SAPE     C212     CEL1    -0.150000       12.0110           0
     19107 MEMB     181      SAPE     H12R     HEL1     0.150000       1.00800           0
     19108 MEMB     181      SAPE     C213     CTL2    -0.180000       12.0110           0
     19109 MEMB     181      SAPE     H13R     HAL2     0.900000E-01   1.00800           0
     19110 MEMB     181      SAPE     H13S     HAL2     0.900000E-01   1.00800           0
     19111 MEMB     181      SAPE     C214     CEL1    -0.150000       12.0110           0
     19112 MEMB     181      SAPE     H14R     HEL1     0.150000       1.00800           0
     19113 MEMB     181      SAPE     C215     CEL1    -0.150000       12.0110           0
     19114 MEMB     181      SAPE     H15R     HEL1     0.150000       1.00800           0
     19115 MEMB     181      SAPE     C216     CTL2    -0.180000       12.0110           0
     19116 MEMB     181      SAPE     H16R     HAL2     0.900000E-01   1.00800           0
     19117 MEMB     181      SAPE     H16S     HAL2     0.900000E-01   1.00800           0
     19118 MEMB     181      SAPE     C217     CTL2    -0.180000       12.0110           0
     19119 MEMB     181      SAPE     H17R     HAL2     0.900000E-01   1.00800           0
     19120 MEMB     181      SAPE     H17S     HAL2     0.900000E-01   1.00800           0
     19121 MEMB     181      SAPE     C218     CTL2    -0.180000       12.0110           0
     19122 MEMB     181      SAPE     H18R     HAL2     0.900000E-01   1.00800           0
     19123 MEMB     181      SAPE     H18S     HAL2     0.900000E-01   1.00800           0
     19124 MEMB     181      SAPE     C219     CTL2    -0.180000       12.0110           0
     19125 MEMB     181      SAPE     H19R     HAL2     0.900000E-01   1.00800           0
     19126 MEMB     181      SAPE     H19S     HAL2     0.900000E-01   1.00800           0
     19127 MEMB     181      SAPE     C220     CTL3    -0.270000       12.0110           0
     19128 MEMB     181      SAPE     H20R     HAL3     0.900000E-01   1.00800           0
     19129 MEMB     181      SAPE     H20S     HAL3     0.900000E-01   1.00800           0
     19130 MEMB     181      SAPE     H20T     HAL3     0.900000E-01   1.00800           0
     19131 MEMB     181      SAPE     C33      CTL2    -0.180000       12.0110           0
     19132 MEMB     181      SAPE     H3X      HAL2     0.900000E-01   1.00800           0
     19133 MEMB     181      SAPE     H3Y      HAL2     0.900000E-01   1.00800           0
     19134 MEMB     181      SAPE     C34      CTL2    -0.180000       12.0110           0
     19135 MEMB     181      SAPE     H4X      HAL2     0.900000E-01   1.00800           0
     19136 MEMB     181      SAPE     H4Y      HAL2     0.900000E-01   1.00800           0
     19137 MEMB     181      SAPE     C35      CTL2    -0.180000       12.0110           0
     19138 MEMB     181      SAPE     H5X      HAL2     0.900000E-01   1.00800           0
     19139 MEMB     181      SAPE     H5Y      HAL2     0.900000E-01   1.00800           0
     19140 MEMB     181      SAPE     C36      CTL2    -0.180000       12.0110           0
     19141 MEMB     181      SAPE     H6X      HAL2     0.900000E-01   1.00800           0
     19142 MEMB     181      SAPE     H6Y      HAL2     0.900000E-01   1.00800           0
     19143 MEMB     181      SAPE     C37      CTL2    -0.180000       12.0110           0
     19144 MEMB     181      SAPE     H7X      HAL2     0.900000E-01   1.00800           0
     19145 MEMB     181      SAPE     H7Y      HAL2     0.900000E-01   1.00800           0
     19146 MEMB     181      SAPE     C38      CTL2    -0.180000       12.0110           0
     19147 MEMB     181      SAPE     H8X      HAL2     0.900000E-01   1.00800           0
     19148 MEMB     181      SAPE     H8Y      HAL2     0.900000E-01   1.00800           0
     19149 MEMB     181      SAPE     C39      CTL2    -0.180000       12.0110           0
     19150 MEMB     181      SAPE     H9X      HAL2     0.900000E-01   1.00800           0
     19151 MEMB     181      SAPE     H9Y      HAL2     0.900000E-01   1.00800           0
     19152 MEMB     181      SAPE     C310     CTL2    -0.180000       12.0110           0
     19153 MEMB     181      SAPE     H10X     HAL2     0.900000E-01   1.00800           0
     19154 MEMB     181      SAPE     H10Y     HAL2     0.900000E-01   1.00800           0
     19155 MEMB     181      SAPE     C311     CTL2    -0.180000       12.0110           0
     19156 MEMB     181      SAPE     H11X     HAL2     0.900000E-01   1.00800           0
     19157 MEMB     181      SAPE     H11Y     HAL2     0.900000E-01   1.00800           0
     19158 MEMB     181      SAPE     C312     CTL2    -0.180000       12.0110           0
     19159 MEMB     181      SAPE     H12X     HAL2     0.900000E-01   1.00800           0
     19160 MEMB     181      SAPE     H12Y     HAL2     0.900000E-01   1.00800           0
     19161 MEMB     181      SAPE     C313     CTL2    -0.180000       12.0110           0
     19162 MEMB     181      SAPE     H13X     HAL2     0.900000E-01   1.00800           0
     19163 MEMB     181      SAPE     H13Y     HAL2     0.900000E-01   1.00800           0
     19164 MEMB     181      SAPE     C314     CTL2    -0.180000       12.0110           0
     19165 MEMB     181      SAPE     H14X     HAL2     0.900000E-01   1.00800           0
     19166 MEMB     181      SAPE     H14Y     HAL2     0.900000E-01   1.00800           0
     19167 MEMB     181      SAPE     C315     CTL2    -0.180000       12.0110           0
     19168 MEMB     181      SAPE     H15X     HAL2     0.900000E-01   1.00800           0
     19169 MEMB     181      SAPE     H15Y     HAL2     0.900000E-01   1.00800           0
     19170 MEMB     181      SAPE     C316     CTL2    -0.180000       12.0110           0
     19171 MEMB     181      SAPE     H16X     HAL2     0.900000E-01   1.00800           0
     19172 MEMB     181      SAPE     H16Y     HAL2     0.900000E-01   1.00800           0
     19173 MEMB     181      SAPE     C317     CTL2    -0.180000       12.0110           0
     19174 MEMB     181      SAPE     H17X     HAL2     0.900000E-01   1.00800           0
     19175 MEMB     181      SAPE     H17Y     HAL2     0.900000E-01   1.00800           0
     19176 MEMB     181      SAPE     C318     CTL3    -0.270000       12.0110           0
     19177 MEMB     181      SAPE     H18X     HAL3     0.900000E-01   1.00800           0
     19178 MEMB     181      SAPE     H18Y     HAL3     0.900000E-01   1.00800           0
     19179 MEMB     181      SAPE     H18Z     HAL3     0.900000E-01   1.00800           0
     19180 MEMB     187      SAPE     N        NH3L    -0.300000       14.0070           0
     19181 MEMB     187      SAPE     HN1      HCL      0.330000       1.00800           0
     19182 MEMB     187      SAPE     HN2      HCL      0.330000       1.00800           0
     19183 MEMB     187      SAPE     HN3      HCL      0.330000       1.00800           0
     19184 MEMB     187      SAPE     C12      CTL2     0.130000       12.0110           0
     19185 MEMB     187      SAPE     H12A     HAL2     0.900000E-01   1.00800           0
     19186 MEMB     187      SAPE     H12B     HAL2     0.900000E-01   1.00800           0
     19187 MEMB     187      SAPE     C11      CTL2    -0.800000E-01   12.0110           0
     19188 MEMB     187      SAPE     H11A     HAL2     0.900000E-01   1.00800           0
     19189 MEMB     187      SAPE     H11B     HAL2     0.900000E-01   1.00800           0
     19190 MEMB     187      SAPE     P        PL       1.500000       30.9740           0
     19191 MEMB     187      SAPE     O13      O2L     -0.780000       15.9994           0
     19192 MEMB     187      SAPE     O14      O2L     -0.780000       15.9994           0
     19193 MEMB     187      SAPE     O12      OSLP    -0.570000       15.9994           0
     19194 MEMB     187      SAPE     O11      OSLP    -0.570000       15.9994           0
     19195 MEMB     187      SAPE     C1       CTL2    -0.800000E-01   12.0110           0
     19196 MEMB     187      SAPE     HA       HAL2     0.900000E-01   1.00800           0
     19197 MEMB     187      SAPE     HB       HAL2     0.900000E-01   1.00800           0
     19198 MEMB     187      SAPE     C2       CTL1     0.170000       12.0110           0
     19199 MEMB     187      SAPE     HS       HAL1     0.900000E-01   1.00800           0
     19200 MEMB     187      SAPE     O21      OSL     -0.490000       15.9994           0
     19201 MEMB     187      SAPE     C21      CL       0.900000       12.0110           0
     19202 MEMB     187      SAPE     O22      OBL     -0.630000       15.9994           0
     19203 MEMB     187      SAPE     C22      CTL2    -0.220000       12.0110           0
     19204 MEMB     187      SAPE     H2R      HAL2     0.900000E-01   1.00800           0
     19205 MEMB     187      SAPE     H2S      HAL2     0.900000E-01   1.00800           0
     19206 MEMB     187      SAPE     C3       CTL2     0.800000E-01   12.0110           0
     19207 MEMB     187      SAPE     HX       HAL2     0.900000E-01   1.00800           0
     19208 MEMB     187      SAPE     HY       HAL2     0.900000E-01   1.00800           0
     19209 MEMB     187      SAPE     O31      OSL     -0.490000       15.9994           0
     19210 MEMB     187      SAPE     C31      CL       0.900000       12.0110           0
     19211 MEMB     187      SAPE     O32      OBL     -0.630000       15.9994           0
     19212 MEMB     187      SAPE     C32      CTL2    -0.220000       12.0110           0
     19213 MEMB     187      SAPE     H2X      HAL2     0.900000E-01   1.00800           0
     19214 MEMB     187      SAPE     H2Y      HAL2     0.900000E-01   1.00800           0
     19215 MEMB     187      SAPE     C23      CTL2    -0.180000       12.0110           0
     19216 MEMB     187      SAPE     H3R      HAL2     0.900000E-01   1.00800           0
     19217 MEMB     187      SAPE     H3S      HAL2     0.900000E-01   1.00800           0
     19218 MEMB     187      SAPE     C24      CTL2    -0.180000       12.0110           0
     19219 MEMB     187      SAPE     H4R      HAL2     0.900000E-01   1.00800           0
     19220 MEMB     187      SAPE     H4S      HAL2     0.900000E-01   1.00800           0
     19221 MEMB     187      SAPE     C25      CEL1    -0.150000       12.0110           0
     19222 MEMB     187      SAPE     H5R      HEL1     0.150000       1.00800           0
     19223 MEMB     187      SAPE     C26      CEL1    -0.150000       12.0110           0
     19224 MEMB     187      SAPE     H6R      HEL1     0.150000       1.00800           0
     19225 MEMB     187      SAPE     C27      CTL2    -0.180000       12.0110           0
     19226 MEMB     187      SAPE     H7R      HAL2     0.900000E-01   1.00800           0
     19227 MEMB     187      SAPE     H7S      HAL2     0.900000E-01   1.00800           0
     19228 MEMB     187      SAPE     C28      CEL1    -0.150000       12.0110           0
     19229 MEMB     187      SAPE     H8R      HEL1     0.150000       1.00800           0
     19230 MEMB     187      SAPE     C29      CEL1    -0.150000       12.0110           0
     19231 MEMB     187      SAPE     H9R      HEL1     0.150000       1.00800           0
     19232 MEMB     187      SAPE     C210     CTL2    -0.180000       12.0110           0
     19233 MEMB     187      SAPE     H10R     HAL2     0.900000E-01   1.00800           0
     19234 MEMB     187      SAPE     H10S     HAL2     0.900000E-01   1.00800           0
     19235 MEMB     187      SAPE     C211     CEL1    -0.150000       12.0110           0
     19236 MEMB     187      SAPE     H11R     HEL1     0.150000       1.00800           0
     19237 MEMB     187      SAPE     C212     CEL1    -0.150000       12.0110           0
     19238 MEMB     187      SAPE     H12R     HEL1     0.150000       1.00800           0
     19239 MEMB     187      SAPE     C213     CTL2    -0.180000       12.0110           0
     19240 MEMB     187      SAPE     H13R     HAL2     0.900000E-01   1.00800           0
     19241 MEMB     187      SAPE     H13S     HAL2     0.900000E-01   1.00800           0
     19242 MEMB     187      SAPE     C214     CEL1    -0.150000       12.0110           0
     19243 MEMB     187      SAPE     H14R     HEL1     0.150000       1.00800           0
     19244 MEMB     187      SAPE     C215     CEL1    -0.150000       12.0110           0
     19245 MEMB     187      SAPE     H15R     HEL1     0.150000       1.00800           0
     19246 MEMB     187      SAPE     C216     CTL2    -0.180000       12.0110           0
     19247 MEMB     187      SAPE     H16R     HAL2     0.900000E-01   1.00800           0
     19248 MEMB     187      SAPE     H16S     HAL2     0.900000E-01   1.00800           0
     19249 MEMB     187      SAPE     C217     CTL2    -0.180000       12.0110           0
     19250 MEMB     187      SAPE     H17R     HAL2     0.900000E-01   1.00800           0
     19251 MEMB     187      SAPE     H17S     HAL2     0.900000E-01   1.00800           0
     19252 MEMB     187      SAPE     C218     CTL2    -0.180000       12.0110           0
     19253 MEMB     187      SAPE     H18R     HAL2     0.900000E-01   1.00800           0
     19254 MEMB     187      SAPE     H18S     HAL2     0.900000E-01   1.00800           0
     19255 MEMB     187      SAPE     C219     CTL2    -0.180000       12.0110           0
     19256 MEMB     187      SAPE     H19R     HAL2     0.900000E-01   1.00800           0
     19257 MEMB     187      SAPE     H19S     HAL2     0.900000E-01   1.00800           0
     19258 MEMB     187      SAPE     C220     CTL3    -0.270000       12.0110           0
     19259 MEMB     187      SAPE     H20R     HAL3     0.900000E-01   1.00800           0
     19260 MEMB     187      SAPE     H20S     HAL3     0.900000E-01   1.00800           0
     19261 MEMB     187      SAPE     H20T     HAL3     0.900000E-01   1.00800           0
     19262 MEMB     187      SAPE     C33      CTL2    -0.180000       12.0110           0
     19263 MEMB     187      SAPE     H3X      HAL2     0.900000E-01   1.00800           0
     19264 MEMB     187      SAPE     H3Y      HAL2     0.900000E-01   1.00800           0
     19265 MEMB     187      SAPE     C34      CTL2    -0.180000       12.0110           0
     19266 MEMB     187      SAPE     H4X      HAL2     0.900000E-01   1.00800           0
     19267 MEMB     187      SAPE     H4Y      HAL2     0.900000E-01   1.00800           0
     19268 MEMB     187      SAPE     C35      CTL2    -0.180000       12.0110           0
     19269 MEMB     187      SAPE     H5X      HAL2     0.900000E-01   1.00800           0
     19270 MEMB     187      SAPE     H5Y      HAL2     0.900000E-01   1.00800           0
     19271 MEMB     187      SAPE     C36      CTL2    -0.180000       12.0110           0
     19272 MEMB     187      SAPE     H6X      HAL2     0.900000E-01   1.00800           0
     19273 MEMB     187      SAPE     H6Y      HAL2     0.900000E-01   1.00800           0
     19274 MEMB     187      SAPE     C37      CTL2    -0.180000       12.0110           0
     19275 MEMB     187      SAPE     H7X      HAL2     0.900000E-01   1.00800           0
     19276 MEMB     187      SAPE     H7Y      HAL2     0.900000E-01   1.00800           0
     19277 MEMB     187      SAPE     C38      CTL2    -0.180000       12.0110           0
     19278 MEMB     187      SAPE     H8X      HAL2     0.900000E-01   1.00800           0
     19279 MEMB     187      SAPE     H8Y      HAL2     0.900000E-01   1.00800           0
     19280 MEMB     187      SAPE     C39      CTL2    -0.180000       12.0110           0
     19281 MEMB     187      SAPE     H9X      HAL2     0.900000E-01   1.00800           0
     19282 MEMB     187      SAPE     H9Y      HAL2     0.900000E-01   1.00800           0
     19283 MEMB     187      SAPE     C310     CTL2    -0.180000       12.0110           0
     19284 MEMB     187      SAPE     H10X     HAL2     0.900000E-01   1.00800           0
     19285 MEMB     187      SAPE     H10Y     HAL2     0.900000E-01   1.00800           0
     19286 MEMB     187      SAPE     C311     CTL2    -0.180000       12.0110           0
     19287 MEMB     187      SAPE     H11X     HAL2     0.900000E-01   1.00800           0
     19288 MEMB     187      SAPE     H11Y     HAL2     0.900000E-01   1.00800           0
     19289 MEMB     187      SAPE     C312     CTL2    -0.180000       12.0110           0
     19290 MEMB     187      SAPE     H12X     HAL2     0.900000E-01   1.00800           0
     19291 MEMB     187      SAPE     H12Y     HAL2     0.900000E-01   1.00800           0
     19292 MEMB     187      SAPE     C313     CTL2    -0.180000       12.0110           0
     19293 MEMB     187      SAPE     H13X     HAL2     0.900000E-01   1.00800           0
     19294 MEMB     187      SAPE     H13Y     HAL2     0.900000E-01   1.00800           0
     19295 MEMB     187      SAPE     C314     CTL2    -0.180000       12.0110           0
     19296 MEMB     187      SAPE     H14X     HAL2     0.900000E-01   1.00800           0
     19297 MEMB     187      SAPE     H14Y     HAL2     0.900000E-01   1.00800           0
     19298 MEMB     187      SAPE     C315     CTL2    -0.180000       12.0110           0
     19299 MEMB     187      SAPE     H15X     HAL2     0.900000E-01   1.00800           0
     19300 MEMB     187      SAPE     H15Y     HAL2     0.900000E-01   1.00800           0
     19301 MEMB     187      SAPE     C316     CTL2    -0.180000       12.0110           0
     19302 MEMB     187      SAPE     H16X     HAL2     0.900000E-01   1.00800           0
     19303 MEMB     187      SAPE     H16Y     HAL2     0.900000E-01   1.00800           0
     19304 MEMB     187      SAPE     C317     CTL2    -0.180000       12.0110           0
     19305 MEMB     187      SAPE     H17X     HAL2     0.900000E-01   1.00800           0
     19306 MEMB     187      SAPE     H17Y     HAL2     0.900000E-01   1.00800           0
     19307 MEMB     187      SAPE     C318     CTL3    -0.270000       12.0110           0
     19308 MEMB     187      SAPE     H18X     HAL3     0.900000E-01   1.00800           0
     19309 MEMB     187      SAPE     H18Y     HAL3     0.900000E-01   1.00800           0
     19310 MEMB     187      SAPE     H18Z     HAL3     0.900000E-01   1.00800           0
     19311 MEMB     190      SAPE     N        NH3L    -0.300000       14.0070           0
     19312 MEMB     190      SAPE     HN1      HCL      0.330000       1.00800           0
     19313 MEMB     190      SAPE     HN2      HCL      0.330000       1.00800           0
     19314 MEMB     190      SAPE     HN3      HCL      0.330000       1.00800           0
     19315 MEMB     190      SAPE     C12      CTL2     0.130000       12.0110           0
     19316 MEMB     190      SAPE     H12A     HAL2     0.900000E-01   1.00800           0
     19317 MEMB     190      SAPE     H12B     HAL2     0.900000E-01   1.00800           0
     19318 MEMB     190      SAPE     C11      CTL2    -0.800000E-01   12.0110           0
     19319 MEMB     190      SAPE     H11A     HAL2     0.900000E-01   1.00800           0
     19320 MEMB     190      SAPE     H11B     HAL2     0.900000E-01   1.00800           0
     19321 MEMB     190      SAPE     P        PL       1.500000       30.9740           0
     19322 MEMB     190      SAPE     O13      O2L     -0.780000       15.9994           0
     19323 MEMB     190      SAPE     O14      O2L     -0.780000       15.9994           0
     19324 MEMB     190      SAPE     O12      OSLP    -0.570000       15.9994           0
     19325 MEMB     190      SAPE     O11      OSLP    -0.570000       15.9994           0
     19326 MEMB     190      SAPE     C1       CTL2    -0.800000E-01   12.0110           0
     19327 MEMB     190      SAPE     HA       HAL2     0.900000E-01   1.00800           0
     19328 MEMB     190      SAPE     HB       HAL2     0.900000E-01   1.00800           0
     19329 MEMB     190      SAPE     C2       CTL1     0.170000       12.0110           0
     19330 MEMB     190      SAPE     HS       HAL1     0.900000E-01   1.00800           0
     19331 MEMB     190      SAPE     O21      OSL     -0.490000       15.9994           0
     19332 MEMB     190      SAPE     C21      CL       0.900000       12.0110           0
     19333 MEMB     190      SAPE     O22      OBL     -0.630000       15.9994           0
     19334 MEMB     190      SAPE     C22      CTL2    -0.220000       12.0110           0
     19335 MEMB     190      SAPE     H2R      HAL2     0.900000E-01   1.00800           0
     19336 MEMB     190      SAPE     H2S      HAL2     0.900000E-01   1.00800           0
     19337 MEMB     190      SAPE     C3       CTL2     0.800000E-01   12.0110           0
     19338 MEMB     190      SAPE     HX       HAL2     0.900000E-01   1.00800           0
     19339 MEMB     190      SAPE     HY       HAL2     0.900000E-01   1.00800           0
     19340 MEMB     190      SAPE     O31      OSL     -0.490000       15.9994           0
     19341 MEMB     190      SAPE     C31      CL       0.900000       12.0110           0
     19342 MEMB     190      SAPE     O32      OBL     -0.630000       15.9994           0
     19343 MEMB     190      SAPE     C32      CTL2    -0.220000       12.0110           0
     19344 MEMB     190      SAPE     H2X      HAL2     0.900000E-01   1.00800           0
     19345 MEMB     190      SAPE     H2Y      HAL2     0.900000E-01   1.00800           0
     19346 MEMB     190      SAPE     C23      CTL2    -0.180000       12.0110           0
     19347 MEMB     190      SAPE     H3R      HAL2     0.900000E-01   1.00800           0
     19348 MEMB     190      SAPE     H3S      HAL2     0.900000E-01   1.00800           0
     19349 MEMB     190      SAPE     C24      CTL2    -0.180000       12.0110           0
     19350 MEMB     190      SAPE     H4R      HAL2     0.900000E-01   1.00800           0
     19351 MEMB     190      SAPE     H4S      HAL2     0.900000E-01   1.00800           0
     19352 MEMB     190      SAPE     C25      CEL1    -0.150000       12.0110           0
     19353 MEMB     190      SAPE     H5R      HEL1     0.150000       1.00800           0
     19354 MEMB     190      SAPE     C26      CEL1    -0.150000       12.0110           0
     19355 MEMB     190      SAPE     H6R      HEL1     0.150000       1.00800           0
     19356 MEMB     190      SAPE     C27      CTL2    -0.180000       12.0110           0
     19357 MEMB     190      SAPE     H7R      HAL2     0.900000E-01   1.00800           0
     19358 MEMB     190      SAPE     H7S      HAL2     0.900000E-01   1.00800           0
     19359 MEMB     190      SAPE     C28      CEL1    -0.150000       12.0110           0
     19360 MEMB     190      SAPE     H8R      HEL1     0.150000       1.00800           0
     19361 MEMB     190      SAPE     C29      CEL1    -0.150000       12.0110           0
     19362 MEMB     190      SAPE     H9R      HEL1     0.150000       1.00800           0
     19363 MEMB     190      SAPE     C210     CTL2    -0.180000       12.0110           0
     19364 MEMB     190      SAPE     H10R     HAL2     0.900000E-01   1.00800           0
     19365 MEMB     190      SAPE     H10S     HAL2     0.900000E-01   1.00800           0
     19366 MEMB     190      SAPE     C211     CEL1    -0.150000       12.0110           0
     19367 MEMB     190      SAPE     H11R     HEL1     0.150000       1.00800           0
     19368 MEMB     190      SAPE     C212     CEL1    -0.150000       12.0110           0
     19369 MEMB     190      SAPE     H12R     HEL1     0.150000       1.00800           0
     19370 MEMB     190      SAPE     C213     CTL2    -0.180000       12.0110           0
     19371 MEMB     190      SAPE     H13R     HAL2     0.900000E-01   1.00800           0
     19372 MEMB     190      SAPE     H13S     HAL2     0.900000E-01   1.00800           0
     19373 MEMB     190      SAPE     C214     CEL1    -0.150000       12.0110           0
     19374 MEMB     190      SAPE     H14R     HEL1     0.150000       1.00800           0
     19375 MEMB     190      SAPE     C215     CEL1    -0.150000       12.0110           0
     19376 MEMB     190      SAPE     H15R     HEL1     0.150000       1.00800           0
     19377 MEMB     190      SAPE     C216     CTL2    -0.180000       12.0110           0
     19378 MEMB     190      SAPE     H16R     HAL2     0.900000E-01   1.00800           0
     19379 MEMB     190      SAPE     H16S     HAL2     0.900000E-01   1.00800           0
     19380 MEMB     190      SAPE     C217     CTL2    -0.180000       12.0110           0
     19381 MEMB     190      SAPE     H17R     HAL2     0.900000E-01   1.00800           0
     19382 MEMB     190      SAPE     H17S     HAL2     0.900000E-01   1.00800           0
     19383 MEMB     190      SAPE     C218     CTL2    -0.180000       12.0110           0
     19384 MEMB     190      SAPE     H18R     HAL2     0.900000E-01   1.00800           0
     19385 MEMB     190      SAPE     H18S     HAL2     0.900000E-01   1.00800           0
     19386 MEMB     190      SAPE     C219     CTL2    -0.180000       12.0110           0
     19387 MEMB     190      SAPE     H19R     HAL2     0.900000E-01   1.00800           0
     19388 MEMB     190      SAPE     H19S     HAL2     0.900000E-01   1.00800           0
     19389 MEMB     190      SAPE     C220     CTL3    -0.270000       12.0110           0
     19390 MEMB     190      SAPE     H20R     HAL3     0.900000E-01   1.00800           0
     19391 MEMB     190      SAPE     H20S     HAL3     0.900000E-01   1.00800           0
     19392 MEMB     190      SAPE     H20T     HAL3     0.900000E-01   1.00800           0
     19393 MEMB     190      SAPE     C33      CTL2    -0.180000       12.0110           0
     19394 MEMB     190      SAPE     H3X      HAL2     0.900000E-01   1.00800           0
     19395 MEMB     190      SAPE     H3Y      HAL2     0.900000E-01   1.00800           0
     19396 MEMB     190      SAPE     C34      CTL2    -0.180000       12.0110           0
     19397 MEMB     190      SAPE     H4X      HAL2     0.900000E-01   1.00800           0
     19398 MEMB     190      SAPE     H4Y      HAL2     0.900000E-01   1.00800           0
     19399 MEMB     190      SAPE     C35      CTL2    -0.180000       12.0110           0
     19400 MEMB     190      SAPE     H5X      HAL2     0.900000E-01   1.00800           0
     19401 MEMB     190      SAPE     H5Y      HAL2     0.900000E-01   1.00800           0
     19402 MEMB     190      SAPE     C36      CTL2    -0.180000       12.0110           0
     19403 MEMB     190      SAPE     H6X      HAL2     0.900000E-01   1.00800           0
     19404 MEMB     190      SAPE     H6Y      HAL2     0.900000E-01   1.00800           0
     19405 MEMB     190      SAPE     C37      CTL2    -0.180000       12.0110           0
     19406 MEMB     190      SAPE     H7X      HAL2     0.900000E-01   1.00800           0
     19407 MEMB     190      SAPE     H7Y      HAL2     0.900000E-01   1.00800           0
     19408 MEMB     190      SAPE     C38      CTL2    -0.180000       12.0110           0
     19409 MEMB     190      SAPE     H8X      HAL2     0.900000E-01   1.00800           0
     19410 MEMB     190      SAPE     H8Y      HAL2     0.900000E-01   1.00800           0
     19411 MEMB     190      SAPE     C39      CTL2    -0.180000       12.0110           0
     19412 MEMB     190      SAPE     H9X      HAL2     0.900000E-01   1.00800           0
     19413 MEMB     190      SAPE     H9Y      HAL2     0.900000E-01   1.00800           0
     19414 MEMB     190      SAPE     C310     CTL2    -0.180000       12.0110           0
     19415 MEMB     190      SAPE     H10X     HAL2     0.900000E-01   1.00800           0
     19416 MEMB     190      SAPE     H10Y     HAL2     0.900000E-01   1.00800           0
     19417 MEMB     190      SAPE     C311     CTL2    -0.180000       12.0110           0
     19418 MEMB     190      SAPE     H11X     HAL2     0.900000E-01   1.00800           0
     19419 MEMB     190      SAPE     H11Y     HAL2     0.900000E-01   1.00800           0
     19420 MEMB     190      SAPE     C312     CTL2    -0.180000       12.0110           0
     19421 MEMB     190      SAPE     H12X     HAL2     0.900000E-01   1.00800           0
     19422 MEMB     190      SAPE     H12Y     HAL2     0.900000E-01   1.00800           0
     19423 MEMB     190      SAPE     C313     CTL2    -0.180000       12.0110           0
     19424 MEMB     190      SAPE     H13X     HAL2     0.900000E-01   1.00800           0
     19425 MEMB     190      SAPE     H13Y     HAL2     0.900000E-01   1.00800           0
     19426 MEMB     190      SAPE     C314     CTL2    -0.180000       12.0110           0
     19427 MEMB     190      SAPE     H14X     HAL2     0.900000E-01   1.00800           0
     19428 MEMB     190      SAPE     H14Y     HAL2     0.900000E-01   1.00800           0
     19429 MEMB     190      SAPE     C315     CTL2    -0.180000       12.0110           0
     19430 MEMB     190      SAPE     H15X     HAL2     0.900000E-01   1.00800           0
     19431 MEMB     190      SAPE     H15Y     HAL2     0.900000E-01   1.00800           0
     19432 MEMB     190      SAPE     C316     CTL2    -0.180000       12.0110           0
     19433 MEMB     190      SAPE     H16X     HAL2     0.900000E-01   1.00800           0
     19434 MEMB     190      SAPE     H16Y     HAL2     0.900000E-01   1.00800           0
     19435 MEMB     190      SAPE     C317     CTL2    -0.180000       12.0110           0
     19436 MEMB     190      SAPE     H17X     HAL2     0.900000E-01   1.00800           0
     19437 MEMB     190      SAPE     H17Y     HAL2     0.900000E-01   1.00800           0
     19438 MEMB     190      SAPE     C318     CTL3    -0.270000       12.0110           0
     19439 MEMB     190      SAPE     H18X     HAL3     0.900000E-01   1.00800           0
     19440 MEMB     190      SAPE     H18Y     HAL3     0.900000E-01   1.00800           0
     19441 MEMB     190      SAPE     H18Z     HAL3     0.900000E-01   1.00800           0
     19442 MEMB     191      SAPE     N        NH3L    -0.300000       14.0070           0
     19443 MEMB     191      SAPE     HN1      HCL      0.330000       1.00800           0
     19444 MEMB     191      SAPE     HN2      HCL      0.330000       1.00800           0
     19445 MEMB     191      SAPE     HN3      HCL      0.330000       1.00800           0
     19446 MEMB     191      SAPE     C12      CTL2     0.130000       12.0110           0
     19447 MEMB     191      SAPE     H12A     HAL2     0.900000E-01   1.00800           0
     19448 MEMB     191      SAPE     H12B     HAL2     0.900000E-01   1.00800           0
     19449 MEMB     191      SAPE     C11      CTL2    -0.800000E-01   12.0110           0
     19450 MEMB     191      SAPE     H11A     HAL2     0.900000E-01   1.00800           0
     19451 MEMB     191      SAPE     H11B     HAL2     0.900000E-01   1.00800           0
     19452 MEMB     191      SAPE     P        PL       1.500000       30.9740           0
     19453 MEMB     191      SAPE     O13      O2L     -0.780000       15.9994           0
     19454 MEMB     191      SAPE     O14      O2L     -0.780000       15.9994           0
     19455 MEMB     191      SAPE     O12      OSLP    -0.570000       15.9994           0
     19456 MEMB     191      SAPE     O11      OSLP    -0.570000       15.9994           0
     19457 MEMB     191      SAPE     C1       CTL2    -0.800000E-01   12.0110           0
     19458 MEMB     191      SAPE     HA       HAL2     0.900000E-01   1.00800           0
     19459 MEMB     191      SAPE     HB       HAL2     0.900000E-01   1.00800           0
     19460 MEMB     191      SAPE     C2       CTL1     0.170000       12.0110           0
     19461 MEMB     191      SAPE     HS       HAL1     0.900000E-01   1.00800           0
     19462 MEMB     191      SAPE     O21      OSL     -0.490000       15.9994           0
     19463 MEMB     191      SAPE     C21      CL       0.900000       12.0110           0
     19464 MEMB     191      SAPE     O22      OBL     -0.630000       15.9994           0
     19465 MEMB     191      SAPE     C22      CTL2    -0.220000       12.0110           0
     19466 MEMB     191      SAPE     H2R      HAL2     0.900000E-01   1.00800           0
     19467 MEMB     191      SAPE     H2S      HAL2     0.900000E-01   1.00800           0
     19468 MEMB     191      SAPE     C3       CTL2     0.800000E-01   12.0110           0
     19469 MEMB     191      SAPE     HX       HAL2     0.900000E-01   1.00800           0
     19470 MEMB     191      SAPE     HY       HAL2     0.900000E-01   1.00800           0
     19471 MEMB     191      SAPE     O31      OSL     -0.490000       15.9994           0
     19472 MEMB     191      SAPE     C31      CL       0.900000       12.0110           0
     19473 MEMB     191      SAPE     O32      OBL     -0.630000       15.9994           0
     19474 MEMB     191      SAPE     C32      CTL2    -0.220000       12.0110           0
     19475 MEMB     191      SAPE     H2X      HAL2     0.900000E-01   1.00800           0
     19476 MEMB     191      SAPE     H2Y      HAL2     0.900000E-01   1.00800           0
     19477 MEMB     191      SAPE     C23      CTL2    -0.180000       12.0110           0
     19478 MEMB     191      SAPE     H3R      HAL2     0.900000E-01   1.00800           0
     19479 MEMB     191      SAPE     H3S      HAL2     0.900000E-01   1.00800           0
     19480 MEMB     191      SAPE     C24      CTL2    -0.180000       12.0110           0
     19481 MEMB     191      SAPE     H4R      HAL2     0.900000E-01   1.00800           0
     19482 MEMB     191      SAPE     H4S      HAL2     0.900000E-01   1.00800           0
     19483 MEMB     191      SAPE     C25      CEL1    -0.150000       12.0110           0
     19484 MEMB     191      SAPE     H5R      HEL1     0.150000       1.00800           0
     19485 MEMB     191      SAPE     C26      CEL1    -0.150000       12.0110           0
     19486 MEMB     191      SAPE     H6R      HEL1     0.150000       1.00800           0
     19487 MEMB     191      SAPE     C27      CTL2    -0.180000       12.0110           0
     19488 MEMB     191      SAPE     H7R      HAL2     0.900000E-01   1.00800           0
     19489 MEMB     191      SAPE     H7S      HAL2     0.900000E-01   1.00800           0
     19490 MEMB     191      SAPE     C28      CEL1    -0.150000       12.0110           0
     19491 MEMB     191      SAPE     H8R      HEL1     0.150000       1.00800           0
     19492 MEMB     191      SAPE     C29      CEL1    -0.150000       12.0110           0
     19493 MEMB     191      SAPE     H9R      HEL1     0.150000       1.00800           0
     19494 MEMB     191      SAPE     C210     CTL2    -0.180000       12.0110           0
     19495 MEMB     191      SAPE     H10R     HAL2     0.900000E-01   1.00800           0
     19496 MEMB     191      SAPE     H10S     HAL2     0.900000E-01   1.00800           0
     19497 MEMB     191      SAPE     C211     CEL1    -0.150000       12.0110           0
     19498 MEMB     191      SAPE     H11R     HEL1     0.150000       1.00800           0
     19499 MEMB     191      SAPE     C212     CEL1    -0.150000       12.0110           0
     19500 MEMB     191      SAPE     H12R     HEL1     0.150000       1.00800           0
     19501 MEMB     191      SAPE     C213     CTL2    -0.180000       12.0110           0
     19502 MEMB     191      SAPE     H13R     HAL2     0.900000E-01   1.00800           0
     19503 MEMB     191      SAPE     H13S     HAL2     0.900000E-01   1.00800           0
     19504 MEMB     191      SAPE     C214     CEL1    -0.150000       12.0110           0
     19505 MEMB     191      SAPE     H14R     HEL1     0.150000       1.00800           0
     19506 MEMB     191      SAPE     C215     CEL1    -0.150000       12.0110           0
     19507 MEMB     191      SAPE     H15R     HEL1     0.150000       1.00800           0
     19508 MEMB     191      SAPE     C216     CTL2    -0.180000       12.0110           0
     19509 MEMB     191      SAPE     H16R     HAL2     0.900000E-01   1.00800           0
     19510 MEMB     191      SAPE     H16S     HAL2     0.900000E-01   1.00800           0
     19511 MEMB     191      SAPE     C217     CTL2    -0.180000       12.0110           0
     19512 MEMB     191      SAPE     H17R     HAL2     0.900000E-01   1.00800           0
     19513 MEMB     191      SAPE     H17S     HAL2     0.900000E-01   1.00800           0
     19514 MEMB     191      SAPE     C218     CTL2    -0.180000       12.0110           0
     19515 MEMB     191      SAPE     H18R     HAL2     0.900000E-01   1.00800           0
     19516 MEMB     191      SAPE     H18S     HAL2     0.900000E-01   1.00800           0
     19517 MEMB     191      SAPE     C219     CTL2    -0.180000       12.0110           0
     19518 MEMB     191      SAPE     H19R     HAL2     0.900000E-01   1.00800           0
     19519 MEMB     191      SAPE     H19S     HAL2     0.900000E-01   1.00800           0
     19520 MEMB     191      SAPE     C220     CTL3    -0.270000       12.0110           0
     19521 MEMB     191      SAPE     H20R     HAL3     0.900000E-01   1.00800           0
     19522 MEMB     191      SAPE     H20S     HAL3     0.900000E-01   1.00800           0
     19523 MEMB     191      SAPE     H20T     HAL3     0.900000E-01   1.00800           0
     19524 MEMB     191      SAPE     C33      CTL2    -0.180000       12.0110           0
     19525 MEMB     191      SAPE     H3X      HAL2     0.900000E-01   1.00800           0
     19526 MEMB     191      SAPE     H3Y      HAL2     0.900000E-01   1.00800           0
     19527 MEMB     191      SAPE     C34      CTL2    -0.180000       12.0110           0
     19528 MEMB     191      SAPE     H4X      HAL2     0.900000E-01   1.00800           0
     19529 MEMB     191      SAPE     H4Y      HAL2     0.900000E-01   1.00800           0
     19530 MEMB     191      SAPE     C35      CTL2    -0.180000       12.0110           0
     19531 MEMB     191      SAPE     H5X      HAL2     0.900000E-01   1.00800           0
     19532 MEMB     191      SAPE     H5Y      HAL2     0.900000E-01   1.00800           0
     19533 MEMB     191      SAPE     C36      CTL2    -0.180000       12.0110           0
     19534 MEMB     191      SAPE     H6X      HAL2     0.900000E-01   1.00800           0
     19535 MEMB     191      SAPE     H6Y      HAL2     0.900000E-01   1.00800           0
     19536 MEMB     191      SAPE     C37      CTL2    -0.180000       12.0110           0
     19537 MEMB     191      SAPE     H7X      HAL2     0.900000E-01   1.00800           0
     19538 MEMB     191      SAPE     H7Y      HAL2     0.900000E-01   1.00800           0
     19539 MEMB     191      SAPE     C38      CTL2    -0.180000       12.0110           0
     19540 MEMB     191      SAPE     H8X      HAL2     0.900000E-01   1.00800           0
     19541 MEMB     191      SAPE     H8Y      HAL2     0.900000E-01   1.00800           0
     19542 MEMB     191      SAPE     C39      CTL2    -0.180000       12.0110           0
     19543 MEMB     191      SAPE     H9X      HAL2     0.900000E-01   1.00800           0
     19544 MEMB     191      SAPE     H9Y      HAL2     0.900000E-01   1.00800           0
     19545 MEMB     191      SAPE     C310     CTL2    -0.180000       12.0110           0
     19546 MEMB     191      SAPE     H10X     HAL2     0.900000E-01   1.00800           0
     19547 MEMB     191      SAPE     H10Y     HAL2     0.900000E-01   1.00800           0
     19548 MEMB     191      SAPE     C311     CTL2    -0.180000       12.0110           0
     19549 MEMB     191      SAPE     H11X     HAL2     0.900000E-01   1.00800           0
     19550 MEMB     191      SAPE     H11Y     HAL2     0.900000E-01   1.00800           0
     19551 MEMB     191      SAPE     C312     CTL2    -0.180000       12.0110           0
     19552 MEMB     191      SAPE     H12X     HAL2     0.900000E-01   1.00800           0
     19553 MEMB     191      SAPE     H12Y     HAL2     0.900000E-01   1.00800           0
     19554 MEMB     191      SAPE     C313     CTL2    -0.180000       12.0110           0
     19555 MEMB     191      SAPE     H13X     HAL2     0.900000E-01   1.00800           0
     19556 MEMB     191      SAPE     H13Y     HAL2     0.900000E-01   1.00800           0
     19557 MEMB     191      SAPE     C314     CTL2    -0.180000       12.0110           0
     19558 MEMB     191      SAPE     H14X     HAL2     0.900000E-01   1.00800           0
     19559 MEMB     191      SAPE     H14Y     HAL2     0.900000E-01   1.00800           0
     19560 MEMB     191      SAPE     C315     CTL2    -0.180000       12.0110           0
     19561 MEMB     191      SAPE     H15X     HAL2     0.900000E-01   1.00800           0
     19562 MEMB     191      SAPE     H15Y     HAL2     0.900000E-01   1.00800           0
     19563 MEMB     191      SAPE     C316     CTL2    -0.180000       12.0110           0
     19564 MEMB     191      SAPE     H16X     HAL2     0.900000E-01   1.00800           0
     19565 MEMB     191      SAPE     H16Y     HAL2     0.900000E-01   1.00800           0
     19566 MEMB     191      SAPE     C317     CTL2    -0.180000       12.0110           0
     19567 MEMB     191      SAPE     H17X     HAL2     0.900000E-01   1.00800           0
     19568 MEMB     191      SAPE     H17Y     HAL2     0.900000E-01   1.00800           0
     19569 MEMB     191      SAPE     C318     CTL3    -0.270000       12.0110           0
     19570 MEMB     191      SAPE     H18X     HAL3     0.900000E-01   1.00800           0
     19571 MEMB     191      SAPE     H18Y     HAL3     0.900000E-01   1.00800           0
     19572 MEMB     191      SAPE     H18Z     HAL3     0.900000E-01   1.00800           0
     19573 MEMB     11       SOPE     N        NH3L    -0.300000       14.0070           0
     19574 MEMB     11       SOPE     HN1      HCL      0.330000       1.00800           0
     19575 MEMB     11       SOPE     HN2      HCL      0.330000       1.00800           0
     19576 MEMB     11       SOPE     HN3      HCL      0.330000       1.00800           0
     19577 MEMB     11       SOPE     C12      CTL2     0.130000       12.0110           0
     19578 MEMB     11       SOPE     H12A     HAL2     0.900000E-01   1.00800           0
     19579 MEMB     11       SOPE     H12B     HAL2     0.900000E-01   1.00800           0
     19580 MEMB     11       SOPE     C11      CTL2    -0.800000E-01   12.0110           0
     19581 MEMB     11       SOPE     H11A     HAL2     0.900000E-01   1.00800           0
     19582 MEMB     11       SOPE     H11B     HAL2     0.900000E-01   1.00800           0
     19583 MEMB     11       SOPE     P        PL       1.500000       30.9740           0
     19584 MEMB     11       SOPE     O13      O2L     -0.780000       15.9994           0
     19585 MEMB     11       SOPE     O14      O2L     -0.780000       15.9994           0
     19586 MEMB     11       SOPE     O12      OSLP    -0.570000       15.9994           0
     19587 MEMB     11       SOPE     O11      OSLP    -0.570000       15.9994           0
     19588 MEMB     11       SOPE     C1       CTL2    -0.800000E-01   12.0110           0
     19589 MEMB     11       SOPE     HA       HAL2     0.900000E-01   1.00800           0
     19590 MEMB     11       SOPE     HB       HAL2     0.900000E-01   1.00800           0
     19591 MEMB     11       SOPE     C2       CTL1     0.170000       12.0110           0
     19592 MEMB     11       SOPE     HS       HAL1     0.900000E-01   1.00800           0
     19593 MEMB     11       SOPE     O21      OSL     -0.490000       15.9994           0
     19594 MEMB     11       SOPE     C21      CL       0.900000       12.0110           0
     19595 MEMB     11       SOPE     O22      OBL     -0.630000       15.9994           0
     19596 MEMB     11       SOPE     C22      CTL2    -0.220000       12.0110           0
     19597 MEMB     11       SOPE     H2R      HAL2     0.900000E-01   1.00800           0
     19598 MEMB     11       SOPE     H2S      HAL2     0.900000E-01   1.00800           0
     19599 MEMB     11       SOPE     C3       CTL2     0.800000E-01   12.0110           0
     19600 MEMB     11       SOPE     HX       HAL2     0.900000E-01   1.00800           0
     19601 MEMB     11       SOPE     HY       HAL2     0.900000E-01   1.00800           0
     19602 MEMB     11       SOPE     O31      OSL     -0.490000       15.9994           0
     19603 MEMB     11       SOPE     C31      CL       0.900000       12.0110           0
     19604 MEMB     11       SOPE     O32      OBL     -0.630000       15.9994           0
     19605 MEMB     11       SOPE     C32      CTL2    -0.220000       12.0110           0
     19606 MEMB     11       SOPE     H2X      HAL2     0.900000E-01   1.00800           0
     19607 MEMB     11       SOPE     H2Y      HAL2     0.900000E-01   1.00800           0
     19608 MEMB     11       SOPE     C23      CTL2    -0.180000       12.0110           0
     19609 MEMB     11       SOPE     H3R      HAL2     0.900000E-01   1.00800           0
     19610 MEMB     11       SOPE     H3S      HAL2     0.900000E-01   1.00800           0
     19611 MEMB     11       SOPE     C24      CTL2    -0.180000       12.0110           0
     19612 MEMB     11       SOPE     H4R      HAL2     0.900000E-01   1.00800           0
     19613 MEMB     11       SOPE     H4S      HAL2     0.900000E-01   1.00800           0
     19614 MEMB     11       SOPE     C25      CTL2    -0.180000       12.0110           0
     19615 MEMB     11       SOPE     H5R      HAL2     0.900000E-01   1.00800           0
     19616 MEMB     11       SOPE     H5S      HAL2     0.900000E-01   1.00800           0
     19617 MEMB     11       SOPE     C26      CTL2    -0.180000       12.0110           0
     19618 MEMB     11       SOPE     H6R      HAL2     0.900000E-01   1.00800           0
     19619 MEMB     11       SOPE     H6S      HAL2     0.900000E-01   1.00800           0
     19620 MEMB     11       SOPE     C27      CTL2    -0.180000       12.0110           0
     19621 MEMB     11       SOPE     H7R      HAL2     0.900000E-01   1.00800           0
     19622 MEMB     11       SOPE     H7S      HAL2     0.900000E-01   1.00800           0
     19623 MEMB     11       SOPE     C28      CTL2    -0.180000       12.0110           0
     19624 MEMB     11       SOPE     H8R      HAL2     0.900000E-01   1.00800           0
     19625 MEMB     11       SOPE     H8S      HAL2     0.900000E-01   1.00800           0
     19626 MEMB     11       SOPE     C29      CEL1    -0.150000       12.0110           0
     19627 MEMB     11       SOPE     H91      HEL1     0.150000       1.00800           0
     19628 MEMB     11       SOPE     C210     CEL1    -0.150000       12.0110           0
     19629 MEMB     11       SOPE     H101     HEL1     0.150000       1.00800           0
     19630 MEMB     11       SOPE     C211     CTL2    -0.180000       12.0110           0
     19631 MEMB     11       SOPE     H11R     HAL2     0.900000E-01   1.00800           0
     19632 MEMB     11       SOPE     H11S     HAL2     0.900000E-01   1.00800           0
     19633 MEMB     11       SOPE     C212     CTL2    -0.180000       12.0110           0
     19634 MEMB     11       SOPE     H12R     HAL2     0.900000E-01   1.00800           0
     19635 MEMB     11       SOPE     H12S     HAL2     0.900000E-01   1.00800           0
     19636 MEMB     11       SOPE     C213     CTL2    -0.180000       12.0110           0
     19637 MEMB     11       SOPE     H13R     HAL2     0.900000E-01   1.00800           0
     19638 MEMB     11       SOPE     H13S     HAL2     0.900000E-01   1.00800           0
     19639 MEMB     11       SOPE     C214     CTL2    -0.180000       12.0110           0
     19640 MEMB     11       SOPE     H14R     HAL2     0.900000E-01   1.00800           0
     19641 MEMB     11       SOPE     H14S     HAL2     0.900000E-01   1.00800           0
     19642 MEMB     11       SOPE     C215     CTL2    -0.180000       12.0110           0
     19643 MEMB     11       SOPE     H15R     HAL2     0.900000E-01   1.00800           0
     19644 MEMB     11       SOPE     H15S     HAL2     0.900000E-01   1.00800           0
     19645 MEMB     11       SOPE     C216     CTL2    -0.180000       12.0110           0
     19646 MEMB     11       SOPE     H16R     HAL2     0.900000E-01   1.00800           0
     19647 MEMB     11       SOPE     H16S     HAL2     0.900000E-01   1.00800           0
     19648 MEMB     11       SOPE     C217     CTL2    -0.180000       12.0110           0
     19649 MEMB     11       SOPE     H17R     HAL2     0.900000E-01   1.00800           0
     19650 MEMB     11       SOPE     H17S     HAL2     0.900000E-01   1.00800           0
     19651 MEMB     11       SOPE     C218     CTL3    -0.270000       12.0110           0
     19652 MEMB     11       SOPE     H18R     HAL3     0.900000E-01   1.00800           0
     19653 MEMB     11       SOPE     H18S     HAL3     0.900000E-01   1.00800           0
     19654 MEMB     11       SOPE     H18T     HAL3     0.900000E-01   1.00800           0
     19655 MEMB     11       SOPE     C33      CTL2    -0.180000       12.0110           0
     19656 MEMB     11       SOPE     H3X      HAL2     0.900000E-01   1.00800           0
     19657 MEMB     11       SOPE     H3Y      HAL2     0.900000E-01   1.00800           0
     19658 MEMB     11       SOPE     C34      CTL2    -0.180000       12.0110           0
     19659 MEMB     11       SOPE     H4X      HAL2     0.900000E-01   1.00800           0
     19660 MEMB     11       SOPE     H4Y      HAL2     0.900000E-01   1.00800           0
     19661 MEMB     11       SOPE     C35      CTL2    -0.180000       12.0110           0
     19662 MEMB     11       SOPE     H5X      HAL2     0.900000E-01   1.00800           0
     19663 MEMB     11       SOPE     H5Y      HAL2     0.900000E-01   1.00800           0
     19664 MEMB     11       SOPE     C36      CTL2    -0.180000       12.0110           0
     19665 MEMB     11       SOPE     H6X      HAL2     0.900000E-01   1.00800           0
     19666 MEMB     11       SOPE     H6Y      HAL2     0.900000E-01   1.00800           0
     19667 MEMB     11       SOPE     C37      CTL2    -0.180000       12.0110           0
     19668 MEMB     11       SOPE     H7X      HAL2     0.900000E-01   1.00800           0
     19669 MEMB     11       SOPE     H7Y      HAL2     0.900000E-01   1.00800           0
     19670 MEMB     11       SOPE     C38      CTL2    -0.180000       12.0110           0
     19671 MEMB     11       SOPE     H8X      HAL2     0.900000E-01   1.00800           0
     19672 MEMB     11       SOPE     H8Y      HAL2     0.900000E-01   1.00800           0
     19673 MEMB     11       SOPE     C39      CTL2    -0.180000       12.0110           0
     19674 MEMB     11       SOPE     H9X      HAL2     0.900000E-01   1.00800           0
     19675 MEMB     11       SOPE     H9Y      HAL2     0.900000E-01   1.00800           0
     19676 MEMB     11       SOPE     C310     CTL2    -0.180000       12.0110           0
     19677 MEMB     11       SOPE     H10X     HAL2     0.900000E-01   1.00800           0
     19678 MEMB     11       SOPE     H10Y     HAL2     0.900000E-01   1.00800           0
     19679 MEMB     11       SOPE     C311     CTL2    -0.180000       12.0110           0
     19680 MEMB     11       SOPE     H11X     HAL2     0.900000E-01   1.00800           0
     19681 MEMB     11       SOPE     H11Y     HAL2     0.900000E-01   1.00800           0
     19682 MEMB     11       SOPE     C312     CTL2    -0.180000       12.0110           0
     19683 MEMB     11       SOPE     H12X     HAL2     0.900000E-01   1.00800           0
     19684 MEMB     11       SOPE     H12Y     HAL2     0.900000E-01   1.00800           0
     19685 MEMB     11       SOPE     C313     CTL2    -0.180000       12.0110           0
     19686 MEMB     11       SOPE     H13X     HAL2     0.900000E-01   1.00800           0
     19687 MEMB     11       SOPE     H13Y     HAL2     0.900000E-01   1.00800           0
     19688 MEMB     11       SOPE     C314     CTL2    -0.180000       12.0110           0
     19689 MEMB     11       SOPE     H14X     HAL2     0.900000E-01   1.00800           0
     19690 MEMB     11       SOPE     H14Y     HAL2     0.900000E-01   1.00800           0
     19691 MEMB     11       SOPE     C315     CTL2    -0.180000       12.0110           0
     19692 MEMB     11       SOPE     H15X     HAL2     0.900000E-01   1.00800           0
     19693 MEMB     11       SOPE     H15Y     HAL2     0.900000E-01   1.00800           0
     19694 MEMB     11       SOPE     C316     CTL2    -0.180000       12.0110           0
     19695 MEMB     11       SOPE     H16X     HAL2     0.900000E-01   1.00800           0
     19696 MEMB     11       SOPE     H16Y     HAL2     0.900000E-01   1.00800           0
     19697 MEMB     11       SOPE     C317     CTL2    -0.180000       12.0110           0
     19698 MEMB     11       SOPE     H17X     HAL2     0.900000E-01   1.00800           0
     19699 MEMB     11       SOPE     H17Y     HAL2     0.900000E-01   1.00800           0
     19700 MEMB     11       SOPE     C318     CTL3    -0.270000       12.0110           0
     19701 MEMB     11       SOPE     H18X     HAL3     0.900000E-01   1.00800           0
     19702 MEMB     11       SOPE     H18Y     HAL3     0.900000E-01   1.00800           0
     19703 MEMB     11       SOPE     H18Z     HAL3     0.900000E-01   1.00800           0
     19704 MEMB     14       SOPE     N        NH3L    -0.300000       14.0070           0
     19705 MEMB     14       SOPE     HN1      HCL      0.330000       1.00800           0
     19706 MEMB     14       SOPE     HN2      HCL      0.330000       1.00800           0
     19707 MEMB     14       SOPE     HN3      HCL      0.330000       1.00800           0
     19708 MEMB     14       SOPE     C12      CTL2     0.130000       12.0110           0
     19709 MEMB     14       SOPE     H12A     HAL2     0.900000E-01   1.00800           0
     19710 MEMB     14       SOPE     H12B     HAL2     0.900000E-01   1.00800           0
     19711 MEMB     14       SOPE     C11      CTL2    -0.800000E-01   12.0110           0
     19712 MEMB     14       SOPE     H11A     HAL2     0.900000E-01   1.00800           0
     19713 MEMB     14       SOPE     H11B     HAL2     0.900000E-01   1.00800           0
     19714 MEMB     14       SOPE     P        PL       1.500000       30.9740           0
     19715 MEMB     14       SOPE     O13      O2L     -0.780000       15.9994           0
     19716 MEMB     14       SOPE     O14      O2L     -0.780000       15.9994           0
     19717 MEMB     14       SOPE     O12      OSLP    -0.570000       15.9994           0
     19718 MEMB     14       SOPE     O11      OSLP    -0.570000       15.9994           0
     19719 MEMB     14       SOPE     C1       CTL2    -0.800000E-01   12.0110           0
     19720 MEMB     14       SOPE     HA       HAL2     0.900000E-01   1.00800           0
     19721 MEMB     14       SOPE     HB       HAL2     0.900000E-01   1.00800           0
     19722 MEMB     14       SOPE     C2       CTL1     0.170000       12.0110           0
     19723 MEMB     14       SOPE     HS       HAL1     0.900000E-01   1.00800           0
     19724 MEMB     14       SOPE     O21      OSL     -0.490000       15.9994           0
     19725 MEMB     14       SOPE     C21      CL       0.900000       12.0110           0
     19726 MEMB     14       SOPE     O22      OBL     -0.630000       15.9994           0
     19727 MEMB     14       SOPE     C22      CTL2    -0.220000       12.0110           0
     19728 MEMB     14       SOPE     H2R      HAL2     0.900000E-01   1.00800           0
     19729 MEMB     14       SOPE     H2S      HAL2     0.900000E-01   1.00800           0
     19730 MEMB     14       SOPE     C3       CTL2     0.800000E-01   12.0110           0
     19731 MEMB     14       SOPE     HX       HAL2     0.900000E-01   1.00800           0
     19732 MEMB     14       SOPE     HY       HAL2     0.900000E-01   1.00800           0
     19733 MEMB     14       SOPE     O31      OSL     -0.490000       15.9994           0
     19734 MEMB     14       SOPE     C31      CL       0.900000       12.0110           0
     19735 MEMB     14       SOPE     O32      OBL     -0.630000       15.9994           0
     19736 MEMB     14       SOPE     C32      CTL2    -0.220000       12.0110           0
     19737 MEMB     14       SOPE     H2X      HAL2     0.900000E-01   1.00800           0
     19738 MEMB     14       SOPE     H2Y      HAL2     0.900000E-01   1.00800           0
     19739 MEMB     14       SOPE     C23      CTL2    -0.180000       12.0110           0
     19740 MEMB     14       SOPE     H3R      HAL2     0.900000E-01   1.00800           0
     19741 MEMB     14       SOPE     H3S      HAL2     0.900000E-01   1.00800           0
     19742 MEMB     14       SOPE     C24      CTL2    -0.180000       12.0110           0
     19743 MEMB     14       SOPE     H4R      HAL2     0.900000E-01   1.00800           0
     19744 MEMB     14       SOPE     H4S      HAL2     0.900000E-01   1.00800           0
     19745 MEMB     14       SOPE     C25      CTL2    -0.180000       12.0110           0
     19746 MEMB     14       SOPE     H5R      HAL2     0.900000E-01   1.00800           0
     19747 MEMB     14       SOPE     H5S      HAL2     0.900000E-01   1.00800           0
     19748 MEMB     14       SOPE     C26      CTL2    -0.180000       12.0110           0
     19749 MEMB     14       SOPE     H6R      HAL2     0.900000E-01   1.00800           0
     19750 MEMB     14       SOPE     H6S      HAL2     0.900000E-01   1.00800           0
     19751 MEMB     14       SOPE     C27      CTL2    -0.180000       12.0110           0
     19752 MEMB     14       SOPE     H7R      HAL2     0.900000E-01   1.00800           0
     19753 MEMB     14       SOPE     H7S      HAL2     0.900000E-01   1.00800           0
     19754 MEMB     14       SOPE     C28      CTL2    -0.180000       12.0110           0
     19755 MEMB     14       SOPE     H8R      HAL2     0.900000E-01   1.00800           0
     19756 MEMB     14       SOPE     H8S      HAL2     0.900000E-01   1.00800           0
     19757 MEMB     14       SOPE     C29      CEL1    -0.150000       12.0110           0
     19758 MEMB     14       SOPE     H91      HEL1     0.150000       1.00800           0
     19759 MEMB     14       SOPE     C210     CEL1    -0.150000       12.0110           0
     19760 MEMB     14       SOPE     H101     HEL1     0.150000       1.00800           0
     19761 MEMB     14       SOPE     C211     CTL2    -0.180000       12.0110           0
     19762 MEMB     14       SOPE     H11R     HAL2     0.900000E-01   1.00800           0
     19763 MEMB     14       SOPE     H11S     HAL2     0.900000E-01   1.00800           0
     19764 MEMB     14       SOPE     C212     CTL2    -0.180000       12.0110           0
     19765 MEMB     14       SOPE     H12R     HAL2     0.900000E-01   1.00800           0
     19766 MEMB     14       SOPE     H12S     HAL2     0.900000E-01   1.00800           0
     19767 MEMB     14       SOPE     C213     CTL2    -0.180000       12.0110           0
     19768 MEMB     14       SOPE     H13R     HAL2     0.900000E-01   1.00800           0
     19769 MEMB     14       SOPE     H13S     HAL2     0.900000E-01   1.00800           0
     19770 MEMB     14       SOPE     C214     CTL2    -0.180000       12.0110           0
     19771 MEMB     14       SOPE     H14R     HAL2     0.900000E-01   1.00800           0
     19772 MEMB     14       SOPE     H14S     HAL2     0.900000E-01   1.00800           0
     19773 MEMB     14       SOPE     C215     CTL2    -0.180000       12.0110           0
     19774 MEMB     14       SOPE     H15R     HAL2     0.900000E-01   1.00800           0
     19775 MEMB     14       SOPE     H15S     HAL2     0.900000E-01   1.00800           0
     19776 MEMB     14       SOPE     C216     CTL2    -0.180000       12.0110           0
     19777 MEMB     14       SOPE     H16R     HAL2     0.900000E-01   1.00800           0
     19778 MEMB     14       SOPE     H16S     HAL2     0.900000E-01   1.00800           0
     19779 MEMB     14       SOPE     C217     CTL2    -0.180000       12.0110           0
     19780 MEMB     14       SOPE     H17R     HAL2     0.900000E-01   1.00800           0
     19781 MEMB     14       SOPE     H17S     HAL2     0.900000E-01   1.00800           0
     19782 MEMB     14       SOPE     C218     CTL3    -0.270000       12.0110           0
     19783 MEMB     14       SOPE     H18R     HAL3     0.900000E-01   1.00800           0
     19784 MEMB     14       SOPE     H18S     HAL3     0.900000E-01   1.00800           0
     19785 MEMB     14       SOPE     H18T     HAL3     0.900000E-01   1.00800           0
     19786 MEMB     14       SOPE     C33      CTL2    -0.180000       12.0110           0
     19787 MEMB     14       SOPE     H3X      HAL2     0.900000E-01   1.00800           0
     19788 MEMB     14       SOPE     H3Y      HAL2     0.900000E-01   1.00800           0
     19789 MEMB     14       SOPE     C34      CTL2    -0.180000       12.0110           0
     19790 MEMB     14       SOPE     H4X      HAL2     0.900000E-01   1.00800           0
     19791 MEMB     14       SOPE     H4Y      HAL2     0.900000E-01   1.00800           0
     19792 MEMB     14       SOPE     C35      CTL2    -0.180000       12.0110           0
     19793 MEMB     14       SOPE     H5X      HAL2     0.900000E-01   1.00800           0
     19794 MEMB     14       SOPE     H5Y      HAL2     0.900000E-01   1.00800           0
     19795 MEMB     14       SOPE     C36      CTL2    -0.180000       12.0110           0
     19796 MEMB     14       SOPE     H6X      HAL2     0.900000E-01   1.00800           0
     19797 MEMB     14       SOPE     H6Y      HAL2     0.900000E-01   1.00800           0
     19798 MEMB     14       SOPE     C37      CTL2    -0.180000       12.0110           0
     19799 MEMB     14       SOPE     H7X      HAL2     0.900000E-01   1.00800           0
     19800 MEMB     14       SOPE     H7Y      HAL2     0.900000E-01   1.00800           0
     19801 MEMB     14       SOPE     C38      CTL2    -0.180000       12.0110           0
     19802 MEMB     14       SOPE     H8X      HAL2     0.900000E-01   1.00800           0
     19803 MEMB     14       SOPE     H8Y      HAL2     0.900000E-01   1.00800           0
     19804 MEMB     14       SOPE     C39      CTL2    -0.180000       12.0110           0
     19805 MEMB     14       SOPE     H9X      HAL2     0.900000E-01   1.00800           0
     19806 MEMB     14       SOPE     H9Y      HAL2     0.900000E-01   1.00800           0
     19807 MEMB     14       SOPE     C310     CTL2    -0.180000       12.0110           0
     19808 MEMB     14       SOPE     H10X     HAL2     0.900000E-01   1.00800           0
     19809 MEMB     14       SOPE     H10Y     HAL2     0.900000E-01   1.00800           0
     19810 MEMB     14       SOPE     C311     CTL2    -0.180000       12.0110           0
     19811 MEMB     14       SOPE     H11X     HAL2     0.900000E-01   1.00800           0
     19812 MEMB     14       SOPE     H11Y     HAL2     0.900000E-01   1.00800           0
     19813 MEMB     14       SOPE     C312     CTL2    -0.180000       12.0110           0
     19814 MEMB     14       SOPE     H12X     HAL2     0.900000E-01   1.00800           0
     19815 MEMB     14       SOPE     H12Y     HAL2     0.900000E-01   1.00800           0
     19816 MEMB     14       SOPE     C313     CTL2    -0.180000       12.0110           0
     19817 MEMB     14       SOPE     H13X     HAL2     0.900000E-01   1.00800           0
     19818 MEMB     14       SOPE     H13Y     HAL2     0.900000E-01   1.00800           0
     19819 MEMB     14       SOPE     C314     CTL2    -0.180000       12.0110           0
     19820 MEMB     14       SOPE     H14X     HAL2     0.900000E-01   1.00800           0
     19821 MEMB     14       SOPE     H14Y     HAL2     0.900000E-01   1.00800           0
     19822 MEMB     14       SOPE     C315     CTL2    -0.180000       12.0110           0
     19823 MEMB     14       SOPE     H15X     HAL2     0.900000E-01   1.00800           0
     19824 MEMB     14       SOPE     H15Y     HAL2     0.900000E-01   1.00800           0
     19825 MEMB     14       SOPE     C316     CTL2    -0.180000       12.0110           0
     19826 MEMB     14       SOPE     H16X     HAL2     0.900000E-01   1.00800           0
     19827 MEMB     14       SOPE     H16Y     HAL2     0.900000E-01   1.00800           0
     19828 MEMB     14       SOPE     C317     CTL2    -0.180000       12.0110           0
     19829 MEMB     14       SOPE     H17X     HAL2     0.900000E-01   1.00800           0
     19830 MEMB     14       SOPE     H17Y     HAL2     0.900000E-01   1.00800           0
     19831 MEMB     14       SOPE     C318     CTL3    -0.270000       12.0110           0
     19832 MEMB     14       SOPE     H18X     HAL3     0.900000E-01   1.00800           0
     19833 MEMB     14       SOPE     H18Y     HAL3     0.900000E-01   1.00800           0
     19834 MEMB     14       SOPE     H18Z     HAL3     0.900000E-01   1.00800           0
     19835 MEMB     27       SOPE     N        NH3L    -0.300000       14.0070           0
     19836 MEMB     27       SOPE     HN1      HCL      0.330000       1.00800           0
     19837 MEMB     27       SOPE     HN2      HCL      0.330000       1.00800           0
     19838 MEMB     27       SOPE     HN3      HCL      0.330000       1.00800           0
     19839 MEMB     27       SOPE     C12      CTL2     0.130000       12.0110           0
     19840 MEMB     27       SOPE     H12A     HAL2     0.900000E-01   1.00800           0
     19841 MEMB     27       SOPE     H12B     HAL2     0.900000E-01   1.00800           0
     19842 MEMB     27       SOPE     C11      CTL2    -0.800000E-01   12.0110           0
     19843 MEMB     27       SOPE     H11A     HAL2     0.900000E-01   1.00800           0
     19844 MEMB     27       SOPE     H11B     HAL2     0.900000E-01   1.00800           0
     19845 MEMB     27       SOPE     P        PL       1.500000       30.9740           0
     19846 MEMB     27       SOPE     O13      O2L     -0.780000       15.9994           0
     19847 MEMB     27       SOPE     O14      O2L     -0.780000       15.9994           0
     19848 MEMB     27       SOPE     O12      OSLP    -0.570000       15.9994           0
     19849 MEMB     27       SOPE     O11      OSLP    -0.570000       15.9994           0
     19850 MEMB     27       SOPE     C1       CTL2    -0.800000E-01   12.0110           0
     19851 MEMB     27       SOPE     HA       HAL2     0.900000E-01   1.00800           0
     19852 MEMB     27       SOPE     HB       HAL2     0.900000E-01   1.00800           0
     19853 MEMB     27       SOPE     C2       CTL1     0.170000       12.0110           0
     19854 MEMB     27       SOPE     HS       HAL1     0.900000E-01   1.00800           0
     19855 MEMB     27       SOPE     O21      OSL     -0.490000       15.9994           0
     19856 MEMB     27       SOPE     C21      CL       0.900000       12.0110           0
     19857 MEMB     27       SOPE     O22      OBL     -0.630000       15.9994           0
     19858 MEMB     27       SOPE     C22      CTL2    -0.220000       12.0110           0
     19859 MEMB     27       SOPE     H2R      HAL2     0.900000E-01   1.00800           0
     19860 MEMB     27       SOPE     H2S      HAL2     0.900000E-01   1.00800           0
     19861 MEMB     27       SOPE     C3       CTL2     0.800000E-01   12.0110           0
     19862 MEMB     27       SOPE     HX       HAL2     0.900000E-01   1.00800           0
     19863 MEMB     27       SOPE     HY       HAL2     0.900000E-01   1.00800           0
     19864 MEMB     27       SOPE     O31      OSL     -0.490000       15.9994           0
     19865 MEMB     27       SOPE     C31      CL       0.900000       12.0110           0
     19866 MEMB     27       SOPE     O32      OBL     -0.630000       15.9994           0
     19867 MEMB     27       SOPE     C32      CTL2    -0.220000       12.0110           0
     19868 MEMB     27       SOPE     H2X      HAL2     0.900000E-01   1.00800           0
     19869 MEMB     27       SOPE     H2Y      HAL2     0.900000E-01   1.00800           0
     19870 MEMB     27       SOPE     C23      CTL2    -0.180000       12.0110           0
     19871 MEMB     27       SOPE     H3R      HAL2     0.900000E-01   1.00800           0
     19872 MEMB     27       SOPE     H3S      HAL2     0.900000E-01   1.00800           0
     19873 MEMB     27       SOPE     C24      CTL2    -0.180000       12.0110           0
     19874 MEMB     27       SOPE     H4R      HAL2     0.900000E-01   1.00800           0
     19875 MEMB     27       SOPE     H4S      HAL2     0.900000E-01   1.00800           0
     19876 MEMB     27       SOPE     C25      CTL2    -0.180000       12.0110           0
     19877 MEMB     27       SOPE     H5R      HAL2     0.900000E-01   1.00800           0
     19878 MEMB     27       SOPE     H5S      HAL2     0.900000E-01   1.00800           0
     19879 MEMB     27       SOPE     C26      CTL2    -0.180000       12.0110           0
     19880 MEMB     27       SOPE     H6R      HAL2     0.900000E-01   1.00800           0
     19881 MEMB     27       SOPE     H6S      HAL2     0.900000E-01   1.00800           0
     19882 MEMB     27       SOPE     C27      CTL2    -0.180000       12.0110           0
     19883 MEMB     27       SOPE     H7R      HAL2     0.900000E-01   1.00800           0
     19884 MEMB     27       SOPE     H7S      HAL2     0.900000E-01   1.00800           0
     19885 MEMB     27       SOPE     C28      CTL2    -0.180000       12.0110           0
     19886 MEMB     27       SOPE     H8R      HAL2     0.900000E-01   1.00800           0
     19887 MEMB     27       SOPE     H8S      HAL2     0.900000E-01   1.00800           0
     19888 MEMB     27       SOPE     C29      CEL1    -0.150000       12.0110           0
     19889 MEMB     27       SOPE     H91      HEL1     0.150000       1.00800           0
     19890 MEMB     27       SOPE     C210     CEL1    -0.150000       12.0110           0
     19891 MEMB     27       SOPE     H101     HEL1     0.150000       1.00800           0
     19892 MEMB     27       SOPE     C211     CTL2    -0.180000       12.0110           0
     19893 MEMB     27       SOPE     H11R     HAL2     0.900000E-01   1.00800           0
     19894 MEMB     27       SOPE     H11S     HAL2     0.900000E-01   1.00800           0
     19895 MEMB     27       SOPE     C212     CTL2    -0.180000       12.0110           0
     19896 MEMB     27       SOPE     H12R     HAL2     0.900000E-01   1.00800           0
     19897 MEMB     27       SOPE     H12S     HAL2     0.900000E-01   1.00800           0
     19898 MEMB     27       SOPE     C213     CTL2    -0.180000       12.0110           0
     19899 MEMB     27       SOPE     H13R     HAL2     0.900000E-01   1.00800           0
     19900 MEMB     27       SOPE     H13S     HAL2     0.900000E-01   1.00800           0
     19901 MEMB     27       SOPE     C214     CTL2    -0.180000       12.0110           0
     19902 MEMB     27       SOPE     H14R     HAL2     0.900000E-01   1.00800           0
     19903 MEMB     27       SOPE     H14S     HAL2     0.900000E-01   1.00800           0
     19904 MEMB     27       SOPE     C215     CTL2    -0.180000       12.0110           0
     19905 MEMB     27       SOPE     H15R     HAL2     0.900000E-01   1.00800           0
     19906 MEMB     27       SOPE     H15S     HAL2     0.900000E-01   1.00800           0
     19907 MEMB     27       SOPE     C216     CTL2    -0.180000       12.0110           0
     19908 MEMB     27       SOPE     H16R     HAL2     0.900000E-01   1.00800           0
     19909 MEMB     27       SOPE     H16S     HAL2     0.900000E-01   1.00800           0
     19910 MEMB     27       SOPE     C217     CTL2    -0.180000       12.0110           0
     19911 MEMB     27       SOPE     H17R     HAL2     0.900000E-01   1.00800           0
     19912 MEMB     27       SOPE     H17S     HAL2     0.900000E-01   1.00800           0
     19913 MEMB     27       SOPE     C218     CTL3    -0.270000       12.0110           0
     19914 MEMB     27       SOPE     H18R     HAL3     0.900000E-01   1.00800           0
     19915 MEMB     27       SOPE     H18S     HAL3     0.900000E-01   1.00800           0
     19916 MEMB     27       SOPE     H18T     HAL3     0.900000E-01   1.00800           0
     19917 MEMB     27       SOPE     C33      CTL2    -0.180000       12.0110           0
     19918 MEMB     27       SOPE     H3X      HAL2     0.900000E-01   1.00800           0
     19919 MEMB     27       SOPE     H3Y      HAL2     0.900000E-01   1.00800           0
     19920 MEMB     27       SOPE     C34      CTL2    -0.180000       12.0110           0
     19921 MEMB     27       SOPE     H4X      HAL2     0.900000E-01   1.00800           0
     19922 MEMB     27       SOPE     H4Y      HAL2     0.900000E-01   1.00800           0
     19923 MEMB     27       SOPE     C35      CTL2    -0.180000       12.0110           0
     19924 MEMB     27       SOPE     H5X      HAL2     0.900000E-01   1.00800           0
     19925 MEMB     27       SOPE     H5Y      HAL2     0.900000E-01   1.00800           0
     19926 MEMB     27       SOPE     C36      CTL2    -0.180000       12.0110           0
     19927 MEMB     27       SOPE     H6X      HAL2     0.900000E-01   1.00800           0
     19928 MEMB     27       SOPE     H6Y      HAL2     0.900000E-01   1.00800           0
     19929 MEMB     27       SOPE     C37      CTL2    -0.180000       12.0110           0
     19930 MEMB     27       SOPE     H7X      HAL2     0.900000E-01   1.00800           0
     19931 MEMB     27       SOPE     H7Y      HAL2     0.900000E-01   1.00800           0
     19932 MEMB     27       SOPE     C38      CTL2    -0.180000       12.0110           0
     19933 MEMB     27       SOPE     H8X      HAL2     0.900000E-01   1.00800           0
     19934 MEMB     27       SOPE     H8Y      HAL2     0.900000E-01   1.00800           0
     19935 MEMB     27       SOPE     C39      CTL2    -0.180000       12.0110           0
     19936 MEMB     27       SOPE     H9X      HAL2     0.900000E-01   1.00800           0
     19937 MEMB     27       SOPE     H9Y      HAL2     0.900000E-01   1.00800           0
     19938 MEMB     27       SOPE     C310     CTL2    -0.180000       12.0110           0
     19939 MEMB     27       SOPE     H10X     HAL2     0.900000E-01   1.00800           0
     19940 MEMB     27       SOPE     H10Y     HAL2     0.900000E-01   1.00800           0
     19941 MEMB     27       SOPE     C311     CTL2    -0.180000       12.0110           0
     19942 MEMB     27       SOPE     H11X     HAL2     0.900000E-01   1.00800           0
     19943 MEMB     27       SOPE     H11Y     HAL2     0.900000E-01   1.00800           0
     19944 MEMB     27       SOPE     C312     CTL2    -0.180000       12.0110           0
     19945 MEMB     27       SOPE     H12X     HAL2     0.900000E-01   1.00800           0
     19946 MEMB     27       SOPE     H12Y     HAL2     0.900000E-01   1.00800           0
     19947 MEMB     27       SOPE     C313     CTL2    -0.180000       12.0110           0
     19948 MEMB     27       SOPE     H13X     HAL2     0.900000E-01   1.00800           0
     19949 MEMB     27       SOPE     H13Y     HAL2     0.900000E-01   1.00800           0
     19950 MEMB     27       SOPE     C314     CTL2    -0.180000       12.0110           0
     19951 MEMB     27       SOPE     H14X     HAL2     0.900000E-01   1.00800           0
     19952 MEMB     27       SOPE     H14Y     HAL2     0.900000E-01   1.00800           0
     19953 MEMB     27       SOPE     C315     CTL2    -0.180000       12.0110           0
     19954 MEMB     27       SOPE     H15X     HAL2     0.900000E-01   1.00800           0
     19955 MEMB     27       SOPE     H15Y     HAL2     0.900000E-01   1.00800           0
     19956 MEMB     27       SOPE     C316     CTL2    -0.180000       12.0110           0
     19957 MEMB     27       SOPE     H16X     HAL2     0.900000E-01   1.00800           0
     19958 MEMB     27       SOPE     H16Y     HAL2     0.900000E-01   1.00800           0
     19959 MEMB     27       SOPE     C317     CTL2    -0.180000       12.0110           0
     19960 MEMB     27       SOPE     H17X     HAL2     0.900000E-01   1.00800           0
     19961 MEMB     27       SOPE     H17Y     HAL2     0.900000E-01   1.00800           0
     19962 MEMB     27       SOPE     C318     CTL3    -0.270000       12.0110           0
     19963 MEMB     27       SOPE     H18X     HAL3     0.900000E-01   1.00800           0
     19964 MEMB     27       SOPE     H18Y     HAL3     0.900000E-01   1.00800           0
     19965 MEMB     27       SOPE     H18Z     HAL3     0.900000E-01   1.00800           0
     19966 MEMB     30       SOPE     N        NH3L    -0.300000       14.0070           0
     19967 MEMB     30       SOPE     HN1      HCL      0.330000       1.00800           0
     19968 MEMB     30       SOPE     HN2      HCL      0.330000       1.00800           0
     19969 MEMB     30       SOPE     HN3      HCL      0.330000       1.00800           0
     19970 MEMB     30       SOPE     C12      CTL2     0.130000       12.0110           0
     19971 MEMB     30       SOPE     H12A     HAL2     0.900000E-01   1.00800           0
     19972 MEMB     30       SOPE     H12B     HAL2     0.900000E-01   1.00800           0
     19973 MEMB     30       SOPE     C11      CTL2    -0.800000E-01   12.0110           0
     19974 MEMB     30       SOPE     H11A     HAL2     0.900000E-01   1.00800           0
     19975 MEMB     30       SOPE     H11B     HAL2     0.900000E-01   1.00800           0
     19976 MEMB     30       SOPE     P        PL       1.500000       30.9740           0
     19977 MEMB     30       SOPE     O13      O2L     -0.780000       15.9994           0
     19978 MEMB     30       SOPE     O14      O2L     -0.780000       15.9994           0
     19979 MEMB     30       SOPE     O12      OSLP    -0.570000       15.9994           0
     19980 MEMB     30       SOPE     O11      OSLP    -0.570000       15.9994           0
     19981 MEMB     30       SOPE     C1       CTL2    -0.800000E-01   12.0110           0
     19982 MEMB     30       SOPE     HA       HAL2     0.900000E-01   1.00800           0
     19983 MEMB     30       SOPE     HB       HAL2     0.900000E-01   1.00800           0
     19984 MEMB     30       SOPE     C2       CTL1     0.170000       12.0110           0
     19985 MEMB     30       SOPE     HS       HAL1     0.900000E-01   1.00800           0
     19986 MEMB     30       SOPE     O21      OSL     -0.490000       15.9994           0
     19987 MEMB     30       SOPE     C21      CL       0.900000       12.0110           0
     19988 MEMB     30       SOPE     O22      OBL     -0.630000       15.9994           0
     19989 MEMB     30       SOPE     C22      CTL2    -0.220000       12.0110           0
     19990 MEMB     30       SOPE     H2R      HAL2     0.900000E-01   1.00800           0
     19991 MEMB     30       SOPE     H2S      HAL2     0.900000E-01   1.00800           0
     19992 MEMB     30       SOPE     C3       CTL2     0.800000E-01   12.0110           0
     19993 MEMB     30       SOPE     HX       HAL2     0.900000E-01   1.00800           0
     19994 MEMB     30       SOPE     HY       HAL2     0.900000E-01   1.00800           0
     19995 MEMB     30       SOPE     O31      OSL     -0.490000       15.9994           0
     19996 MEMB     30       SOPE     C31      CL       0.900000       12.0110           0
     19997 MEMB     30       SOPE     O32      OBL     -0.630000       15.9994           0
     19998 MEMB     30       SOPE     C32      CTL2    -0.220000       12.0110           0
     19999 MEMB     30       SOPE     H2X      HAL2     0.900000E-01   1.00800           0
     20000 MEMB     30       SOPE     H2Y      HAL2     0.900000E-01   1.00800           0
     20001 MEMB     30       SOPE     C23      CTL2    -0.180000       12.0110           0
     20002 MEMB     30       SOPE     H3R      HAL2     0.900000E-01   1.00800           0
     20003 MEMB     30       SOPE     H3S      HAL2     0.900000E-01   1.00800           0
     20004 MEMB     30       SOPE     C24      CTL2    -0.180000       12.0110           0
     20005 MEMB     30       SOPE     H4R      HAL2     0.900000E-01   1.00800           0
     20006 MEMB     30       SOPE     H4S      HAL2     0.900000E-01   1.00800           0
     20007 MEMB     30       SOPE     C25      CTL2    -0.180000       12.0110           0
     20008 MEMB     30       SOPE     H5R      HAL2     0.900000E-01   1.00800           0
     20009 MEMB     30       SOPE     H5S      HAL2     0.900000E-01   1.00800           0
     20010 MEMB     30       SOPE     C26      CTL2    -0.180000       12.0110           0
     20011 MEMB     30       SOPE     H6R      HAL2     0.900000E-01   1.00800           0
     20012 MEMB     30       SOPE     H6S      HAL2     0.900000E-01   1.00800           0
     20013 MEMB     30       SOPE     C27      CTL2    -0.180000       12.0110           0
     20014 MEMB     30       SOPE     H7R      HAL2     0.900000E-01   1.00800           0
     20015 MEMB     30       SOPE     H7S      HAL2     0.900000E-01   1.00800           0
     20016 MEMB     30       SOPE     C28      CTL2    -0.180000       12.0110           0
     20017 MEMB     30       SOPE     H8R      HAL2     0.900000E-01   1.00800           0
     20018 MEMB     30       SOPE     H8S      HAL2     0.900000E-01   1.00800           0
     20019 MEMB     30       SOPE     C29      CEL1    -0.150000       12.0110           0
     20020 MEMB     30       SOPE     H91      HEL1     0.150000       1.00800           0
     20021 MEMB     30       SOPE     C210     CEL1    -0.150000       12.0110           0
     20022 MEMB     30       SOPE     H101     HEL1     0.150000       1.00800           0
     20023 MEMB     30       SOPE     C211     CTL2    -0.180000       12.0110           0
     20024 MEMB     30       SOPE     H11R     HAL2     0.900000E-01   1.00800           0
     20025 MEMB     30       SOPE     H11S     HAL2     0.900000E-01   1.00800           0
     20026 MEMB     30       SOPE     C212     CTL2    -0.180000       12.0110           0
     20027 MEMB     30       SOPE     H12R     HAL2     0.900000E-01   1.00800           0
     20028 MEMB     30       SOPE     H12S     HAL2     0.900000E-01   1.00800           0
     20029 MEMB     30       SOPE     C213     CTL2    -0.180000       12.0110           0
     20030 MEMB     30       SOPE     H13R     HAL2     0.900000E-01   1.00800           0
     20031 MEMB     30       SOPE     H13S     HAL2     0.900000E-01   1.00800           0
     20032 MEMB     30       SOPE     C214     CTL2    -0.180000       12.0110           0
     20033 MEMB     30       SOPE     H14R     HAL2     0.900000E-01   1.00800           0
     20034 MEMB     30       SOPE     H14S     HAL2     0.900000E-01   1.00800           0
     20035 MEMB     30       SOPE     C215     CTL2    -0.180000       12.0110           0
     20036 MEMB     30       SOPE     H15R     HAL2     0.900000E-01   1.00800           0
     20037 MEMB     30       SOPE     H15S     HAL2     0.900000E-01   1.00800           0
     20038 MEMB     30       SOPE     C216     CTL2    -0.180000       12.0110           0
     20039 MEMB     30       SOPE     H16R     HAL2     0.900000E-01   1.00800           0
     20040 MEMB     30       SOPE     H16S     HAL2     0.900000E-01   1.00800           0
     20041 MEMB     30       SOPE     C217     CTL2    -0.180000       12.0110           0
     20042 MEMB     30       SOPE     H17R     HAL2     0.900000E-01   1.00800           0
     20043 MEMB     30       SOPE     H17S     HAL2     0.900000E-01   1.00800           0
     20044 MEMB     30       SOPE     C218     CTL3    -0.270000       12.0110           0
     20045 MEMB     30       SOPE     H18R     HAL3     0.900000E-01   1.00800           0
     20046 MEMB     30       SOPE     H18S     HAL3     0.900000E-01   1.00800           0
     20047 MEMB     30       SOPE     H18T     HAL3     0.900000E-01   1.00800           0
     20048 MEMB     30       SOPE     C33      CTL2    -0.180000       12.0110           0
     20049 MEMB     30       SOPE     H3X      HAL2     0.900000E-01   1.00800           0
     20050 MEMB     30       SOPE     H3Y      HAL2     0.900000E-01   1.00800           0
     20051 MEMB     30       SOPE     C34      CTL2    -0.180000       12.0110           0
     20052 MEMB     30       SOPE     H4X      HAL2     0.900000E-01   1.00800           0
     20053 MEMB     30       SOPE     H4Y      HAL2     0.900000E-01   1.00800           0
     20054 MEMB     30       SOPE     C35      CTL2    -0.180000       12.0110           0
     20055 MEMB     30       SOPE     H5X      HAL2     0.900000E-01   1.00800           0
     20056 MEMB     30       SOPE     H5Y      HAL2     0.900000E-01   1.00800           0
     20057 MEMB     30       SOPE     C36      CTL2    -0.180000       12.0110           0
     20058 MEMB     30       SOPE     H6X      HAL2     0.900000E-01   1.00800           0
     20059 MEMB     30       SOPE     H6Y      HAL2     0.900000E-01   1.00800           0
     20060 MEMB     30       SOPE     C37      CTL2    -0.180000       12.0110           0
     20061 MEMB     30       SOPE     H7X      HAL2     0.900000E-01   1.00800           0
     20062 MEMB     30       SOPE     H7Y      HAL2     0.900000E-01   1.00800           0
     20063 MEMB     30       SOPE     C38      CTL2    -0.180000       12.0110           0
     20064 MEMB     30       SOPE     H8X      HAL2     0.900000E-01   1.00800           0
     20065 MEMB     30       SOPE     H8Y      HAL2     0.900000E-01   1.00800           0
     20066 MEMB     30       SOPE     C39      CTL2    -0.180000       12.0110           0
     20067 MEMB     30       SOPE     H9X      HAL2     0.900000E-01   1.00800           0
     20068 MEMB     30       SOPE     H9Y      HAL2     0.900000E-01   1.00800           0
     20069 MEMB     30       SOPE     C310     CTL2    -0.180000       12.0110           0
     20070 MEMB     30       SOPE     H10X     HAL2     0.900000E-01   1.00800           0
     20071 MEMB     30       SOPE     H10Y     HAL2     0.900000E-01   1.00800           0
     20072 MEMB     30       SOPE     C311     CTL2    -0.180000       12.0110           0
     20073 MEMB     30       SOPE     H11X     HAL2     0.900000E-01   1.00800           0
     20074 MEMB     30       SOPE     H11Y     HAL2     0.900000E-01   1.00800           0
     20075 MEMB     30       SOPE     C312     CTL2    -0.180000       12.0110           0
     20076 MEMB     30       SOPE     H12X     HAL2     0.900000E-01   1.00800           0
     20077 MEMB     30       SOPE     H12Y     HAL2     0.900000E-01   1.00800           0
     20078 MEMB     30       SOPE     C313     CTL2    -0.180000       12.0110           0
     20079 MEMB     30       SOPE     H13X     HAL2     0.900000E-01   1.00800           0
     20080 MEMB     30       SOPE     H13Y     HAL2     0.900000E-01   1.00800           0
     20081 MEMB     30       SOPE     C314     CTL2    -0.180000       12.0110           0
     20082 MEMB     30       SOPE     H14X     HAL2     0.900000E-01   1.00800           0
     20083 MEMB     30       SOPE     H14Y     HAL2     0.900000E-01   1.00800           0
     20084 MEMB     30       SOPE     C315     CTL2    -0.180000       12.0110           0
     20085 MEMB     30       SOPE     H15X     HAL2     0.900000E-01   1.00800           0
     20086 MEMB     30       SOPE     H15Y     HAL2     0.900000E-01   1.00800           0
     20087 MEMB     30       SOPE     C316     CTL2    -0.180000       12.0110           0
     20088 MEMB     30       SOPE     H16X     HAL2     0.900000E-01   1.00800           0
     20089 MEMB     30       SOPE     H16Y     HAL2     0.900000E-01   1.00800           0
     20090 MEMB     30       SOPE     C317     CTL2    -0.180000       12.0110           0
     20091 MEMB     30       SOPE     H17X     HAL2     0.900000E-01   1.00800           0
     20092 MEMB     30       SOPE     H17Y     HAL2     0.900000E-01   1.00800           0
     20093 MEMB     30       SOPE     C318     CTL3    -0.270000       12.0110           0
     20094 MEMB     30       SOPE     H18X     HAL3     0.900000E-01   1.00800           0
     20095 MEMB     30       SOPE     H18Y     HAL3     0.900000E-01   1.00800           0
     20096 MEMB     30       SOPE     H18Z     HAL3     0.900000E-01   1.00800           0
     20097 MEMB     42       SOPE     N        NH3L    -0.300000       14.0070           0
     20098 MEMB     42       SOPE     HN1      HCL      0.330000       1.00800           0
     20099 MEMB     42       SOPE     HN2      HCL      0.330000       1.00800           0
     20100 MEMB     42       SOPE     HN3      HCL      0.330000       1.00800           0
     20101 MEMB     42       SOPE     C12      CTL2     0.130000       12.0110           0
     20102 MEMB     42       SOPE     H12A     HAL2     0.900000E-01   1.00800           0
     20103 MEMB     42       SOPE     H12B     HAL2     0.900000E-01   1.00800           0
     20104 MEMB     42       SOPE     C11      CTL2    -0.800000E-01   12.0110           0
     20105 MEMB     42       SOPE     H11A     HAL2     0.900000E-01   1.00800           0
     20106 MEMB     42       SOPE     H11B     HAL2     0.900000E-01   1.00800           0
     20107 MEMB     42       SOPE     P        PL       1.500000       30.9740           0
     20108 MEMB     42       SOPE     O13      O2L     -0.780000       15.9994           0
     20109 MEMB     42       SOPE     O14      O2L     -0.780000       15.9994           0
     20110 MEMB     42       SOPE     O12      OSLP    -0.570000       15.9994           0
     20111 MEMB     42       SOPE     O11      OSLP    -0.570000       15.9994           0
     20112 MEMB     42       SOPE     C1       CTL2    -0.800000E-01   12.0110           0
     20113 MEMB     42       SOPE     HA       HAL2     0.900000E-01   1.00800           0
     20114 MEMB     42       SOPE     HB       HAL2     0.900000E-01   1.00800           0
     20115 MEMB     42       SOPE     C2       CTL1     0.170000       12.0110           0
     20116 MEMB     42       SOPE     HS       HAL1     0.900000E-01   1.00800           0
     20117 MEMB     42       SOPE     O21      OSL     -0.490000       15.9994           0
     20118 MEMB     42       SOPE     C21      CL       0.900000       12.0110           0
     20119 MEMB     42       SOPE     O22      OBL     -0.630000       15.9994           0
     20120 MEMB     42       SOPE     C22      CTL2    -0.220000       12.0110           0
     20121 MEMB     42       SOPE     H2R      HAL2     0.900000E-01   1.00800           0
     20122 MEMB     42       SOPE     H2S      HAL2     0.900000E-01   1.00800           0
     20123 MEMB     42       SOPE     C3       CTL2     0.800000E-01   12.0110           0
     20124 MEMB     42       SOPE     HX       HAL2     0.900000E-01   1.00800           0
     20125 MEMB     42       SOPE     HY       HAL2     0.900000E-01   1.00800           0
     20126 MEMB     42       SOPE     O31      OSL     -0.490000       15.9994           0
     20127 MEMB     42       SOPE     C31      CL       0.900000       12.0110           0
     20128 MEMB     42       SOPE     O32      OBL     -0.630000       15.9994           0
     20129 MEMB     42       SOPE     C32      CTL2    -0.220000       12.0110           0
     20130 MEMB     42       SOPE     H2X      HAL2     0.900000E-01   1.00800           0
     20131 MEMB     42       SOPE     H2Y      HAL2     0.900000E-01   1.00800           0
     20132 MEMB     42       SOPE     C23      CTL2    -0.180000       12.0110           0
     20133 MEMB     42       SOPE     H3R      HAL2     0.900000E-01   1.00800           0
     20134 MEMB     42       SOPE     H3S      HAL2     0.900000E-01   1.00800           0
     20135 MEMB     42       SOPE     C24      CTL2    -0.180000       12.0110           0
     20136 MEMB     42       SOPE     H4R      HAL2     0.900000E-01   1.00800           0
     20137 MEMB     42       SOPE     H4S      HAL2     0.900000E-01   1.00800           0
     20138 MEMB     42       SOPE     C25      CTL2    -0.180000       12.0110           0
     20139 MEMB     42       SOPE     H5R      HAL2     0.900000E-01   1.00800           0
     20140 MEMB     42       SOPE     H5S      HAL2     0.900000E-01   1.00800           0
     20141 MEMB     42       SOPE     C26      CTL2    -0.180000       12.0110           0
     20142 MEMB     42       SOPE     H6R      HAL2     0.900000E-01   1.00800           0
     20143 MEMB     42       SOPE     H6S      HAL2     0.900000E-01   1.00800           0
     20144 MEMB     42       SOPE     C27      CTL2    -0.180000       12.0110           0
     20145 MEMB     42       SOPE     H7R      HAL2     0.900000E-01   1.00800           0
     20146 MEMB     42       SOPE     H7S      HAL2     0.900000E-01   1.00800           0
     20147 MEMB     42       SOPE     C28      CTL2    -0.180000       12.0110           0
     20148 MEMB     42       SOPE     H8R      HAL2     0.900000E-01   1.00800           0
     20149 MEMB     42       SOPE     H8S      HAL2     0.900000E-01   1.00800           0
     20150 MEMB     42       SOPE     C29      CEL1    -0.150000       12.0110           0
     20151 MEMB     42       SOPE     H91      HEL1     0.150000       1.00800           0
     20152 MEMB     42       SOPE     C210     CEL1    -0.150000       12.0110           0
     20153 MEMB     42       SOPE     H101     HEL1     0.150000       1.00800           0
     20154 MEMB     42       SOPE     C211     CTL2    -0.180000       12.0110           0
     20155 MEMB     42       SOPE     H11R     HAL2     0.900000E-01   1.00800           0
     20156 MEMB     42       SOPE     H11S     HAL2     0.900000E-01   1.00800           0
     20157 MEMB     42       SOPE     C212     CTL2    -0.180000       12.0110           0
     20158 MEMB     42       SOPE     H12R     HAL2     0.900000E-01   1.00800           0
     20159 MEMB     42       SOPE     H12S     HAL2     0.900000E-01   1.00800           0
     20160 MEMB     42       SOPE     C213     CTL2    -0.180000       12.0110           0
     20161 MEMB     42       SOPE     H13R     HAL2     0.900000E-01   1.00800           0
     20162 MEMB     42       SOPE     H13S     HAL2     0.900000E-01   1.00800           0
     20163 MEMB     42       SOPE     C214     CTL2    -0.180000       12.0110           0
     20164 MEMB     42       SOPE     H14R     HAL2     0.900000E-01   1.00800           0
     20165 MEMB     42       SOPE     H14S     HAL2     0.900000E-01   1.00800           0
     20166 MEMB     42       SOPE     C215     CTL2    -0.180000       12.0110           0
     20167 MEMB     42       SOPE     H15R     HAL2     0.900000E-01   1.00800           0
     20168 MEMB     42       SOPE     H15S     HAL2     0.900000E-01   1.00800           0
     20169 MEMB     42       SOPE     C216     CTL2    -0.180000       12.0110           0
     20170 MEMB     42       SOPE     H16R     HAL2     0.900000E-01   1.00800           0
     20171 MEMB     42       SOPE     H16S     HAL2     0.900000E-01   1.00800           0
     20172 MEMB     42       SOPE     C217     CTL2    -0.180000       12.0110           0
     20173 MEMB     42       SOPE     H17R     HAL2     0.900000E-01   1.00800           0
     20174 MEMB     42       SOPE     H17S     HAL2     0.900000E-01   1.00800           0
     20175 MEMB     42       SOPE     C218     CTL3    -0.270000       12.0110           0
     20176 MEMB     42       SOPE     H18R     HAL3     0.900000E-01   1.00800           0
     20177 MEMB     42       SOPE     H18S     HAL3     0.900000E-01   1.00800           0
     20178 MEMB     42       SOPE     H18T     HAL3     0.900000E-01   1.00800           0
     20179 MEMB     42       SOPE     C33      CTL2    -0.180000       12.0110           0
     20180 MEMB     42       SOPE     H3X      HAL2     0.900000E-01   1.00800           0
     20181 MEMB     42       SOPE     H3Y      HAL2     0.900000E-01   1.00800           0
     20182 MEMB     42       SOPE     C34      CTL2    -0.180000       12.0110           0
     20183 MEMB     42       SOPE     H4X      HAL2     0.900000E-01   1.00800           0
     20184 MEMB     42       SOPE     H4Y      HAL2     0.900000E-01   1.00800           0
     20185 MEMB     42       SOPE     C35      CTL2    -0.180000       12.0110           0
     20186 MEMB     42       SOPE     H5X      HAL2     0.900000E-01   1.00800           0
     20187 MEMB     42       SOPE     H5Y      HAL2     0.900000E-01   1.00800           0
     20188 MEMB     42       SOPE     C36      CTL2    -0.180000       12.0110           0
     20189 MEMB     42       SOPE     H6X      HAL2     0.900000E-01   1.00800           0
     20190 MEMB     42       SOPE     H6Y      HAL2     0.900000E-01   1.00800           0
     20191 MEMB     42       SOPE     C37      CTL2    -0.180000       12.0110           0
     20192 MEMB     42       SOPE     H7X      HAL2     0.900000E-01   1.00800           0
     20193 MEMB     42       SOPE     H7Y      HAL2     0.900000E-01   1.00800           0
     20194 MEMB     42       SOPE     C38      CTL2    -0.180000       12.0110           0
     20195 MEMB     42       SOPE     H8X      HAL2     0.900000E-01   1.00800           0
     20196 MEMB     42       SOPE     H8Y      HAL2     0.900000E-01   1.00800           0
     20197 MEMB     42       SOPE     C39      CTL2    -0.180000       12.0110           0
     20198 MEMB     42       SOPE     H9X      HAL2     0.900000E-01   1.00800           0
     20199 MEMB     42       SOPE     H9Y      HAL2     0.900000E-01   1.00800           0
     20200 MEMB     42       SOPE     C310     CTL2    -0.180000       12.0110           0
     20201 MEMB     42       SOPE     H10X     HAL2     0.900000E-01   1.00800           0
     20202 MEMB     42       SOPE     H10Y     HAL2     0.900000E-01   1.00800           0
     20203 MEMB     42       SOPE     C311     CTL2    -0.180000       12.0110           0
     20204 MEMB     42       SOPE     H11X     HAL2     0.900000E-01   1.00800           0
     20205 MEMB     42       SOPE     H11Y     HAL2     0.900000E-01   1.00800           0
     20206 MEMB     42       SOPE     C312     CTL2    -0.180000       12.0110           0
     20207 MEMB     42       SOPE     H12X     HAL2     0.900000E-01   1.00800           0
     20208 MEMB     42       SOPE     H12Y     HAL2     0.900000E-01   1.00800           0
     20209 MEMB     42       SOPE     C313     CTL2    -0.180000       12.0110           0
     20210 MEMB     42       SOPE     H13X     HAL2     0.900000E-01   1.00800           0
     20211 MEMB     42       SOPE     H13Y     HAL2     0.900000E-01   1.00800           0
     20212 MEMB     42       SOPE     C314     CTL2    -0.180000       12.0110           0
     20213 MEMB     42       SOPE     H14X     HAL2     0.900000E-01   1.00800           0
     20214 MEMB     42       SOPE     H14Y     HAL2     0.900000E-01   1.00800           0
     20215 MEMB     42       SOPE     C315     CTL2    -0.180000       12.0110           0
     20216 MEMB     42       SOPE     H15X     HAL2     0.900000E-01   1.00800           0
     20217 MEMB     42       SOPE     H15Y     HAL2     0.900000E-01   1.00800           0
     20218 MEMB     42       SOPE     C316     CTL2    -0.180000       12.0110           0
     20219 MEMB     42       SOPE     H16X     HAL2     0.900000E-01   1.00800           0
     20220 MEMB     42       SOPE     H16Y     HAL2     0.900000E-01   1.00800           0
     20221 MEMB     42       SOPE     C317     CTL2    -0.180000       12.0110           0
     20222 MEMB     42       SOPE     H17X     HAL2     0.900000E-01   1.00800           0
     20223 MEMB     42       SOPE     H17Y     HAL2     0.900000E-01   1.00800           0
     20224 MEMB     42       SOPE     C318     CTL3    -0.270000       12.0110           0
     20225 MEMB     42       SOPE     H18X     HAL3     0.900000E-01   1.00800           0
     20226 MEMB     42       SOPE     H18Y     HAL3     0.900000E-01   1.00800           0
     20227 MEMB     42       SOPE     H18Z     HAL3     0.900000E-01   1.00800           0
     20228 MEMB     70       SOPE     N        NH3L    -0.300000       14.0070           0
     20229 MEMB     70       SOPE     HN1      HCL      0.330000       1.00800           0
     20230 MEMB     70       SOPE     HN2      HCL      0.330000       1.00800           0
     20231 MEMB     70       SOPE     HN3      HCL      0.330000       1.00800           0
     20232 MEMB     70       SOPE     C12      CTL2     0.130000       12.0110           0
     20233 MEMB     70       SOPE     H12A     HAL2     0.900000E-01   1.00800           0
     20234 MEMB     70       SOPE     H12B     HAL2     0.900000E-01   1.00800           0
     20235 MEMB     70       SOPE     C11      CTL2    -0.800000E-01   12.0110           0
     20236 MEMB     70       SOPE     H11A     HAL2     0.900000E-01   1.00800           0
     20237 MEMB     70       SOPE     H11B     HAL2     0.900000E-01   1.00800           0
     20238 MEMB     70       SOPE     P        PL       1.500000       30.9740           0
     20239 MEMB     70       SOPE     O13      O2L     -0.780000       15.9994           0
     20240 MEMB     70       SOPE     O14      O2L     -0.780000       15.9994           0
     20241 MEMB     70       SOPE     O12      OSLP    -0.570000       15.9994           0
     20242 MEMB     70       SOPE     O11      OSLP    -0.570000       15.9994           0
     20243 MEMB     70       SOPE     C1       CTL2    -0.800000E-01   12.0110           0
     20244 MEMB     70       SOPE     HA       HAL2     0.900000E-01   1.00800           0
     20245 MEMB     70       SOPE     HB       HAL2     0.900000E-01   1.00800           0
     20246 MEMB     70       SOPE     C2       CTL1     0.170000       12.0110           0
     20247 MEMB     70       SOPE     HS       HAL1     0.900000E-01   1.00800           0
     20248 MEMB     70       SOPE     O21      OSL     -0.490000       15.9994           0
     20249 MEMB     70       SOPE     C21      CL       0.900000       12.0110           0
     20250 MEMB     70       SOPE     O22      OBL     -0.630000       15.9994           0
     20251 MEMB     70       SOPE     C22      CTL2    -0.220000       12.0110           0
     20252 MEMB     70       SOPE     H2R      HAL2     0.900000E-01   1.00800           0
     20253 MEMB     70       SOPE     H2S      HAL2     0.900000E-01   1.00800           0
     20254 MEMB     70       SOPE     C3       CTL2     0.800000E-01   12.0110           0
     20255 MEMB     70       SOPE     HX       HAL2     0.900000E-01   1.00800           0
     20256 MEMB     70       SOPE     HY       HAL2     0.900000E-01   1.00800           0
     20257 MEMB     70       SOPE     O31      OSL     -0.490000       15.9994           0
     20258 MEMB     70       SOPE     C31      CL       0.900000       12.0110           0
     20259 MEMB     70       SOPE     O32      OBL     -0.630000       15.9994           0
     20260 MEMB     70       SOPE     C32      CTL2    -0.220000       12.0110           0
     20261 MEMB     70       SOPE     H2X      HAL2     0.900000E-01   1.00800           0
     20262 MEMB     70       SOPE     H2Y      HAL2     0.900000E-01   1.00800           0
     20263 MEMB     70       SOPE     C23      CTL2    -0.180000       12.0110           0
     20264 MEMB     70       SOPE     H3R      HAL2     0.900000E-01   1.00800           0
     20265 MEMB     70       SOPE     H3S      HAL2     0.900000E-01   1.00800           0
     20266 MEMB     70       SOPE     C24      CTL2    -0.180000       12.0110           0
     20267 MEMB     70       SOPE     H4R      HAL2     0.900000E-01   1.00800           0
     20268 MEMB     70       SOPE     H4S      HAL2     0.900000E-01   1.00800           0
     20269 MEMB     70       SOPE     C25      CTL2    -0.180000       12.0110           0
     20270 MEMB     70       SOPE     H5R      HAL2     0.900000E-01   1.00800           0
     20271 MEMB     70       SOPE     H5S      HAL2     0.900000E-01   1.00800           0
     20272 MEMB     70       SOPE     C26      CTL2    -0.180000       12.0110           0
     20273 MEMB     70       SOPE     H6R      HAL2     0.900000E-01   1.00800           0
     20274 MEMB     70       SOPE     H6S      HAL2     0.900000E-01   1.00800           0
     20275 MEMB     70       SOPE     C27      CTL2    -0.180000       12.0110           0
     20276 MEMB     70       SOPE     H7R      HAL2     0.900000E-01   1.00800           0
     20277 MEMB     70       SOPE     H7S      HAL2     0.900000E-01   1.00800           0
     20278 MEMB     70       SOPE     C28      CTL2    -0.180000       12.0110           0
     20279 MEMB     70       SOPE     H8R      HAL2     0.900000E-01   1.00800           0
     20280 MEMB     70       SOPE     H8S      HAL2     0.900000E-01   1.00800           0
     20281 MEMB     70       SOPE     C29      CEL1    -0.150000       12.0110           0
     20282 MEMB     70       SOPE     H91      HEL1     0.150000       1.00800           0
     20283 MEMB     70       SOPE     C210     CEL1    -0.150000       12.0110           0
     20284 MEMB     70       SOPE     H101     HEL1     0.150000       1.00800           0
     20285 MEMB     70       SOPE     C211     CTL2    -0.180000       12.0110           0
     20286 MEMB     70       SOPE     H11R     HAL2     0.900000E-01   1.00800           0
     20287 MEMB     70       SOPE     H11S     HAL2     0.900000E-01   1.00800           0
     20288 MEMB     70       SOPE     C212     CTL2    -0.180000       12.0110           0
     20289 MEMB     70       SOPE     H12R     HAL2     0.900000E-01   1.00800           0
     20290 MEMB     70       SOPE     H12S     HAL2     0.900000E-01   1.00800           0
     20291 MEMB     70       SOPE     C213     CTL2    -0.180000       12.0110           0
     20292 MEMB     70       SOPE     H13R     HAL2     0.900000E-01   1.00800           0
     20293 MEMB     70       SOPE     H13S     HAL2     0.900000E-01   1.00800           0
     20294 MEMB     70       SOPE     C214     CTL2    -0.180000       12.0110           0
     20295 MEMB     70       SOPE     H14R     HAL2     0.900000E-01   1.00800           0
     20296 MEMB     70       SOPE     H14S     HAL2     0.900000E-01   1.00800           0
     20297 MEMB     70       SOPE     C215     CTL2    -0.180000       12.0110           0
     20298 MEMB     70       SOPE     H15R     HAL2     0.900000E-01   1.00800           0
     20299 MEMB     70       SOPE     H15S     HAL2     0.900000E-01   1.00800           0
     20300 MEMB     70       SOPE     C216     CTL2    -0.180000       12.0110           0
     20301 MEMB     70       SOPE     H16R     HAL2     0.900000E-01   1.00800           0
     20302 MEMB     70       SOPE     H16S     HAL2     0.900000E-01   1.00800           0
     20303 MEMB     70       SOPE     C217     CTL2    -0.180000       12.0110           0
     20304 MEMB     70       SOPE     H17R     HAL2     0.900000E-01   1.00800           0
     20305 MEMB     70       SOPE     H17S     HAL2     0.900000E-01   1.00800           0
     20306 MEMB     70       SOPE     C218     CTL3    -0.270000       12.0110           0
     20307 MEMB     70       SOPE     H18R     HAL3     0.900000E-01   1.00800           0
     20308 MEMB     70       SOPE     H18S     HAL3     0.900000E-01   1.00800           0
     20309 MEMB     70       SOPE     H18T     HAL3     0.900000E-01   1.00800           0
     20310 MEMB     70       SOPE     C33      CTL2    -0.180000       12.0110           0
     20311 MEMB     70       SOPE     H3X      HAL2     0.900000E-01   1.00800           0
     20312 MEMB     70       SOPE     H3Y      HAL2     0.900000E-01   1.00800           0
     20313 MEMB     70       SOPE     C34      CTL2    -0.180000       12.0110           0
     20314 MEMB     70       SOPE     H4X      HAL2     0.900000E-01   1.00800           0
     20315 MEMB     70       SOPE     H4Y      HAL2     0.900000E-01   1.00800           0
     20316 MEMB     70       SOPE     C35      CTL2    -0.180000       12.0110           0
     20317 MEMB     70       SOPE     H5X      HAL2     0.900000E-01   1.00800           0
     20318 MEMB     70       SOPE     H5Y      HAL2     0.900000E-01   1.00800           0
     20319 MEMB     70       SOPE     C36      CTL2    -0.180000       12.0110           0
     20320 MEMB     70       SOPE     H6X      HAL2     0.900000E-01   1.00800           0
     20321 MEMB     70       SOPE     H6Y      HAL2     0.900000E-01   1.00800           0
     20322 MEMB     70       SOPE     C37      CTL2    -0.180000       12.0110           0
     20323 MEMB     70       SOPE     H7X      HAL2     0.900000E-01   1.00800           0
     20324 MEMB     70       SOPE     H7Y      HAL2     0.900000E-01   1.00800           0
     20325 MEMB     70       SOPE     C38      CTL2    -0.180000       12.0110           0
     20326 MEMB     70       SOPE     H8X      HAL2     0.900000E-01   1.00800           0
     20327 MEMB     70       SOPE     H8Y      HAL2     0.900000E-01   1.00800           0
     20328 MEMB     70       SOPE     C39      CTL2    -0.180000       12.0110           0
     20329 MEMB     70       SOPE     H9X      HAL2     0.900000E-01   1.00800           0
     20330 MEMB     70       SOPE     H9Y      HAL2     0.900000E-01   1.00800           0
     20331 MEMB     70       SOPE     C310     CTL2    -0.180000       12.0110           0
     20332 MEMB     70       SOPE     H10X     HAL2     0.900000E-01   1.00800           0
     20333 MEMB     70       SOPE     H10Y     HAL2     0.900000E-01   1.00800           0
     20334 MEMB     70       SOPE     C311     CTL2    -0.180000       12.0110           0
     20335 MEMB     70       SOPE     H11X     HAL2     0.900000E-01   1.00800           0
     20336 MEMB     70       SOPE     H11Y     HAL2     0.900000E-01   1.00800           0
     20337 MEMB     70       SOPE     C312     CTL2    -0.180000       12.0110           0
     20338 MEMB     70       SOPE     H12X     HAL2     0.900000E-01   1.00800           0
     20339 MEMB     70       SOPE     H12Y     HAL2     0.900000E-01   1.00800           0
     20340 MEMB     70       SOPE     C313     CTL2    -0.180000       12.0110           0
     20341 MEMB     70       SOPE     H13X     HAL2     0.900000E-01   1.00800           0
     20342 MEMB     70       SOPE     H13Y     HAL2     0.900000E-01   1.00800           0
     20343 MEMB     70       SOPE     C314     CTL2    -0.180000       12.0110           0
     20344 MEMB     70       SOPE     H14X     HAL2     0.900000E-01   1.00800           0
     20345 MEMB     70       SOPE     H14Y     HAL2     0.900000E-01   1.00800           0
     20346 MEMB     70       SOPE     C315     CTL2    -0.180000       12.0110           0
     20347 MEMB     70       SOPE     H15X     HAL2     0.900000E-01   1.00800           0
     20348 MEMB     70       SOPE     H15Y     HAL2     0.900000E-01   1.00800           0
     20349 MEMB     70       SOPE     C316     CTL2    -0.180000       12.0110           0
     20350 MEMB     70       SOPE     H16X     HAL2     0.900000E-01   1.00800           0
     20351 MEMB     70       SOPE     H16Y     HAL2     0.900000E-01   1.00800           0
     20352 MEMB     70       SOPE     C317     CTL2    -0.180000       12.0110           0
     20353 MEMB     70       SOPE     H17X     HAL2     0.900000E-01   1.00800           0
     20354 MEMB     70       SOPE     H17Y     HAL2     0.900000E-01   1.00800           0
     20355 MEMB     70       SOPE     C318     CTL3    -0.270000       12.0110           0
     20356 MEMB     70       SOPE     H18X     HAL3     0.900000E-01   1.00800           0
     20357 MEMB     70       SOPE     H18Y     HAL3     0.900000E-01   1.00800           0
     20358 MEMB     70       SOPE     H18Z     HAL3     0.900000E-01   1.00800           0
     20359 MEMB     98       SOPE     N        NH3L    -0.300000       14.0070           0
     20360 MEMB     98       SOPE     HN1      HCL      0.330000       1.00800           0
     20361 MEMB     98       SOPE     HN2      HCL      0.330000       1.00800           0
     20362 MEMB     98       SOPE     HN3      HCL      0.330000       1.00800           0
     20363 MEMB     98       SOPE     C12      CTL2     0.130000       12.0110           0
     20364 MEMB     98       SOPE     H12A     HAL2     0.900000E-01   1.00800           0
     20365 MEMB     98       SOPE     H12B     HAL2     0.900000E-01   1.00800           0
     20366 MEMB     98       SOPE     C11      CTL2    -0.800000E-01   12.0110           0
     20367 MEMB     98       SOPE     H11A     HAL2     0.900000E-01   1.00800           0
     20368 MEMB     98       SOPE     H11B     HAL2     0.900000E-01   1.00800           0
     20369 MEMB     98       SOPE     P        PL       1.500000       30.9740           0
     20370 MEMB     98       SOPE     O13      O2L     -0.780000       15.9994           0
     20371 MEMB     98       SOPE     O14      O2L     -0.780000       15.9994           0
     20372 MEMB     98       SOPE     O12      OSLP    -0.570000       15.9994           0
     20373 MEMB     98       SOPE     O11      OSLP    -0.570000       15.9994           0
     20374 MEMB     98       SOPE     C1       CTL2    -0.800000E-01   12.0110           0
     20375 MEMB     98       SOPE     HA       HAL2     0.900000E-01   1.00800           0
     20376 MEMB     98       SOPE     HB       HAL2     0.900000E-01   1.00800           0
     20377 MEMB     98       SOPE     C2       CTL1     0.170000       12.0110           0
     20378 MEMB     98       SOPE     HS       HAL1     0.900000E-01   1.00800           0
     20379 MEMB     98       SOPE     O21      OSL     -0.490000       15.9994           0
     20380 MEMB     98       SOPE     C21      CL       0.900000       12.0110           0
     20381 MEMB     98       SOPE     O22      OBL     -0.630000       15.9994           0
     20382 MEMB     98       SOPE     C22      CTL2    -0.220000       12.0110           0
     20383 MEMB     98       SOPE     H2R      HAL2     0.900000E-01   1.00800           0
     20384 MEMB     98       SOPE     H2S      HAL2     0.900000E-01   1.00800           0
     20385 MEMB     98       SOPE     C3       CTL2     0.800000E-01   12.0110           0
     20386 MEMB     98       SOPE     HX       HAL2     0.900000E-01   1.00800           0
     20387 MEMB     98       SOPE     HY       HAL2     0.900000E-01   1.00800           0
     20388 MEMB     98       SOPE     O31      OSL     -0.490000       15.9994           0
     20389 MEMB     98       SOPE     C31      CL       0.900000       12.0110           0
     20390 MEMB     98       SOPE     O32      OBL     -0.630000       15.9994           0
     20391 MEMB     98       SOPE     C32      CTL2    -0.220000       12.0110           0
     20392 MEMB     98       SOPE     H2X      HAL2     0.900000E-01   1.00800           0
     20393 MEMB     98       SOPE     H2Y      HAL2     0.900000E-01   1.00800           0
     20394 MEMB     98       SOPE     C23      CTL2    -0.180000       12.0110           0
     20395 MEMB     98       SOPE     H3R      HAL2     0.900000E-01   1.00800           0
     20396 MEMB     98       SOPE     H3S      HAL2     0.900000E-01   1.00800           0
     20397 MEMB     98       SOPE     C24      CTL2    -0.180000       12.0110           0
     20398 MEMB     98       SOPE     H4R      HAL2     0.900000E-01   1.00800           0
     20399 MEMB     98       SOPE     H4S      HAL2     0.900000E-01   1.00800           0
     20400 MEMB     98       SOPE     C25      CTL2    -0.180000       12.0110           0
     20401 MEMB     98       SOPE     H5R      HAL2     0.900000E-01   1.00800           0
     20402 MEMB     98       SOPE     H5S      HAL2     0.900000E-01   1.00800           0
     20403 MEMB     98       SOPE     C26      CTL2    -0.180000       12.0110           0
     20404 MEMB     98       SOPE     H6R      HAL2     0.900000E-01   1.00800           0
     20405 MEMB     98       SOPE     H6S      HAL2     0.900000E-01   1.00800           0
     20406 MEMB     98       SOPE     C27      CTL2    -0.180000       12.0110           0
     20407 MEMB     98       SOPE     H7R      HAL2     0.900000E-01   1.00800           0
     20408 MEMB     98       SOPE     H7S      HAL2     0.900000E-01   1.00800           0
     20409 MEMB     98       SOPE     C28      CTL2    -0.180000       12.0110           0
     20410 MEMB     98       SOPE     H8R      HAL2     0.900000E-01   1.00800           0
     20411 MEMB     98       SOPE     H8S      HAL2     0.900000E-01   1.00800           0
     20412 MEMB     98       SOPE     C29      CEL1    -0.150000       12.0110           0
     20413 MEMB     98       SOPE     H91      HEL1     0.150000       1.00800           0
     20414 MEMB     98       SOPE     C210     CEL1    -0.150000       12.0110           0
     20415 MEMB     98       SOPE     H101     HEL1     0.150000       1.00800           0
     20416 MEMB     98       SOPE     C211     CTL2    -0.180000       12.0110           0
     20417 MEMB     98       SOPE     H11R     HAL2     0.900000E-01   1.00800           0
     20418 MEMB     98       SOPE     H11S     HAL2     0.900000E-01   1.00800           0
     20419 MEMB     98       SOPE     C212     CTL2    -0.180000       12.0110           0
     20420 MEMB     98       SOPE     H12R     HAL2     0.900000E-01   1.00800           0
     20421 MEMB     98       SOPE     H12S     HAL2     0.900000E-01   1.00800           0
     20422 MEMB     98       SOPE     C213     CTL2    -0.180000       12.0110           0
     20423 MEMB     98       SOPE     H13R     HAL2     0.900000E-01   1.00800           0
     20424 MEMB     98       SOPE     H13S     HAL2     0.900000E-01   1.00800           0
     20425 MEMB     98       SOPE     C214     CTL2    -0.180000       12.0110           0
     20426 MEMB     98       SOPE     H14R     HAL2     0.900000E-01   1.00800           0
     20427 MEMB     98       SOPE     H14S     HAL2     0.900000E-01   1.00800           0
     20428 MEMB     98       SOPE     C215     CTL2    -0.180000       12.0110           0
     20429 MEMB     98       SOPE     H15R     HAL2     0.900000E-01   1.00800           0
     20430 MEMB     98       SOPE     H15S     HAL2     0.900000E-01   1.00800           0
     20431 MEMB     98       SOPE     C216     CTL2    -0.180000       12.0110           0
     20432 MEMB     98       SOPE     H16R     HAL2     0.900000E-01   1.00800           0
     20433 MEMB     98       SOPE     H16S     HAL2     0.900000E-01   1.00800           0
     20434 MEMB     98       SOPE     C217     CTL2    -0.180000       12.0110           0
     20435 MEMB     98       SOPE     H17R     HAL2     0.900000E-01   1.00800           0
     20436 MEMB     98       SOPE     H17S     HAL2     0.900000E-01   1.00800           0
     20437 MEMB     98       SOPE     C218     CTL3    -0.270000       12.0110           0
     20438 MEMB     98       SOPE     H18R     HAL3     0.900000E-01   1.00800           0
     20439 MEMB     98       SOPE     H18S     HAL3     0.900000E-01   1.00800           0
     20440 MEMB     98       SOPE     H18T     HAL3     0.900000E-01   1.00800           0
     20441 MEMB     98       SOPE     C33      CTL2    -0.180000       12.0110           0
     20442 MEMB     98       SOPE     H3X      HAL2     0.900000E-01   1.00800           0
     20443 MEMB     98       SOPE     H3Y      HAL2     0.900000E-01   1.00800           0
     20444 MEMB     98       SOPE     C34      CTL2    -0.180000       12.0110           0
     20445 MEMB     98       SOPE     H4X      HAL2     0.900000E-01   1.00800           0
     20446 MEMB     98       SOPE     H4Y      HAL2     0.900000E-01   1.00800           0
     20447 MEMB     98       SOPE     C35      CTL2    -0.180000       12.0110           0
     20448 MEMB     98       SOPE     H5X      HAL2     0.900000E-01   1.00800           0
     20449 MEMB     98       SOPE     H5Y      HAL2     0.900000E-01   1.00800           0
     20450 MEMB     98       SOPE     C36      CTL2    -0.180000       12.0110           0
     20451 MEMB     98       SOPE     H6X      HAL2     0.900000E-01   1.00800           0
     20452 MEMB     98       SOPE     H6Y      HAL2     0.900000E-01   1.00800           0
     20453 MEMB     98       SOPE     C37      CTL2    -0.180000       12.0110           0
     20454 MEMB     98       SOPE     H7X      HAL2     0.900000E-01   1.00800           0
     20455 MEMB     98       SOPE     H7Y      HAL2     0.900000E-01   1.00800           0
     20456 MEMB     98       SOPE     C38      CTL2    -0.180000       12.0110           0
     20457 MEMB     98       SOPE     H8X      HAL2     0.900000E-01   1.00800           0
     20458 MEMB     98       SOPE     H8Y      HAL2     0.900000E-01   1.00800           0
     20459 MEMB     98       SOPE     C39      CTL2    -0.180000       12.0110           0
     20460 MEMB     98       SOPE     H9X      HAL2     0.900000E-01   1.00800           0
     20461 MEMB     98       SOPE     H9Y      HAL2     0.900000E-01   1.00800           0
     20462 MEMB     98       SOPE     C310     CTL2    -0.180000       12.0110           0
     20463 MEMB     98       SOPE     H10X     HAL2     0.900000E-01   1.00800           0
     20464 MEMB     98       SOPE     H10Y     HAL2     0.900000E-01   1.00800           0
     20465 MEMB     98       SOPE     C311     CTL2    -0.180000       12.0110           0
     20466 MEMB     98       SOPE     H11X     HAL2     0.900000E-01   1.00800           0
     20467 MEMB     98       SOPE     H11Y     HAL2     0.900000E-01   1.00800           0
     20468 MEMB     98       SOPE     C312     CTL2    -0.180000       12.0110           0
     20469 MEMB     98       SOPE     H12X     HAL2     0.900000E-01   1.00800           0
     20470 MEMB     98       SOPE     H12Y     HAL2     0.900000E-01   1.00800           0
     20471 MEMB     98       SOPE     C313     CTL2    -0.180000       12.0110           0
     20472 MEMB     98       SOPE     H13X     HAL2     0.900000E-01   1.00800           0
     20473 MEMB     98       SOPE     H13Y     HAL2     0.900000E-01   1.00800           0
     20474 MEMB     98       SOPE     C314     CTL2    -0.180000       12.0110           0
     20475 MEMB     98       SOPE     H14X     HAL2     0.900000E-01   1.00800           0
     20476 MEMB     98       SOPE     H14Y     HAL2     0.900000E-01   1.00800           0
     20477 MEMB     98       SOPE     C315     CTL2    -0.180000       12.0110           0
     20478 MEMB     98       SOPE     H15X     HAL2     0.900000E-01   1.00800           0
     20479 MEMB     98       SOPE     H15Y     HAL2     0.900000E-01   1.00800           0
     20480 MEMB     98       SOPE     C316     CTL2    -0.180000       12.0110           0
     20481 MEMB     98       SOPE     H16X     HAL2     0.900000E-01   1.00800           0
     20482 MEMB     98       SOPE     H16Y     HAL2     0.900000E-01   1.00800           0
     20483 MEMB     98       SOPE     C317     CTL2    -0.180000       12.0110           0
     20484 MEMB     98       SOPE     H17X     HAL2     0.900000E-01   1.00800           0
     20485 MEMB     98       SOPE     H17Y     HAL2     0.900000E-01   1.00800           0
     20486 MEMB     98       SOPE     C318     CTL3    -0.270000       12.0110           0
     20487 MEMB     98       SOPE     H18X     HAL3     0.900000E-01   1.00800           0
     20488 MEMB     98       SOPE     H18Y     HAL3     0.900000E-01   1.00800           0
     20489 MEMB     98       SOPE     H18Z     HAL3     0.900000E-01   1.00800           0
     20490 MEMB     139      SOPE     N        NH3L    -0.300000       14.0070           0
     20491 MEMB     139      SOPE     HN1      HCL      0.330000       1.00800           0
     20492 MEMB     139      SOPE     HN2      HCL      0.330000       1.00800           0
     20493 MEMB     139      SOPE     HN3      HCL      0.330000       1.00800           0
     20494 MEMB     139      SOPE     C12      CTL2     0.130000       12.0110           0
     20495 MEMB     139      SOPE     H12A     HAL2     0.900000E-01   1.00800           0
     20496 MEMB     139      SOPE     H12B     HAL2     0.900000E-01   1.00800           0
     20497 MEMB     139      SOPE     C11      CTL2    -0.800000E-01   12.0110           0
     20498 MEMB     139      SOPE     H11A     HAL2     0.900000E-01   1.00800           0
     20499 MEMB     139      SOPE     H11B     HAL2     0.900000E-01   1.00800           0
     20500 MEMB     139      SOPE     P        PL       1.500000       30.9740           0
     20501 MEMB     139      SOPE     O13      O2L     -0.780000       15.9994           0
     20502 MEMB     139      SOPE     O14      O2L     -0.780000       15.9994           0
     20503 MEMB     139      SOPE     O12      OSLP    -0.570000       15.9994           0
     20504 MEMB     139      SOPE     O11      OSLP    -0.570000       15.9994           0
     20505 MEMB     139      SOPE     C1       CTL2    -0.800000E-01   12.0110           0
     20506 MEMB     139      SOPE     HA       HAL2     0.900000E-01   1.00800           0
     20507 MEMB     139      SOPE     HB       HAL2     0.900000E-01   1.00800           0
     20508 MEMB     139      SOPE     C2       CTL1     0.170000       12.0110           0
     20509 MEMB     139      SOPE     HS       HAL1     0.900000E-01   1.00800           0
     20510 MEMB     139      SOPE     O21      OSL     -0.490000       15.9994           0
     20511 MEMB     139      SOPE     C21      CL       0.900000       12.0110           0
     20512 MEMB     139      SOPE     O22      OBL     -0.630000       15.9994           0
     20513 MEMB     139      SOPE     C22      CTL2    -0.220000       12.0110           0
     20514 MEMB     139      SOPE     H2R      HAL2     0.900000E-01   1.00800           0
     20515 MEMB     139      SOPE     H2S      HAL2     0.900000E-01   1.00800           0
     20516 MEMB     139      SOPE     C3       CTL2     0.800000E-01   12.0110           0
     20517 MEMB     139      SOPE     HX       HAL2     0.900000E-01   1.00800           0
     20518 MEMB     139      SOPE     HY       HAL2     0.900000E-01   1.00800           0
     20519 MEMB     139      SOPE     O31      OSL     -0.490000       15.9994           0
     20520 MEMB     139      SOPE     C31      CL       0.900000       12.0110           0
     20521 MEMB     139      SOPE     O32      OBL     -0.630000       15.9994           0
     20522 MEMB     139      SOPE     C32      CTL2    -0.220000       12.0110           0
     20523 MEMB     139      SOPE     H2X      HAL2     0.900000E-01   1.00800           0
     20524 MEMB     139      SOPE     H2Y      HAL2     0.900000E-01   1.00800           0
     20525 MEMB     139      SOPE     C23      CTL2    -0.180000       12.0110           0
     20526 MEMB     139      SOPE     H3R      HAL2     0.900000E-01   1.00800           0
     20527 MEMB     139      SOPE     H3S      HAL2     0.900000E-01   1.00800           0
     20528 MEMB     139      SOPE     C24      CTL2    -0.180000       12.0110           0
     20529 MEMB     139      SOPE     H4R      HAL2     0.900000E-01   1.00800           0
     20530 MEMB     139      SOPE     H4S      HAL2     0.900000E-01   1.00800           0
     20531 MEMB     139      SOPE     C25      CTL2    -0.180000       12.0110           0
     20532 MEMB     139      SOPE     H5R      HAL2     0.900000E-01   1.00800           0
     20533 MEMB     139      SOPE     H5S      HAL2     0.900000E-01   1.00800           0
     20534 MEMB     139      SOPE     C26      CTL2    -0.180000       12.0110           0
     20535 MEMB     139      SOPE     H6R      HAL2     0.900000E-01   1.00800           0
     20536 MEMB     139      SOPE     H6S      HAL2     0.900000E-01   1.00800           0
     20537 MEMB     139      SOPE     C27      CTL2    -0.180000       12.0110           0
     20538 MEMB     139      SOPE     H7R      HAL2     0.900000E-01   1.00800           0
     20539 MEMB     139      SOPE     H7S      HAL2     0.900000E-01   1.00800           0
     20540 MEMB     139      SOPE     C28      CTL2    -0.180000       12.0110           0
     20541 MEMB     139      SOPE     H8R      HAL2     0.900000E-01   1.00800           0
     20542 MEMB     139      SOPE     H8S      HAL2     0.900000E-01   1.00800           0
     20543 MEMB     139      SOPE     C29      CEL1    -0.150000       12.0110           0
     20544 MEMB     139      SOPE     H91      HEL1     0.150000       1.00800           0
     20545 MEMB     139      SOPE     C210     CEL1    -0.150000       12.0110           0
     20546 MEMB     139      SOPE     H101     HEL1     0.150000       1.00800           0
     20547 MEMB     139      SOPE     C211     CTL2    -0.180000       12.0110           0
     20548 MEMB     139      SOPE     H11R     HAL2     0.900000E-01   1.00800           0
     20549 MEMB     139      SOPE     H11S     HAL2     0.900000E-01   1.00800           0
     20550 MEMB     139      SOPE     C212     CTL2    -0.180000       12.0110           0
     20551 MEMB     139      SOPE     H12R     HAL2     0.900000E-01   1.00800           0
     20552 MEMB     139      SOPE     H12S     HAL2     0.900000E-01   1.00800           0
     20553 MEMB     139      SOPE     C213     CTL2    -0.180000       12.0110           0
     20554 MEMB     139      SOPE     H13R     HAL2     0.900000E-01   1.00800           0
     20555 MEMB     139      SOPE     H13S     HAL2     0.900000E-01   1.00800           0
     20556 MEMB     139      SOPE     C214     CTL2    -0.180000       12.0110           0
     20557 MEMB     139      SOPE     H14R     HAL2     0.900000E-01   1.00800           0
     20558 MEMB     139      SOPE     H14S     HAL2     0.900000E-01   1.00800           0
     20559 MEMB     139      SOPE     C215     CTL2    -0.180000       12.0110           0
     20560 MEMB     139      SOPE     H15R     HAL2     0.900000E-01   1.00800           0
     20561 MEMB     139      SOPE     H15S     HAL2     0.900000E-01   1.00800           0
     20562 MEMB     139      SOPE     C216     CTL2    -0.180000       12.0110           0
     20563 MEMB     139      SOPE     H16R     HAL2     0.900000E-01   1.00800           0
     20564 MEMB     139      SOPE     H16S     HAL2     0.900000E-01   1.00800           0
     20565 MEMB     139      SOPE     C217     CTL2    -0.180000       12.0110           0
     20566 MEMB     139      SOPE     H17R     HAL2     0.900000E-01   1.00800           0
     20567 MEMB     139      SOPE     H17S     HAL2     0.900000E-01   1.00800           0
     20568 MEMB     139      SOPE     C218     CTL3    -0.270000       12.0110           0
     20569 MEMB     139      SOPE     H18R     HAL3     0.900000E-01   1.00800           0
     20570 MEMB     139      SOPE     H18S     HAL3     0.900000E-01   1.00800           0
     20571 MEMB     139      SOPE     H18T     HAL3     0.900000E-01   1.00800           0
     20572 MEMB     139      SOPE     C33      CTL2    -0.180000       12.0110           0
     20573 MEMB     139      SOPE     H3X      HAL2     0.900000E-01   1.00800           0
     20574 MEMB     139      SOPE     H3Y      HAL2     0.900000E-01   1.00800           0
     20575 MEMB     139      SOPE     C34      CTL2    -0.180000       12.0110           0
     20576 MEMB     139      SOPE     H4X      HAL2     0.900000E-01   1.00800           0
     20577 MEMB     139      SOPE     H4Y      HAL2     0.900000E-01   1.00800           0
     20578 MEMB     139      SOPE     C35      CTL2    -0.180000       12.0110           0
     20579 MEMB     139      SOPE     H5X      HAL2     0.900000E-01   1.00800           0
     20580 MEMB     139      SOPE     H5Y      HAL2     0.900000E-01   1.00800           0
     20581 MEMB     139      SOPE     C36      CTL2    -0.180000       12.0110           0
     20582 MEMB     139      SOPE     H6X      HAL2     0.900000E-01   1.00800           0
     20583 MEMB     139      SOPE     H6Y      HAL2     0.900000E-01   1.00800           0
     20584 MEMB     139      SOPE     C37      CTL2    -0.180000       12.0110           0
     20585 MEMB     139      SOPE     H7X      HAL2     0.900000E-01   1.00800           0
     20586 MEMB     139      SOPE     H7Y      HAL2     0.900000E-01   1.00800           0
     20587 MEMB     139      SOPE     C38      CTL2    -0.180000       12.0110           0
     20588 MEMB     139      SOPE     H8X      HAL2     0.900000E-01   1.00800           0
     20589 MEMB     139      SOPE     H8Y      HAL2     0.900000E-01   1.00800           0
     20590 MEMB     139      SOPE     C39      CTL2    -0.180000       12.0110           0
     20591 MEMB     139      SOPE     H9X      HAL2     0.900000E-01   1.00800           0
     20592 MEMB     139      SOPE     H9Y      HAL2     0.900000E-01   1.00800           0
     20593 MEMB     139      SOPE     C310     CTL2    -0.180000       12.0110           0
     20594 MEMB     139      SOPE     H10X     HAL2     0.900000E-01   1.00800           0
     20595 MEMB     139      SOPE     H10Y     HAL2     0.900000E-01   1.00800           0
     20596 MEMB     139      SOPE     C311     CTL2    -0.180000       12.0110           0
     20597 MEMB     139      SOPE     H11X     HAL2     0.900000E-01   1.00800           0
     20598 MEMB     139      SOPE     H11Y     HAL2     0.900000E-01   1.00800           0
     20599 MEMB     139      SOPE     C312     CTL2    -0.180000       12.0110           0
     20600 MEMB     139      SOPE     H12X     HAL2     0.900000E-01   1.00800           0
     20601 MEMB     139      SOPE     H12Y     HAL2     0.900000E-01   1.00800           0
     20602 MEMB     139      SOPE     C313     CTL2    -0.180000       12.0110           0
     20603 MEMB     139      SOPE     H13X     HAL2     0.900000E-01   1.00800           0
     20604 MEMB     139      SOPE     H13Y     HAL2     0.900000E-01   1.00800           0
     20605 MEMB     139      SOPE     C314     CTL2    -0.180000       12.0110           0
     20606 MEMB     139      SOPE     H14X     HAL2     0.900000E-01   1.00800           0
     20607 MEMB     139      SOPE     H14Y     HAL2     0.900000E-01   1.00800           0
     20608 MEMB     139      SOPE     C315     CTL2    -0.180000       12.0110           0
     20609 MEMB     139      SOPE     H15X     HAL2     0.900000E-01   1.00800           0
     20610 MEMB     139      SOPE     H15Y     HAL2     0.900000E-01   1.00800           0
     20611 MEMB     139      SOPE     C316     CTL2    -0.180000       12.0110           0
     20612 MEMB     139      SOPE     H16X     HAL2     0.900000E-01   1.00800           0
     20613 MEMB     139      SOPE     H16Y     HAL2     0.900000E-01   1.00800           0
     20614 MEMB     139      SOPE     C317     CTL2    -0.180000       12.0110           0
     20615 MEMB     139      SOPE     H17X     HAL2     0.900000E-01   1.00800           0
     20616 MEMB     139      SOPE     H17Y     HAL2     0.900000E-01   1.00800           0
     20617 MEMB     139      SOPE     C318     CTL3    -0.270000       12.0110           0
     20618 MEMB     139      SOPE     H18X     HAL3     0.900000E-01   1.00800           0
     20619 MEMB     139      SOPE     H18Y     HAL3     0.900000E-01   1.00800           0
     20620 MEMB     139      SOPE     H18Z     HAL3     0.900000E-01   1.00800           0
     20621 MEMB     156      SOPE     N        NH3L    -0.300000       14.0070           0
     20622 MEMB     156      SOPE     HN1      HCL      0.330000       1.00800           0
     20623 MEMB     156      SOPE     HN2      HCL      0.330000       1.00800           0
     20624 MEMB     156      SOPE     HN3      HCL      0.330000       1.00800           0
     20625 MEMB     156      SOPE     C12      CTL2     0.130000       12.0110           0
     20626 MEMB     156      SOPE     H12A     HAL2     0.900000E-01   1.00800           0
     20627 MEMB     156      SOPE     H12B     HAL2     0.900000E-01   1.00800           0
     20628 MEMB     156      SOPE     C11      CTL2    -0.800000E-01   12.0110           0
     20629 MEMB     156      SOPE     H11A     HAL2     0.900000E-01   1.00800           0
     20630 MEMB     156      SOPE     H11B     HAL2     0.900000E-01   1.00800           0
     20631 MEMB     156      SOPE     P        PL       1.500000       30.9740           0
     20632 MEMB     156      SOPE     O13      O2L     -0.780000       15.9994           0
     20633 MEMB     156      SOPE     O14      O2L     -0.780000       15.9994           0
     20634 MEMB     156      SOPE     O12      OSLP    -0.570000       15.9994           0
     20635 MEMB     156      SOPE     O11      OSLP    -0.570000       15.9994           0
     20636 MEMB     156      SOPE     C1       CTL2    -0.800000E-01   12.0110           0
     20637 MEMB     156      SOPE     HA       HAL2     0.900000E-01   1.00800           0
     20638 MEMB     156      SOPE     HB       HAL2     0.900000E-01   1.00800           0
     20639 MEMB     156      SOPE     C2       CTL1     0.170000       12.0110           0
     20640 MEMB     156      SOPE     HS       HAL1     0.900000E-01   1.00800           0
     20641 MEMB     156      SOPE     O21      OSL     -0.490000       15.9994           0
     20642 MEMB     156      SOPE     C21      CL       0.900000       12.0110           0
     20643 MEMB     156      SOPE     O22      OBL     -0.630000       15.9994           0
     20644 MEMB     156      SOPE     C22      CTL2    -0.220000       12.0110           0
     20645 MEMB     156      SOPE     H2R      HAL2     0.900000E-01   1.00800           0
     20646 MEMB     156      SOPE     H2S      HAL2     0.900000E-01   1.00800           0
     20647 MEMB     156      SOPE     C3       CTL2     0.800000E-01   12.0110           0
     20648 MEMB     156      SOPE     HX       HAL2     0.900000E-01   1.00800           0
     20649 MEMB     156      SOPE     HY       HAL2     0.900000E-01   1.00800           0
     20650 MEMB     156      SOPE     O31      OSL     -0.490000       15.9994           0
     20651 MEMB     156      SOPE     C31      CL       0.900000       12.0110           0
     20652 MEMB     156      SOPE     O32      OBL     -0.630000       15.9994           0
     20653 MEMB     156      SOPE     C32      CTL2    -0.220000       12.0110           0
     20654 MEMB     156      SOPE     H2X      HAL2     0.900000E-01   1.00800           0
     20655 MEMB     156      SOPE     H2Y      HAL2     0.900000E-01   1.00800           0
     20656 MEMB     156      SOPE     C23      CTL2    -0.180000       12.0110           0
     20657 MEMB     156      SOPE     H3R      HAL2     0.900000E-01   1.00800           0
     20658 MEMB     156      SOPE     H3S      HAL2     0.900000E-01   1.00800           0
     20659 MEMB     156      SOPE     C24      CTL2    -0.180000       12.0110           0
     20660 MEMB     156      SOPE     H4R      HAL2     0.900000E-01   1.00800           0
     20661 MEMB     156      SOPE     H4S      HAL2     0.900000E-01   1.00800           0
     20662 MEMB     156      SOPE     C25      CTL2    -0.180000       12.0110           0
     20663 MEMB     156      SOPE     H5R      HAL2     0.900000E-01   1.00800           0
     20664 MEMB     156      SOPE     H5S      HAL2     0.900000E-01   1.00800           0
     20665 MEMB     156      SOPE     C26      CTL2    -0.180000       12.0110           0
     20666 MEMB     156      SOPE     H6R      HAL2     0.900000E-01   1.00800           0
     20667 MEMB     156      SOPE     H6S      HAL2     0.900000E-01   1.00800           0
     20668 MEMB     156      SOPE     C27      CTL2    -0.180000       12.0110           0
     20669 MEMB     156      SOPE     H7R      HAL2     0.900000E-01   1.00800           0
     20670 MEMB     156      SOPE     H7S      HAL2     0.900000E-01   1.00800           0
     20671 MEMB     156      SOPE     C28      CTL2    -0.180000       12.0110           0
     20672 MEMB     156      SOPE     H8R      HAL2     0.900000E-01   1.00800           0
     20673 MEMB     156      SOPE     H8S      HAL2     0.900000E-01   1.00800           0
     20674 MEMB     156      SOPE     C29      CEL1    -0.150000       12.0110           0
     20675 MEMB     156      SOPE     H91      HEL1     0.150000       1.00800           0
     20676 MEMB     156      SOPE     C210     CEL1    -0.150000       12.0110           0
     20677 MEMB     156      SOPE     H101     HEL1     0.150000       1.00800           0
     20678 MEMB     156      SOPE     C211     CTL2    -0.180000       12.0110           0
     20679 MEMB     156      SOPE     H11R     HAL2     0.900000E-01   1.00800           0
     20680 MEMB     156      SOPE     H11S     HAL2     0.900000E-01   1.00800           0
     20681 MEMB     156      SOPE     C212     CTL2    -0.180000       12.0110           0
     20682 MEMB     156      SOPE     H12R     HAL2     0.900000E-01   1.00800           0
     20683 MEMB     156      SOPE     H12S     HAL2     0.900000E-01   1.00800           0
     20684 MEMB     156      SOPE     C213     CTL2    -0.180000       12.0110           0
     20685 MEMB     156      SOPE     H13R     HAL2     0.900000E-01   1.00800           0
     20686 MEMB     156      SOPE     H13S     HAL2     0.900000E-01   1.00800           0
     20687 MEMB     156      SOPE     C214     CTL2    -0.180000       12.0110           0
     20688 MEMB     156      SOPE     H14R     HAL2     0.900000E-01   1.00800           0
     20689 MEMB     156      SOPE     H14S     HAL2     0.900000E-01   1.00800           0
     20690 MEMB     156      SOPE     C215     CTL2    -0.180000       12.0110           0
     20691 MEMB     156      SOPE     H15R     HAL2     0.900000E-01   1.00800           0
     20692 MEMB     156      SOPE     H15S     HAL2     0.900000E-01   1.00800           0
     20693 MEMB     156      SOPE     C216     CTL2    -0.180000       12.0110           0
     20694 MEMB     156      SOPE     H16R     HAL2     0.900000E-01   1.00800           0
     20695 MEMB     156      SOPE     H16S     HAL2     0.900000E-01   1.00800           0
     20696 MEMB     156      SOPE     C217     CTL2    -0.180000       12.0110           0
     20697 MEMB     156      SOPE     H17R     HAL2     0.900000E-01   1.00800           0
     20698 MEMB     156      SOPE     H17S     HAL2     0.900000E-01   1.00800           0
     20699 MEMB     156      SOPE     C218     CTL3    -0.270000       12.0110           0
     20700 MEMB     156      SOPE     H18R     HAL3     0.900000E-01   1.00800           0
     20701 MEMB     156      SOPE     H18S     HAL3     0.900000E-01   1.00800           0
     20702 MEMB     156      SOPE     H18T     HAL3     0.900000E-01   1.00800           0
     20703 MEMB     156      SOPE     C33      CTL2    -0.180000       12.0110           0
     20704 MEMB     156      SOPE     H3X      HAL2     0.900000E-01   1.00800           0
     20705 MEMB     156      SOPE     H3Y      HAL2     0.900000E-01   1.00800           0
     20706 MEMB     156      SOPE     C34      CTL2    -0.180000       12.0110           0
     20707 MEMB     156      SOPE     H4X      HAL2     0.900000E-01   1.00800           0
     20708 MEMB     156      SOPE     H4Y      HAL2     0.900000E-01   1.00800           0
     20709 MEMB     156      SOPE     C35      CTL2    -0.180000       12.0110           0
     20710 MEMB     156      SOPE     H5X      HAL2     0.900000E-01   1.00800           0
     20711 MEMB     156      SOPE     H5Y      HAL2     0.900000E-01   1.00800           0
     20712 MEMB     156      SOPE     C36      CTL2    -0.180000       12.0110           0
     20713 MEMB     156      SOPE     H6X      HAL2     0.900000E-01   1.00800           0
     20714 MEMB     156      SOPE     H6Y      HAL2     0.900000E-01   1.00800           0
     20715 MEMB     156      SOPE     C37      CTL2    -0.180000       12.0110           0
     20716 MEMB     156      SOPE     H7X      HAL2     0.900000E-01   1.00800           0
     20717 MEMB     156      SOPE     H7Y      HAL2     0.900000E-01   1.00800           0
     20718 MEMB     156      SOPE     C38      CTL2    -0.180000       12.0110           0
     20719 MEMB     156      SOPE     H8X      HAL2     0.900000E-01   1.00800           0
     20720 MEMB     156      SOPE     H8Y      HAL2     0.900000E-01   1.00800           0
     20721 MEMB     156      SOPE     C39      CTL2    -0.180000       12.0110           0
     20722 MEMB     156      SOPE     H9X      HAL2     0.900000E-01   1.00800           0
     20723 MEMB     156      SOPE     H9Y      HAL2     0.900000E-01   1.00800           0
     20724 MEMB     156      SOPE     C310     CTL2    -0.180000       12.0110           0
     20725 MEMB     156      SOPE     H10X     HAL2     0.900000E-01   1.00800           0
     20726 MEMB     156      SOPE     H10Y     HAL2     0.900000E-01   1.00800           0
     20727 MEMB     156      SOPE     C311     CTL2    -0.180000       12.0110           0
     20728 MEMB     156      SOPE     H11X     HAL2     0.900000E-01   1.00800           0
     20729 MEMB     156      SOPE     H11Y     HAL2     0.900000E-01   1.00800           0
     20730 MEMB     156      SOPE     C312     CTL2    -0.180000       12.0110           0
     20731 MEMB     156      SOPE     H12X     HAL2     0.900000E-01   1.00800           0
     20732 MEMB     156      SOPE     H12Y     HAL2     0.900000E-01   1.00800           0
     20733 MEMB     156      SOPE     C313     CTL2    -0.180000       12.0110           0
     20734 MEMB     156      SOPE     H13X     HAL2     0.900000E-01   1.00800           0
     20735 MEMB     156      SOPE     H13Y     HAL2     0.900000E-01   1.00800           0
     20736 MEMB     156      SOPE     C314     CTL2    -0.180000       12.0110           0
     20737 MEMB     156      SOPE     H14X     HAL2     0.900000E-01   1.00800           0
     20738 MEMB     156      SOPE     H14Y     HAL2     0.900000E-01   1.00800           0
     20739 MEMB     156      SOPE     C315     CTL2    -0.180000       12.0110           0
     20740 MEMB     156      SOPE     H15X     HAL2     0.900000E-01   1.00800           0
     20741 MEMB     156      SOPE     H15Y     HAL2     0.900000E-01   1.00800           0
     20742 MEMB     156      SOPE     C316     CTL2    -0.180000       12.0110           0
     20743 MEMB     156      SOPE     H16X     HAL2     0.900000E-01   1.00800           0
     20744 MEMB     156      SOPE     H16Y     HAL2     0.900000E-01   1.00800           0
     20745 MEMB     156      SOPE     C317     CTL2    -0.180000       12.0110           0
     20746 MEMB     156      SOPE     H17X     HAL2     0.900000E-01   1.00800           0
     20747 MEMB     156      SOPE     H17Y     HAL2     0.900000E-01   1.00800           0
     20748 MEMB     156      SOPE     C318     CTL3    -0.270000       12.0110           0
     20749 MEMB     156      SOPE     H18X     HAL3     0.900000E-01   1.00800           0
     20750 MEMB     156      SOPE     H18Y     HAL3     0.900000E-01   1.00800           0
     20751 MEMB     156      SOPE     H18Z     HAL3     0.900000E-01   1.00800           0
     20752 MEMB     159      SOPE     N        NH3L    -0.300000       14.0070           0
     20753 MEMB     159      SOPE     HN1      HCL      0.330000       1.00800           0
     20754 MEMB     159      SOPE     HN2      HCL      0.330000       1.00800           0
     20755 MEMB     159      SOPE     HN3      HCL      0.330000       1.00800           0
     20756 MEMB     159      SOPE     C12      CTL2     0.130000       12.0110           0
     20757 MEMB     159      SOPE     H12A     HAL2     0.900000E-01   1.00800           0
     20758 MEMB     159      SOPE     H12B     HAL2     0.900000E-01   1.00800           0
     20759 MEMB     159      SOPE     C11      CTL2    -0.800000E-01   12.0110           0
     20760 MEMB     159      SOPE     H11A     HAL2     0.900000E-01   1.00800           0
     20761 MEMB     159      SOPE     H11B     HAL2     0.900000E-01   1.00800           0
     20762 MEMB     159      SOPE     P        PL       1.500000       30.9740           0
     20763 MEMB     159      SOPE     O13      O2L     -0.780000       15.9994           0
     20764 MEMB     159      SOPE     O14      O2L     -0.780000       15.9994           0
     20765 MEMB     159      SOPE     O12      OSLP    -0.570000       15.9994           0
     20766 MEMB     159      SOPE     O11      OSLP    -0.570000       15.9994           0
     20767 MEMB     159      SOPE     C1       CTL2    -0.800000E-01   12.0110           0
     20768 MEMB     159      SOPE     HA       HAL2     0.900000E-01   1.00800           0
     20769 MEMB     159      SOPE     HB       HAL2     0.900000E-01   1.00800           0
     20770 MEMB     159      SOPE     C2       CTL1     0.170000       12.0110           0
     20771 MEMB     159      SOPE     HS       HAL1     0.900000E-01   1.00800           0
     20772 MEMB     159      SOPE     O21      OSL     -0.490000       15.9994           0
     20773 MEMB     159      SOPE     C21      CL       0.900000       12.0110           0
     20774 MEMB     159      SOPE     O22      OBL     -0.630000       15.9994           0
     20775 MEMB     159      SOPE     C22      CTL2    -0.220000       12.0110           0
     20776 MEMB     159      SOPE     H2R      HAL2     0.900000E-01   1.00800           0
     20777 MEMB     159      SOPE     H2S      HAL2     0.900000E-01   1.00800           0
     20778 MEMB     159      SOPE     C3       CTL2     0.800000E-01   12.0110           0
     20779 MEMB     159      SOPE     HX       HAL2     0.900000E-01   1.00800           0
     20780 MEMB     159      SOPE     HY       HAL2     0.900000E-01   1.00800           0
     20781 MEMB     159      SOPE     O31      OSL     -0.490000       15.9994           0
     20782 MEMB     159      SOPE     C31      CL       0.900000       12.0110           0
     20783 MEMB     159      SOPE     O32      OBL     -0.630000       15.9994           0
     20784 MEMB     159      SOPE     C32      CTL2    -0.220000       12.0110           0
     20785 MEMB     159      SOPE     H2X      HAL2     0.900000E-01   1.00800           0
     20786 MEMB     159      SOPE     H2Y      HAL2     0.900000E-01   1.00800           0
     20787 MEMB     159      SOPE     C23      CTL2    -0.180000       12.0110           0
     20788 MEMB     159      SOPE     H3R      HAL2     0.900000E-01   1.00800           0
     20789 MEMB     159      SOPE     H3S      HAL2     0.900000E-01   1.00800           0
     20790 MEMB     159      SOPE     C24      CTL2    -0.180000       12.0110           0
     20791 MEMB     159      SOPE     H4R      HAL2     0.900000E-01   1.00800           0
     20792 MEMB     159      SOPE     H4S      HAL2     0.900000E-01   1.00800           0
     20793 MEMB     159      SOPE     C25      CTL2    -0.180000       12.0110           0
     20794 MEMB     159      SOPE     H5R      HAL2     0.900000E-01   1.00800           0
     20795 MEMB     159      SOPE     H5S      HAL2     0.900000E-01   1.00800           0
     20796 MEMB     159      SOPE     C26      CTL2    -0.180000       12.0110           0
     20797 MEMB     159      SOPE     H6R      HAL2     0.900000E-01   1.00800           0
     20798 MEMB     159      SOPE     H6S      HAL2     0.900000E-01   1.00800           0
     20799 MEMB     159      SOPE     C27      CTL2    -0.180000       12.0110           0
     20800 MEMB     159      SOPE     H7R      HAL2     0.900000E-01   1.00800           0
     20801 MEMB     159      SOPE     H7S      HAL2     0.900000E-01   1.00800           0
     20802 MEMB     159      SOPE     C28      CTL2    -0.180000       12.0110           0
     20803 MEMB     159      SOPE     H8R      HAL2     0.900000E-01   1.00800           0
     20804 MEMB     159      SOPE     H8S      HAL2     0.900000E-01   1.00800           0
     20805 MEMB     159      SOPE     C29      CEL1    -0.150000       12.0110           0
     20806 MEMB     159      SOPE     H91      HEL1     0.150000       1.00800           0
     20807 MEMB     159      SOPE     C210     CEL1    -0.150000       12.0110           0
     20808 MEMB     159      SOPE     H101     HEL1     0.150000       1.00800           0
     20809 MEMB     159      SOPE     C211     CTL2    -0.180000       12.0110           0
     20810 MEMB     159      SOPE     H11R     HAL2     0.900000E-01   1.00800           0
     20811 MEMB     159      SOPE     H11S     HAL2     0.900000E-01   1.00800           0
     20812 MEMB     159      SOPE     C212     CTL2    -0.180000       12.0110           0
     20813 MEMB     159      SOPE     H12R     HAL2     0.900000E-01   1.00800           0
     20814 MEMB     159      SOPE     H12S     HAL2     0.900000E-01   1.00800           0
     20815 MEMB     159      SOPE     C213     CTL2    -0.180000       12.0110           0
     20816 MEMB     159      SOPE     H13R     HAL2     0.900000E-01   1.00800           0
     20817 MEMB     159      SOPE     H13S     HAL2     0.900000E-01   1.00800           0
     20818 MEMB     159      SOPE     C214     CTL2    -0.180000       12.0110           0
     20819 MEMB     159      SOPE     H14R     HAL2     0.900000E-01   1.00800           0
     20820 MEMB     159      SOPE     H14S     HAL2     0.900000E-01   1.00800           0
     20821 MEMB     159      SOPE     C215     CTL2    -0.180000       12.0110           0
     20822 MEMB     159      SOPE     H15R     HAL2     0.900000E-01   1.00800           0
     20823 MEMB     159      SOPE     H15S     HAL2     0.900000E-01   1.00800           0
     20824 MEMB     159      SOPE     C216     CTL2    -0.180000       12.0110           0
     20825 MEMB     159      SOPE     H16R     HAL2     0.900000E-01   1.00800           0
     20826 MEMB     159      SOPE     H16S     HAL2     0.900000E-01   1.00800           0
     20827 MEMB     159      SOPE     C217     CTL2    -0.180000       12.0110           0
     20828 MEMB     159      SOPE     H17R     HAL2     0.900000E-01   1.00800           0
     20829 MEMB     159      SOPE     H17S     HAL2     0.900000E-01   1.00800           0
     20830 MEMB     159      SOPE     C218     CTL3    -0.270000       12.0110           0
     20831 MEMB     159      SOPE     H18R     HAL3     0.900000E-01   1.00800           0
     20832 MEMB     159      SOPE     H18S     HAL3     0.900000E-01   1.00800           0
     20833 MEMB     159      SOPE     H18T     HAL3     0.900000E-01   1.00800           0
     20834 MEMB     159      SOPE     C33      CTL2    -0.180000       12.0110           0
     20835 MEMB     159      SOPE     H3X      HAL2     0.900000E-01   1.00800           0
     20836 MEMB     159      SOPE     H3Y      HAL2     0.900000E-01   1.00800           0
     20837 MEMB     159      SOPE     C34      CTL2    -0.180000       12.0110           0
     20838 MEMB     159      SOPE     H4X      HAL2     0.900000E-01   1.00800           0
     20839 MEMB     159      SOPE     H4Y      HAL2     0.900000E-01   1.00800           0
     20840 MEMB     159      SOPE     C35      CTL2    -0.180000       12.0110           0
     20841 MEMB     159      SOPE     H5X      HAL2     0.900000E-01   1.00800           0
     20842 MEMB     159      SOPE     H5Y      HAL2     0.900000E-01   1.00800           0
     20843 MEMB     159      SOPE     C36      CTL2    -0.180000       12.0110           0
     20844 MEMB     159      SOPE     H6X      HAL2     0.900000E-01   1.00800           0
     20845 MEMB     159      SOPE     H6Y      HAL2     0.900000E-01   1.00800           0
     20846 MEMB     159      SOPE     C37      CTL2    -0.180000       12.0110           0
     20847 MEMB     159      SOPE     H7X      HAL2     0.900000E-01   1.00800           0
     20848 MEMB     159      SOPE     H7Y      HAL2     0.900000E-01   1.00800           0
     20849 MEMB     159      SOPE     C38      CTL2    -0.180000       12.0110           0
     20850 MEMB     159      SOPE     H8X      HAL2     0.900000E-01   1.00800           0
     20851 MEMB     159      SOPE     H8Y      HAL2     0.900000E-01   1.00800           0
     20852 MEMB     159      SOPE     C39      CTL2    -0.180000       12.0110           0
     20853 MEMB     159      SOPE     H9X      HAL2     0.900000E-01   1.00800           0
     20854 MEMB     159      SOPE     H9Y      HAL2     0.900000E-01   1.00800           0
     20855 MEMB     159      SOPE     C310     CTL2    -0.180000       12.0110           0
     20856 MEMB     159      SOPE     H10X     HAL2     0.900000E-01   1.00800           0
     20857 MEMB     159      SOPE     H10Y     HAL2     0.900000E-01   1.00800           0
     20858 MEMB     159      SOPE     C311     CTL2    -0.180000       12.0110           0
     20859 MEMB     159      SOPE     H11X     HAL2     0.900000E-01   1.00800           0
     20860 MEMB     159      SOPE     H11Y     HAL2     0.900000E-01   1.00800           0
     20861 MEMB     159      SOPE     C312     CTL2    -0.180000       12.0110           0
     20862 MEMB     159      SOPE     H12X     HAL2     0.900000E-01   1.00800           0
     20863 MEMB     159      SOPE     H12Y     HAL2     0.900000E-01   1.00800           0
     20864 MEMB     159      SOPE     C313     CTL2    -0.180000       12.0110           0
     20865 MEMB     159      SOPE     H13X     HAL2     0.900000E-01   1.00800           0
     20866 MEMB     159      SOPE     H13Y     HAL2     0.900000E-01   1.00800           0
     20867 MEMB     159      SOPE     C314     CTL2    -0.180000       12.0110           0
     20868 MEMB     159      SOPE     H14X     HAL2     0.900000E-01   1.00800           0
     20869 MEMB     159      SOPE     H14Y     HAL2     0.900000E-01   1.00800           0
     20870 MEMB     159      SOPE     C315     CTL2    -0.180000       12.0110           0
     20871 MEMB     159      SOPE     H15X     HAL2     0.900000E-01   1.00800           0
     20872 MEMB     159      SOPE     H15Y     HAL2     0.900000E-01   1.00800           0
     20873 MEMB     159      SOPE     C316     CTL2    -0.180000       12.0110           0
     20874 MEMB     159      SOPE     H16X     HAL2     0.900000E-01   1.00800           0
     20875 MEMB     159      SOPE     H16Y     HAL2     0.900000E-01   1.00800           0
     20876 MEMB     159      SOPE     C317     CTL2    -0.180000       12.0110           0
     20877 MEMB     159      SOPE     H17X     HAL2     0.900000E-01   1.00800           0
     20878 MEMB     159      SOPE     H17Y     HAL2     0.900000E-01   1.00800           0
     20879 MEMB     159      SOPE     C318     CTL3    -0.270000       12.0110           0
     20880 MEMB     159      SOPE     H18X     HAL3     0.900000E-01   1.00800           0
     20881 MEMB     159      SOPE     H18Y     HAL3     0.900000E-01   1.00800           0
     20882 MEMB     159      SOPE     H18Z     HAL3     0.900000E-01   1.00800           0
     20883 MEMB     162      SOPE     N        NH3L    -0.300000       14.0070           0
     20884 MEMB     162      SOPE     HN1      HCL      0.330000       1.00800           0
     20885 MEMB     162      SOPE     HN2      HCL      0.330000       1.00800           0
     20886 MEMB     162      SOPE     HN3      HCL      0.330000       1.00800           0
     20887 MEMB     162      SOPE     C12      CTL2     0.130000       12.0110           0
     20888 MEMB     162      SOPE     H12A     HAL2     0.900000E-01   1.00800           0
     20889 MEMB     162      SOPE     H12B     HAL2     0.900000E-01   1.00800           0
     20890 MEMB     162      SOPE     C11      CTL2    -0.800000E-01   12.0110           0
     20891 MEMB     162      SOPE     H11A     HAL2     0.900000E-01   1.00800           0
     20892 MEMB     162      SOPE     H11B     HAL2     0.900000E-01   1.00800           0
     20893 MEMB     162      SOPE     P        PL       1.500000       30.9740           0
     20894 MEMB     162      SOPE     O13      O2L     -0.780000       15.9994           0
     20895 MEMB     162      SOPE     O14      O2L     -0.780000       15.9994           0
     20896 MEMB     162      SOPE     O12      OSLP    -0.570000       15.9994           0
     20897 MEMB     162      SOPE     O11      OSLP    -0.570000       15.9994           0
     20898 MEMB     162      SOPE     C1       CTL2    -0.800000E-01   12.0110           0
     20899 MEMB     162      SOPE     HA       HAL2     0.900000E-01   1.00800           0
     20900 MEMB     162      SOPE     HB       HAL2     0.900000E-01   1.00800           0
     20901 MEMB     162      SOPE     C2       CTL1     0.170000       12.0110           0
     20902 MEMB     162      SOPE     HS       HAL1     0.900000E-01   1.00800           0
     20903 MEMB     162      SOPE     O21      OSL     -0.490000       15.9994           0
     20904 MEMB     162      SOPE     C21      CL       0.900000       12.0110           0
     20905 MEMB     162      SOPE     O22      OBL     -0.630000       15.9994           0
     20906 MEMB     162      SOPE     C22      CTL2    -0.220000       12.0110           0
     20907 MEMB     162      SOPE     H2R      HAL2     0.900000E-01   1.00800           0
     20908 MEMB     162      SOPE     H2S      HAL2     0.900000E-01   1.00800           0
     20909 MEMB     162      SOPE     C3       CTL2     0.800000E-01   12.0110           0
     20910 MEMB     162      SOPE     HX       HAL2     0.900000E-01   1.00800           0
     20911 MEMB     162      SOPE     HY       HAL2     0.900000E-01   1.00800           0
     20912 MEMB     162      SOPE     O31      OSL     -0.490000       15.9994           0
     20913 MEMB     162      SOPE     C31      CL       0.900000       12.0110           0
     20914 MEMB     162      SOPE     O32      OBL     -0.630000       15.9994           0
     20915 MEMB     162      SOPE     C32      CTL2    -0.220000       12.0110           0
     20916 MEMB     162      SOPE     H2X      HAL2     0.900000E-01   1.00800           0
     20917 MEMB     162      SOPE     H2Y      HAL2     0.900000E-01   1.00800           0
     20918 MEMB     162      SOPE     C23      CTL2    -0.180000       12.0110           0
     20919 MEMB     162      SOPE     H3R      HAL2     0.900000E-01   1.00800           0
     20920 MEMB     162      SOPE     H3S      HAL2     0.900000E-01   1.00800           0
     20921 MEMB     162      SOPE     C24      CTL2    -0.180000       12.0110           0
     20922 MEMB     162      SOPE     H4R      HAL2     0.900000E-01   1.00800           0
     20923 MEMB     162      SOPE     H4S      HAL2     0.900000E-01   1.00800           0
     20924 MEMB     162      SOPE     C25      CTL2    -0.180000       12.0110           0
     20925 MEMB     162      SOPE     H5R      HAL2     0.900000E-01   1.00800           0
     20926 MEMB     162      SOPE     H5S      HAL2     0.900000E-01   1.00800           0
     20927 MEMB     162      SOPE     C26      CTL2    -0.180000       12.0110           0
     20928 MEMB     162      SOPE     H6R      HAL2     0.900000E-01   1.00800           0
     20929 MEMB     162      SOPE     H6S      HAL2     0.900000E-01   1.00800           0
     20930 MEMB     162      SOPE     C27      CTL2    -0.180000       12.0110           0
     20931 MEMB     162      SOPE     H7R      HAL2     0.900000E-01   1.00800           0
     20932 MEMB     162      SOPE     H7S      HAL2     0.900000E-01   1.00800           0
     20933 MEMB     162      SOPE     C28      CTL2    -0.180000       12.0110           0
     20934 MEMB     162      SOPE     H8R      HAL2     0.900000E-01   1.00800           0
     20935 MEMB     162      SOPE     H8S      HAL2     0.900000E-01   1.00800           0
     20936 MEMB     162      SOPE     C29      CEL1    -0.150000       12.0110           0
     20937 MEMB     162      SOPE     H91      HEL1     0.150000       1.00800           0
     20938 MEMB     162      SOPE     C210     CEL1    -0.150000       12.0110           0
     20939 MEMB     162      SOPE     H101     HEL1     0.150000       1.00800           0
     20940 MEMB     162      SOPE     C211     CTL2    -0.180000       12.0110           0
     20941 MEMB     162      SOPE     H11R     HAL2     0.900000E-01   1.00800           0
     20942 MEMB     162      SOPE     H11S     HAL2     0.900000E-01   1.00800           0
     20943 MEMB     162      SOPE     C212     CTL2    -0.180000       12.0110           0
     20944 MEMB     162      SOPE     H12R     HAL2     0.900000E-01   1.00800           0
     20945 MEMB     162      SOPE     H12S     HAL2     0.900000E-01   1.00800           0
     20946 MEMB     162      SOPE     C213     CTL2    -0.180000       12.0110           0
     20947 MEMB     162      SOPE     H13R     HAL2     0.900000E-01   1.00800           0
     20948 MEMB     162      SOPE     H13S     HAL2     0.900000E-01   1.00800           0
     20949 MEMB     162      SOPE     C214     CTL2    -0.180000       12.0110           0
     20950 MEMB     162      SOPE     H14R     HAL2     0.900000E-01   1.00800           0
     20951 MEMB     162      SOPE     H14S     HAL2     0.900000E-01   1.00800           0
     20952 MEMB     162      SOPE     C215     CTL2    -0.180000       12.0110           0
     20953 MEMB     162      SOPE     H15R     HAL2     0.900000E-01   1.00800           0
     20954 MEMB     162      SOPE     H15S     HAL2     0.900000E-01   1.00800           0
     20955 MEMB     162      SOPE     C216     CTL2    -0.180000       12.0110           0
     20956 MEMB     162      SOPE     H16R     HAL2     0.900000E-01   1.00800           0
     20957 MEMB     162      SOPE     H16S     HAL2     0.900000E-01   1.00800           0
     20958 MEMB     162      SOPE     C217     CTL2    -0.180000       12.0110           0
     20959 MEMB     162      SOPE     H17R     HAL2     0.900000E-01   1.00800           0
     20960 MEMB     162      SOPE     H17S     HAL2     0.900000E-01   1.00800           0
     20961 MEMB     162      SOPE     C218     CTL3    -0.270000       12.0110           0
     20962 MEMB     162      SOPE     H18R     HAL3     0.900000E-01   1.00800           0
     20963 MEMB     162      SOPE     H18S     HAL3     0.900000E-01   1.00800           0
     20964 MEMB     162      SOPE     H18T     HAL3     0.900000E-01   1.00800           0
     20965 MEMB     162      SOPE     C33      CTL2    -0.180000       12.0110           0
     20966 MEMB     162      SOPE     H3X      HAL2     0.900000E-01   1.00800           0
     20967 MEMB     162      SOPE     H3Y      HAL2     0.900000E-01   1.00800           0
     20968 MEMB     162      SOPE     C34      CTL2    -0.180000       12.0110           0
     20969 MEMB     162      SOPE     H4X      HAL2     0.900000E-01   1.00800           0
     20970 MEMB     162      SOPE     H4Y      HAL2     0.900000E-01   1.00800           0
     20971 MEMB     162      SOPE     C35      CTL2    -0.180000       12.0110           0
     20972 MEMB     162      SOPE     H5X      HAL2     0.900000E-01   1.00800           0
     20973 MEMB     162      SOPE     H5Y      HAL2     0.900000E-01   1.00800           0
     20974 MEMB     162      SOPE     C36      CTL2    -0.180000       12.0110           0
     20975 MEMB     162      SOPE     H6X      HAL2     0.900000E-01   1.00800           0
     20976 MEMB     162      SOPE     H6Y      HAL2     0.900000E-01   1.00800           0
     20977 MEMB     162      SOPE     C37      CTL2    -0.180000       12.0110           0
     20978 MEMB     162      SOPE     H7X      HAL2     0.900000E-01   1.00800           0
     20979 MEMB     162      SOPE     H7Y      HAL2     0.900000E-01   1.00800           0
     20980 MEMB     162      SOPE     C38      CTL2    -0.180000       12.0110           0
     20981 MEMB     162      SOPE     H8X      HAL2     0.900000E-01   1.00800           0
     20982 MEMB     162      SOPE     H8Y      HAL2     0.900000E-01   1.00800           0
     20983 MEMB     162      SOPE     C39      CTL2    -0.180000       12.0110           0
     20984 MEMB     162      SOPE     H9X      HAL2     0.900000E-01   1.00800           0
     20985 MEMB     162      SOPE     H9Y      HAL2     0.900000E-01   1.00800           0
     20986 MEMB     162      SOPE     C310     CTL2    -0.180000       12.0110           0
     20987 MEMB     162      SOPE     H10X     HAL2     0.900000E-01   1.00800           0
     20988 MEMB     162      SOPE     H10Y     HAL2     0.900000E-01   1.00800           0
     20989 MEMB     162      SOPE     C311     CTL2    -0.180000       12.0110           0
     20990 MEMB     162      SOPE     H11X     HAL2     0.900000E-01   1.00800           0
     20991 MEMB     162      SOPE     H11Y     HAL2     0.900000E-01   1.00800           0
     20992 MEMB     162      SOPE     C312     CTL2    -0.180000       12.0110           0
     20993 MEMB     162      SOPE     H12X     HAL2     0.900000E-01   1.00800           0
     20994 MEMB     162      SOPE     H12Y     HAL2     0.900000E-01   1.00800           0
     20995 MEMB     162      SOPE     C313     CTL2    -0.180000       12.0110           0
     20996 MEMB     162      SOPE     H13X     HAL2     0.900000E-01   1.00800           0
     20997 MEMB     162      SOPE     H13Y     HAL2     0.900000E-01   1.00800           0
     20998 MEMB     162      SOPE     C314     CTL2    -0.180000       12.0110           0
     20999 MEMB     162      SOPE     H14X     HAL2     0.900000E-01   1.00800           0
     21000 MEMB     162      SOPE     H14Y     HAL2     0.900000E-01   1.00800           0
     21001 MEMB     162      SOPE     C315     CTL2    -0.180000       12.0110           0
     21002 MEMB     162      SOPE     H15X     HAL2     0.900000E-01   1.00800           0
     21003 MEMB     162      SOPE     H15Y     HAL2     0.900000E-01   1.00800           0
     21004 MEMB     162      SOPE     C316     CTL2    -0.180000       12.0110           0
     21005 MEMB     162      SOPE     H16X     HAL2     0.900000E-01   1.00800           0
     21006 MEMB     162      SOPE     H16Y     HAL2     0.900000E-01   1.00800           0
     21007 MEMB     162      SOPE     C317     CTL2    -0.180000       12.0110           0
     21008 MEMB     162      SOPE     H17X     HAL2     0.900000E-01   1.00800           0
     21009 MEMB     162      SOPE     H17Y     HAL2     0.900000E-01   1.00800           0
     21010 MEMB     162      SOPE     C318     CTL3    -0.270000       12.0110           0
     21011 MEMB     162      SOPE     H18X     HAL3     0.900000E-01   1.00800           0
     21012 MEMB     162      SOPE     H18Y     HAL3     0.900000E-01   1.00800           0
     21013 MEMB     162      SOPE     H18Z     HAL3     0.900000E-01   1.00800           0
     21014 MEMB     169      SOPE     N        NH3L    -0.300000       14.0070           0
     21015 MEMB     169      SOPE     HN1      HCL      0.330000       1.00800           0
     21016 MEMB     169      SOPE     HN2      HCL      0.330000       1.00800           0
     21017 MEMB     169      SOPE     HN3      HCL      0.330000       1.00800           0
     21018 MEMB     169      SOPE     C12      CTL2     0.130000       12.0110           0
     21019 MEMB     169      SOPE     H12A     HAL2     0.900000E-01   1.00800           0
     21020 MEMB     169      SOPE     H12B     HAL2     0.900000E-01   1.00800           0
     21021 MEMB     169      SOPE     C11      CTL2    -0.800000E-01   12.0110           0
     21022 MEMB     169      SOPE     H11A     HAL2     0.900000E-01   1.00800           0
     21023 MEMB     169      SOPE     H11B     HAL2     0.900000E-01   1.00800           0
     21024 MEMB     169      SOPE     P        PL       1.500000       30.9740           0
     21025 MEMB     169      SOPE     O13      O2L     -0.780000       15.9994           0
     21026 MEMB     169      SOPE     O14      O2L     -0.780000       15.9994           0
     21027 MEMB     169      SOPE     O12      OSLP    -0.570000       15.9994           0
     21028 MEMB     169      SOPE     O11      OSLP    -0.570000       15.9994           0
     21029 MEMB     169      SOPE     C1       CTL2    -0.800000E-01   12.0110           0
     21030 MEMB     169      SOPE     HA       HAL2     0.900000E-01   1.00800           0
     21031 MEMB     169      SOPE     HB       HAL2     0.900000E-01   1.00800           0
     21032 MEMB     169      SOPE     C2       CTL1     0.170000       12.0110           0
     21033 MEMB     169      SOPE     HS       HAL1     0.900000E-01   1.00800           0
     21034 MEMB     169      SOPE     O21      OSL     -0.490000       15.9994           0
     21035 MEMB     169      SOPE     C21      CL       0.900000       12.0110           0
     21036 MEMB     169      SOPE     O22      OBL     -0.630000       15.9994           0
     21037 MEMB     169      SOPE     C22      CTL2    -0.220000       12.0110           0
     21038 MEMB     169      SOPE     H2R      HAL2     0.900000E-01   1.00800           0
     21039 MEMB     169      SOPE     H2S      HAL2     0.900000E-01   1.00800           0
     21040 MEMB     169      SOPE     C3       CTL2     0.800000E-01   12.0110           0
     21041 MEMB     169      SOPE     HX       HAL2     0.900000E-01   1.00800           0
     21042 MEMB     169      SOPE     HY       HAL2     0.900000E-01   1.00800           0
     21043 MEMB     169      SOPE     O31      OSL     -0.490000       15.9994           0
     21044 MEMB     169      SOPE     C31      CL       0.900000       12.0110           0
     21045 MEMB     169      SOPE     O32      OBL     -0.630000       15.9994           0
     21046 MEMB     169      SOPE     C32      CTL2    -0.220000       12.0110           0
     21047 MEMB     169      SOPE     H2X      HAL2     0.900000E-01   1.00800           0
     21048 MEMB     169      SOPE     H2Y      HAL2     0.900000E-01   1.00800           0
     21049 MEMB     169      SOPE     C23      CTL2    -0.180000       12.0110           0
     21050 MEMB     169      SOPE     H3R      HAL2     0.900000E-01   1.00800           0
     21051 MEMB     169      SOPE     H3S      HAL2     0.900000E-01   1.00800           0
     21052 MEMB     169      SOPE     C24      CTL2    -0.180000       12.0110           0
     21053 MEMB     169      SOPE     H4R      HAL2     0.900000E-01   1.00800           0
     21054 MEMB     169      SOPE     H4S      HAL2     0.900000E-01   1.00800           0
     21055 MEMB     169      SOPE     C25      CTL2    -0.180000       12.0110           0
     21056 MEMB     169      SOPE     H5R      HAL2     0.900000E-01   1.00800           0
     21057 MEMB     169      SOPE     H5S      HAL2     0.900000E-01   1.00800           0
     21058 MEMB     169      SOPE     C26      CTL2    -0.180000       12.0110           0
     21059 MEMB     169      SOPE     H6R      HAL2     0.900000E-01   1.00800           0
     21060 MEMB     169      SOPE     H6S      HAL2     0.900000E-01   1.00800           0
     21061 MEMB     169      SOPE     C27      CTL2    -0.180000       12.0110           0
     21062 MEMB     169      SOPE     H7R      HAL2     0.900000E-01   1.00800           0
     21063 MEMB     169      SOPE     H7S      HAL2     0.900000E-01   1.00800           0
     21064 MEMB     169      SOPE     C28      CTL2    -0.180000       12.0110           0
     21065 MEMB     169      SOPE     H8R      HAL2     0.900000E-01   1.00800           0
     21066 MEMB     169      SOPE     H8S      HAL2     0.900000E-01   1.00800           0
     21067 MEMB     169      SOPE     C29      CEL1    -0.150000       12.0110           0
     21068 MEMB     169      SOPE     H91      HEL1     0.150000       1.00800           0
     21069 MEMB     169      SOPE     C210     CEL1    -0.150000       12.0110           0
     21070 MEMB     169      SOPE     H101     HEL1     0.150000       1.00800           0
     21071 MEMB     169      SOPE     C211     CTL2    -0.180000       12.0110           0
     21072 MEMB     169      SOPE     H11R     HAL2     0.900000E-01   1.00800           0
     21073 MEMB     169      SOPE     H11S     HAL2     0.900000E-01   1.00800           0
     21074 MEMB     169      SOPE     C212     CTL2    -0.180000       12.0110           0
     21075 MEMB     169      SOPE     H12R     HAL2     0.900000E-01   1.00800           0
     21076 MEMB     169      SOPE     H12S     HAL2     0.900000E-01   1.00800           0
     21077 MEMB     169      SOPE     C213     CTL2    -0.180000       12.0110           0
     21078 MEMB     169      SOPE     H13R     HAL2     0.900000E-01   1.00800           0
     21079 MEMB     169      SOPE     H13S     HAL2     0.900000E-01   1.00800           0
     21080 MEMB     169      SOPE     C214     CTL2    -0.180000       12.0110           0
     21081 MEMB     169      SOPE     H14R     HAL2     0.900000E-01   1.00800           0
     21082 MEMB     169      SOPE     H14S     HAL2     0.900000E-01   1.00800           0
     21083 MEMB     169      SOPE     C215     CTL2    -0.180000       12.0110           0
     21084 MEMB     169      SOPE     H15R     HAL2     0.900000E-01   1.00800           0
     21085 MEMB     169      SOPE     H15S     HAL2     0.900000E-01   1.00800           0
     21086 MEMB     169      SOPE     C216     CTL2    -0.180000       12.0110           0
     21087 MEMB     169      SOPE     H16R     HAL2     0.900000E-01   1.00800           0
     21088 MEMB     169      SOPE     H16S     HAL2     0.900000E-01   1.00800           0
     21089 MEMB     169      SOPE     C217     CTL2    -0.180000       12.0110           0
     21090 MEMB     169      SOPE     H17R     HAL2     0.900000E-01   1.00800           0
     21091 MEMB     169      SOPE     H17S     HAL2     0.900000E-01   1.00800           0
     21092 MEMB     169      SOPE     C218     CTL3    -0.270000       12.0110           0
     21093 MEMB     169      SOPE     H18R     HAL3     0.900000E-01   1.00800           0
     21094 MEMB     169      SOPE     H18S     HAL3     0.900000E-01   1.00800           0
     21095 MEMB     169      SOPE     H18T     HAL3     0.900000E-01   1.00800           0
     21096 MEMB     169      SOPE     C33      CTL2    -0.180000       12.0110           0
     21097 MEMB     169      SOPE     H3X      HAL2     0.900000E-01   1.00800           0
     21098 MEMB     169      SOPE     H3Y      HAL2     0.900000E-01   1.00800           0
     21099 MEMB     169      SOPE     C34      CTL2    -0.180000       12.0110           0
     21100 MEMB     169      SOPE     H4X      HAL2     0.900000E-01   1.00800           0
     21101 MEMB     169      SOPE     H4Y      HAL2     0.900000E-01   1.00800           0
     21102 MEMB     169      SOPE     C35      CTL2    -0.180000       12.0110           0
     21103 MEMB     169      SOPE     H5X      HAL2     0.900000E-01   1.00800           0
     21104 MEMB     169      SOPE     H5Y      HAL2     0.900000E-01   1.00800           0
     21105 MEMB     169      SOPE     C36      CTL2    -0.180000       12.0110           0
     21106 MEMB     169      SOPE     H6X      HAL2     0.900000E-01   1.00800           0
     21107 MEMB     169      SOPE     H6Y      HAL2     0.900000E-01   1.00800           0
     21108 MEMB     169      SOPE     C37      CTL2    -0.180000       12.0110           0
     21109 MEMB     169      SOPE     H7X      HAL2     0.900000E-01   1.00800           0
     21110 MEMB     169      SOPE     H7Y      HAL2     0.900000E-01   1.00800           0
     21111 MEMB     169      SOPE     C38      CTL2    -0.180000       12.0110           0
     21112 MEMB     169      SOPE     H8X      HAL2     0.900000E-01   1.00800           0
     21113 MEMB     169      SOPE     H8Y      HAL2     0.900000E-01   1.00800           0
     21114 MEMB     169      SOPE     C39      CTL2    -0.180000       12.0110           0
     21115 MEMB     169      SOPE     H9X      HAL2     0.900000E-01   1.00800           0
     21116 MEMB     169      SOPE     H9Y      HAL2     0.900000E-01   1.00800           0
     21117 MEMB     169      SOPE     C310     CTL2    -0.180000       12.0110           0
     21118 MEMB     169      SOPE     H10X     HAL2     0.900000E-01   1.00800           0
     21119 MEMB     169      SOPE     H10Y     HAL2     0.900000E-01   1.00800           0
     21120 MEMB     169      SOPE     C311     CTL2    -0.180000       12.0110           0
     21121 MEMB     169      SOPE     H11X     HAL2     0.900000E-01   1.00800           0
     21122 MEMB     169      SOPE     H11Y     HAL2     0.900000E-01   1.00800           0
     21123 MEMB     169      SOPE     C312     CTL2    -0.180000       12.0110           0
     21124 MEMB     169      SOPE     H12X     HAL2     0.900000E-01   1.00800           0
     21125 MEMB     169      SOPE     H12Y     HAL2     0.900000E-01   1.00800           0
     21126 MEMB     169      SOPE     C313     CTL2    -0.180000       12.0110           0
     21127 MEMB     169      SOPE     H13X     HAL2     0.900000E-01   1.00800           0
     21128 MEMB     169      SOPE     H13Y     HAL2     0.900000E-01   1.00800           0
     21129 MEMB     169      SOPE     C314     CTL2    -0.180000       12.0110           0
     21130 MEMB     169      SOPE     H14X     HAL2     0.900000E-01   1.00800           0
     21131 MEMB     169      SOPE     H14Y     HAL2     0.900000E-01   1.00800           0
     21132 MEMB     169      SOPE     C315     CTL2    -0.180000       12.0110           0
     21133 MEMB     169      SOPE     H15X     HAL2     0.900000E-01   1.00800           0
     21134 MEMB     169      SOPE     H15Y     HAL2     0.900000E-01   1.00800           0
     21135 MEMB     169      SOPE     C316     CTL2    -0.180000       12.0110           0
     21136 MEMB     169      SOPE     H16X     HAL2     0.900000E-01   1.00800           0
     21137 MEMB     169      SOPE     H16Y     HAL2     0.900000E-01   1.00800           0
     21138 MEMB     169      SOPE     C317     CTL2    -0.180000       12.0110           0
     21139 MEMB     169      SOPE     H17X     HAL2     0.900000E-01   1.00800           0
     21140 MEMB     169      SOPE     H17Y     HAL2     0.900000E-01   1.00800           0
     21141 MEMB     169      SOPE     C318     CTL3    -0.270000       12.0110           0
     21142 MEMB     169      SOPE     H18X     HAL3     0.900000E-01   1.00800           0
     21143 MEMB     169      SOPE     H18Y     HAL3     0.900000E-01   1.00800           0
     21144 MEMB     169      SOPE     H18Z     HAL3     0.900000E-01   1.00800           0
     21145 MEMB     36       SAPI     C12      CC3161   0.140000       12.0110           0
     21146 MEMB     36       SAPI     H2       HCA1     0.900000E-01   1.00800           0
     21147 MEMB     36       SAPI     O2       OC311   -0.650000       15.9994           0
     21148 MEMB     36       SAPI     HO2      HCP1     0.420000       1.00800           0
     21149 MEMB     36       SAPI     C13      CC3161   0.140000       12.0110           0
     21150 MEMB     36       SAPI     H3       HCA1     0.900000E-01   1.00800           0
     21151 MEMB     36       SAPI     O3       OC311   -0.650000       15.9994           0
     21152 MEMB     36       SAPI     HO3      HCP1     0.420000       1.00800           0
     21153 MEMB     36       SAPI     C14      CC3161   0.140000       12.0110           0
     21154 MEMB     36       SAPI     H4       HCA1     0.900000E-01   1.00800           0
     21155 MEMB     36       SAPI     O4       OC311   -0.650000       15.9994           0
     21156 MEMB     36       SAPI     HO4      HCP1     0.420000       1.00800           0
     21157 MEMB     36       SAPI     C15      CC3161   0.140000       12.0110           0
     21158 MEMB     36       SAPI     H5       HCA1     0.900000E-01   1.00800           0
     21159 MEMB     36       SAPI     O5       OC311   -0.650000       15.9994           0
     21160 MEMB     36       SAPI     HO5      HCP1     0.420000       1.00800           0
     21161 MEMB     36       SAPI     C16      CC3161   0.140000       12.0110           0
     21162 MEMB     36       SAPI     H6       HCA1     0.900000E-01   1.00800           0
     21163 MEMB     36       SAPI     O6       OC311   -0.650000       15.9994           0
     21164 MEMB     36       SAPI     HO6      HCP1     0.420000       1.00800           0
     21165 MEMB     36       SAPI     C11      CC3161  -0.800000E-01   12.0110           0
     21166 MEMB     36       SAPI     H1       HCA1     0.900000E-01   1.00800           0
     21167 MEMB     36       SAPI     P        PL       1.590000       30.9740           0
     21168 MEMB     36       SAPI     O13      O2L     -0.780000       15.9994           0
     21169 MEMB     36       SAPI     O14      O2L     -0.780000       15.9994           0
     21170 MEMB     36       SAPI     O12      OC30P   -0.570000       15.9994           0
     21171 MEMB     36       SAPI     O11      OSLP    -0.570000       15.9994           0
     21172 MEMB     36       SAPI     C1       CTL2    -0.800000E-01   12.0110           0
     21173 MEMB     36       SAPI     HA       HAL2     0.900000E-01   1.00800           0
     21174 MEMB     36       SAPI     HB       HAL2     0.900000E-01   1.00800           0
     21175 MEMB     36       SAPI     C2       CTL1     0.170000       12.0110           0
     21176 MEMB     36       SAPI     HS       HAL1     0.900000E-01   1.00800           0
     21177 MEMB     36       SAPI     O21      OSL     -0.490000       15.9994           0
     21178 MEMB     36       SAPI     C21      CL       0.900000       12.0110           0
     21179 MEMB     36       SAPI     O22      OBL     -0.630000       15.9994           0
     21180 MEMB     36       SAPI     C22      CTL2    -0.220000       12.0110           0
     21181 MEMB     36       SAPI     H2R      HAL2     0.900000E-01   1.00800           0
     21182 MEMB     36       SAPI     H2S      HAL2     0.900000E-01   1.00800           0
     21183 MEMB     36       SAPI     C3       CTL2     0.800000E-01   12.0110           0
     21184 MEMB     36       SAPI     HX       HAL2     0.900000E-01   1.00800           0
     21185 MEMB     36       SAPI     HY       HAL2     0.900000E-01   1.00800           0
     21186 MEMB     36       SAPI     O31      OSL     -0.490000       15.9994           0
     21187 MEMB     36       SAPI     C31      CL       0.900000       12.0110           0
     21188 MEMB     36       SAPI     O32      OBL     -0.630000       15.9994           0
     21189 MEMB     36       SAPI     C32      CTL2    -0.220000       12.0110           0
     21190 MEMB     36       SAPI     H2X      HAL2     0.900000E-01   1.00800           0
     21191 MEMB     36       SAPI     H2Y      HAL2     0.900000E-01   1.00800           0
     21192 MEMB     36       SAPI     C23      CTL2    -0.180000       12.0110           0
     21193 MEMB     36       SAPI     H3R      HAL2     0.900000E-01   1.00800           0
     21194 MEMB     36       SAPI     H3S      HAL2     0.900000E-01   1.00800           0
     21195 MEMB     36       SAPI     C24      CTL2    -0.180000       12.0110           0
     21196 MEMB     36       SAPI     H4R      HAL2     0.900000E-01   1.00800           0
     21197 MEMB     36       SAPI     H4S      HAL2     0.900000E-01   1.00800           0
     21198 MEMB     36       SAPI     C25      CEL1    -0.150000       12.0110           0
     21199 MEMB     36       SAPI     H5R      HEL1     0.150000       1.00800           0
     21200 MEMB     36       SAPI     C26      CEL1    -0.150000       12.0110           0
     21201 MEMB     36       SAPI     H6R      HEL1     0.150000       1.00800           0
     21202 MEMB     36       SAPI     C27      CTL2    -0.180000       12.0110           0
     21203 MEMB     36       SAPI     H7R      HAL2     0.900000E-01   1.00800           0
     21204 MEMB     36       SAPI     H7S      HAL2     0.900000E-01   1.00800           0
     21205 MEMB     36       SAPI     C28      CEL1    -0.150000       12.0110           0
     21206 MEMB     36       SAPI     H8R      HEL1     0.150000       1.00800           0
     21207 MEMB     36       SAPI     C29      CEL1    -0.150000       12.0110           0
     21208 MEMB     36       SAPI     H9R      HEL1     0.150000       1.00800           0
     21209 MEMB     36       SAPI     C210     CTL2    -0.180000       12.0110           0
     21210 MEMB     36       SAPI     H10R     HAL2     0.900000E-01   1.00800           0
     21211 MEMB     36       SAPI     H10S     HAL2     0.900000E-01   1.00800           0
     21212 MEMB     36       SAPI     C211     CEL1    -0.150000       12.0110           0
     21213 MEMB     36       SAPI     H11R     HEL1     0.150000       1.00800           0
     21214 MEMB     36       SAPI     C212     CEL1    -0.150000       12.0110           0
     21215 MEMB     36       SAPI     H12R     HEL1     0.150000       1.00800           0
     21216 MEMB     36       SAPI     C213     CTL2    -0.180000       12.0110           0
     21217 MEMB     36       SAPI     H13R     HAL2     0.900000E-01   1.00800           0
     21218 MEMB     36       SAPI     H13S     HAL2     0.900000E-01   1.00800           0
     21219 MEMB     36       SAPI     C214     CEL1    -0.150000       12.0110           0
     21220 MEMB     36       SAPI     H14R     HEL1     0.150000       1.00800           0
     21221 MEMB     36       SAPI     C215     CEL1    -0.150000       12.0110           0
     21222 MEMB     36       SAPI     H15R     HEL1     0.150000       1.00800           0
     21223 MEMB     36       SAPI     C216     CTL2    -0.180000       12.0110           0
     21224 MEMB     36       SAPI     H16R     HAL2     0.900000E-01   1.00800           0
     21225 MEMB     36       SAPI     H16S     HAL2     0.900000E-01   1.00800           0
     21226 MEMB     36       SAPI     C217     CTL2    -0.180000       12.0110           0
     21227 MEMB     36       SAPI     H17R     HAL2     0.900000E-01   1.00800           0
     21228 MEMB     36       SAPI     H17S     HAL2     0.900000E-01   1.00800           0
     21229 MEMB     36       SAPI     C218     CTL2    -0.180000       12.0110           0
     21230 MEMB     36       SAPI     H18R     HAL2     0.900000E-01   1.00800           0
     21231 MEMB     36       SAPI     H18S     HAL2     0.900000E-01   1.00800           0
     21232 MEMB     36       SAPI     C219     CTL2    -0.180000       12.0110           0
     21233 MEMB     36       SAPI     H19R     HAL2     0.900000E-01   1.00800           0
     21234 MEMB     36       SAPI     H19S     HAL2     0.900000E-01   1.00800           0
     21235 MEMB     36       SAPI     C220     CTL3    -0.270000       12.0110           0
     21236 MEMB     36       SAPI     H20R     HAL3     0.900000E-01   1.00800           0
     21237 MEMB     36       SAPI     H20S     HAL3     0.900000E-01   1.00800           0
     21238 MEMB     36       SAPI     H20T     HAL3     0.900000E-01   1.00800           0
     21239 MEMB     36       SAPI     C33      CTL2    -0.180000       12.0110           0
     21240 MEMB     36       SAPI     H3X      HAL2     0.900000E-01   1.00800           0
     21241 MEMB     36       SAPI     H3Y      HAL2     0.900000E-01   1.00800           0
     21242 MEMB     36       SAPI     C34      CTL2    -0.180000       12.0110           0
     21243 MEMB     36       SAPI     H4X      HAL2     0.900000E-01   1.00800           0
     21244 MEMB     36       SAPI     H4Y      HAL2     0.900000E-01   1.00800           0
     21245 MEMB     36       SAPI     C35      CTL2    -0.180000       12.0110           0
     21246 MEMB     36       SAPI     H5X      HAL2     0.900000E-01   1.00800           0
     21247 MEMB     36       SAPI     H5Y      HAL2     0.900000E-01   1.00800           0
     21248 MEMB     36       SAPI     C36      CTL2    -0.180000       12.0110           0
     21249 MEMB     36       SAPI     H6X      HAL2     0.900000E-01   1.00800           0
     21250 MEMB     36       SAPI     H6Y      HAL2     0.900000E-01   1.00800           0
     21251 MEMB     36       SAPI     C37      CTL2    -0.180000       12.0110           0
     21252 MEMB     36       SAPI     H7X      HAL2     0.900000E-01   1.00800           0
     21253 MEMB     36       SAPI     H7Y      HAL2     0.900000E-01   1.00800           0
     21254 MEMB     36       SAPI     C38      CTL2    -0.180000       12.0110           0
     21255 MEMB     36       SAPI     H8X      HAL2     0.900000E-01   1.00800           0
     21256 MEMB     36       SAPI     H8Y      HAL2     0.900000E-01   1.00800           0
     21257 MEMB     36       SAPI     C39      CTL2    -0.180000       12.0110           0
     21258 MEMB     36       SAPI     H9X      HAL2     0.900000E-01   1.00800           0
     21259 MEMB     36       SAPI     H9Y      HAL2     0.900000E-01   1.00800           0
     21260 MEMB     36       SAPI     C310     CTL2    -0.180000       12.0110           0
     21261 MEMB     36       SAPI     H10X     HAL2     0.900000E-01   1.00800           0
     21262 MEMB     36       SAPI     H10Y     HAL2     0.900000E-01   1.00800           0
     21263 MEMB     36       SAPI     C311     CTL2    -0.180000       12.0110           0
     21264 MEMB     36       SAPI     H11X     HAL2     0.900000E-01   1.00800           0
     21265 MEMB     36       SAPI     H11Y     HAL2     0.900000E-01   1.00800           0
     21266 MEMB     36       SAPI     C312     CTL2    -0.180000       12.0110           0
     21267 MEMB     36       SAPI     H12X     HAL2     0.900000E-01   1.00800           0
     21268 MEMB     36       SAPI     H12Y     HAL2     0.900000E-01   1.00800           0
     21269 MEMB     36       SAPI     C313     CTL2    -0.180000       12.0110           0
     21270 MEMB     36       SAPI     H13X     HAL2     0.900000E-01   1.00800           0
     21271 MEMB     36       SAPI     H13Y     HAL2     0.900000E-01   1.00800           0
     21272 MEMB     36       SAPI     C314     CTL2    -0.180000       12.0110           0
     21273 MEMB     36       SAPI     H14X     HAL2     0.900000E-01   1.00800           0
     21274 MEMB     36       SAPI     H14Y     HAL2     0.900000E-01   1.00800           0
     21275 MEMB     36       SAPI     C315     CTL2    -0.180000       12.0110           0
     21276 MEMB     36       SAPI     H15X     HAL2     0.900000E-01   1.00800           0
     21277 MEMB     36       SAPI     H15Y     HAL2     0.900000E-01   1.00800           0
     21278 MEMB     36       SAPI     C316     CTL2    -0.180000       12.0110           0
     21279 MEMB     36       SAPI     H16X     HAL2     0.900000E-01   1.00800           0
     21280 MEMB     36       SAPI     H16Y     HAL2     0.900000E-01   1.00800           0
     21281 MEMB     36       SAPI     C317     CTL2    -0.180000       12.0110           0
     21282 MEMB     36       SAPI     H17X     HAL2     0.900000E-01   1.00800           0
     21283 MEMB     36       SAPI     H17Y     HAL2     0.900000E-01   1.00800           0
     21284 MEMB     36       SAPI     C318     CTL3    -0.270000       12.0110           0
     21285 MEMB     36       SAPI     H18X     HAL3     0.900000E-01   1.00800           0
     21286 MEMB     36       SAPI     H18Y     HAL3     0.900000E-01   1.00800           0
     21287 MEMB     36       SAPI     H18Z     HAL3     0.900000E-01   1.00800           0
     21288 MEMB     83       SAPI     C12      CC3161   0.140000       12.0110           0
     21289 MEMB     83       SAPI     H2       HCA1     0.900000E-01   1.00800           0
     21290 MEMB     83       SAPI     O2       OC311   -0.650000       15.9994           0
     21291 MEMB     83       SAPI     HO2      HCP1     0.420000       1.00800           0
     21292 MEMB     83       SAPI     C13      CC3161   0.140000       12.0110           0
     21293 MEMB     83       SAPI     H3       HCA1     0.900000E-01   1.00800           0
     21294 MEMB     83       SAPI     O3       OC311   -0.650000       15.9994           0
     21295 MEMB     83       SAPI     HO3      HCP1     0.420000       1.00800           0
     21296 MEMB     83       SAPI     C14      CC3161   0.140000       12.0110           0
     21297 MEMB     83       SAPI     H4       HCA1     0.900000E-01   1.00800           0
     21298 MEMB     83       SAPI     O4       OC311   -0.650000       15.9994           0
     21299 MEMB     83       SAPI     HO4      HCP1     0.420000       1.00800           0
     21300 MEMB     83       SAPI     C15      CC3161   0.140000       12.0110           0
     21301 MEMB     83       SAPI     H5       HCA1     0.900000E-01   1.00800           0
     21302 MEMB     83       SAPI     O5       OC311   -0.650000       15.9994           0
     21303 MEMB     83       SAPI     HO5      HCP1     0.420000       1.00800           0
     21304 MEMB     83       SAPI     C16      CC3161   0.140000       12.0110           0
     21305 MEMB     83       SAPI     H6       HCA1     0.900000E-01   1.00800           0
     21306 MEMB     83       SAPI     O6       OC311   -0.650000       15.9994           0
     21307 MEMB     83       SAPI     HO6      HCP1     0.420000       1.00800           0
     21308 MEMB     83       SAPI     C11      CC3161  -0.800000E-01   12.0110           0
     21309 MEMB     83       SAPI     H1       HCA1     0.900000E-01   1.00800           0
     21310 MEMB     83       SAPI     P        PL       1.590000       30.9740           0
     21311 MEMB     83       SAPI     O13      O2L     -0.780000       15.9994           0
     21312 MEMB     83       SAPI     O14      O2L     -0.780000       15.9994           0
     21313 MEMB     83       SAPI     O12      OC30P   -0.570000       15.9994           0
     21314 MEMB     83       SAPI     O11      OSLP    -0.570000       15.9994           0
     21315 MEMB     83       SAPI     C1       CTL2    -0.800000E-01   12.0110           0
     21316 MEMB     83       SAPI     HA       HAL2     0.900000E-01   1.00800           0
     21317 MEMB     83       SAPI     HB       HAL2     0.900000E-01   1.00800           0
     21318 MEMB     83       SAPI     C2       CTL1     0.170000       12.0110           0
     21319 MEMB     83       SAPI     HS       HAL1     0.900000E-01   1.00800           0
     21320 MEMB     83       SAPI     O21      OSL     -0.490000       15.9994           0
     21321 MEMB     83       SAPI     C21      CL       0.900000       12.0110           0
     21322 MEMB     83       SAPI     O22      OBL     -0.630000       15.9994           0
     21323 MEMB     83       SAPI     C22      CTL2    -0.220000       12.0110           0
     21324 MEMB     83       SAPI     H2R      HAL2     0.900000E-01   1.00800           0
     21325 MEMB     83       SAPI     H2S      HAL2     0.900000E-01   1.00800           0
     21326 MEMB     83       SAPI     C3       CTL2     0.800000E-01   12.0110           0
     21327 MEMB     83       SAPI     HX       HAL2     0.900000E-01   1.00800           0
     21328 MEMB     83       SAPI     HY       HAL2     0.900000E-01   1.00800           0
     21329 MEMB     83       SAPI     O31      OSL     -0.490000       15.9994           0
     21330 MEMB     83       SAPI     C31      CL       0.900000       12.0110           0
     21331 MEMB     83       SAPI     O32      OBL     -0.630000       15.9994           0
     21332 MEMB     83       SAPI     C32      CTL2    -0.220000       12.0110           0
     21333 MEMB     83       SAPI     H2X      HAL2     0.900000E-01   1.00800           0
     21334 MEMB     83       SAPI     H2Y      HAL2     0.900000E-01   1.00800           0
     21335 MEMB     83       SAPI     C23      CTL2    -0.180000       12.0110           0
     21336 MEMB     83       SAPI     H3R      HAL2     0.900000E-01   1.00800           0
     21337 MEMB     83       SAPI     H3S      HAL2     0.900000E-01   1.00800           0
     21338 MEMB     83       SAPI     C24      CTL2    -0.180000       12.0110           0
     21339 MEMB     83       SAPI     H4R      HAL2     0.900000E-01   1.00800           0
     21340 MEMB     83       SAPI     H4S      HAL2     0.900000E-01   1.00800           0
     21341 MEMB     83       SAPI     C25      CEL1    -0.150000       12.0110           0
     21342 MEMB     83       SAPI     H5R      HEL1     0.150000       1.00800           0
     21343 MEMB     83       SAPI     C26      CEL1    -0.150000       12.0110           0
     21344 MEMB     83       SAPI     H6R      HEL1     0.150000       1.00800           0
     21345 MEMB     83       SAPI     C27      CTL2    -0.180000       12.0110           0
     21346 MEMB     83       SAPI     H7R      HAL2     0.900000E-01   1.00800           0
     21347 MEMB     83       SAPI     H7S      HAL2     0.900000E-01   1.00800           0
     21348 MEMB     83       SAPI     C28      CEL1    -0.150000       12.0110           0
     21349 MEMB     83       SAPI     H8R      HEL1     0.150000       1.00800           0
     21350 MEMB     83       SAPI     C29      CEL1    -0.150000       12.0110           0
     21351 MEMB     83       SAPI     H9R      HEL1     0.150000       1.00800           0
     21352 MEMB     83       SAPI     C210     CTL2    -0.180000       12.0110           0
     21353 MEMB     83       SAPI     H10R     HAL2     0.900000E-01   1.00800           0
     21354 MEMB     83       SAPI     H10S     HAL2     0.900000E-01   1.00800           0
     21355 MEMB     83       SAPI     C211     CEL1    -0.150000       12.0110           0
     21356 MEMB     83       SAPI     H11R     HEL1     0.150000       1.00800           0
     21357 MEMB     83       SAPI     C212     CEL1    -0.150000       12.0110           0
     21358 MEMB     83       SAPI     H12R     HEL1     0.150000       1.00800           0
     21359 MEMB     83       SAPI     C213     CTL2    -0.180000       12.0110           0
     21360 MEMB     83       SAPI     H13R     HAL2     0.900000E-01   1.00800           0
     21361 MEMB     83       SAPI     H13S     HAL2     0.900000E-01   1.00800           0
     21362 MEMB     83       SAPI     C214     CEL1    -0.150000       12.0110           0
     21363 MEMB     83       SAPI     H14R     HEL1     0.150000       1.00800           0
     21364 MEMB     83       SAPI     C215     CEL1    -0.150000       12.0110           0
     21365 MEMB     83       SAPI     H15R     HEL1     0.150000       1.00800           0
     21366 MEMB     83       SAPI     C216     CTL2    -0.180000       12.0110           0
     21367 MEMB     83       SAPI     H16R     HAL2     0.900000E-01   1.00800           0
     21368 MEMB     83       SAPI     H16S     HAL2     0.900000E-01   1.00800           0
     21369 MEMB     83       SAPI     C217     CTL2    -0.180000       12.0110           0
     21370 MEMB     83       SAPI     H17R     HAL2     0.900000E-01   1.00800           0
     21371 MEMB     83       SAPI     H17S     HAL2     0.900000E-01   1.00800           0
     21372 MEMB     83       SAPI     C218     CTL2    -0.180000       12.0110           0
     21373 MEMB     83       SAPI     H18R     HAL2     0.900000E-01   1.00800           0
     21374 MEMB     83       SAPI     H18S     HAL2     0.900000E-01   1.00800           0
     21375 MEMB     83       SAPI     C219     CTL2    -0.180000       12.0110           0
     21376 MEMB     83       SAPI     H19R     HAL2     0.900000E-01   1.00800           0
     21377 MEMB     83       SAPI     H19S     HAL2     0.900000E-01   1.00800           0
     21378 MEMB     83       SAPI     C220     CTL3    -0.270000       12.0110           0
     21379 MEMB     83       SAPI     H20R     HAL3     0.900000E-01   1.00800           0
     21380 MEMB     83       SAPI     H20S     HAL3     0.900000E-01   1.00800           0
     21381 MEMB     83       SAPI     H20T     HAL3     0.900000E-01   1.00800           0
     21382 MEMB     83       SAPI     C33      CTL2    -0.180000       12.0110           0
     21383 MEMB     83       SAPI     H3X      HAL2     0.900000E-01   1.00800           0
     21384 MEMB     83       SAPI     H3Y      HAL2     0.900000E-01   1.00800           0
     21385 MEMB     83       SAPI     C34      CTL2    -0.180000       12.0110           0
     21386 MEMB     83       SAPI     H4X      HAL2     0.900000E-01   1.00800           0
     21387 MEMB     83       SAPI     H4Y      HAL2     0.900000E-01   1.00800           0
     21388 MEMB     83       SAPI     C35      CTL2    -0.180000       12.0110           0
     21389 MEMB     83       SAPI     H5X      HAL2     0.900000E-01   1.00800           0
     21390 MEMB     83       SAPI     H5Y      HAL2     0.900000E-01   1.00800           0
     21391 MEMB     83       SAPI     C36      CTL2    -0.180000       12.0110           0
     21392 MEMB     83       SAPI     H6X      HAL2     0.900000E-01   1.00800           0
     21393 MEMB     83       SAPI     H6Y      HAL2     0.900000E-01   1.00800           0
     21394 MEMB     83       SAPI     C37      CTL2    -0.180000       12.0110           0
     21395 MEMB     83       SAPI     H7X      HAL2     0.900000E-01   1.00800           0
     21396 MEMB     83       SAPI     H7Y      HAL2     0.900000E-01   1.00800           0
     21397 MEMB     83       SAPI     C38      CTL2    -0.180000       12.0110           0
     21398 MEMB     83       SAPI     H8X      HAL2     0.900000E-01   1.00800           0
     21399 MEMB     83       SAPI     H8Y      HAL2     0.900000E-01   1.00800           0
     21400 MEMB     83       SAPI     C39      CTL2    -0.180000       12.0110           0
     21401 MEMB     83       SAPI     H9X      HAL2     0.900000E-01   1.00800           0
     21402 MEMB     83       SAPI     H9Y      HAL2     0.900000E-01   1.00800           0
     21403 MEMB     83       SAPI     C310     CTL2    -0.180000       12.0110           0
     21404 MEMB     83       SAPI     H10X     HAL2     0.900000E-01   1.00800           0
     21405 MEMB     83       SAPI     H10Y     HAL2     0.900000E-01   1.00800           0
     21406 MEMB     83       SAPI     C311     CTL2    -0.180000       12.0110           0
     21407 MEMB     83       SAPI     H11X     HAL2     0.900000E-01   1.00800           0
     21408 MEMB     83       SAPI     H11Y     HAL2     0.900000E-01   1.00800           0
     21409 MEMB     83       SAPI     C312     CTL2    -0.180000       12.0110           0
     21410 MEMB     83       SAPI     H12X     HAL2     0.900000E-01   1.00800           0
     21411 MEMB     83       SAPI     H12Y     HAL2     0.900000E-01   1.00800           0
     21412 MEMB     83       SAPI     C313     CTL2    -0.180000       12.0110           0
     21413 MEMB     83       SAPI     H13X     HAL2     0.900000E-01   1.00800           0
     21414 MEMB     83       SAPI     H13Y     HAL2     0.900000E-01   1.00800           0
     21415 MEMB     83       SAPI     C314     CTL2    -0.180000       12.0110           0
     21416 MEMB     83       SAPI     H14X     HAL2     0.900000E-01   1.00800           0
     21417 MEMB     83       SAPI     H14Y     HAL2     0.900000E-01   1.00800           0
     21418 MEMB     83       SAPI     C315     CTL2    -0.180000       12.0110           0
     21419 MEMB     83       SAPI     H15X     HAL2     0.900000E-01   1.00800           0
     21420 MEMB     83       SAPI     H15Y     HAL2     0.900000E-01   1.00800           0
     21421 MEMB     83       SAPI     C316     CTL2    -0.180000       12.0110           0
     21422 MEMB     83       SAPI     H16X     HAL2     0.900000E-01   1.00800           0
     21423 MEMB     83       SAPI     H16Y     HAL2     0.900000E-01   1.00800           0
     21424 MEMB     83       SAPI     C317     CTL2    -0.180000       12.0110           0
     21425 MEMB     83       SAPI     H17X     HAL2     0.900000E-01   1.00800           0
     21426 MEMB     83       SAPI     H17Y     HAL2     0.900000E-01   1.00800           0
     21427 MEMB     83       SAPI     C318     CTL3    -0.270000       12.0110           0
     21428 MEMB     83       SAPI     H18X     HAL3     0.900000E-01   1.00800           0
     21429 MEMB     83       SAPI     H18Y     HAL3     0.900000E-01   1.00800           0
     21430 MEMB     83       SAPI     H18Z     HAL3     0.900000E-01   1.00800           0
     21431 MEMB     160      SAPI     C12      CC3161   0.140000       12.0110           0
     21432 MEMB     160      SAPI     H2       HCA1     0.900000E-01   1.00800           0
     21433 MEMB     160      SAPI     O2       OC311   -0.650000       15.9994           0
     21434 MEMB     160      SAPI     HO2      HCP1     0.420000       1.00800           0
     21435 MEMB     160      SAPI     C13      CC3161   0.140000       12.0110           0
     21436 MEMB     160      SAPI     H3       HCA1     0.900000E-01   1.00800           0
     21437 MEMB     160      SAPI     O3       OC311   -0.650000       15.9994           0
     21438 MEMB     160      SAPI     HO3      HCP1     0.420000       1.00800           0
     21439 MEMB     160      SAPI     C14      CC3161   0.140000       12.0110           0
     21440 MEMB     160      SAPI     H4       HCA1     0.900000E-01   1.00800           0
     21441 MEMB     160      SAPI     O4       OC311   -0.650000       15.9994           0
     21442 MEMB     160      SAPI     HO4      HCP1     0.420000       1.00800           0
     21443 MEMB     160      SAPI     C15      CC3161   0.140000       12.0110           0
     21444 MEMB     160      SAPI     H5       HCA1     0.900000E-01   1.00800           0
     21445 MEMB     160      SAPI     O5       OC311   -0.650000       15.9994           0
     21446 MEMB     160      SAPI     HO5      HCP1     0.420000       1.00800           0
     21447 MEMB     160      SAPI     C16      CC3161   0.140000       12.0110           0
     21448 MEMB     160      SAPI     H6       HCA1     0.900000E-01   1.00800           0
     21449 MEMB     160      SAPI     O6       OC311   -0.650000       15.9994           0
     21450 MEMB     160      SAPI     HO6      HCP1     0.420000       1.00800           0
     21451 MEMB     160      SAPI     C11      CC3161  -0.800000E-01   12.0110           0
     21452 MEMB     160      SAPI     H1       HCA1     0.900000E-01   1.00800           0
     21453 MEMB     160      SAPI     P        PL       1.590000       30.9740           0
     21454 MEMB     160      SAPI     O13      O2L     -0.780000       15.9994           0
     21455 MEMB     160      SAPI     O14      O2L     -0.780000       15.9994           0
     21456 MEMB     160      SAPI     O12      OC30P   -0.570000       15.9994           0
     21457 MEMB     160      SAPI     O11      OSLP    -0.570000       15.9994           0
     21458 MEMB     160      SAPI     C1       CTL2    -0.800000E-01   12.0110           0
     21459 MEMB     160      SAPI     HA       HAL2     0.900000E-01   1.00800           0
     21460 MEMB     160      SAPI     HB       HAL2     0.900000E-01   1.00800           0
     21461 MEMB     160      SAPI     C2       CTL1     0.170000       12.0110           0
     21462 MEMB     160      SAPI     HS       HAL1     0.900000E-01   1.00800           0
     21463 MEMB     160      SAPI     O21      OSL     -0.490000       15.9994           0
     21464 MEMB     160      SAPI     C21      CL       0.900000       12.0110           0
     21465 MEMB     160      SAPI     O22      OBL     -0.630000       15.9994           0
     21466 MEMB     160      SAPI     C22      CTL2    -0.220000       12.0110           0
     21467 MEMB     160      SAPI     H2R      HAL2     0.900000E-01   1.00800           0
     21468 MEMB     160      SAPI     H2S      HAL2     0.900000E-01   1.00800           0
     21469 MEMB     160      SAPI     C3       CTL2     0.800000E-01   12.0110           0
     21470 MEMB     160      SAPI     HX       HAL2     0.900000E-01   1.00800           0
     21471 MEMB     160      SAPI     HY       HAL2     0.900000E-01   1.00800           0
     21472 MEMB     160      SAPI     O31      OSL     -0.490000       15.9994           0
     21473 MEMB     160      SAPI     C31      CL       0.900000       12.0110           0
     21474 MEMB     160      SAPI     O32      OBL     -0.630000       15.9994           0
     21475 MEMB     160      SAPI     C32      CTL2    -0.220000       12.0110           0
     21476 MEMB     160      SAPI     H2X      HAL2     0.900000E-01   1.00800           0
     21477 MEMB     160      SAPI     H2Y      HAL2     0.900000E-01   1.00800           0
     21478 MEMB     160      SAPI     C23      CTL2    -0.180000       12.0110           0
     21479 MEMB     160      SAPI     H3R      HAL2     0.900000E-01   1.00800           0
     21480 MEMB     160      SAPI     H3S      HAL2     0.900000E-01   1.00800           0
     21481 MEMB     160      SAPI     C24      CTL2    -0.180000       12.0110           0
     21482 MEMB     160      SAPI     H4R      HAL2     0.900000E-01   1.00800           0
     21483 MEMB     160      SAPI     H4S      HAL2     0.900000E-01   1.00800           0
     21484 MEMB     160      SAPI     C25      CEL1    -0.150000       12.0110           0
     21485 MEMB     160      SAPI     H5R      HEL1     0.150000       1.00800           0
     21486 MEMB     160      SAPI     C26      CEL1    -0.150000       12.0110           0
     21487 MEMB     160      SAPI     H6R      HEL1     0.150000       1.00800           0
     21488 MEMB     160      SAPI     C27      CTL2    -0.180000       12.0110           0
     21489 MEMB     160      SAPI     H7R      HAL2     0.900000E-01   1.00800           0
     21490 MEMB     160      SAPI     H7S      HAL2     0.900000E-01   1.00800           0
     21491 MEMB     160      SAPI     C28      CEL1    -0.150000       12.0110           0
     21492 MEMB     160      SAPI     H8R      HEL1     0.150000       1.00800           0
     21493 MEMB     160      SAPI     C29      CEL1    -0.150000       12.0110           0
     21494 MEMB     160      SAPI     H9R      HEL1     0.150000       1.00800           0
     21495 MEMB     160      SAPI     C210     CTL2    -0.180000       12.0110           0
     21496 MEMB     160      SAPI     H10R     HAL2     0.900000E-01   1.00800           0
     21497 MEMB     160      SAPI     H10S     HAL2     0.900000E-01   1.00800           0
     21498 MEMB     160      SAPI     C211     CEL1    -0.150000       12.0110           0
     21499 MEMB     160      SAPI     H11R     HEL1     0.150000       1.00800           0
     21500 MEMB     160      SAPI     C212     CEL1    -0.150000       12.0110           0
     21501 MEMB     160      SAPI     H12R     HEL1     0.150000       1.00800           0
     21502 MEMB     160      SAPI     C213     CTL2    -0.180000       12.0110           0
     21503 MEMB     160      SAPI     H13R     HAL2     0.900000E-01   1.00800           0
     21504 MEMB     160      SAPI     H13S     HAL2     0.900000E-01   1.00800           0
     21505 MEMB     160      SAPI     C214     CEL1    -0.150000       12.0110           0
     21506 MEMB     160      SAPI     H14R     HEL1     0.150000       1.00800           0
     21507 MEMB     160      SAPI     C215     CEL1    -0.150000       12.0110           0
     21508 MEMB     160      SAPI     H15R     HEL1     0.150000       1.00800           0
     21509 MEMB     160      SAPI     C216     CTL2    -0.180000       12.0110           0
     21510 MEMB     160      SAPI     H16R     HAL2     0.900000E-01   1.00800           0
     21511 MEMB     160      SAPI     H16S     HAL2     0.900000E-01   1.00800           0
     21512 MEMB     160      SAPI     C217     CTL2    -0.180000       12.0110           0
     21513 MEMB     160      SAPI     H17R     HAL2     0.900000E-01   1.00800           0
     21514 MEMB     160      SAPI     H17S     HAL2     0.900000E-01   1.00800           0
     21515 MEMB     160      SAPI     C218     CTL2    -0.180000       12.0110           0
     21516 MEMB     160      SAPI     H18R     HAL2     0.900000E-01   1.00800           0
     21517 MEMB     160      SAPI     H18S     HAL2     0.900000E-01   1.00800           0
     21518 MEMB     160      SAPI     C219     CTL2    -0.180000       12.0110           0
     21519 MEMB     160      SAPI     H19R     HAL2     0.900000E-01   1.00800           0
     21520 MEMB     160      SAPI     H19S     HAL2     0.900000E-01   1.00800           0
     21521 MEMB     160      SAPI     C220     CTL3    -0.270000       12.0110           0
     21522 MEMB     160      SAPI     H20R     HAL3     0.900000E-01   1.00800           0
     21523 MEMB     160      SAPI     H20S     HAL3     0.900000E-01   1.00800           0
     21524 MEMB     160      SAPI     H20T     HAL3     0.900000E-01   1.00800           0
     21525 MEMB     160      SAPI     C33      CTL2    -0.180000       12.0110           0
     21526 MEMB     160      SAPI     H3X      HAL2     0.900000E-01   1.00800           0
     21527 MEMB     160      SAPI     H3Y      HAL2     0.900000E-01   1.00800           0
     21528 MEMB     160      SAPI     C34      CTL2    -0.180000       12.0110           0
     21529 MEMB     160      SAPI     H4X      HAL2     0.900000E-01   1.00800           0
     21530 MEMB     160      SAPI     H4Y      HAL2     0.900000E-01   1.00800           0
     21531 MEMB     160      SAPI     C35      CTL2    -0.180000       12.0110           0
     21532 MEMB     160      SAPI     H5X      HAL2     0.900000E-01   1.00800           0
     21533 MEMB     160      SAPI     H5Y      HAL2     0.900000E-01   1.00800           0
     21534 MEMB     160      SAPI     C36      CTL2    -0.180000       12.0110           0
     21535 MEMB     160      SAPI     H6X      HAL2     0.900000E-01   1.00800           0
     21536 MEMB     160      SAPI     H6Y      HAL2     0.900000E-01   1.00800           0
     21537 MEMB     160      SAPI     C37      CTL2    -0.180000       12.0110           0
     21538 MEMB     160      SAPI     H7X      HAL2     0.900000E-01   1.00800           0
     21539 MEMB     160      SAPI     H7Y      HAL2     0.900000E-01   1.00800           0
     21540 MEMB     160      SAPI     C38      CTL2    -0.180000       12.0110           0
     21541 MEMB     160      SAPI     H8X      HAL2     0.900000E-01   1.00800           0
     21542 MEMB     160      SAPI     H8Y      HAL2     0.900000E-01   1.00800           0
     21543 MEMB     160      SAPI     C39      CTL2    -0.180000       12.0110           0
     21544 MEMB     160      SAPI     H9X      HAL2     0.900000E-01   1.00800           0
     21545 MEMB     160      SAPI     H9Y      HAL2     0.900000E-01   1.00800           0
     21546 MEMB     160      SAPI     C310     CTL2    -0.180000       12.0110           0
     21547 MEMB     160      SAPI     H10X     HAL2     0.900000E-01   1.00800           0
     21548 MEMB     160      SAPI     H10Y     HAL2     0.900000E-01   1.00800           0
     21549 MEMB     160      SAPI     C311     CTL2    -0.180000       12.0110           0
     21550 MEMB     160      SAPI     H11X     HAL2     0.900000E-01   1.00800           0
     21551 MEMB     160      SAPI     H11Y     HAL2     0.900000E-01   1.00800           0
     21552 MEMB     160      SAPI     C312     CTL2    -0.180000       12.0110           0
     21553 MEMB     160      SAPI     H12X     HAL2     0.900000E-01   1.00800           0
     21554 MEMB     160      SAPI     H12Y     HAL2     0.900000E-01   1.00800           0
     21555 MEMB     160      SAPI     C313     CTL2    -0.180000       12.0110           0
     21556 MEMB     160      SAPI     H13X     HAL2     0.900000E-01   1.00800           0
     21557 MEMB     160      SAPI     H13Y     HAL2     0.900000E-01   1.00800           0
     21558 MEMB     160      SAPI     C314     CTL2    -0.180000       12.0110           0
     21559 MEMB     160      SAPI     H14X     HAL2     0.900000E-01   1.00800           0
     21560 MEMB     160      SAPI     H14Y     HAL2     0.900000E-01   1.00800           0
     21561 MEMB     160      SAPI     C315     CTL2    -0.180000       12.0110           0
     21562 MEMB     160      SAPI     H15X     HAL2     0.900000E-01   1.00800           0
     21563 MEMB     160      SAPI     H15Y     HAL2     0.900000E-01   1.00800           0
     21564 MEMB     160      SAPI     C316     CTL2    -0.180000       12.0110           0
     21565 MEMB     160      SAPI     H16X     HAL2     0.900000E-01   1.00800           0
     21566 MEMB     160      SAPI     H16Y     HAL2     0.900000E-01   1.00800           0
     21567 MEMB     160      SAPI     C317     CTL2    -0.180000       12.0110           0
     21568 MEMB     160      SAPI     H17X     HAL2     0.900000E-01   1.00800           0
     21569 MEMB     160      SAPI     H17Y     HAL2     0.900000E-01   1.00800           0
     21570 MEMB     160      SAPI     C318     CTL3    -0.270000       12.0110           0
     21571 MEMB     160      SAPI     H18X     HAL3     0.900000E-01   1.00800           0
     21572 MEMB     160      SAPI     H18Y     HAL3     0.900000E-01   1.00800           0
     21573 MEMB     160      SAPI     H18Z     HAL3     0.900000E-01   1.00800           0
     21574 MEMB     161      SAPI     C12      CC3161   0.140000       12.0110           0
     21575 MEMB     161      SAPI     H2       HCA1     0.900000E-01   1.00800           0
     21576 MEMB     161      SAPI     O2       OC311   -0.650000       15.9994           0
     21577 MEMB     161      SAPI     HO2      HCP1     0.420000       1.00800           0
     21578 MEMB     161      SAPI     C13      CC3161   0.140000       12.0110           0
     21579 MEMB     161      SAPI     H3       HCA1     0.900000E-01   1.00800           0
     21580 MEMB     161      SAPI     O3       OC311   -0.650000       15.9994           0
     21581 MEMB     161      SAPI     HO3      HCP1     0.420000       1.00800           0
     21582 MEMB     161      SAPI     C14      CC3161   0.140000       12.0110           0
     21583 MEMB     161      SAPI     H4       HCA1     0.900000E-01   1.00800           0
     21584 MEMB     161      SAPI     O4       OC311   -0.650000       15.9994           0
     21585 MEMB     161      SAPI     HO4      HCP1     0.420000       1.00800           0
     21586 MEMB     161      SAPI     C15      CC3161   0.140000       12.0110           0
     21587 MEMB     161      SAPI     H5       HCA1     0.900000E-01   1.00800           0
     21588 MEMB     161      SAPI     O5       OC311   -0.650000       15.9994           0
     21589 MEMB     161      SAPI     HO5      HCP1     0.420000       1.00800           0
     21590 MEMB     161      SAPI     C16      CC3161   0.140000       12.0110           0
     21591 MEMB     161      SAPI     H6       HCA1     0.900000E-01   1.00800           0
     21592 MEMB     161      SAPI     O6       OC311   -0.650000       15.9994           0
     21593 MEMB     161      SAPI     HO6      HCP1     0.420000       1.00800           0
     21594 MEMB     161      SAPI     C11      CC3161  -0.800000E-01   12.0110           0
     21595 MEMB     161      SAPI     H1       HCA1     0.900000E-01   1.00800           0
     21596 MEMB     161      SAPI     P        PL       1.590000       30.9740           0
     21597 MEMB     161      SAPI     O13      O2L     -0.780000       15.9994           0
     21598 MEMB     161      SAPI     O14      O2L     -0.780000       15.9994           0
     21599 MEMB     161      SAPI     O12      OC30P   -0.570000       15.9994           0
     21600 MEMB     161      SAPI     O11      OSLP    -0.570000       15.9994           0
     21601 MEMB     161      SAPI     C1       CTL2    -0.800000E-01   12.0110           0
     21602 MEMB     161      SAPI     HA       HAL2     0.900000E-01   1.00800           0
     21603 MEMB     161      SAPI     HB       HAL2     0.900000E-01   1.00800           0
     21604 MEMB     161      SAPI     C2       CTL1     0.170000       12.0110           0
     21605 MEMB     161      SAPI     HS       HAL1     0.900000E-01   1.00800           0
     21606 MEMB     161      SAPI     O21      OSL     -0.490000       15.9994           0
     21607 MEMB     161      SAPI     C21      CL       0.900000       12.0110           0
     21608 MEMB     161      SAPI     O22      OBL     -0.630000       15.9994           0
     21609 MEMB     161      SAPI     C22      CTL2    -0.220000       12.0110           0
     21610 MEMB     161      SAPI     H2R      HAL2     0.900000E-01   1.00800           0
     21611 MEMB     161      SAPI     H2S      HAL2     0.900000E-01   1.00800           0
     21612 MEMB     161      SAPI     C3       CTL2     0.800000E-01   12.0110           0
     21613 MEMB     161      SAPI     HX       HAL2     0.900000E-01   1.00800           0
     21614 MEMB     161      SAPI     HY       HAL2     0.900000E-01   1.00800           0
     21615 MEMB     161      SAPI     O31      OSL     -0.490000       15.9994           0
     21616 MEMB     161      SAPI     C31      CL       0.900000       12.0110           0
     21617 MEMB     161      SAPI     O32      OBL     -0.630000       15.9994           0
     21618 MEMB     161      SAPI     C32      CTL2    -0.220000       12.0110           0
     21619 MEMB     161      SAPI     H2X      HAL2     0.900000E-01   1.00800           0
     21620 MEMB     161      SAPI     H2Y      HAL2     0.900000E-01   1.00800           0
     21621 MEMB     161      SAPI     C23      CTL2    -0.180000       12.0110           0
     21622 MEMB     161      SAPI     H3R      HAL2     0.900000E-01   1.00800           0
     21623 MEMB     161      SAPI     H3S      HAL2     0.900000E-01   1.00800           0
     21624 MEMB     161      SAPI     C24      CTL2    -0.180000       12.0110           0
     21625 MEMB     161      SAPI     H4R      HAL2     0.900000E-01   1.00800           0
     21626 MEMB     161      SAPI     H4S      HAL2     0.900000E-01   1.00800           0
     21627 MEMB     161      SAPI     C25      CEL1    -0.150000       12.0110           0
     21628 MEMB     161      SAPI     H5R      HEL1     0.150000       1.00800           0
     21629 MEMB     161      SAPI     C26      CEL1    -0.150000       12.0110           0
     21630 MEMB     161      SAPI     H6R      HEL1     0.150000       1.00800           0
     21631 MEMB     161      SAPI     C27      CTL2    -0.180000       12.0110           0
     21632 MEMB     161      SAPI     H7R      HAL2     0.900000E-01   1.00800           0
     21633 MEMB     161      SAPI     H7S      HAL2     0.900000E-01   1.00800           0
     21634 MEMB     161      SAPI     C28      CEL1    -0.150000       12.0110           0
     21635 MEMB     161      SAPI     H8R      HEL1     0.150000       1.00800           0
     21636 MEMB     161      SAPI     C29      CEL1    -0.150000       12.0110           0
     21637 MEMB     161      SAPI     H9R      HEL1     0.150000       1.00800           0
     21638 MEMB     161      SAPI     C210     CTL2    -0.180000       12.0110           0
     21639 MEMB     161      SAPI     H10R     HAL2     0.900000E-01   1.00800           0
     21640 MEMB     161      SAPI     H10S     HAL2     0.900000E-01   1.00800           0
     21641 MEMB     161      SAPI     C211     CEL1    -0.150000       12.0110           0
     21642 MEMB     161      SAPI     H11R     HEL1     0.150000       1.00800           0
     21643 MEMB     161      SAPI     C212     CEL1    -0.150000       12.0110           0
     21644 MEMB     161      SAPI     H12R     HEL1     0.150000       1.00800           0
     21645 MEMB     161      SAPI     C213     CTL2    -0.180000       12.0110           0
     21646 MEMB     161      SAPI     H13R     HAL2     0.900000E-01   1.00800           0
     21647 MEMB     161      SAPI     H13S     HAL2     0.900000E-01   1.00800           0
     21648 MEMB     161      SAPI     C214     CEL1    -0.150000       12.0110           0
     21649 MEMB     161      SAPI     H14R     HEL1     0.150000       1.00800           0
     21650 MEMB     161      SAPI     C215     CEL1    -0.150000       12.0110           0
     21651 MEMB     161      SAPI     H15R     HEL1     0.150000       1.00800           0
     21652 MEMB     161      SAPI     C216     CTL2    -0.180000       12.0110           0
     21653 MEMB     161      SAPI     H16R     HAL2     0.900000E-01   1.00800           0
     21654 MEMB     161      SAPI     H16S     HAL2     0.900000E-01   1.00800           0
     21655 MEMB     161      SAPI     C217     CTL2    -0.180000       12.0110           0
     21656 MEMB     161      SAPI     H17R     HAL2     0.900000E-01   1.00800           0
     21657 MEMB     161      SAPI     H17S     HAL2     0.900000E-01   1.00800           0
     21658 MEMB     161      SAPI     C218     CTL2    -0.180000       12.0110           0
     21659 MEMB     161      SAPI     H18R     HAL2     0.900000E-01   1.00800           0
     21660 MEMB     161      SAPI     H18S     HAL2     0.900000E-01   1.00800           0
     21661 MEMB     161      SAPI     C219     CTL2    -0.180000       12.0110           0
     21662 MEMB     161      SAPI     H19R     HAL2     0.900000E-01   1.00800           0
     21663 MEMB     161      SAPI     H19S     HAL2     0.900000E-01   1.00800           0
     21664 MEMB     161      SAPI     C220     CTL3    -0.270000       12.0110           0
     21665 MEMB     161      SAPI     H20R     HAL3     0.900000E-01   1.00800           0
     21666 MEMB     161      SAPI     H20S     HAL3     0.900000E-01   1.00800           0
     21667 MEMB     161      SAPI     H20T     HAL3     0.900000E-01   1.00800           0
     21668 MEMB     161      SAPI     C33      CTL2    -0.180000       12.0110           0
     21669 MEMB     161      SAPI     H3X      HAL2     0.900000E-01   1.00800           0
     21670 MEMB     161      SAPI     H3Y      HAL2     0.900000E-01   1.00800           0
     21671 MEMB     161      SAPI     C34      CTL2    -0.180000       12.0110           0
     21672 MEMB     161      SAPI     H4X      HAL2     0.900000E-01   1.00800           0
     21673 MEMB     161      SAPI     H4Y      HAL2     0.900000E-01   1.00800           0
     21674 MEMB     161      SAPI     C35      CTL2    -0.180000       12.0110           0
     21675 MEMB     161      SAPI     H5X      HAL2     0.900000E-01   1.00800           0
     21676 MEMB     161      SAPI     H5Y      HAL2     0.900000E-01   1.00800           0
     21677 MEMB     161      SAPI     C36      CTL2    -0.180000       12.0110           0
     21678 MEMB     161      SAPI     H6X      HAL2     0.900000E-01   1.00800           0
     21679 MEMB     161      SAPI     H6Y      HAL2     0.900000E-01   1.00800           0
     21680 MEMB     161      SAPI     C37      CTL2    -0.180000       12.0110           0
     21681 MEMB     161      SAPI     H7X      HAL2     0.900000E-01   1.00800           0
     21682 MEMB     161      SAPI     H7Y      HAL2     0.900000E-01   1.00800           0
     21683 MEMB     161      SAPI     C38      CTL2    -0.180000       12.0110           0
     21684 MEMB     161      SAPI     H8X      HAL2     0.900000E-01   1.00800           0
     21685 MEMB     161      SAPI     H8Y      HAL2     0.900000E-01   1.00800           0
     21686 MEMB     161      SAPI     C39      CTL2    -0.180000       12.0110           0
     21687 MEMB     161      SAPI     H9X      HAL2     0.900000E-01   1.00800           0
     21688 MEMB     161      SAPI     H9Y      HAL2     0.900000E-01   1.00800           0
     21689 MEMB     161      SAPI     C310     CTL2    -0.180000       12.0110           0
     21690 MEMB     161      SAPI     H10X     HAL2     0.900000E-01   1.00800           0
     21691 MEMB     161      SAPI     H10Y     HAL2     0.900000E-01   1.00800           0
     21692 MEMB     161      SAPI     C311     CTL2    -0.180000       12.0110           0
     21693 MEMB     161      SAPI     H11X     HAL2     0.900000E-01   1.00800           0
     21694 MEMB     161      SAPI     H11Y     HAL2     0.900000E-01   1.00800           0
     21695 MEMB     161      SAPI     C312     CTL2    -0.180000       12.0110           0
     21696 MEMB     161      SAPI     H12X     HAL2     0.900000E-01   1.00800           0
     21697 MEMB     161      SAPI     H12Y     HAL2     0.900000E-01   1.00800           0
     21698 MEMB     161      SAPI     C313     CTL2    -0.180000       12.0110           0
     21699 MEMB     161      SAPI     H13X     HAL2     0.900000E-01   1.00800           0
     21700 MEMB     161      SAPI     H13Y     HAL2     0.900000E-01   1.00800           0
     21701 MEMB     161      SAPI     C314     CTL2    -0.180000       12.0110           0
     21702 MEMB     161      SAPI     H14X     HAL2     0.900000E-01   1.00800           0
     21703 MEMB     161      SAPI     H14Y     HAL2     0.900000E-01   1.00800           0
     21704 MEMB     161      SAPI     C315     CTL2    -0.180000       12.0110           0
     21705 MEMB     161      SAPI     H15X     HAL2     0.900000E-01   1.00800           0
     21706 MEMB     161      SAPI     H15Y     HAL2     0.900000E-01   1.00800           0
     21707 MEMB     161      SAPI     C316     CTL2    -0.180000       12.0110           0
     21708 MEMB     161      SAPI     H16X     HAL2     0.900000E-01   1.00800           0
     21709 MEMB     161      SAPI     H16Y     HAL2     0.900000E-01   1.00800           0
     21710 MEMB     161      SAPI     C317     CTL2    -0.180000       12.0110           0
     21711 MEMB     161      SAPI     H17X     HAL2     0.900000E-01   1.00800           0
     21712 MEMB     161      SAPI     H17Y     HAL2     0.900000E-01   1.00800           0
     21713 MEMB     161      SAPI     C318     CTL3    -0.270000       12.0110           0
     21714 MEMB     161      SAPI     H18X     HAL3     0.900000E-01   1.00800           0
     21715 MEMB     161      SAPI     H18Y     HAL3     0.900000E-01   1.00800           0
     21716 MEMB     161      SAPI     H18Z     HAL3     0.900000E-01   1.00800           0
     21717 MEMB     48       POPC     N        NTL     -0.600000       14.0070           0
     21718 MEMB     48       POPC     C12      CTL2    -0.100000       12.0110           0
     21719 MEMB     48       POPC     H12A     HL       0.250000       1.00800           0
     21720 MEMB     48       POPC     H12B     HL       0.250000       1.00800           0
     21721 MEMB     48       POPC     C13      CTL5    -0.350000       12.0110           0
     21722 MEMB     48       POPC     H13A     HL       0.250000       1.00800           0
     21723 MEMB     48       POPC     H13B     HL       0.250000       1.00800           0
     21724 MEMB     48       POPC     H13C     HL       0.250000       1.00800           0
     21725 MEMB     48       POPC     C14      CTL5    -0.350000       12.0110           0
     21726 MEMB     48       POPC     H14A     HL       0.250000       1.00800           0
     21727 MEMB     48       POPC     H14B     HL       0.250000       1.00800           0
     21728 MEMB     48       POPC     H14C     HL       0.250000       1.00800           0
     21729 MEMB     48       POPC     C15      CTL5    -0.350000       12.0110           0
     21730 MEMB     48       POPC     H15A     HL       0.250000       1.00800           0
     21731 MEMB     48       POPC     H15B     HL       0.250000       1.00800           0
     21732 MEMB     48       POPC     H15C     HL       0.250000       1.00800           0
     21733 MEMB     48       POPC     C11      CTL2    -0.800000E-01   12.0110           0
     21734 MEMB     48       POPC     H11A     HAL2     0.900000E-01   1.00800           0
     21735 MEMB     48       POPC     H11B     HAL2     0.900000E-01   1.00800           0
     21736 MEMB     48       POPC     P        PL       1.500000       30.9740           0
     21737 MEMB     48       POPC     O13      O2L     -0.780000       15.9994           0
     21738 MEMB     48       POPC     O14      O2L     -0.780000       15.9994           0
     21739 MEMB     48       POPC     O12      OSLP    -0.570000       15.9994           0
     21740 MEMB     48       POPC     O11      OSLP    -0.570000       15.9994           0
     21741 MEMB     48       POPC     C1       CTL2    -0.800000E-01   12.0110           0
     21742 MEMB     48       POPC     HA       HAL2     0.900000E-01   1.00800           0
     21743 MEMB     48       POPC     HB       HAL2     0.900000E-01   1.00800           0
     21744 MEMB     48       POPC     C2       CTL1     0.170000       12.0110           0
     21745 MEMB     48       POPC     HS       HAL1     0.900000E-01   1.00800           0
     21746 MEMB     48       POPC     O21      OSL     -0.490000       15.9994           0
     21747 MEMB     48       POPC     C21      CL       0.900000       12.0110           0
     21748 MEMB     48       POPC     O22      OBL     -0.630000       15.9994           0
     21749 MEMB     48       POPC     C22      CTL2    -0.220000       12.0110           0
     21750 MEMB     48       POPC     H2R      HAL2     0.900000E-01   1.00800           0
     21751 MEMB     48       POPC     H2S      HAL2     0.900000E-01   1.00800           0
     21752 MEMB     48       POPC     C3       CTL2     0.800000E-01   12.0110           0
     21753 MEMB     48       POPC     HX       HAL2     0.900000E-01   1.00800           0
     21754 MEMB     48       POPC     HY       HAL2     0.900000E-01   1.00800           0
     21755 MEMB     48       POPC     O31      OSL     -0.490000       15.9994           0
     21756 MEMB     48       POPC     C31      CL       0.900000       12.0110           0
     21757 MEMB     48       POPC     O32      OBL     -0.630000       15.9994           0
     21758 MEMB     48       POPC     C32      CTL2    -0.220000       12.0110           0
     21759 MEMB     48       POPC     H2X      HAL2     0.900000E-01   1.00800           0
     21760 MEMB     48       POPC     H2Y      HAL2     0.900000E-01   1.00800           0
     21761 MEMB     48       POPC     C23      CTL2    -0.180000       12.0110           0
     21762 MEMB     48       POPC     H3R      HAL2     0.900000E-01   1.00800           0
     21763 MEMB     48       POPC     H3S      HAL2     0.900000E-01   1.00800           0
     21764 MEMB     48       POPC     C24      CTL2    -0.180000       12.0110           0
     21765 MEMB     48       POPC     H4R      HAL2     0.900000E-01   1.00800           0
     21766 MEMB     48       POPC     H4S      HAL2     0.900000E-01   1.00800           0
     21767 MEMB     48       POPC     C25      CTL2    -0.180000       12.0110           0
     21768 MEMB     48       POPC     H5R      HAL2     0.900000E-01   1.00800           0
     21769 MEMB     48       POPC     H5S      HAL2     0.900000E-01   1.00800           0
     21770 MEMB     48       POPC     C26      CTL2    -0.180000       12.0110           0
     21771 MEMB     48       POPC     H6R      HAL2     0.900000E-01   1.00800           0
     21772 MEMB     48       POPC     H6S      HAL2     0.900000E-01   1.00800           0
     21773 MEMB     48       POPC     C27      CTL2    -0.180000       12.0110           0
     21774 MEMB     48       POPC     H7R      HAL2     0.900000E-01   1.00800           0
     21775 MEMB     48       POPC     H7S      HAL2     0.900000E-01   1.00800           0
     21776 MEMB     48       POPC     C28      CTL2    -0.180000       12.0110           0
     21777 MEMB     48       POPC     H8R      HAL2     0.900000E-01   1.00800           0
     21778 MEMB     48       POPC     H8S      HAL2     0.900000E-01   1.00800           0
     21779 MEMB     48       POPC     C29      CEL1    -0.150000       12.0110           0
     21780 MEMB     48       POPC     H91      HEL1     0.150000       1.00800           0
     21781 MEMB     48       POPC     C210     CEL1    -0.150000       12.0110           0
     21782 MEMB     48       POPC     H101     HEL1     0.150000       1.00800           0
     21783 MEMB     48       POPC     C211     CTL2    -0.180000       12.0110           0
     21784 MEMB     48       POPC     H11R     HAL2     0.900000E-01   1.00800           0
     21785 MEMB     48       POPC     H11S     HAL2     0.900000E-01   1.00800           0
     21786 MEMB     48       POPC     C212     CTL2    -0.180000       12.0110           0
     21787 MEMB     48       POPC     H12R     HAL2     0.900000E-01   1.00800           0
     21788 MEMB     48       POPC     H12S     HAL2     0.900000E-01   1.00800           0
     21789 MEMB     48       POPC     C213     CTL2    -0.180000       12.0110           0
     21790 MEMB     48       POPC     H13R     HAL2     0.900000E-01   1.00800           0
     21791 MEMB     48       POPC     H13S     HAL2     0.900000E-01   1.00800           0
     21792 MEMB     48       POPC     C214     CTL2    -0.180000       12.0110           0
     21793 MEMB     48       POPC     H14R     HAL2     0.900000E-01   1.00800           0
     21794 MEMB     48       POPC     H14S     HAL2     0.900000E-01   1.00800           0
     21795 MEMB     48       POPC     C215     CTL2    -0.180000       12.0110           0
     21796 MEMB     48       POPC     H15R     HAL2     0.900000E-01   1.00800           0
     21797 MEMB     48       POPC     H15S     HAL2     0.900000E-01   1.00800           0
     21798 MEMB     48       POPC     C216     CTL2    -0.180000       12.0110           0
     21799 MEMB     48       POPC     H16R     HAL2     0.900000E-01   1.00800           0
     21800 MEMB     48       POPC     H16S     HAL2     0.900000E-01   1.00800           0
     21801 MEMB     48       POPC     C217     CTL2    -0.180000       12.0110           0
     21802 MEMB     48       POPC     H17R     HAL2     0.900000E-01   1.00800           0
     21803 MEMB     48       POPC     H17S     HAL2     0.900000E-01   1.00800           0
     21804 MEMB     48       POPC     C218     CTL3    -0.270000       12.0110           0
     21805 MEMB     48       POPC     H18R     HAL3     0.900000E-01   1.00800           0
     21806 MEMB     48       POPC     H18S     HAL3     0.900000E-01   1.00800           0
     21807 MEMB     48       POPC     H18T     HAL3     0.900000E-01   1.00800           0
     21808 MEMB     48       POPC     C33      CTL2    -0.180000       12.0110           0
     21809 MEMB     48       POPC     H3X      HAL2     0.900000E-01   1.00800           0
     21810 MEMB     48       POPC     H3Y      HAL2     0.900000E-01   1.00800           0
     21811 MEMB     48       POPC     C34      CTL2    -0.180000       12.0110           0
     21812 MEMB     48       POPC     H4X      HAL2     0.900000E-01   1.00800           0
     21813 MEMB     48       POPC     H4Y      HAL2     0.900000E-01   1.00800           0
     21814 MEMB     48       POPC     C35      CTL2    -0.180000       12.0110           0
     21815 MEMB     48       POPC     H5X      HAL2     0.900000E-01   1.00800           0
     21816 MEMB     48       POPC     H5Y      HAL2     0.900000E-01   1.00800           0
     21817 MEMB     48       POPC     C36      CTL2    -0.180000       12.0110           0
     21818 MEMB     48       POPC     H6X      HAL2     0.900000E-01   1.00800           0
     21819 MEMB     48       POPC     H6Y      HAL2     0.900000E-01   1.00800           0
     21820 MEMB     48       POPC     C37      CTL2    -0.180000       12.0110           0
     21821 MEMB     48       POPC     H7X      HAL2     0.900000E-01   1.00800           0
     21822 MEMB     48       POPC     H7Y      HAL2     0.900000E-01   1.00800           0
     21823 MEMB     48       POPC     C38      CTL2    -0.180000       12.0110           0
     21824 MEMB     48       POPC     H8X      HAL2     0.900000E-01   1.00800           0
     21825 MEMB     48       POPC     H8Y      HAL2     0.900000E-01   1.00800           0
     21826 MEMB     48       POPC     C39      CTL2    -0.180000       12.0110           0
     21827 MEMB     48       POPC     H9X      HAL2     0.900000E-01   1.00800           0
     21828 MEMB     48       POPC     H9Y      HAL2     0.900000E-01   1.00800           0
     21829 MEMB     48       POPC     C310     CTL2    -0.180000       12.0110           0
     21830 MEMB     48       POPC     H10X     HAL2     0.900000E-01   1.00800           0
     21831 MEMB     48       POPC     H10Y     HAL2     0.900000E-01   1.00800           0
     21832 MEMB     48       POPC     C311     CTL2    -0.180000       12.0110           0
     21833 MEMB     48       POPC     H11X     HAL2     0.900000E-01   1.00800           0
     21834 MEMB     48       POPC     H11Y     HAL2     0.900000E-01   1.00800           0
     21835 MEMB     48       POPC     C312     CTL2    -0.180000       12.0110           0
     21836 MEMB     48       POPC     H12X     HAL2     0.900000E-01   1.00800           0
     21837 MEMB     48       POPC     H12Y     HAL2     0.900000E-01   1.00800           0
     21838 MEMB     48       POPC     C313     CTL2    -0.180000       12.0110           0
     21839 MEMB     48       POPC     H13X     HAL2     0.900000E-01   1.00800           0
     21840 MEMB     48       POPC     H13Y     HAL2     0.900000E-01   1.00800           0
     21841 MEMB     48       POPC     C314     CTL2    -0.180000       12.0110           0
     21842 MEMB     48       POPC     H14X     HAL2     0.900000E-01   1.00800           0
     21843 MEMB     48       POPC     H14Y     HAL2     0.900000E-01   1.00800           0
     21844 MEMB     48       POPC     C315     CTL2    -0.180000       12.0110           0
     21845 MEMB     48       POPC     H15X     HAL2     0.900000E-01   1.00800           0
     21846 MEMB     48       POPC     H15Y     HAL2     0.900000E-01   1.00800           0
     21847 MEMB     48       POPC     C316     CTL3    -0.270000       12.0110           0
     21848 MEMB     48       POPC     H16X     HAL3     0.900000E-01   1.00800           0
     21849 MEMB     48       POPC     H16Y     HAL3     0.900000E-01   1.00800           0
     21850 MEMB     48       POPC     H16Z     HAL3     0.900000E-01   1.00800           0
     21851 MEMB     54       POPC     N        NTL     -0.600000       14.0070           0
     21852 MEMB     54       POPC     C12      CTL2    -0.100000       12.0110           0
     21853 MEMB     54       POPC     H12A     HL       0.250000       1.00800           0
     21854 MEMB     54       POPC     H12B     HL       0.250000       1.00800           0
     21855 MEMB     54       POPC     C13      CTL5    -0.350000       12.0110           0
     21856 MEMB     54       POPC     H13A     HL       0.250000       1.00800           0
     21857 MEMB     54       POPC     H13B     HL       0.250000       1.00800           0
     21858 MEMB     54       POPC     H13C     HL       0.250000       1.00800           0
     21859 MEMB     54       POPC     C14      CTL5    -0.350000       12.0110           0
     21860 MEMB     54       POPC     H14A     HL       0.250000       1.00800           0
     21861 MEMB     54       POPC     H14B     HL       0.250000       1.00800           0
     21862 MEMB     54       POPC     H14C     HL       0.250000       1.00800           0
     21863 MEMB     54       POPC     C15      CTL5    -0.350000       12.0110           0
     21864 MEMB     54       POPC     H15A     HL       0.250000       1.00800           0
     21865 MEMB     54       POPC     H15B     HL       0.250000       1.00800           0
     21866 MEMB     54       POPC     H15C     HL       0.250000       1.00800           0
     21867 MEMB     54       POPC     C11      CTL2    -0.800000E-01   12.0110           0
     21868 MEMB     54       POPC     H11A     HAL2     0.900000E-01   1.00800           0
     21869 MEMB     54       POPC     H11B     HAL2     0.900000E-01   1.00800           0
     21870 MEMB     54       POPC     P        PL       1.500000       30.9740           0
     21871 MEMB     54       POPC     O13      O2L     -0.780000       15.9994           0
     21872 MEMB     54       POPC     O14      O2L     -0.780000       15.9994           0
     21873 MEMB     54       POPC     O12      OSLP    -0.570000       15.9994           0
     21874 MEMB     54       POPC     O11      OSLP    -0.570000       15.9994           0
     21875 MEMB     54       POPC     C1       CTL2    -0.800000E-01   12.0110           0
     21876 MEMB     54       POPC     HA       HAL2     0.900000E-01   1.00800           0
     21877 MEMB     54       POPC     HB       HAL2     0.900000E-01   1.00800           0
     21878 MEMB     54       POPC     C2       CTL1     0.170000       12.0110           0
     21879 MEMB     54       POPC     HS       HAL1     0.900000E-01   1.00800           0
     21880 MEMB     54       POPC     O21      OSL     -0.490000       15.9994           0
     21881 MEMB     54       POPC     C21      CL       0.900000       12.0110           0
     21882 MEMB     54       POPC     O22      OBL     -0.630000       15.9994           0
     21883 MEMB     54       POPC     C22      CTL2    -0.220000       12.0110           0
     21884 MEMB     54       POPC     H2R      HAL2     0.900000E-01   1.00800           0
     21885 MEMB     54       POPC     H2S      HAL2     0.900000E-01   1.00800           0
     21886 MEMB     54       POPC     C3       CTL2     0.800000E-01   12.0110           0
     21887 MEMB     54       POPC     HX       HAL2     0.900000E-01   1.00800           0
     21888 MEMB     54       POPC     HY       HAL2     0.900000E-01   1.00800           0
     21889 MEMB     54       POPC     O31      OSL     -0.490000       15.9994           0
     21890 MEMB     54       POPC     C31      CL       0.900000       12.0110           0
     21891 MEMB     54       POPC     O32      OBL     -0.630000       15.9994           0
     21892 MEMB     54       POPC     C32      CTL2    -0.220000       12.0110           0
     21893 MEMB     54       POPC     H2X      HAL2     0.900000E-01   1.00800           0
     21894 MEMB     54       POPC     H2Y      HAL2     0.900000E-01   1.00800           0
     21895 MEMB     54       POPC     C23      CTL2    -0.180000       12.0110           0
     21896 MEMB     54       POPC     H3R      HAL2     0.900000E-01   1.00800           0
     21897 MEMB     54       POPC     H3S      HAL2     0.900000E-01   1.00800           0
     21898 MEMB     54       POPC     C24      CTL2    -0.180000       12.0110           0
     21899 MEMB     54       POPC     H4R      HAL2     0.900000E-01   1.00800           0
     21900 MEMB     54       POPC     H4S      HAL2     0.900000E-01   1.00800           0
     21901 MEMB     54       POPC     C25      CTL2    -0.180000       12.0110           0
     21902 MEMB     54       POPC     H5R      HAL2     0.900000E-01   1.00800           0
     21903 MEMB     54       POPC     H5S      HAL2     0.900000E-01   1.00800           0
     21904 MEMB     54       POPC     C26      CTL2    -0.180000       12.0110           0
     21905 MEMB     54       POPC     H6R      HAL2     0.900000E-01   1.00800           0
     21906 MEMB     54       POPC     H6S      HAL2     0.900000E-01   1.00800           0
     21907 MEMB     54       POPC     C27      CTL2    -0.180000       12.0110           0
     21908 MEMB     54       POPC     H7R      HAL2     0.900000E-01   1.00800           0
     21909 MEMB     54       POPC     H7S      HAL2     0.900000E-01   1.00800           0
     21910 MEMB     54       POPC     C28      CTL2    -0.180000       12.0110           0
     21911 MEMB     54       POPC     H8R      HAL2     0.900000E-01   1.00800           0
     21912 MEMB     54       POPC     H8S      HAL2     0.900000E-01   1.00800           0
     21913 MEMB     54       POPC     C29      CEL1    -0.150000       12.0110           0
     21914 MEMB     54       POPC     H91      HEL1     0.150000       1.00800           0
     21915 MEMB     54       POPC     C210     CEL1    -0.150000       12.0110           0
     21916 MEMB     54       POPC     H101     HEL1     0.150000       1.00800           0
     21917 MEMB     54       POPC     C211     CTL2    -0.180000       12.0110           0
     21918 MEMB     54       POPC     H11R     HAL2     0.900000E-01   1.00800           0
     21919 MEMB     54       POPC     H11S     HAL2     0.900000E-01   1.00800           0
     21920 MEMB     54       POPC     C212     CTL2    -0.180000       12.0110           0
     21921 MEMB     54       POPC     H12R     HAL2     0.900000E-01   1.00800           0
     21922 MEMB     54       POPC     H12S     HAL2     0.900000E-01   1.00800           0
     21923 MEMB     54       POPC     C213     CTL2    -0.180000       12.0110           0
     21924 MEMB     54       POPC     H13R     HAL2     0.900000E-01   1.00800           0
     21925 MEMB     54       POPC     H13S     HAL2     0.900000E-01   1.00800           0
     21926 MEMB     54       POPC     C214     CTL2    -0.180000       12.0110           0
     21927 MEMB     54       POPC     H14R     HAL2     0.900000E-01   1.00800           0
     21928 MEMB     54       POPC     H14S     HAL2     0.900000E-01   1.00800           0
     21929 MEMB     54       POPC     C215     CTL2    -0.180000       12.0110           0
     21930 MEMB     54       POPC     H15R     HAL2     0.900000E-01   1.00800           0
     21931 MEMB     54       POPC     H15S     HAL2     0.900000E-01   1.00800           0
     21932 MEMB     54       POPC     C216     CTL2    -0.180000       12.0110           0
     21933 MEMB     54       POPC     H16R     HAL2     0.900000E-01   1.00800           0
     21934 MEMB     54       POPC     H16S     HAL2     0.900000E-01   1.00800           0
     21935 MEMB     54       POPC     C217     CTL2    -0.180000       12.0110           0
     21936 MEMB     54       POPC     H17R     HAL2     0.900000E-01   1.00800           0
     21937 MEMB     54       POPC     H17S     HAL2     0.900000E-01   1.00800           0
     21938 MEMB     54       POPC     C218     CTL3    -0.270000       12.0110           0
     21939 MEMB     54       POPC     H18R     HAL3     0.900000E-01   1.00800           0
     21940 MEMB     54       POPC     H18S     HAL3     0.900000E-01   1.00800           0
     21941 MEMB     54       POPC     H18T     HAL3     0.900000E-01   1.00800           0
     21942 MEMB     54       POPC     C33      CTL2    -0.180000       12.0110           0
     21943 MEMB     54       POPC     H3X      HAL2     0.900000E-01   1.00800           0
     21944 MEMB     54       POPC     H3Y      HAL2     0.900000E-01   1.00800           0
     21945 MEMB     54       POPC     C34      CTL2    -0.180000       12.0110           0
     21946 MEMB     54       POPC     H4X      HAL2     0.900000E-01   1.00800           0
     21947 MEMB     54       POPC     H4Y      HAL2     0.900000E-01   1.00800           0
     21948 MEMB     54       POPC     C35      CTL2    -0.180000       12.0110           0
     21949 MEMB     54       POPC     H5X      HAL2     0.900000E-01   1.00800           0
     21950 MEMB     54       POPC     H5Y      HAL2     0.900000E-01   1.00800           0
     21951 MEMB     54       POPC     C36      CTL2    -0.180000       12.0110           0
     21952 MEMB     54       POPC     H6X      HAL2     0.900000E-01   1.00800           0
     21953 MEMB     54       POPC     H6Y      HAL2     0.900000E-01   1.00800           0
     21954 MEMB     54       POPC     C37      CTL2    -0.180000       12.0110           0
     21955 MEMB     54       POPC     H7X      HAL2     0.900000E-01   1.00800           0
     21956 MEMB     54       POPC     H7Y      HAL2     0.900000E-01   1.00800           0
     21957 MEMB     54       POPC     C38      CTL2    -0.180000       12.0110           0
     21958 MEMB     54       POPC     H8X      HAL2     0.900000E-01   1.00800           0
     21959 MEMB     54       POPC     H8Y      HAL2     0.900000E-01   1.00800           0
     21960 MEMB     54       POPC     C39      CTL2    -0.180000       12.0110           0
     21961 MEMB     54       POPC     H9X      HAL2     0.900000E-01   1.00800           0
     21962 MEMB     54       POPC     H9Y      HAL2     0.900000E-01   1.00800           0
     21963 MEMB     54       POPC     C310     CTL2    -0.180000       12.0110           0
     21964 MEMB     54       POPC     H10X     HAL2     0.900000E-01   1.00800           0
     21965 MEMB     54       POPC     H10Y     HAL2     0.900000E-01   1.00800           0
     21966 MEMB     54       POPC     C311     CTL2    -0.180000       12.0110           0
     21967 MEMB     54       POPC     H11X     HAL2     0.900000E-01   1.00800           0
     21968 MEMB     54       POPC     H11Y     HAL2     0.900000E-01   1.00800           0
     21969 MEMB     54       POPC     C312     CTL2    -0.180000       12.0110           0
     21970 MEMB     54       POPC     H12X     HAL2     0.900000E-01   1.00800           0
     21971 MEMB     54       POPC     H12Y     HAL2     0.900000E-01   1.00800           0
     21972 MEMB     54       POPC     C313     CTL2    -0.180000       12.0110           0
     21973 MEMB     54       POPC     H13X     HAL2     0.900000E-01   1.00800           0
     21974 MEMB     54       POPC     H13Y     HAL2     0.900000E-01   1.00800           0
     21975 MEMB     54       POPC     C314     CTL2    -0.180000       12.0110           0
     21976 MEMB     54       POPC     H14X     HAL2     0.900000E-01   1.00800           0
     21977 MEMB     54       POPC     H14Y     HAL2     0.900000E-01   1.00800           0
     21978 MEMB     54       POPC     C315     CTL2    -0.180000       12.0110           0
     21979 MEMB     54       POPC     H15X     HAL2     0.900000E-01   1.00800           0
     21980 MEMB     54       POPC     H15Y     HAL2     0.900000E-01   1.00800           0
     21981 MEMB     54       POPC     C316     CTL3    -0.270000       12.0110           0
     21982 MEMB     54       POPC     H16X     HAL3     0.900000E-01   1.00800           0
     21983 MEMB     54       POPC     H16Y     HAL3     0.900000E-01   1.00800           0
     21984 MEMB     54       POPC     H16Z     HAL3     0.900000E-01   1.00800           0
     21985 MEMB     103      POPC     N        NTL     -0.600000       14.0070           0
     21986 MEMB     103      POPC     C12      CTL2    -0.100000       12.0110           0
     21987 MEMB     103      POPC     H12A     HL       0.250000       1.00800           0
     21988 MEMB     103      POPC     H12B     HL       0.250000       1.00800           0
     21989 MEMB     103      POPC     C13      CTL5    -0.350000       12.0110           0
     21990 MEMB     103      POPC     H13A     HL       0.250000       1.00800           0
     21991 MEMB     103      POPC     H13B     HL       0.250000       1.00800           0
     21992 MEMB     103      POPC     H13C     HL       0.250000       1.00800           0
     21993 MEMB     103      POPC     C14      CTL5    -0.350000       12.0110           0
     21994 MEMB     103      POPC     H14A     HL       0.250000       1.00800           0
     21995 MEMB     103      POPC     H14B     HL       0.250000       1.00800           0
     21996 MEMB     103      POPC     H14C     HL       0.250000       1.00800           0
     21997 MEMB     103      POPC     C15      CTL5    -0.350000       12.0110           0
     21998 MEMB     103      POPC     H15A     HL       0.250000       1.00800           0
     21999 MEMB     103      POPC     H15B     HL       0.250000       1.00800           0
     22000 MEMB     103      POPC     H15C     HL       0.250000       1.00800           0
     22001 MEMB     103      POPC     C11      CTL2    -0.800000E-01   12.0110           0
     22002 MEMB     103      POPC     H11A     HAL2     0.900000E-01   1.00800           0
     22003 MEMB     103      POPC     H11B     HAL2     0.900000E-01   1.00800           0
     22004 MEMB     103      POPC     P        PL       1.500000       30.9740           0
     22005 MEMB     103      POPC     O13      O2L     -0.780000       15.9994           0
     22006 MEMB     103      POPC     O14      O2L     -0.780000       15.9994           0
     22007 MEMB     103      POPC     O12      OSLP    -0.570000       15.9994           0
     22008 MEMB     103      POPC     O11      OSLP    -0.570000       15.9994           0
     22009 MEMB     103      POPC     C1       CTL2    -0.800000E-01   12.0110           0
     22010 MEMB     103      POPC     HA       HAL2     0.900000E-01   1.00800           0
     22011 MEMB     103      POPC     HB       HAL2     0.900000E-01   1.00800           0
     22012 MEMB     103      POPC     C2       CTL1     0.170000       12.0110           0
     22013 MEMB     103      POPC     HS       HAL1     0.900000E-01   1.00800           0
     22014 MEMB     103      POPC     O21      OSL     -0.490000       15.9994           0
     22015 MEMB     103      POPC     C21      CL       0.900000       12.0110           0
     22016 MEMB     103      POPC     O22      OBL     -0.630000       15.9994           0
     22017 MEMB     103      POPC     C22      CTL2    -0.220000       12.0110           0
     22018 MEMB     103      POPC     H2R      HAL2     0.900000E-01   1.00800           0
     22019 MEMB     103      POPC     H2S      HAL2     0.900000E-01   1.00800           0
     22020 MEMB     103      POPC     C3       CTL2     0.800000E-01   12.0110           0
     22021 MEMB     103      POPC     HX       HAL2     0.900000E-01   1.00800           0
     22022 MEMB     103      POPC     HY       HAL2     0.900000E-01   1.00800           0
     22023 MEMB     103      POPC     O31      OSL     -0.490000       15.9994           0
     22024 MEMB     103      POPC     C31      CL       0.900000       12.0110           0
     22025 MEMB     103      POPC     O32      OBL     -0.630000       15.9994           0
     22026 MEMB     103      POPC     C32      CTL2    -0.220000       12.0110           0
     22027 MEMB     103      POPC     H2X      HAL2     0.900000E-01   1.00800           0
     22028 MEMB     103      POPC     H2Y      HAL2     0.900000E-01   1.00800           0
     22029 MEMB     103      POPC     C23      CTL2    -0.180000       12.0110           0
     22030 MEMB     103      POPC     H3R      HAL2     0.900000E-01   1.00800           0
     22031 MEMB     103      POPC     H3S      HAL2     0.900000E-01   1.00800           0
     22032 MEMB     103      POPC     C24      CTL2    -0.180000       12.0110           0
     22033 MEMB     103      POPC     H4R      HAL2     0.900000E-01   1.00800           0
     22034 MEMB     103      POPC     H4S      HAL2     0.900000E-01   1.00800           0
     22035 MEMB     103      POPC     C25      CTL2    -0.180000       12.0110           0
     22036 MEMB     103      POPC     H5R      HAL2     0.900000E-01   1.00800           0
     22037 MEMB     103      POPC     H5S      HAL2     0.900000E-01   1.00800           0
     22038 MEMB     103      POPC     C26      CTL2    -0.180000       12.0110           0
     22039 MEMB     103      POPC     H6R      HAL2     0.900000E-01   1.00800           0
     22040 MEMB     103      POPC     H6S      HAL2     0.900000E-01   1.00800           0
     22041 MEMB     103      POPC     C27      CTL2    -0.180000       12.0110           0
     22042 MEMB     103      POPC     H7R      HAL2     0.900000E-01   1.00800           0
     22043 MEMB     103      POPC     H7S      HAL2     0.900000E-01   1.00800           0
     22044 MEMB     103      POPC     C28      CTL2    -0.180000       12.0110           0
     22045 MEMB     103      POPC     H8R      HAL2     0.900000E-01   1.00800           0
     22046 MEMB     103      POPC     H8S      HAL2     0.900000E-01   1.00800           0
     22047 MEMB     103      POPC     C29      CEL1    -0.150000       12.0110           0
     22048 MEMB     103      POPC     H91      HEL1     0.150000       1.00800           0
     22049 MEMB     103      POPC     C210     CEL1    -0.150000       12.0110           0
     22050 MEMB     103      POPC     H101     HEL1     0.150000       1.00800           0
     22051 MEMB     103      POPC     C211     CTL2    -0.180000       12.0110           0
     22052 MEMB     103      POPC     H11R     HAL2     0.900000E-01   1.00800           0
     22053 MEMB     103      POPC     H11S     HAL2     0.900000E-01   1.00800           0
     22054 MEMB     103      POPC     C212     CTL2    -0.180000       12.0110           0
     22055 MEMB     103      POPC     H12R     HAL2     0.900000E-01   1.00800           0
     22056 MEMB     103      POPC     H12S     HAL2     0.900000E-01   1.00800           0
     22057 MEMB     103      POPC     C213     CTL2    -0.180000       12.0110           0
     22058 MEMB     103      POPC     H13R     HAL2     0.900000E-01   1.00800           0
     22059 MEMB     103      POPC     H13S     HAL2     0.900000E-01   1.00800           0
     22060 MEMB     103      POPC     C214     CTL2    -0.180000       12.0110           0
     22061 MEMB     103      POPC     H14R     HAL2     0.900000E-01   1.00800           0
     22062 MEMB     103      POPC     H14S     HAL2     0.900000E-01   1.00800           0
     22063 MEMB     103      POPC     C215     CTL2    -0.180000       12.0110           0
     22064 MEMB     103      POPC     H15R     HAL2     0.900000E-01   1.00800           0
     22065 MEMB     103      POPC     H15S     HAL2     0.900000E-01   1.00800           0
     22066 MEMB     103      POPC     C216     CTL2    -0.180000       12.0110           0
     22067 MEMB     103      POPC     H16R     HAL2     0.900000E-01   1.00800           0
     22068 MEMB     103      POPC     H16S     HAL2     0.900000E-01   1.00800           0
     22069 MEMB     103      POPC     C217     CTL2    -0.180000       12.0110           0
     22070 MEMB     103      POPC     H17R     HAL2     0.900000E-01   1.00800           0
     22071 MEMB     103      POPC     H17S     HAL2     0.900000E-01   1.00800           0
     22072 MEMB     103      POPC     C218     CTL3    -0.270000       12.0110           0
     22073 MEMB     103      POPC     H18R     HAL3     0.900000E-01   1.00800           0
     22074 MEMB     103      POPC     H18S     HAL3     0.900000E-01   1.00800           0
     22075 MEMB     103      POPC     H18T     HAL3     0.900000E-01   1.00800           0
     22076 MEMB     103      POPC     C33      CTL2    -0.180000       12.0110           0
     22077 MEMB     103      POPC     H3X      HAL2     0.900000E-01   1.00800           0
     22078 MEMB     103      POPC     H3Y      HAL2     0.900000E-01   1.00800           0
     22079 MEMB     103      POPC     C34      CTL2    -0.180000       12.0110           0
     22080 MEMB     103      POPC     H4X      HAL2     0.900000E-01   1.00800           0
     22081 MEMB     103      POPC     H4Y      HAL2     0.900000E-01   1.00800           0
     22082 MEMB     103      POPC     C35      CTL2    -0.180000       12.0110           0
     22083 MEMB     103      POPC     H5X      HAL2     0.900000E-01   1.00800           0
     22084 MEMB     103      POPC     H5Y      HAL2     0.900000E-01   1.00800           0
     22085 MEMB     103      POPC     C36      CTL2    -0.180000       12.0110           0
     22086 MEMB     103      POPC     H6X      HAL2     0.900000E-01   1.00800           0
     22087 MEMB     103      POPC     H6Y      HAL2     0.900000E-01   1.00800           0
     22088 MEMB     103      POPC     C37      CTL2    -0.180000       12.0110           0
     22089 MEMB     103      POPC     H7X      HAL2     0.900000E-01   1.00800           0
     22090 MEMB     103      POPC     H7Y      HAL2     0.900000E-01   1.00800           0
     22091 MEMB     103      POPC     C38      CTL2    -0.180000       12.0110           0
     22092 MEMB     103      POPC     H8X      HAL2     0.900000E-01   1.00800           0
     22093 MEMB     103      POPC     H8Y      HAL2     0.900000E-01   1.00800           0
     22094 MEMB     103      POPC     C39      CTL2    -0.180000       12.0110           0
     22095 MEMB     103      POPC     H9X      HAL2     0.900000E-01   1.00800           0
     22096 MEMB     103      POPC     H9Y      HAL2     0.900000E-01   1.00800           0
     22097 MEMB     103      POPC     C310     CTL2    -0.180000       12.0110           0
     22098 MEMB     103      POPC     H10X     HAL2     0.900000E-01   1.00800           0
     22099 MEMB     103      POPC     H10Y     HAL2     0.900000E-01   1.00800           0
     22100 MEMB     103      POPC     C311     CTL2    -0.180000       12.0110           0
     22101 MEMB     103      POPC     H11X     HAL2     0.900000E-01   1.00800           0
     22102 MEMB     103      POPC     H11Y     HAL2     0.900000E-01   1.00800           0
     22103 MEMB     103      POPC     C312     CTL2    -0.180000       12.0110           0
     22104 MEMB     103      POPC     H12X     HAL2     0.900000E-01   1.00800           0
     22105 MEMB     103      POPC     H12Y     HAL2     0.900000E-01   1.00800           0
     22106 MEMB     103      POPC     C313     CTL2    -0.180000       12.0110           0
     22107 MEMB     103      POPC     H13X     HAL2     0.900000E-01   1.00800           0
     22108 MEMB     103      POPC     H13Y     HAL2     0.900000E-01   1.00800           0
     22109 MEMB     103      POPC     C314     CTL2    -0.180000       12.0110           0
     22110 MEMB     103      POPC     H14X     HAL2     0.900000E-01   1.00800           0
     22111 MEMB     103      POPC     H14Y     HAL2     0.900000E-01   1.00800           0
     22112 MEMB     103      POPC     C315     CTL2    -0.180000       12.0110           0
     22113 MEMB     103      POPC     H15X     HAL2     0.900000E-01   1.00800           0
     22114 MEMB     103      POPC     H15Y     HAL2     0.900000E-01   1.00800           0
     22115 MEMB     103      POPC     C316     CTL3    -0.270000       12.0110           0
     22116 MEMB     103      POPC     H16X     HAL3     0.900000E-01   1.00800           0
     22117 MEMB     103      POPC     H16Y     HAL3     0.900000E-01   1.00800           0
     22118 MEMB     103      POPC     H16Z     HAL3     0.900000E-01   1.00800           0
     22119 MEMB     155      POPC     N        NTL     -0.600000       14.0070           0
     22120 MEMB     155      POPC     C12      CTL2    -0.100000       12.0110           0
     22121 MEMB     155      POPC     H12A     HL       0.250000       1.00800           0
     22122 MEMB     155      POPC     H12B     HL       0.250000       1.00800           0
     22123 MEMB     155      POPC     C13      CTL5    -0.350000       12.0110           0
     22124 MEMB     155      POPC     H13A     HL       0.250000       1.00800           0
     22125 MEMB     155      POPC     H13B     HL       0.250000       1.00800           0
     22126 MEMB     155      POPC     H13C     HL       0.250000       1.00800           0
     22127 MEMB     155      POPC     C14      CTL5    -0.350000       12.0110           0
     22128 MEMB     155      POPC     H14A     HL       0.250000       1.00800           0
     22129 MEMB     155      POPC     H14B     HL       0.250000       1.00800           0
     22130 MEMB     155      POPC     H14C     HL       0.250000       1.00800           0
     22131 MEMB     155      POPC     C15      CTL5    -0.350000       12.0110           0
     22132 MEMB     155      POPC     H15A     HL       0.250000       1.00800           0
     22133 MEMB     155      POPC     H15B     HL       0.250000       1.00800           0
     22134 MEMB     155      POPC     H15C     HL       0.250000       1.00800           0
     22135 MEMB     155      POPC     C11      CTL2    -0.800000E-01   12.0110           0
     22136 MEMB     155      POPC     H11A     HAL2     0.900000E-01   1.00800           0
     22137 MEMB     155      POPC     H11B     HAL2     0.900000E-01   1.00800           0
     22138 MEMB     155      POPC     P        PL       1.500000       30.9740           0
     22139 MEMB     155      POPC     O13      O2L     -0.780000       15.9994           0
     22140 MEMB     155      POPC     O14      O2L     -0.780000       15.9994           0
     22141 MEMB     155      POPC     O12      OSLP    -0.570000       15.9994           0
     22142 MEMB     155      POPC     O11      OSLP    -0.570000       15.9994           0
     22143 MEMB     155      POPC     C1       CTL2    -0.800000E-01   12.0110           0
     22144 MEMB     155      POPC     HA       HAL2     0.900000E-01   1.00800           0
     22145 MEMB     155      POPC     HB       HAL2     0.900000E-01   1.00800           0
     22146 MEMB     155      POPC     C2       CTL1     0.170000       12.0110           0
     22147 MEMB     155      POPC     HS       HAL1     0.900000E-01   1.00800           0
     22148 MEMB     155      POPC     O21      OSL     -0.490000       15.9994           0
     22149 MEMB     155      POPC     C21      CL       0.900000       12.0110           0
     22150 MEMB     155      POPC     O22      OBL     -0.630000       15.9994           0
     22151 MEMB     155      POPC     C22      CTL2    -0.220000       12.0110           0
     22152 MEMB     155      POPC     H2R      HAL2     0.900000E-01   1.00800           0
     22153 MEMB     155      POPC     H2S      HAL2     0.900000E-01   1.00800           0
     22154 MEMB     155      POPC     C3       CTL2     0.800000E-01   12.0110           0
     22155 MEMB     155      POPC     HX       HAL2     0.900000E-01   1.00800           0
     22156 MEMB     155      POPC     HY       HAL2     0.900000E-01   1.00800           0
     22157 MEMB     155      POPC     O31      OSL     -0.490000       15.9994           0
     22158 MEMB     155      POPC     C31      CL       0.900000       12.0110           0
     22159 MEMB     155      POPC     O32      OBL     -0.630000       15.9994           0
     22160 MEMB     155      POPC     C32      CTL2    -0.220000       12.0110           0
     22161 MEMB     155      POPC     H2X      HAL2     0.900000E-01   1.00800           0
     22162 MEMB     155      POPC     H2Y      HAL2     0.900000E-01   1.00800           0
     22163 MEMB     155      POPC     C23      CTL2    -0.180000       12.0110           0
     22164 MEMB     155      POPC     H3R      HAL2     0.900000E-01   1.00800           0
     22165 MEMB     155      POPC     H3S      HAL2     0.900000E-01   1.00800           0
     22166 MEMB     155      POPC     C24      CTL2    -0.180000       12.0110           0
     22167 MEMB     155      POPC     H4R      HAL2     0.900000E-01   1.00800           0
     22168 MEMB     155      POPC     H4S      HAL2     0.900000E-01   1.00800           0
     22169 MEMB     155      POPC     C25      CTL2    -0.180000       12.0110           0
     22170 MEMB     155      POPC     H5R      HAL2     0.900000E-01   1.00800           0
     22171 MEMB     155      POPC     H5S      HAL2     0.900000E-01   1.00800           0
     22172 MEMB     155      POPC     C26      CTL2    -0.180000       12.0110           0
     22173 MEMB     155      POPC     H6R      HAL2     0.900000E-01   1.00800           0
     22174 MEMB     155      POPC     H6S      HAL2     0.900000E-01   1.00800           0
     22175 MEMB     155      POPC     C27      CTL2    -0.180000       12.0110           0
     22176 MEMB     155      POPC     H7R      HAL2     0.900000E-01   1.00800           0
     22177 MEMB     155      POPC     H7S      HAL2     0.900000E-01   1.00800           0
     22178 MEMB     155      POPC     C28      CTL2    -0.180000       12.0110           0
     22179 MEMB     155      POPC     H8R      HAL2     0.900000E-01   1.00800           0
     22180 MEMB     155      POPC     H8S      HAL2     0.900000E-01   1.00800           0
     22181 MEMB     155      POPC     C29      CEL1    -0.150000       12.0110           0
     22182 MEMB     155      POPC     H91      HEL1     0.150000       1.00800           0
     22183 MEMB     155      POPC     C210     CEL1    -0.150000       12.0110           0
     22184 MEMB     155      POPC     H101     HEL1     0.150000       1.00800           0
     22185 MEMB     155      POPC     C211     CTL2    -0.180000       12.0110           0
     22186 MEMB     155      POPC     H11R     HAL2     0.900000E-01   1.00800           0
     22187 MEMB     155      POPC     H11S     HAL2     0.900000E-01   1.00800           0
     22188 MEMB     155      POPC     C212     CTL2    -0.180000       12.0110           0
     22189 MEMB     155      POPC     H12R     HAL2     0.900000E-01   1.00800           0
     22190 MEMB     155      POPC     H12S     HAL2     0.900000E-01   1.00800           0
     22191 MEMB     155      POPC     C213     CTL2    -0.180000       12.0110           0
     22192 MEMB     155      POPC     H13R     HAL2     0.900000E-01   1.00800           0
     22193 MEMB     155      POPC     H13S     HAL2     0.900000E-01   1.00800           0
     22194 MEMB     155      POPC     C214     CTL2    -0.180000       12.0110           0
     22195 MEMB     155      POPC     H14R     HAL2     0.900000E-01   1.00800           0
     22196 MEMB     155      POPC     H14S     HAL2     0.900000E-01   1.00800           0
     22197 MEMB     155      POPC     C215     CTL2    -0.180000       12.0110           0
     22198 MEMB     155      POPC     H15R     HAL2     0.900000E-01   1.00800           0
     22199 MEMB     155      POPC     H15S     HAL2     0.900000E-01   1.00800           0
     22200 MEMB     155      POPC     C216     CTL2    -0.180000       12.0110           0
     22201 MEMB     155      POPC     H16R     HAL2     0.900000E-01   1.00800           0
     22202 MEMB     155      POPC     H16S     HAL2     0.900000E-01   1.00800           0
     22203 MEMB     155      POPC     C217     CTL2    -0.180000       12.0110           0
     22204 MEMB     155      POPC     H17R     HAL2     0.900000E-01   1.00800           0
     22205 MEMB     155      POPC     H17S     HAL2     0.900000E-01   1.00800           0
     22206 MEMB     155      POPC     C218     CTL3    -0.270000       12.0110           0
     22207 MEMB     155      POPC     H18R     HAL3     0.900000E-01   1.00800           0
     22208 MEMB     155      POPC     H18S     HAL3     0.900000E-01   1.00800           0
     22209 MEMB     155      POPC     H18T     HAL3     0.900000E-01   1.00800           0
     22210 MEMB     155      POPC     C33      CTL2    -0.180000       12.0110           0
     22211 MEMB     155      POPC     H3X      HAL2     0.900000E-01   1.00800           0
     22212 MEMB     155      POPC     H3Y      HAL2     0.900000E-01   1.00800           0
     22213 MEMB     155      POPC     C34      CTL2    -0.180000       12.0110           0
     22214 MEMB     155      POPC     H4X      HAL2     0.900000E-01   1.00800           0
     22215 MEMB     155      POPC     H4Y      HAL2     0.900000E-01   1.00800           0
     22216 MEMB     155      POPC     C35      CTL2    -0.180000       12.0110           0
     22217 MEMB     155      POPC     H5X      HAL2     0.900000E-01   1.00800           0
     22218 MEMB     155      POPC     H5Y      HAL2     0.900000E-01   1.00800           0
     22219 MEMB     155      POPC     C36      CTL2    -0.180000       12.0110           0
     22220 MEMB     155      POPC     H6X      HAL2     0.900000E-01   1.00800           0
     22221 MEMB     155      POPC     H6Y      HAL2     0.900000E-01   1.00800           0
     22222 MEMB     155      POPC     C37      CTL2    -0.180000       12.0110           0
     22223 MEMB     155      POPC     H7X      HAL2     0.900000E-01   1.00800           0
     22224 MEMB     155      POPC     H7Y      HAL2     0.900000E-01   1.00800           0
     22225 MEMB     155      POPC     C38      CTL2    -0.180000       12.0110           0
     22226 MEMB     155      POPC     H8X      HAL2     0.900000E-01   1.00800           0
     22227 MEMB     155      POPC     H8Y      HAL2     0.900000E-01   1.00800           0
     22228 MEMB     155      POPC     C39      CTL2    -0.180000       12.0110           0
     22229 MEMB     155      POPC     H9X      HAL2     0.900000E-01   1.00800           0
     22230 MEMB     155      POPC     H9Y      HAL2     0.900000E-01   1.00800           0
     22231 MEMB     155      POPC     C310     CTL2    -0.180000       12.0110           0
     22232 MEMB     155      POPC     H10X     HAL2     0.900000E-01   1.00800           0
     22233 MEMB     155      POPC     H10Y     HAL2     0.900000E-01   1.00800           0
     22234 MEMB     155      POPC     C311     CTL2    -0.180000       12.0110           0
     22235 MEMB     155      POPC     H11X     HAL2     0.900000E-01   1.00800           0
     22236 MEMB     155      POPC     H11Y     HAL2     0.900000E-01   1.00800           0
     22237 MEMB     155      POPC     C312     CTL2    -0.180000       12.0110           0
     22238 MEMB     155      POPC     H12X     HAL2     0.900000E-01   1.00800           0
     22239 MEMB     155      POPC     H12Y     HAL2     0.900000E-01   1.00800           0
     22240 MEMB     155      POPC     C313     CTL2    -0.180000       12.0110           0
     22241 MEMB     155      POPC     H13X     HAL2     0.900000E-01   1.00800           0
     22242 MEMB     155      POPC     H13Y     HAL2     0.900000E-01   1.00800           0
     22243 MEMB     155      POPC     C314     CTL2    -0.180000       12.0110           0
     22244 MEMB     155      POPC     H14X     HAL2     0.900000E-01   1.00800           0
     22245 MEMB     155      POPC     H14Y     HAL2     0.900000E-01   1.00800           0
     22246 MEMB     155      POPC     C315     CTL2    -0.180000       12.0110           0
     22247 MEMB     155      POPC     H15X     HAL2     0.900000E-01   1.00800           0
     22248 MEMB     155      POPC     H15Y     HAL2     0.900000E-01   1.00800           0
     22249 MEMB     155      POPC     C316     CTL3    -0.270000       12.0110           0
     22250 MEMB     155      POPC     H16X     HAL3     0.900000E-01   1.00800           0
     22251 MEMB     155      POPC     H16Y     HAL3     0.900000E-01   1.00800           0
     22252 MEMB     155      POPC     H16Z     HAL3     0.900000E-01   1.00800           0
     22253 IONS     1        SOD      SOD      SOD      1.000000       22.9898           0
     22254 IONS     2        SOD      SOD      SOD      1.000000       22.9898           0
     22255 IONS     3        SOD      SOD      SOD      1.000000       22.9898           0
     22256 IONS     4        SOD      SOD      SOD      1.000000       22.9898           0
     22257 IONS     5        SOD      SOD      SOD      1.000000       22.9898           0
     22258 IONS     6        SOD      SOD      SOD      1.000000       22.9898           0
     22259 IONS     7        SOD      SOD      SOD      1.000000       22.9898           0
     22260 IONS     8        SOD      SOD      SOD      1.000000       22.9898           0
     22261 IONS     9        SOD      SOD      SOD      1.000000       22.9898           0
     22262 IONS     10       SOD      SOD      SOD      1.000000       22.9898           0
     22263 IONS     11       SOD      SOD      SOD      1.000000       22.9898           0
     22264 IONS     12       SOD      SOD      SOD      1.000000       22.9898           0
     22265 IONS     13       SOD      SOD      SOD      1.000000       22.9898           0
     22266 IONS     14       SOD      SOD      SOD      1.000000       22.9898           0
     22267 IONS     15       SOD      SOD      SOD      1.000000       22.9898           0
     22268 IONS     16       SOD      SOD      SOD      1.000000       22.9898           0
     22269 IONS     17       SOD      SOD      SOD      1.000000       22.9898           0
     22270 IONS     18       SOD      SOD      SOD      1.000000       22.9898           0
     22271 IONS     19       SOD      SOD      SOD      1.000000       22.9898           0
     22272 IONS     20       SOD      SOD      SOD      1.000000       22.9898           0
     22273 IONS     21       SOD      SOD      SOD      1.000000       22.9898           0
     22274 IONS     22       SOD      SOD      SOD      1.000000       22.9898           0
     22275 IONS     23       SOD      SOD      SOD      1.000000       22.9898           0
     22276 IONS     24       SOD      SOD      SOD      1.000000       22.9898           0
     22277 IONS     25       SOD      SOD      SOD      1.000000       22.9898           0
     22278 IONS     26       SOD      SOD      SOD      1.000000       22.9898           0
     22279 IONS     27       SOD      SOD      SOD      1.000000       22.9898           0
     22280 IONS     28       SOD      SOD      SOD      1.000000       22.9898           0
     22281 IONS     29       SOD      SOD      SOD      1.000000       22.9898           0
     22282 IONS     30       SOD      SOD      SOD      1.000000       22.9898           0
     22283 IONS     31       SOD      SOD      SOD      1.000000       22.9898           0
     22284 IONS     32       SOD      SOD      SOD      1.000000       22.9898           0
     22285 IONS     33       SOD      SOD      SOD      1.000000       22.9898           0
     22286 IONS     34       SOD      SOD      SOD      1.000000       22.9898           0
     22287 IONS     35       SOD      SOD      SOD      1.000000       22.9898           0
     22288 IONS     36       SOD      SOD      SOD      1.000000       22.9898           0
     22289 IONS     37       SOD      SOD      SOD      1.000000       22.9898           0
     22290 IONS     38       SOD      SOD      SOD      1.000000       22.9898           0
     22291 IONS     39       SOD      SOD      SOD      1.000000       22.9898           0
     22292 IONS     40       SOD      SOD      SOD      1.000000       22.9898           0
     22293 IONS     41       SOD      SOD      SOD      1.000000       22.9898           0
     22294 IONS     42       SOD      SOD      SOD      1.000000       22.9898           0
     22295 IONS     43       SOD      SOD      SOD      1.000000       22.9898           0
     22296 IONS     44       SOD      SOD      SOD      1.000000       22.9898           0
     22297 IONS     45       SOD      SOD      SOD      1.000000       22.9898           0
     22298 IONS     46       SOD      SOD      SOD      1.000000       22.9898           0
     22299 IONS     47       SOD      SOD      SOD      1.000000       22.9898           0
     22300 IONS     48       SOD      SOD      SOD      1.000000       22.9898           0
     22301 IONS     49       SOD      SOD      SOD      1.000000       22.9898           0
     22302 IONS     50       SOD      SOD      SOD      1.000000       22.9898           0
     22303 IONS     51       SOD      SOD      SOD      1.000000       22.9898           0
     22304 IONS     52       SOD      SOD      SOD      1.000000       22.9898           0
     22305 IONS     53       SOD      SOD      SOD      1.000000       22.9898           0
     22306 IONS     54       SOD      SOD      SOD      1.000000       22.9898           0
     22307 IONS     55       SOD      SOD      SOD      1.000000       22.9898           0
     22308 IONS     56       SOD      SOD      SOD      1.000000       22.9898           0
     22309 IONS     57       SOD      SOD      SOD      1.000000       22.9898           0
     22310 IONS     58       SOD      SOD      SOD      1.000000       22.9898           0
     22311 IONS     59       SOD      SOD      SOD      1.000000       22.9898           0
     22312 IONS     60       SOD      SOD      SOD      1.000000       22.9898           0
     22313 IONS     61       SOD      SOD      SOD      1.000000       22.9898           0
     22314 IONS     62       SOD      SOD      SOD      1.000000       22.9898           0
     22315 IONS     63       SOD      SOD      SOD      1.000000       22.9898           0
     22316 IONS     64       SOD      SOD      SOD      1.000000       22.9898           0
     22317 IONS     65       SOD      SOD      SOD      1.000000       22.9898           0
     22318 IONS     66       SOD      SOD      SOD      1.000000       22.9898           0
     22319 IONS     67       SOD      SOD      SOD      1.000000       22.9898           0
     22320 IONS     68       SOD      SOD      SOD      1.000000       22.9898           0
     22321 IONS     69       SOD      SOD      SOD      1.000000       22.9898           0
     22322 IONS     70       SOD      SOD      SOD      1.000000       22.9898           0
     22323 IONS     71       SOD      SOD      SOD      1.000000       22.9898           0
     22324 IONS     72       SOD      SOD      SOD      1.000000       22.9898           0
     22325 IONS     73       SOD      SOD      SOD      1.000000       22.9898           0
     22326 IONS     74       SOD      SOD      SOD      1.000000       22.9898           0
     22327 IONS     75       SOD      SOD      SOD      1.000000       22.9898           0
     22328 IONS     76       SOD      SOD      SOD      1.000000       22.9898           0
     22329 IONS     77       SOD      SOD      SOD      1.000000       22.9898           0
     22330 IONS     78       CLA      CLA      CLA     -1.000000       35.4500           0
     22331 IONS     79       CLA      CLA      CLA     -1.000000       35.4500           0
     22332 IONS     80       CLA      CLA      CLA     -1.000000       35.4500           0
     22333 IONS     81       CLA      CLA      CLA     -1.000000       35.4500           0
     22334 IONS     82       CLA      CLA      CLA     -1.000000       35.4500           0
     22335 IONS     83       CLA      CLA      CLA     -1.000000       35.4500           0
     22336 IONS     84       CLA      CLA      CLA     -1.000000       35.4500           0
     22337 IONS     85       CLA      CLA      CLA     -1.000000       35.4500           0
     22338 IONS     86       CLA      CLA      CLA     -1.000000       35.4500           0
     22339 IONS     87       CLA      CLA      CLA     -1.000000       35.4500           0
     22340 IONS     88       CLA      CLA      CLA     -1.000000       35.4500           0
     22341 IONS     89       CLA      CLA      CLA     -1.000000       35.4500           0
     22342 IONS     90       CLA      CLA      CLA     -1.000000       35.4500           0
     22343 IONS     91       CLA      CLA      CLA     -1.000000       35.4500           0
     22344 IONS     92       CLA      CLA      CLA     -1.000000       35.4500           0
     22345 IONS     93       CLA      CLA      CLA     -1.000000       35.4500           0
     22346 IONS     94       CLA      CLA      CLA     -1.000000       35.4500           0
     22347 IONS     95       CLA      CLA      CLA     -1.000000       35.4500           0
     22348 IONS     96       CLA      CLA      CLA     -1.000000       35.4500           0
     22349 IONS     97       CLA      CLA      CLA     -1.000000       35.4500           0
     22350 IONS     98       CLA      CLA      CLA     -1.000000       35.4500           0
     22351 IONS     99       CLA      CLA      CLA     -1.000000       35.4500           0
     22352 IONS     100      CLA      CLA      CLA     -1.000000       35.4500           0
     22353 IONS     101      CLA      CLA      CLA     -1.000000       35.4500           0
     22354 IONS     102      CLA      CLA      CLA     -1.000000       35.4500           0
     22355 IONS     103      CLA      CLA      CLA     -1.000000       35.4500           0
     22356 IONS     104      CLA      CLA      CLA     -1.000000       35.4500           0
     22357 IONS     105      CLA      CLA      CLA     -1.000000       35.4500           0
     22358 IONS     106      CLA      CLA      CLA     -1.000000       35.4500           0
     22359 IONS     107      CLA      CLA      CLA     -1.000000       35.4500           0
     22360 IONS     108      CLA      CLA      CLA     -1.000000       35.4500           0
     22361 IONS     109      CLA      CLA      CLA     -1.000000       35.4500           0
     22362 IONS     110      CLA      CLA      CLA     -1.000000       35.4500           0
     22363 IONS     111      CLA      CLA      CLA     -1.000000       35.4500           0
     22364 IONS     112      CLA      CLA      CLA     -1.000000       35.4500           0
     22365 IONS     113      CLA      CLA      CLA     -1.000000       35.4500           0
     22366 IONS     114      CLA      CLA      CLA     -1.000000       35.4500           0
     22367 IONS     115      CLA      CLA      CLA     -1.000000       35.4500           0
     22368 IONS     116      CLA      CLA      CLA     -1.000000       35.4500           0
     22369 IONS     117      CLA      CLA      CLA     -1.000000       35.4500           0
     22370 IONS     118      CLA      CLA      CLA     -1.000000       35.4500           0
     22371 IONS     119      CLA      CLA      CLA     -1.000000       35.4500           0
     22372 IONS     120      CLA      CLA      CLA     -1.000000       35.4500           0
     22373 IONS     121      CLA      CLA      CLA     -1.000000       35.4500           0
     22374 IONS     122      CLA      CLA      CLA     -1.000000       35.4500           0
     22375 IONS     123      CLA      CLA      CLA     -1.000000       35.4500           0
     22376 IONS     124      CLA      CLA      CLA     -1.000000       35.4500           0
     22377 IONS     125      CLA      CLA      CLA     -1.000000       35.4500           0
     22378 IONS     126      CLA      CLA      CLA     -1.000000       35.4500           0
     22379 IONS     127      CLA      CLA      CLA     -1.000000       35.4500           0
     22380 IONS     128      CLA      CLA      CLA     -1.000000       35.4500           0
     22381 IONS     129      CLA      CLA      CLA     -1.000000       35.4500           0
     22382 IONS     130      CLA      CLA      CLA     -1.000000       35.4500           0
     22383 TIP3     1        TIP3     OH2      OT      -0.834000       15.9994           0
     22384 TIP3     1        TIP3     H1       HT       0.417000       1.00800           0
     22385 TIP3     1        TIP3     H2       HT       0.417000       1.00800           0
     22386 TIP3     2        TIP3     OH2      OT      -0.834000       15.9994           0
     22387 TIP3     2        TIP3     H1       HT       0.417000       1.00800           0
     22388 TIP3     2        TIP3     H2       HT       0.417000       1.00800           0
     22389 TIP3     3        TIP3     OH2      OT      -0.834000       15.9994           0
     22390 TIP3     3        TIP3     H1       HT       0.417000       1.00800           0
     22391 TIP3     3        TIP3     H2       HT       0.417000       1.00800           0
     22392 TIP3     4        TIP3     OH2      OT      -0.834000       15.9994           0
     22393 TIP3     4        TIP3     H1       HT       0.417000       1.00800           0
     22394 TIP3     4        TIP3     H2       HT       0.417000       1.00800           0
     22395 TIP3     5        TIP3     OH2      OT      -0.834000       15.9994           0
     22396 TIP3     5        TIP3     H1       HT       0.417000       1.00800           0
     22397 TIP3     5        TIP3     H2       HT       0.417000       1.00800           0
     22398 TIP3     6        TIP3     OH2      OT      -0.834000       15.9994           0
     22399 TIP3     6        TIP3     H1       HT       0.417000       1.00800           0
     22400 TIP3     6        TIP3     H2       HT       0.417000       1.00800           0
     22401 TIP3     7        TIP3     OH2      OT      -0.834000       15.9994           0
     22402 TIP3     7        TIP3     H1       HT       0.417000       1.00800           0
     22403 TIP3     7        TIP3     H2       HT       0.417000       1.00800           0
     22404 TIP3     8        TIP3     OH2      OT      -0.834000       15.9994           0
     22405 TIP3     8        TIP3     H1       HT       0.417000       1.00800           0
     22406 TIP3     8        TIP3     H2       HT       0.417000       1.00800           0
     22407 TIP3     9        TIP3     OH2      OT      -0.834000       15.9994           0
     22408 TIP3     9        TIP3     H1       HT       0.417000       1.00800           0
     22409 TIP3     9        TIP3     H2       HT       0.417000       1.00800           0
     22410 TIP3     10       TIP3     OH2      OT      -0.834000       15.9994           0
     22411 TIP3     10       TIP3     H1       HT       0.417000       1.00800           0
     22412 TIP3     10       TIP3     H2       HT       0.417000       1.00800           0
     22413 TIP3     11       TIP3     OH2      OT      -0.834000       15.9994           0
     22414 TIP3     11       TIP3     H1       HT       0.417000       1.00800           0
     22415 TIP3     11       TIP3     H2       HT       0.417000       1.00800           0
     22416 TIP3     12       TIP3     OH2      OT      -0.834000       15.9994           0
     22417 TIP3     12       TIP3     H1       HT       0.417000       1.00800           0
     22418 TIP3     12       TIP3     H2       HT       0.417000       1.00800           0
     22419 TIP3     13       TIP3     OH2      OT      -0.834000       15.9994           0
     22420 TIP3     13       TIP3     H1       HT       0.417000       1.00800           0
     22421 TIP3     13       TIP3     H2       HT       0.417000       1.00800           0
     22422 TIP3     14       TIP3     OH2      OT      -0.834000       15.9994           0
     22423 TIP3     14       TIP3     H1       HT       0.417000       1.00800           0
     22424 TIP3     14       TIP3     H2       HT       0.417000       1.00800           0
     22425 TIP3     15       TIP3     OH2      OT      -0.834000       15.9994           0
     22426 TIP3     15       TIP3     H1       HT       0.417000       1.00800           0
     22427 TIP3     15       TIP3     H2       HT       0.417000       1.00800           0
     22428 TIP3     16       TIP3     OH2      OT      -0.834000       15.9994           0
     22429 TIP3     16       TIP3     H1       HT       0.417000       1.00800           0
     22430 TIP3     16       TIP3     H2       HT       0.417000       1.00800           0
     22431 TIP3     17       TIP3     OH2      OT      -0.834000       15.9994           0
     22432 TIP3     17       TIP3     H1       HT       0.417000       1.00800           0
     22433 TIP3     17       TIP3     H2       HT       0.417000       1.00800           0
     22434 TIP3     18       TIP3     OH2      OT      -0.834000       15.9994           0
     22435 TIP3     18       TIP3     H1       HT       0.417000       1.00800           0
     22436 TIP3     18       TIP3     H2       HT       0.417000       1.00800           0
     22437 TIP3     19       TIP3     OH2      OT      -0.834000       15.9994           0
     22438 TIP3     19       TIP3     H1       HT       0.417000       1.00800           0
     22439 TIP3     19       TIP3     H2       HT       0.417000       1.00800           0
     22440 TIP3     20       TIP3     OH2      OT      -0.834000       15.9994           0
     22441 TIP3     20       TIP3     H1       HT       0.417000       1.00800           0
     22442 TIP3     20       TIP3     H2       HT       0.417000       1.00800           0
     22443 TIP3     21       TIP3     OH2      OT      -0.834000       15.9994           0
     22444 TIP3     21       TIP3     H1       HT       0.417000       1.00800           0
     22445 TIP3     21       TIP3     H2       HT       0.417000       1.00800           0
     22446 TIP3     22       TIP3     OH2      OT      -0.834000       15.9994           0
     22447 TIP3     22       TIP3     H1       HT       0.417000       1.00800           0
     22448 TIP3     22       TIP3     H2       HT       0.417000       1.00800           0
     22449 TIP3     23       TIP3     OH2      OT      -0.834000       15.9994           0
     22450 TIP3     23       TIP3     H1       HT       0.417000       1.00800           0
     22451 TIP3     23       TIP3     H2       HT       0.417000       1.00800           0
     22452 TIP3     24       TIP3     OH2      OT      -0.834000       15.9994           0
     22453 TIP3     24       TIP3     H1       HT       0.417000       1.00800           0
     22454 TIP3     24       TIP3     H2       HT       0.417000       1.00800           0
     22455 TIP3     25       TIP3     OH2      OT      -0.834000       15.9994           0
     22456 TIP3     25       TIP3     H1       HT       0.417000       1.00800           0
     22457 TIP3     25       TIP3     H2       HT       0.417000       1.00800           0
     22458 TIP3     26       TIP3     OH2      OT      -0.834000       15.9994           0
     22459 TIP3     26       TIP3     H1       HT       0.417000       1.00800           0
     22460 TIP3     26       TIP3     H2       HT       0.417000       1.00800           0
     22461 TIP3     27       TIP3     OH2      OT      -0.834000       15.9994           0
     22462 TIP3     27       TIP3     H1       HT       0.417000       1.00800           0
     22463 TIP3     27       TIP3     H2       HT       0.417000       1.00800           0
     22464 TIP3     28       TIP3     OH2      OT      -0.834000       15.9994           0
     22465 TIP3     28       TIP3     H1       HT       0.417000       1.00800           0
     22466 TIP3     28       TIP3     H2       HT       0.417000       1.00800           0
     22467 TIP3     29       TIP3     OH2      OT      -0.834000       15.9994           0
     22468 TIP3     29       TIP3     H1       HT       0.417000       1.00800           0
     22469 TIP3     29       TIP3     H2       HT       0.417000       1.00800           0
     22470 TIP3     30       TIP3     OH2      OT      -0.834000       15.9994           0
     22471 TIP3     30       TIP3     H1       HT       0.417000       1.00800           0
     22472 TIP3     30       TIP3     H2       HT       0.417000       1.00800           0
     22473 TIP3     31       TIP3     OH2      OT      -0.834000       15.9994           0
     22474 TIP3     31       TIP3     H1       HT       0.417000       1.00800           0
     22475 TIP3     31       TIP3     H2       HT       0.417000       1.00800           0
     22476 TIP3     32       TIP3     OH2      OT      -0.834000       15.9994           0
     22477 TIP3     32       TIP3     H1       HT       0.417000       1.00800           0
     22478 TIP3     32       TIP3     H2       HT       0.417000       1.00800           0
     22479 TIP3     33       TIP3     OH2      OT      -0.834000       15.9994           0
     22480 TIP3     33       TIP3     H1       HT       0.417000       1.00800           0
     22481 TIP3     33       TIP3     H2       HT       0.417000       1.00800           0
     22482 TIP3     34       TIP3     OH2      OT      -0.834000       15.9994           0
     22483 TIP3     34       TIP3     H1       HT       0.417000       1.00800           0
     22484 TIP3     34       TIP3     H2       HT       0.417000       1.00800           0
     22485 TIP3     35       TIP3     OH2      OT      -0.834000       15.9994           0
     22486 TIP3     35       TIP3     H1       HT       0.417000       1.00800           0
     22487 TIP3     35       TIP3     H2       HT       0.417000       1.00800           0
     22488 TIP3     36       TIP3     OH2      OT      -0.834000       15.9994           0
     22489 TIP3     36       TIP3     H1       HT       0.417000       1.00800           0
     22490 TIP3     36       TIP3     H2       HT       0.417000       1.00800           0
     22491 TIP3     37       TIP3     OH2      OT      -0.834000       15.9994           0
     22492 TIP3     37       TIP3     H1       HT       0.417000       1.00800           0
     22493 TIP3     37       TIP3     H2       HT       0.417000       1.00800           0
     22494 TIP3     38       TIP3     OH2      OT      -0.834000       15.9994           0
     22495 TIP3     38       TIP3     H1       HT       0.417000       1.00800           0
     22496 TIP3     38       TIP3     H2       HT       0.417000       1.00800           0
     22497 TIP3     39       TIP3     OH2      OT      -0.834000       15.9994           0
     22498 TIP3     39       TIP3     H1       HT       0.417000       1.00800           0
     22499 TIP3     39       TIP3     H2       HT       0.417000       1.00800           0
     22500 TIP3     40       TIP3     OH2      OT      -0.834000       15.9994           0
     22501 TIP3     40       TIP3     H1       HT       0.417000       1.00800           0
     22502 TIP3     40       TIP3     H2       HT       0.417000       1.00800           0
     22503 TIP3     41       TIP3     OH2      OT      -0.834000       15.9994           0
     22504 TIP3     41       TIP3     H1       HT       0.417000       1.00800           0
     22505 TIP3     41       TIP3     H2       HT       0.417000       1.00800           0
     22506 TIP3     42       TIP3     OH2      OT      -0.834000       15.9994           0
     22507 TIP3     42       TIP3     H1       HT       0.417000       1.00800           0
     22508 TIP3     42       TIP3     H2       HT       0.417000       1.00800           0
     22509 TIP3     43       TIP3     OH2      OT      -0.834000       15.9994           0
     22510 TIP3     43       TIP3     H1       HT       0.417000       1.00800           0
     22511 TIP3     43       TIP3     H2       HT       0.417000       1.00800           0
     22512 TIP3     44       TIP3     OH2      OT      -0.834000       15.9994           0
     22513 TIP3     44       TIP3     H1       HT       0.417000       1.00800           0
     22514 TIP3     44       TIP3     H2       HT       0.417000       1.00800           0
     22515 TIP3     45       TIP3     OH2      OT      -0.834000       15.9994           0
     22516 TIP3     45       TIP3     H1       HT       0.417000       1.00800           0
     22517 TIP3     45       TIP3     H2       HT       0.417000       1.00800           0
     22518 TIP3     46       TIP3     OH2      OT      -0.834000       15.9994           0
     22519 TIP3     46       TIP3     H1       HT       0.417000       1.00800           0
     22520 TIP3     46       TIP3     H2       HT       0.417000       1.00800           0
     22521 TIP3     47       TIP3     OH2      OT      -0.834000       15.9994           0
     22522 TIP3     47       TIP3     H1       HT       0.417000       1.00800           0
     22523 TIP3     47       TIP3     H2       HT       0.417000       1.00800           0
     22524 TIP3     48       TIP3     OH2      OT      -0.834000       15.9994           0
     22525 TIP3     48       TIP3     H1       HT       0.417000       1.00800           0
     22526 TIP3     48       TIP3     H2       HT       0.417000       1.00800           0
     22527 TIP3     49       TIP3     OH2      OT      -0.834000       15.9994           0
     22528 TIP3     49       TIP3     H1       HT       0.417000       1.00800           0
     22529 TIP3     49       TIP3     H2       HT       0.417000       1.00800           0
     22530 TIP3     50       TIP3     OH2      OT      -0.834000       15.9994           0
     22531 TIP3     50       TIP3     H1       HT       0.417000       1.00800           0
     22532 TIP3     50       TIP3     H2       HT       0.417000       1.00800           0
     22533 TIP3     51       TIP3     OH2      OT      -0.834000       15.9994           0
     22534 TIP3     51       TIP3     H1       HT       0.417000       1.00800           0
     22535 TIP3     51       TIP3     H2       HT       0.417000       1.00800           0
     22536 TIP3     52       TIP3     OH2      OT      -0.834000       15.9994           0
     22537 TIP3     52       TIP3     H1       HT       0.417000       1.00800           0
     22538 TIP3     52       TIP3     H2       HT       0.417000       1.00800           0
     22539 TIP3     53       TIP3     OH2      OT      -0.834000       15.9994           0
     22540 TIP3     53       TIP3     H1       HT       0.417000       1.00800           0
     22541 TIP3     53       TIP3     H2       HT       0.417000       1.00800           0
     22542 TIP3     54       TIP3     OH2      OT      -0.834000       15.9994           0
     22543 TIP3     54       TIP3     H1       HT       0.417000       1.00800           0
     22544 TIP3     54       TIP3     H2       HT       0.417000       1.00800           0
     22545 TIP3     55       TIP3     OH2      OT      -0.834000       15.9994           0
     22546 TIP3     55       TIP3     H1       HT       0.417000       1.00800           0
     22547 TIP3     55       TIP3     H2       HT       0.417000       1.00800           0
     22548 TIP3     56       TIP3     OH2      OT      -0.834000       15.9994           0
     22549 TIP3     56       TIP3     H1       HT       0.417000       1.00800           0
     22550 TIP3     56       TIP3     H2       HT       0.417000       1.00800           0
     22551 TIP3     57       TIP3     OH2      OT      -0.834000       15.9994           0
     22552 TIP3     57       TIP3     H1       HT       0.417000       1.00800           0
     22553 TIP3     57       TIP3     H2       HT       0.417000       1.00800           0
     22554 TIP3     58       TIP3     OH2      OT      -0.834000       15.9994           0
     22555 TIP3     58       TIP3     H1       HT       0.417000       1.00800           0
     22556 TIP3     58       TIP3     H2       HT       0.417000       1.00800           0
     22557 TIP3     59       TIP3     OH2      OT      -0.834000       15.9994           0
     22558 TIP3     59       TIP3     H1       HT       0.417000       1.00800           0
     22559 TIP3     59       TIP3     H2       HT       0.417000       1.00800           0
     22560 TIP3     60       TIP3     OH2      OT      -0.834000       15.9994           0
     22561 TIP3     60       TIP3     H1       HT       0.417000       1.00800           0
     22562 TIP3     60       TIP3     H2       HT       0.417000       1.00800           0
     22563 TIP3     61       TIP3     OH2      OT      -0.834000       15.9994           0
     22564 TIP3     61       TIP3     H1       HT       0.417000       1.00800           0
     22565 TIP3     61       TIP3     H2       HT       0.417000       1.00800           0
     22566 TIP3     62       TIP3     OH2      OT      -0.834000       15.9994           0
     22567 TIP3     62       TIP3     H1       HT       0.417000       1.00800           0
     22568 TIP3     62       TIP3     H2       HT       0.417000       1.00800           0
     22569 TIP3     63       TIP3     OH2      OT      -0.834000       15.9994           0
     22570 TIP3     63       TIP3     H1       HT       0.417000       1.00800           0
     22571 TIP3     63       TIP3     H2       HT       0.417000       1.00800           0
     22572 TIP3     64       TIP3     OH2      OT      -0.834000       15.9994           0
     22573 TIP3     64       TIP3     H1       HT       0.417000       1.00800           0
     22574 TIP3     64       TIP3     H2       HT       0.417000       1.00800           0
     22575 TIP3     65       TIP3     OH2      OT      -0.834000       15.9994           0
     22576 TIP3     65       TIP3     H1       HT       0.417000       1.00800           0
     22577 TIP3     65       TIP3     H2       HT       0.417000       1.00800           0
     22578 TIP3     66       TIP3     OH2      OT      -0.834000       15.9994           0
     22579 TIP3     66       TIP3     H1       HT       0.417000       1.00800           0
     22580 TIP3     66       TIP3     H2       HT       0.417000       1.00800           0
     22581 TIP3     67       TIP3     OH2      OT      -0.834000       15.9994           0
     22582 TIP3     67       TIP3     H1       HT       0.417000       1.00800           0
     22583 TIP3     67       TIP3     H2       HT       0.417000       1.00800           0
     22584 TIP3     68       TIP3     OH2      OT      -0.834000       15.9994           0
     22585 TIP3     68       TIP3     H1       HT       0.417000       1.00800           0
     22586 TIP3     68       TIP3     H2       HT       0.417000       1.00800           0
     22587 TIP3     69       TIP3     OH2      OT      -0.834000       15.9994           0
     22588 TIP3     69       TIP3     H1       HT       0.417000       1.00800           0
     22589 TIP3     69       TIP3     H2       HT       0.417000       1.00800           0
     22590 TIP3     70       TIP3     OH2      OT      -0.834000       15.9994           0
     22591 TIP3     70       TIP3     H1       HT       0.417000       1.00800           0
     22592 TIP3     70       TIP3     H2       HT       0.417000       1.00800           0
     22593 TIP3     71       TIP3     OH2      OT      -0.834000       15.9994           0
     22594 TIP3     71       TIP3     H1       HT       0.417000       1.00800           0
     22595 TIP3     71       TIP3     H2       HT       0.417000       1.00800           0
     22596 TIP3     72       TIP3     OH2      OT      -0.834000       15.9994           0
     22597 TIP3     72       TIP3     H1       HT       0.417000       1.00800           0
     22598 TIP3     72       TIP3     H2       HT       0.417000       1.00800           0
     22599 TIP3     73       TIP3     OH2      OT      -0.834000       15.9994           0
     22600 TIP3     73       TIP3     H1       HT       0.417000       1.00800           0
     22601 TIP3     73       TIP3     H2       HT       0.417000       1.00800           0
     22602 TIP3     74       TIP3     OH2      OT      -0.834000       15.9994           0
     22603 TIP3     74       TIP3     H1       HT       0.417000       1.00800           0
     22604 TIP3     74       TIP3     H2       HT       0.417000       1.00800           0
     22605 TIP3     75       TIP3     OH2      OT      -0.834000       15.9994           0
     22606 TIP3     75       TIP3     H1       HT       0.417000       1.00800           0
     22607 TIP3     75       TIP3     H2       HT       0.417000       1.00800           0
     22608 TIP3     76       TIP3     OH2      OT      -0.834000       15.9994           0
     22609 TIP3     76       TIP3     H1       HT       0.417000       1.00800           0
     22610 TIP3     76       TIP3     H2       HT       0.417000       1.00800           0
     22611 TIP3     77       TIP3     OH2      OT      -0.834000       15.9994           0
     22612 TIP3     77       TIP3     H1       HT       0.417000       1.00800           0
     22613 TIP3     77       TIP3     H2       HT       0.417000       1.00800           0
     22614 TIP3     78       TIP3     OH2      OT      -0.834000       15.9994           0
     22615 TIP3     78       TIP3     H1       HT       0.417000       1.00800           0
     22616 TIP3     78       TIP3     H2       HT       0.417000       1.00800           0
     22617 TIP3     79       TIP3     OH2      OT      -0.834000       15.9994           0
     22618 TIP3     79       TIP3     H1       HT       0.417000       1.00800           0
     22619 TIP3     79       TIP3     H2       HT       0.417000       1.00800           0
     22620 TIP3     80       TIP3     OH2      OT      -0.834000       15.9994           0
     22621 TIP3     80       TIP3     H1       HT       0.417000       1.00800           0
     22622 TIP3     80       TIP3     H2       HT       0.417000       1.00800           0
     22623 TIP3     81       TIP3     OH2      OT      -0.834000       15.9994           0
     22624 TIP3     81       TIP3     H1       HT       0.417000       1.00800           0
     22625 TIP3     81       TIP3     H2       HT       0.417000       1.00800           0
     22626 TIP3     82       TIP3     OH2      OT      -0.834000       15.9994           0
     22627 TIP3     82       TIP3     H1       HT       0.417000       1.00800           0
     22628 TIP3     82       TIP3     H2       HT       0.417000       1.00800           0
     22629 TIP3     83       TIP3     OH2      OT      -0.834000       15.9994           0
     22630 TIP3     83       TIP3     H1       HT       0.417000       1.00800           0
     22631 TIP3     83       TIP3     H2       HT       0.417000       1.00800           0
     22632 TIP3     84       TIP3     OH2      OT      -0.834000       15.9994           0
     22633 TIP3     84       TIP3     H1       HT       0.417000       1.00800           0
     22634 TIP3     84       TIP3     H2       HT       0.417000       1.00800           0
     22635 TIP3     85       TIP3     OH2      OT      -0.834000       15.9994           0
     22636 TIP3     85       TIP3     H1       HT       0.417000       1.00800           0
     22637 TIP3     85       TIP3     H2       HT       0.417000       1.00800           0
     22638 TIP3     86       TIP3     OH2      OT      -0.834000       15.9994           0
     22639 TIP3     86       TIP3     H1       HT       0.417000       1.00800           0
     22640 TIP3     86       TIP3     H2       HT       0.417000       1.00800           0
     22641 TIP3     87       TIP3     OH2      OT      -0.834000       15.9994           0
     22642 TIP3     87       TIP3     H1       HT       0.417000       1.00800           0
     22643 TIP3     87       TIP3     H2       HT       0.417000       1.00800           0
     22644 TIP3     88       TIP3     OH2      OT      -0.834000       15.9994           0
     22645 TIP3     88       TIP3     H1       HT       0.417000       1.00800           0
     22646 TIP3     88       TIP3     H2       HT       0.417000       1.00800           0
     22647 TIP3     89       TIP3     OH2      OT      -0.834000       15.9994           0
     22648 TIP3     89       TIP3     H1       HT       0.417000       1.00800           0
     22649 TIP3     89       TIP3     H2       HT       0.417000       1.00800           0
     22650 TIP3     90       TIP3     OH2      OT      -0.834000       15.9994           0
     22651 TIP3     90       TIP3     H1       HT       0.417000       1.00800           0
     22652 TIP3     90       TIP3     H2       HT       0.417000       1.00800           0
     22653 TIP3     91       TIP3     OH2      OT      -0.834000       15.9994           0
     22654 TIP3     91       TIP3     H1       HT       0.417000       1.00800           0
     22655 TIP3     91       TIP3     H2       HT       0.417000       1.00800           0
     22656 TIP3     92       TIP3     OH2      OT      -0.834000       15.9994           0
     22657 TIP3     92       TIP3     H1       HT       0.417000       1.00800           0
     22658 TIP3     92       TIP3     H2       HT       0.417000       1.00800           0
     22659 TIP3     93       TIP3     OH2      OT      -0.834000       15.9994           0
     22660 TIP3     93       TIP3     H1       HT       0.417000       1.00800           0
     22661 TIP3     93       TIP3     H2       HT       0.417000       1.00800           0
     22662 TIP3     94       TIP3     OH2      OT      -0.834000       15.9994           0
     22663 TIP3     94       TIP3     H1       HT       0.417000       1.00800           0
     22664 TIP3     94       TIP3     H2       HT       0.417000       1.00800           0
     22665 TIP3     95       TIP3     OH2      OT      -0.834000       15.9994           0
     22666 TIP3     95       TIP3     H1       HT       0.417000       1.00800           0
     22667 TIP3     95       TIP3     H2       HT       0.417000       1.00800           0
     22668 TIP3     96       TIP3     OH2      OT      -0.834000       15.9994           0
     22669 TIP3     96       TIP3     H1       HT       0.417000       1.00800           0
     22670 TIP3     96       TIP3     H2       HT       0.417000       1.00800           0
     22671 TIP3     97       TIP3     OH2      OT      -0.834000       15.9994           0
     22672 TIP3     97       TIP3     H1       HT       0.417000       1.00800           0
     22673 TIP3     97       TIP3     H2       HT       0.417000       1.00800           0
     22674 TIP3     98       TIP3     OH2      OT      -0.834000       15.9994           0
     22675 TIP3     98       TIP3     H1       HT       0.417000       1.00800           0
     22676 TIP3     98       TIP3     H2       HT       0.417000       1.00800           0
     22677 TIP3     99       TIP3     OH2      OT      -0.834000       15.9994           0
     22678 TIP3     99       TIP3     H1       HT       0.417000       1.00800           0
     22679 TIP3     99       TIP3     H2       HT       0.417000       1.00800           0
     22680 TIP3     100      TIP3     OH2      OT      -0.834000       15.9994           0
     22681 TIP3     100      TIP3     H1       HT       0.417000       1.00800           0
     22682 TIP3     100      TIP3     H2       HT       0.417000       1.00800           0
     22683 TIP3     101      TIP3     OH2      OT      -0.834000       15.9994           0
     22684 TIP3     101      TIP3     H1       HT       0.417000       1.00800           0
     22685 TIP3     101      TIP3     H2       HT       0.417000       1.00800           0
     22686 TIP3     102      TIP3     OH2      OT      -0.834000       15.9994           0
     22687 TIP3     102      TIP3     H1       HT       0.417000       1.00800           0
     22688 TIP3     102      TIP3     H2       HT       0.417000       1.00800           0
     22689 TIP3     103      TIP3     OH2      OT      -0.834000       15.9994           0
     22690 TIP3     103      TIP3     H1       HT       0.417000       1.00800           0
     22691 TIP3     103      TIP3     H2       HT       0.417000       1.00800           0
     22692 TIP3     104      TIP3     OH2      OT      -0.834000       15.9994           0
     22693 TIP3     104      TIP3     H1       HT       0.417000       1.00800           0
     22694 TIP3     104      TIP3     H2       HT       0.417000       1.00800           0
     22695 TIP3     105      TIP3     OH2      OT      -0.834000       15.9994           0
     22696 TIP3     105      TIP3     H1       HT       0.417000       1.00800           0
     22697 TIP3     105      TIP3     H2       HT       0.417000       1.00800           0
     22698 TIP3     106      TIP3     OH2      OT      -0.834000       15.9994           0
     22699 TIP3     106      TIP3     H1       HT       0.417000       1.00800           0
     22700 TIP3     106      TIP3     H2       HT       0.417000       1.00800           0
     22701 TIP3     107      TIP3     OH2      OT      -0.834000       15.9994           0
     22702 TIP3     107      TIP3     H1       HT       0.417000       1.00800           0
     22703 TIP3     107      TIP3     H2       HT       0.417000       1.00800           0
     22704 TIP3     108      TIP3     OH2      OT      -0.834000       15.9994           0
     22705 TIP3     108      TIP3     H1       HT       0.417000       1.00800           0
     22706 TIP3     108      TIP3     H2       HT       0.417000       1.00800           0
     22707 TIP3     109      TIP3     OH2      OT      -0.834000       15.9994           0
     22708 TIP3     109      TIP3     H1       HT       0.417000       1.00800           0
     22709 TIP3     109      TIP3     H2       HT       0.417000       1.00800           0
     22710 TIP3     110      TIP3     OH2      OT      -0.834000       15.9994           0
     22711 TIP3     110      TIP3     H1       HT       0.417000       1.00800           0
     22712 TIP3     110      TIP3     H2       HT       0.417000       1.00800           0
     22713 TIP3     111      TIP3     OH2      OT      -0.834000       15.9994           0
     22714 TIP3     111      TIP3     H1       HT       0.417000       1.00800           0
     22715 TIP3     111      TIP3     H2       HT       0.417000       1.00800           0
     22716 TIP3     112      TIP3     OH2      OT      -0.834000       15.9994           0
     22717 TIP3     112      TIP3     H1       HT       0.417000       1.00800           0
     22718 TIP3     112      TIP3     H2       HT       0.417000       1.00800           0
     22719 TIP3     113      TIP3     OH2      OT      -0.834000       15.9994           0
     22720 TIP3     113      TIP3     H1       HT       0.417000       1.00800           0
     22721 TIP3     113      TIP3     H2       HT       0.417000       1.00800           0
     22722 TIP3     114      TIP3     OH2      OT      -0.834000       15.9994           0
     22723 TIP3     114      TIP3     H1       HT       0.417000       1.00800           0
     22724 TIP3     114      TIP3     H2       HT       0.417000       1.00800           0
     22725 TIP3     115      TIP3     OH2      OT      -0.834000       15.9994           0
     22726 TIP3     115      TIP3     H1       HT       0.417000       1.00800           0
     22727 TIP3     115      TIP3     H2       HT       0.417000       1.00800           0
     22728 TIP3     116      TIP3     OH2      OT      -0.834000       15.9994           0
     22729 TIP3     116      TIP3     H1       HT       0.417000       1.00800           0
     22730 TIP3     116      TIP3     H2       HT       0.417000       1.00800           0
     22731 TIP3     117      TIP3     OH2      OT      -0.834000       15.9994           0
     22732 TIP3     117      TIP3     H1       HT       0.417000       1.00800           0
     22733 TIP3     117      TIP3     H2       HT       0.417000       1.00800           0
     22734 TIP3     118      TIP3     OH2      OT      -0.834000       15.9994           0
     22735 TIP3     118      TIP3     H1       HT       0.417000       1.00800           0
     22736 TIP3     118      TIP3     H2       HT       0.417000       1.00800           0
     22737 TIP3     119      TIP3     OH2      OT      -0.834000       15.9994           0
     22738 TIP3     119      TIP3     H1       HT       0.417000       1.00800           0
     22739 TIP3     119      TIP3     H2       HT       0.417000       1.00800           0
     22740 TIP3     120      TIP3     OH2      OT      -0.834000       15.9994           0
     22741 TIP3     120      TIP3     H1       HT       0.417000       1.00800           0
     22742 TIP3     120      TIP3     H2       HT       0.417000       1.00800           0
     22743 TIP3     121      TIP3     OH2      OT      -0.834000       15.9994           0
     22744 TIP3     121      TIP3     H1       HT       0.417000       1.00800           0
     22745 TIP3     121      TIP3     H2       HT       0.417000       1.00800           0
     22746 TIP3     122      TIP3     OH2      OT      -0.834000       15.9994           0
     22747 TIP3     122      TIP3     H1       HT       0.417000       1.00800           0
     22748 TIP3     122      TIP3     H2       HT       0.417000       1.00800           0
     22749 TIP3     123      TIP3     OH2      OT      -0.834000       15.9994           0
     22750 TIP3     123      TIP3     H1       HT       0.417000       1.00800           0
     22751 TIP3     123      TIP3     H2       HT       0.417000       1.00800           0
     22752 TIP3     124      TIP3     OH2      OT      -0.834000       15.9994           0
     22753 TIP3     124      TIP3     H1       HT       0.417000       1.00800           0
     22754 TIP3     124      TIP3     H2       HT       0.417000       1.00800           0
     22755 TIP3     125      TIP3     OH2      OT      -0.834000       15.9994           0
     22756 TIP3     125      TIP3     H1       HT       0.417000       1.00800           0
     22757 TIP3     125      TIP3     H2       HT       0.417000       1.00800           0
     22758 TIP3     126      TIP3     OH2      OT      -0.834000       15.9994           0
     22759 TIP3     126      TIP3     H1       HT       0.417000       1.00800           0
     22760 TIP3     126      TIP3     H2       HT       0.417000       1.00800           0
     22761 TIP3     127      TIP3     OH2      OT      -0.834000       15.9994           0
     22762 TIP3     127      TIP3     H1       HT       0.417000       1.00800           0
     22763 TIP3     127      TIP3     H2       HT       0.417000       1.00800           0
     22764 TIP3     128      TIP3     OH2      OT      -0.834000       15.9994           0
     22765 TIP3     128      TIP3     H1       HT       0.417000       1.00800           0
     22766 TIP3     128      TIP3     H2       HT       0.417000       1.00800           0
     22767 TIP3     129      TIP3     OH2      OT      -0.834000       15.9994           0
     22768 TIP3     129      TIP3     H1       HT       0.417000       1.00800           0
     22769 TIP3     129      TIP3     H2       HT       0.417000       1.00800           0
     22770 TIP3     130      TIP3     OH2      OT      -0.834000       15.9994           0
     22771 TIP3     130      TIP3     H1       HT       0.417000       1.00800           0
     22772 TIP3     130      TIP3     H2       HT       0.417000       1.00800           0
     22773 TIP3     131      TIP3     OH2      OT      -0.834000       15.9994           0
     22774 TIP3     131      TIP3     H1       HT       0.417000       1.00800           0
     22775 TIP3     131      TIP3     H2       HT       0.417000       1.00800           0
     22776 TIP3     132      TIP3     OH2      OT      -0.834000       15.9994           0
     22777 TIP3     132      TIP3     H1       HT       0.417000       1.00800           0
     22778 TIP3     132      TIP3     H2       HT       0.417000       1.00800           0
     22779 TIP3     133      TIP3     OH2      OT      -0.834000       15.9994           0
     22780 TIP3     133      TIP3     H1       HT       0.417000       1.00800           0
     22781 TIP3     133      TIP3     H2       HT       0.417000       1.00800           0
     22782 TIP3     134      TIP3     OH2      OT      -0.834000       15.9994           0
     22783 TIP3     134      TIP3     H1       HT       0.417000       1.00800           0
     22784 TIP3     134      TIP3     H2       HT       0.417000       1.00800           0
     22785 TIP3     135      TIP3     OH2      OT      -0.834000       15.9994           0
     22786 TIP3     135      TIP3     H1       HT       0.417000       1.00800           0
     22787 TIP3     135      TIP3     H2       HT       0.417000       1.00800           0
     22788 TIP3     136      TIP3     OH2      OT      -0.834000       15.9994           0
     22789 TIP3     136      TIP3     H1       HT       0.417000       1.00800           0
     22790 TIP3     136      TIP3     H2       HT       0.417000       1.00800           0
     22791 TIP3     137      TIP3     OH2      OT      -0.834000       15.9994           0
     22792 TIP3     137      TIP3     H1       HT       0.417000       1.00800           0
     22793 TIP3     137      TIP3     H2       HT       0.417000       1.00800           0
     22794 TIP3     138      TIP3     OH2      OT      -0.834000       15.9994           0
     22795 TIP3     138      TIP3     H1       HT       0.417000       1.00800           0
     22796 TIP3     138      TIP3     H2       HT       0.417000       1.00800           0
     22797 TIP3     139      TIP3     OH2      OT      -0.834000       15.9994           0
     22798 TIP3     139      TIP3     H1       HT       0.417000       1.00800           0
     22799 TIP3     139      TIP3     H2       HT       0.417000       1.00800           0
     22800 TIP3     140      TIP3     OH2      OT      -0.834000       15.9994           0
     22801 TIP3     140      TIP3     H1       HT       0.417000       1.00800           0
     22802 TIP3     140      TIP3     H2       HT       0.417000       1.00800           0
     22803 TIP3     141      TIP3     OH2      OT      -0.834000       15.9994           0
     22804 TIP3     141      TIP3     H1       HT       0.417000       1.00800           0
     22805 TIP3     141      TIP3     H2       HT       0.417000       1.00800           0
     22806 TIP3     142      TIP3     OH2      OT      -0.834000       15.9994           0
     22807 TIP3     142      TIP3     H1       HT       0.417000       1.00800           0
     22808 TIP3     142      TIP3     H2       HT       0.417000       1.00800           0
     22809 TIP3     143      TIP3     OH2      OT      -0.834000       15.9994           0
     22810 TIP3     143      TIP3     H1       HT       0.417000       1.00800           0
     22811 TIP3     143      TIP3     H2       HT       0.417000       1.00800           0
     22812 TIP3     144      TIP3     OH2      OT      -0.834000       15.9994           0
     22813 TIP3     144      TIP3     H1       HT       0.417000       1.00800           0
     22814 TIP3     144      TIP3     H2       HT       0.417000       1.00800           0
     22815 TIP3     145      TIP3     OH2      OT      -0.834000       15.9994           0
     22816 TIP3     145      TIP3     H1       HT       0.417000       1.00800           0
     22817 TIP3     145      TIP3     H2       HT       0.417000       1.00800           0
     22818 TIP3     146      TIP3     OH2      OT      -0.834000       15.9994           0
     22819 TIP3     146      TIP3     H1       HT       0.417000       1.00800           0
     22820 TIP3     146      TIP3     H2       HT       0.417000       1.00800           0
     22821 TIP3     147      TIP3     OH2      OT      -0.834000       15.9994           0
     22822 TIP3     147      TIP3     H1       HT       0.417000       1.00800           0
     22823 TIP3     147      TIP3     H2       HT       0.417000       1.00800           0
     22824 TIP3     148      TIP3     OH2      OT      -0.834000       15.9994           0
     22825 TIP3     148      TIP3     H1       HT       0.417000       1.00800           0
     22826 TIP3     148      TIP3     H2       HT       0.417000       1.00800           0
     22827 TIP3     149      TIP3     OH2      OT      -0.834000       15.9994           0
     22828 TIP3     149      TIP3     H1       HT       0.417000       1.00800           0
     22829 TIP3     149      TIP3     H2       HT       0.417000       1.00800           0
     22830 TIP3     150      TIP3     OH2      OT      -0.834000       15.9994           0
     22831 TIP3     150      TIP3     H1       HT       0.417000       1.00800           0
     22832 TIP3     150      TIP3     H2       HT       0.417000       1.00800           0
     22833 TIP3     151      TIP3     OH2      OT      -0.834000       15.9994           0
     22834 TIP3     151      TIP3     H1       HT       0.417000       1.00800           0
     22835 TIP3     151      TIP3     H2       HT       0.417000       1.00800           0
     22836 TIP3     152      TIP3     OH2      OT      -0.834000       15.9994           0
     22837 TIP3     152      TIP3     H1       HT       0.417000       1.00800           0
     22838 TIP3     152      TIP3     H2       HT       0.417000       1.00800           0
     22839 TIP3     153      TIP3     OH2      OT      -0.834000       15.9994           0
     22840 TIP3     153      TIP3     H1       HT       0.417000       1.00800           0
     22841 TIP3     153      TIP3     H2       HT       0.417000       1.00800           0
     22842 TIP3     154      TIP3     OH2      OT      -0.834000       15.9994           0
     22843 TIP3     154      TIP3     H1       HT       0.417000       1.00800           0
     22844 TIP3     154      TIP3     H2       HT       0.417000       1.00800           0
     22845 TIP3     155      TIP3     OH2      OT      -0.834000       15.9994           0
     22846 TIP3     155      TIP3     H1       HT       0.417000       1.00800           0
     22847 TIP3     155      TIP3     H2       HT       0.417000       1.00800           0
     22848 TIP3     156      TIP3     OH2      OT      -0.834000       15.9994           0
     22849 TIP3     156      TIP3     H1       HT       0.417000       1.00800           0
     22850 TIP3     156      TIP3     H2       HT       0.417000       1.00800           0
     22851 TIP3     157      TIP3     OH2      OT      -0.834000       15.9994           0
     22852 TIP3     157      TIP3     H1       HT       0.417000       1.00800           0
     22853 TIP3     157      TIP3     H2       HT       0.417000       1.00800           0
     22854 TIP3     158      TIP3     OH2      OT      -0.834000       15.9994           0
     22855 TIP3     158      TIP3     H1       HT       0.417000       1.00800           0
     22856 TIP3     158      TIP3     H2       HT       0.417000       1.00800           0
     22857 TIP3     159      TIP3     OH2      OT      -0.834000       15.9994           0
     22858 TIP3     159      TIP3     H1       HT       0.417000       1.00800           0
     22859 TIP3     159      TIP3     H2       HT       0.417000       1.00800           0
     22860 TIP3     160      TIP3     OH2      OT      -0.834000       15.9994           0
     22861 TIP3     160      TIP3     H1       HT       0.417000       1.00800           0
     22862 TIP3     160      TIP3     H2       HT       0.417000       1.00800           0
     22863 TIP3     161      TIP3     OH2      OT      -0.834000       15.9994           0
     22864 TIP3     161      TIP3     H1       HT       0.417000       1.00800           0
     22865 TIP3     161      TIP3     H2       HT       0.417000       1.00800           0
     22866 TIP3     162      TIP3     OH2      OT      -0.834000       15.9994           0
     22867 TIP3     162      TIP3     H1       HT       0.417000       1.00800           0
     22868 TIP3     162      TIP3     H2       HT       0.417000       1.00800           0
     22869 TIP3     163      TIP3     OH2      OT      -0.834000       15.9994           0
     22870 TIP3     163      TIP3     H1       HT       0.417000       1.00800           0
     22871 TIP3     163      TIP3     H2       HT       0.417000       1.00800           0
     22872 TIP3     164      TIP3     OH2      OT      -0.834000       15.9994           0
     22873 TIP3     164      TIP3     H1       HT       0.417000       1.00800           0
     22874 TIP3     164      TIP3     H2       HT       0.417000       1.00800           0
     22875 TIP3     165      TIP3     OH2      OT      -0.834000       15.9994           0
     22876 TIP3     165      TIP3     H1       HT       0.417000       1.00800           0
     22877 TIP3     165      TIP3     H2       HT       0.417000       1.00800           0
     22878 TIP3     166      TIP3     OH2      OT      -0.834000       15.9994           0
     22879 TIP3     166      TIP3     H1       HT       0.417000       1.00800           0
     22880 TIP3     166      TIP3     H2       HT       0.417000       1.00800           0
     22881 TIP3     167      TIP3     OH2      OT      -0.834000       15.9994           0
     22882 TIP3     167      TIP3     H1       HT       0.417000       1.00800           0
     22883 TIP3     167      TIP3     H2       HT       0.417000       1.00800           0
     22884 TIP3     168      TIP3     OH2      OT      -0.834000       15.9994           0
     22885 TIP3     168      TIP3     H1       HT       0.417000       1.00800           0
     22886 TIP3     168      TIP3     H2       HT       0.417000       1.00800           0
     22887 TIP3     169      TIP3     OH2      OT      -0.834000       15.9994           0
     22888 TIP3     169      TIP3     H1       HT       0.417000       1.00800           0
     22889 TIP3     169      TIP3     H2       HT       0.417000       1.00800           0
     22890 TIP3     170      TIP3     OH2      OT      -0.834000       15.9994           0
     22891 TIP3     170      TIP3     H1       HT       0.417000       1.00800           0
     22892 TIP3     170      TIP3     H2       HT       0.417000       1.00800           0
     22893 TIP3     171      TIP3     OH2      OT      -0.834000       15.9994           0
     22894 TIP3     171      TIP3     H1       HT       0.417000       1.00800           0
     22895 TIP3     171      TIP3     H2       HT       0.417000       1.00800           0
     22896 TIP3     172      TIP3     OH2      OT      -0.834000       15.9994           0
     22897 TIP3     172      TIP3     H1       HT       0.417000       1.00800           0
     22898 TIP3     172      TIP3     H2       HT       0.417000       1.00800           0
     22899 TIP3     173      TIP3     OH2      OT      -0.834000       15.9994           0
     22900 TIP3     173      TIP3     H1       HT       0.417000       1.00800           0
     22901 TIP3     173      TIP3     H2       HT       0.417000       1.00800           0
     22902 TIP3     174      TIP3     OH2      OT      -0.834000       15.9994           0
     22903 TIP3     174      TIP3     H1       HT       0.417000       1.00800           0
     22904 TIP3     174      TIP3     H2       HT       0.417000       1.00800           0
     22905 TIP3     175      TIP3     OH2      OT      -0.834000       15.9994           0
     22906 TIP3     175      TIP3     H1       HT       0.417000       1.00800           0
     22907 TIP3     175      TIP3     H2       HT       0.417000       1.00800           0
     22908 TIP3     176      TIP3     OH2      OT      -0.834000       15.9994           0
     22909 TIP3     176      TIP3     H1       HT       0.417000       1.00800           0
     22910 TIP3     176      TIP3     H2       HT       0.417000       1.00800           0
     22911 TIP3     177      TIP3     OH2      OT      -0.834000       15.9994           0
     22912 TIP3     177      TIP3     H1       HT       0.417000       1.00800           0
     22913 TIP3     177      TIP3     H2       HT       0.417000       1.00800           0
     22914 TIP3     178      TIP3     OH2      OT      -0.834000       15.9994           0
     22915 TIP3     178      TIP3     H1       HT       0.417000       1.00800           0
     22916 TIP3     178      TIP3     H2       HT       0.417000       1.00800           0
     22917 TIP3     179      TIP3     OH2      OT      -0.834000       15.9994           0
     22918 TIP3     179      TIP3     H1       HT       0.417000       1.00800           0
     22919 TIP3     179      TIP3     H2       HT       0.417000       1.00800           0
     22920 TIP3     180      TIP3     OH2      OT      -0.834000       15.9994           0
     22921 TIP3     180      TIP3     H1       HT       0.417000       1.00800           0
     22922 TIP3     180      TIP3     H2       HT       0.417000       1.00800           0
     22923 TIP3     181      TIP3     OH2      OT      -0.834000       15.9994           0
     22924 TIP3     181      TIP3     H1       HT       0.417000       1.00800           0
     22925 TIP3     181      TIP3     H2       HT       0.417000       1.00800           0
     22926 TIP3     182      TIP3     OH2      OT      -0.834000       15.9994           0
     22927 TIP3     182      TIP3     H1       HT       0.417000       1.00800           0
     22928 TIP3     182      TIP3     H2       HT       0.417000       1.00800           0
     22929 TIP3     183      TIP3     OH2      OT      -0.834000       15.9994           0
     22930 TIP3     183      TIP3     H1       HT       0.417000       1.00800           0
     22931 TIP3     183      TIP3     H2       HT       0.417000       1.00800           0
     22932 TIP3     184      TIP3     OH2      OT      -0.834000       15.9994           0
     22933 TIP3     184      TIP3     H1       HT       0.417000       1.00800           0
     22934 TIP3     184      TIP3     H2       HT       0.417000       1.00800           0
     22935 TIP3     185      TIP3     OH2      OT      -0.834000       15.9994           0
     22936 TIP3     185      TIP3     H1       HT       0.417000       1.00800           0
     22937 TIP3     185      TIP3     H2       HT       0.417000       1.00800           0
     22938 TIP3     186      TIP3     OH2      OT      -0.834000       15.9994           0
     22939 TIP3     186      TIP3     H1       HT       0.417000       1.00800           0
     22940 TIP3     186      TIP3     H2       HT       0.417000       1.00800           0
     22941 TIP3     187      TIP3     OH2      OT      -0.834000       15.9994           0
     22942 TIP3     187      TIP3     H1       HT       0.417000       1.00800           0
     22943 TIP3     187      TIP3     H2       HT       0.417000       1.00800           0
     22944 TIP3     188      TIP3     OH2      OT      -0.834000       15.9994           0
     22945 TIP3     188      TIP3     H1       HT       0.417000       1.00800           0
     22946 TIP3     188      TIP3     H2       HT       0.417000       1.00800           0
     22947 TIP3     189      TIP3     OH2      OT      -0.834000       15.9994           0
     22948 TIP3     189      TIP3     H1       HT       0.417000       1.00800           0
     22949 TIP3     189      TIP3     H2       HT       0.417000       1.00800           0
     22950 TIP3     190      TIP3     OH2      OT      -0.834000       15.9994           0
     22951 TIP3     190      TIP3     H1       HT       0.417000       1.00800           0
     22952 TIP3     190      TIP3     H2       HT       0.417000       1.00800           0
     22953 TIP3     191      TIP3     OH2      OT      -0.834000       15.9994           0
     22954 TIP3     191      TIP3     H1       HT       0.417000       1.00800           0
     22955 TIP3     191      TIP3     H2       HT       0.417000       1.00800           0
     22956 TIP3     192      TIP3     OH2      OT      -0.834000       15.9994           0
     22957 TIP3     192      TIP3     H1       HT       0.417000       1.00800           0
     22958 TIP3     192      TIP3     H2       HT       0.417000       1.00800           0
     22959 TIP3     193      TIP3     OH2      OT      -0.834000       15.9994           0
     22960 TIP3     193      TIP3     H1       HT       0.417000       1.00800           0
     22961 TIP3     193      TIP3     H2       HT       0.417000       1.00800           0
     22962 TIP3     194      TIP3     OH2      OT      -0.834000       15.9994           0
     22963 TIP3     194      TIP3     H1       HT       0.417000       1.00800           0
     22964 TIP3     194      TIP3     H2       HT       0.417000       1.00800           0
     22965 TIP3     195      TIP3     OH2      OT      -0.834000       15.9994           0
     22966 TIP3     195      TIP3     H1       HT       0.417000       1.00800           0
     22967 TIP3     195      TIP3     H2       HT       0.417000       1.00800           0
     22968 TIP3     196      TIP3     OH2      OT      -0.834000       15.9994           0
     22969 TIP3     196      TIP3     H1       HT       0.417000       1.00800           0
     22970 TIP3     196      TIP3     H2       HT       0.417000       1.00800           0
     22971 TIP3     197      TIP3     OH2      OT      -0.834000       15.9994           0
     22972 TIP3     197      TIP3     H1       HT       0.417000       1.00800           0
     22973 TIP3     197      TIP3     H2       HT       0.417000       1.00800           0
     22974 TIP3     198      TIP3     OH2      OT      -0.834000       15.9994           0
     22975 TIP3     198      TIP3     H1       HT       0.417000       1.00800           0
     22976 TIP3     198      TIP3     H2       HT       0.417000       1.00800           0
     22977 TIP3     199      TIP3     OH2      OT      -0.834000       15.9994           0
     22978 TIP3     199      TIP3     H1       HT       0.417000       1.00800           0
     22979 TIP3     199      TIP3     H2       HT       0.417000       1.00800           0
     22980 TIP3     200      TIP3     OH2      OT      -0.834000       15.9994           0
     22981 TIP3     200      TIP3     H1       HT       0.417000       1.00800           0
     22982 TIP3     200      TIP3     H2       HT       0.417000       1.00800           0
     22983 TIP3     201      TIP3     OH2      OT      -0.834000       15.9994           0
     22984 TIP3     201      TIP3     H1       HT       0.417000       1.00800           0
     22985 TIP3     201      TIP3     H2       HT       0.417000       1.00800           0
     22986 TIP3     202      TIP3     OH2      OT      -0.834000       15.9994           0
     22987 TIP3     202      TIP3     H1       HT       0.417000       1.00800           0
     22988 TIP3     202      TIP3     H2       HT       0.417000       1.00800           0
     22989 TIP3     203      TIP3     OH2      OT      -0.834000       15.9994           0
     22990 TIP3     203      TIP3     H1       HT       0.417000       1.00800           0
     22991 TIP3     203      TIP3     H2       HT       0.417000       1.00800           0
     22992 TIP3     204      TIP3     OH2      OT      -0.834000       15.9994           0
     22993 TIP3     204      TIP3     H1       HT       0.417000       1.00800           0
     22994 TIP3     204      TIP3     H2       HT       0.417000       1.00800           0
     22995 TIP3     205      TIP3     OH2      OT      -0.834000       15.9994           0
     22996 TIP3     205      TIP3     H1       HT       0.417000       1.00800           0
     22997 TIP3     205      TIP3     H2       HT       0.417000       1.00800           0
     22998 TIP3     206      TIP3     OH2      OT      -0.834000       15.9994           0
     22999 TIP3     206      TIP3     H1       HT       0.417000       1.00800           0
     23000 TIP3     206      TIP3     H2       HT       0.417000       1.00800           0
     23001 TIP3     207      TIP3     OH2      OT      -0.834000       15.9994           0
     23002 TIP3     207      TIP3     H1       HT       0.417000       1.00800           0
     23003 TIP3     207      TIP3     H2       HT       0.417000       1.00800           0
     23004 TIP3     208      TIP3     OH2      OT      -0.834000       15.9994           0
     23005 TIP3     208      TIP3     H1       HT       0.417000       1.00800           0
     23006 TIP3     208      TIP3     H2       HT       0.417000       1.00800           0
     23007 TIP3     209      TIP3     OH2      OT      -0.834000       15.9994           0
     23008 TIP3     209      TIP3     H1       HT       0.417000       1.00800           0
     23009 TIP3     209      TIP3     H2       HT       0.417000       1.00800           0
     23010 TIP3     210      TIP3     OH2      OT      -0.834000       15.9994           0
     23011 TIP3     210      TIP3     H1       HT       0.417000       1.00800           0
     23012 TIP3     210      TIP3     H2       HT       0.417000       1.00800           0
     23013 TIP3     211      TIP3     OH2      OT      -0.834000       15.9994           0
     23014 TIP3     211      TIP3     H1       HT       0.417000       1.00800           0
     23015 TIP3     211      TIP3     H2       HT       0.417000       1.00800           0
     23016 TIP3     212      TIP3     OH2      OT      -0.834000       15.9994           0
     23017 TIP3     212      TIP3     H1       HT       0.417000       1.00800           0
     23018 TIP3     212      TIP3     H2       HT       0.417000       1.00800           0
     23019 TIP3     213      TIP3     OH2      OT      -0.834000       15.9994           0
     23020 TIP3     213      TIP3     H1       HT       0.417000       1.00800           0
     23021 TIP3     213      TIP3     H2       HT       0.417000       1.00800           0
     23022 TIP3     214      TIP3     OH2      OT      -0.834000       15.9994           0
     23023 TIP3     214      TIP3     H1       HT       0.417000       1.00800           0
     23024 TIP3     214      TIP3     H2       HT       0.417000       1.00800           0
     23025 TIP3     215      TIP3     OH2      OT      -0.834000       15.9994           0
     23026 TIP3     215      TIP3     H1       HT       0.417000       1.00800           0
     23027 TIP3     215      TIP3     H2       HT       0.417000       1.00800           0
     23028 TIP3     216      TIP3     OH2      OT      -0.834000       15.9994           0
     23029 TIP3     216      TIP3     H1       HT       0.417000       1.00800           0
     23030 TIP3     216      TIP3     H2       HT       0.417000       1.00800           0
     23031 TIP3     217      TIP3     OH2      OT      -0.834000       15.9994           0
     23032 TIP3     217      TIP3     H1       HT       0.417000       1.00800           0
     23033 TIP3     217      TIP3     H2       HT       0.417000       1.00800           0
     23034 TIP3     218      TIP3     OH2      OT      -0.834000       15.9994           0
     23035 TIP3     218      TIP3     H1       HT       0.417000       1.00800           0
     23036 TIP3     218      TIP3     H2       HT       0.417000       1.00800           0
     23037 TIP3     219      TIP3     OH2      OT      -0.834000       15.9994           0
     23038 TIP3     219      TIP3     H1       HT       0.417000       1.00800           0
     23039 TIP3     219      TIP3     H2       HT       0.417000       1.00800           0
     23040 TIP3     220      TIP3     OH2      OT      -0.834000       15.9994           0
     23041 TIP3     220      TIP3     H1       HT       0.417000       1.00800           0
     23042 TIP3     220      TIP3     H2       HT       0.417000       1.00800           0
     23043 TIP3     221      TIP3     OH2      OT      -0.834000       15.9994           0
     23044 TIP3     221      TIP3     H1       HT       0.417000       1.00800           0
     23045 TIP3     221      TIP3     H2       HT       0.417000       1.00800           0
     23046 TIP3     222      TIP3     OH2      OT      -0.834000       15.9994           0
     23047 TIP3     222      TIP3     H1       HT       0.417000       1.00800           0
     23048 TIP3     222      TIP3     H2       HT       0.417000       1.00800           0
     23049 TIP3     223      TIP3     OH2      OT      -0.834000       15.9994           0
     23050 TIP3     223      TIP3     H1       HT       0.417000       1.00800           0
     23051 TIP3     223      TIP3     H2       HT       0.417000       1.00800           0
     23052 TIP3     224      TIP3     OH2      OT      -0.834000       15.9994           0
     23053 TIP3     224      TIP3     H1       HT       0.417000       1.00800           0
     23054 TIP3     224      TIP3     H2       HT       0.417000       1.00800           0
     23055 TIP3     225      TIP3     OH2      OT      -0.834000       15.9994           0
     23056 TIP3     225      TIP3     H1       HT       0.417000       1.00800           0
     23057 TIP3     225      TIP3     H2       HT       0.417000       1.00800           0
     23058 TIP3     226      TIP3     OH2      OT      -0.834000       15.9994           0
     23059 TIP3     226      TIP3     H1       HT       0.417000       1.00800           0
     23060 TIP3     226      TIP3     H2       HT       0.417000       1.00800           0
     23061 TIP3     227      TIP3     OH2      OT      -0.834000       15.9994           0
     23062 TIP3     227      TIP3     H1       HT       0.417000       1.00800           0
     23063 TIP3     227      TIP3     H2       HT       0.417000       1.00800           0
     23064 TIP3     228      TIP3     OH2      OT      -0.834000       15.9994           0
     23065 TIP3     228      TIP3     H1       HT       0.417000       1.00800           0
     23066 TIP3     228      TIP3     H2       HT       0.417000       1.00800           0
     23067 TIP3     229      TIP3     OH2      OT      -0.834000       15.9994           0
     23068 TIP3     229      TIP3     H1       HT       0.417000       1.00800           0
     23069 TIP3     229      TIP3     H2       HT       0.417000       1.00800           0
     23070 TIP3     230      TIP3     OH2      OT      -0.834000       15.9994           0
     23071 TIP3     230      TIP3     H1       HT       0.417000       1.00800           0
     23072 TIP3     230      TIP3     H2       HT       0.417000       1.00800           0
     23073 TIP3     231      TIP3     OH2      OT      -0.834000       15.9994           0
     23074 TIP3     231      TIP3     H1       HT       0.417000       1.00800           0
     23075 TIP3     231      TIP3     H2       HT       0.417000       1.00800           0
     23076 TIP3     232      TIP3     OH2      OT      -0.834000       15.9994           0
     23077 TIP3     232      TIP3     H1       HT       0.417000       1.00800           0
     23078 TIP3     232      TIP3     H2       HT       0.417000       1.00800           0
     23079 TIP3     233      TIP3     OH2      OT      -0.834000       15.9994           0
     23080 TIP3     233      TIP3     H1       HT       0.417000       1.00800           0
     23081 TIP3     233      TIP3     H2       HT       0.417000       1.00800           0
     23082 TIP3     234      TIP3     OH2      OT      -0.834000       15.9994           0
     23083 TIP3     234      TIP3     H1       HT       0.417000       1.00800           0
     23084 TIP3     234      TIP3     H2       HT       0.417000       1.00800           0
     23085 TIP3     235      TIP3     OH2      OT      -0.834000       15.9994           0
     23086 TIP3     235      TIP3     H1       HT       0.417000       1.00800           0
     23087 TIP3     235      TIP3     H2       HT       0.417000       1.00800           0
     23088 TIP3     236      TIP3     OH2      OT      -0.834000       15.9994           0
     23089 TIP3     236      TIP3     H1       HT       0.417000       1.00800           0
     23090 TIP3     236      TIP3     H2       HT       0.417000       1.00800           0
     23091 TIP3     237      TIP3     OH2      OT      -0.834000       15.9994           0
     23092 TIP3     237      TIP3     H1       HT       0.417000       1.00800           0
     23093 TIP3     237      TIP3     H2       HT       0.417000       1.00800           0
     23094 TIP3     238      TIP3     OH2      OT      -0.834000       15.9994           0
     23095 TIP3     238      TIP3     H1       HT       0.417000       1.00800           0
     23096 TIP3     238      TIP3     H2       HT       0.417000       1.00800           0
     23097 TIP3     239      TIP3     OH2      OT      -0.834000       15.9994           0
     23098 TIP3     239      TIP3     H1       HT       0.417000       1.00800           0
     23099 TIP3     239      TIP3     H2       HT       0.417000       1.00800           0
     23100 TIP3     240      TIP3     OH2      OT      -0.834000       15.9994           0
     23101 TIP3     240      TIP3     H1       HT       0.417000       1.00800           0
     23102 TIP3     240      TIP3     H2       HT       0.417000       1.00800           0
     23103 TIP3     241      TIP3     OH2      OT      -0.834000       15.9994           0
     23104 TIP3     241      TIP3     H1       HT       0.417000       1.00800           0
     23105 TIP3     241      TIP3     H2       HT       0.417000       1.00800           0
     23106 TIP3     242      TIP3     OH2      OT      -0.834000       15.9994           0
     23107 TIP3     242      TIP3     H1       HT       0.417000       1.00800           0
     23108 TIP3     242      TIP3     H2       HT       0.417000       1.00800           0
     23109 TIP3     243      TIP3     OH2      OT      -0.834000       15.9994           0
     23110 TIP3     243      TIP3     H1       HT       0.417000       1.00800           0
     23111 TIP3     243      TIP3     H2       HT       0.417000       1.00800           0
     23112 TIP3     244      TIP3     OH2      OT      -0.834000       15.9994           0
     23113 TIP3     244      TIP3     H1       HT       0.417000       1.00800           0
     23114 TIP3     244      TIP3     H2       HT       0.417000       1.00800           0
     23115 TIP3     245      TIP3     OH2      OT      -0.834000       15.9994           0
     23116 TIP3     245      TIP3     H1       HT       0.417000       1.00800           0
     23117 TIP3     245      TIP3     H2       HT       0.417000       1.00800           0
     23118 TIP3     246      TIP3     OH2      OT      -0.834000       15.9994           0
     23119 TIP3     246      TIP3     H1       HT       0.417000       1.00800           0
     23120 TIP3     246      TIP3     H2       HT       0.417000       1.00800           0
     23121 TIP3     247      TIP3     OH2      OT      -0.834000       15.9994           0
     23122 TIP3     247      TIP3     H1       HT       0.417000       1.00800           0
     23123 TIP3     247      TIP3     H2       HT       0.417000       1.00800           0
     23124 TIP3     248      TIP3     OH2      OT      -0.834000       15.9994           0
     23125 TIP3     248      TIP3     H1       HT       0.417000       1.00800           0
     23126 TIP3     248      TIP3     H2       HT       0.417000       1.00800           0
     23127 TIP3     249      TIP3     OH2      OT      -0.834000       15.9994           0
     23128 TIP3     249      TIP3     H1       HT       0.417000       1.00800           0
     23129 TIP3     249      TIP3     H2       HT       0.417000       1.00800           0
     23130 TIP3     250      TIP3     OH2      OT      -0.834000       15.9994           0
     23131 TIP3     250      TIP3     H1       HT       0.417000       1.00800           0
     23132 TIP3     250      TIP3     H2       HT       0.417000       1.00800           0
     23133 TIP3     251      TIP3     OH2      OT      -0.834000       15.9994           0
     23134 TIP3     251      TIP3     H1       HT       0.417000       1.00800           0
     23135 TIP3     251      TIP3     H2       HT       0.417000       1.00800           0
     23136 TIP3     252      TIP3     OH2      OT      -0.834000       15.9994           0
     23137 TIP3     252      TIP3     H1       HT       0.417000       1.00800           0
     23138 TIP3     252      TIP3     H2       HT       0.417000       1.00800           0
     23139 TIP3     253      TIP3     OH2      OT      -0.834000       15.9994           0
     23140 TIP3     253      TIP3     H1       HT       0.417000       1.00800           0
     23141 TIP3     253      TIP3     H2       HT       0.417000       1.00800           0
     23142 TIP3     254      TIP3     OH2      OT      -0.834000       15.9994           0
     23143 TIP3     254      TIP3     H1       HT       0.417000       1.00800           0
     23144 TIP3     254      TIP3     H2       HT       0.417000       1.00800           0
     23145 TIP3     255      TIP3     OH2      OT      -0.834000       15.9994           0
     23146 TIP3     255      TIP3     H1       HT       0.417000       1.00800           0
     23147 TIP3     255      TIP3     H2       HT       0.417000       1.00800           0
     23148 TIP3     256      TIP3     OH2      OT      -0.834000       15.9994           0
     23149 TIP3     256      TIP3     H1       HT       0.417000       1.00800           0
     23150 TIP3     256      TIP3     H2       HT       0.417000       1.00800           0
     23151 TIP3     257      TIP3     OH2      OT      -0.834000       15.9994           0
     23152 TIP3     257      TIP3     H1       HT       0.417000       1.00800           0
     23153 TIP3     257      TIP3     H2       HT       0.417000       1.00800           0
     23154 TIP3     258      TIP3     OH2      OT      -0.834000       15.9994           0
     23155 TIP3     258      TIP3     H1       HT       0.417000       1.00800           0
     23156 TIP3     258      TIP3     H2       HT       0.417000       1.00800           0
     23157 TIP3     259      TIP3     OH2      OT      -0.834000       15.9994           0
     23158 TIP3     259      TIP3     H1       HT       0.417000       1.00800           0
     23159 TIP3     259      TIP3     H2       HT       0.417000       1.00800           0
     23160 TIP3     260      TIP3     OH2      OT      -0.834000       15.9994           0
     23161 TIP3     260      TIP3     H1       HT       0.417000       1.00800           0
     23162 TIP3     260      TIP3     H2       HT       0.417000       1.00800           0
     23163 TIP3     261      TIP3     OH2      OT      -0.834000       15.9994           0
     23164 TIP3     261      TIP3     H1       HT       0.417000       1.00800           0
     23165 TIP3     261      TIP3     H2       HT       0.417000       1.00800           0
     23166 TIP3     262      TIP3     OH2      OT      -0.834000       15.9994           0
     23167 TIP3     262      TIP3     H1       HT       0.417000       1.00800           0
     23168 TIP3     262      TIP3     H2       HT       0.417000       1.00800           0
     23169 TIP3     263      TIP3     OH2      OT      -0.834000       15.9994           0
     23170 TIP3     263      TIP3     H1       HT       0.417000       1.00800           0
     23171 TIP3     263      TIP3     H2       HT       0.417000       1.00800           0
     23172 TIP3     264      TIP3     OH2      OT      -0.834000       15.9994           0
     23173 TIP3     264      TIP3     H1       HT       0.417000       1.00800           0
     23174 TIP3     264      TIP3     H2       HT       0.417000       1.00800           0
     23175 TIP3     265      TIP3     OH2      OT      -0.834000       15.9994           0
     23176 TIP3     265      TIP3     H1       HT       0.417000       1.00800           0
     23177 TIP3     265      TIP3     H2       HT       0.417000       1.00800           0
     23178 TIP3     266      TIP3     OH2      OT      -0.834000       15.9994           0
     23179 TIP3     266      TIP3     H1       HT       0.417000       1.00800           0
     23180 TIP3     266      TIP3     H2       HT       0.417000       1.00800           0
     23181 TIP3     267      TIP3     OH2      OT      -0.834000       15.9994           0
     23182 TIP3     267      TIP3     H1       HT       0.417000       1.00800           0
     23183 TIP3     267      TIP3     H2       HT       0.417000       1.00800           0
     23184 TIP3     268      TIP3     OH2      OT      -0.834000       15.9994           0
     23185 TIP3     268      TIP3     H1       HT       0.417000       1.00800           0
     23186 TIP3     268      TIP3     H2       HT       0.417000       1.00800           0
     23187 TIP3     269      TIP3     OH2      OT      -0.834000       15.9994           0
     23188 TIP3     269      TIP3     H1       HT       0.417000       1.00800           0
     23189 TIP3     269      TIP3     H2       HT       0.417000       1.00800           0
     23190 TIP3     270      TIP3     OH2      OT      -0.834000       15.9994           0
     23191 TIP3     270      TIP3     H1       HT       0.417000       1.00800           0
     23192 TIP3     270      TIP3     H2       HT       0.417000       1.00800           0
     23193 TIP3     271      TIP3     OH2      OT      -0.834000       15.9994           0
     23194 TIP3     271      TIP3     H1       HT       0.417000       1.00800           0
     23195 TIP3     271      TIP3     H2       HT       0.417000       1.00800           0
     23196 TIP3     272      TIP3     OH2      OT      -0.834000       15.9994           0
     23197 TIP3     272      TIP3     H1       HT       0.417000       1.00800           0
     23198 TIP3     272      TIP3     H2       HT       0.417000       1.00800           0
     23199 TIP3     273      TIP3     OH2      OT      -0.834000       15.9994           0
     23200 TIP3     273      TIP3     H1       HT       0.417000       1.00800           0
     23201 TIP3     273      TIP3     H2       HT       0.417000       1.00800           0
     23202 TIP3     274      TIP3     OH2      OT      -0.834000       15.9994           0
     23203 TIP3     274      TIP3     H1       HT       0.417000       1.00800           0
     23204 TIP3     274      TIP3     H2       HT       0.417000       1.00800           0
     23205 TIP3     275      TIP3     OH2      OT      -0.834000       15.9994           0
     23206 TIP3     275      TIP3     H1       HT       0.417000       1.00800           0
     23207 TIP3     275      TIP3     H2       HT       0.417000       1.00800           0
     23208 TIP3     276      TIP3     OH2      OT      -0.834000       15.9994           0
     23209 TIP3     276      TIP3     H1       HT       0.417000       1.00800           0
     23210 TIP3     276      TIP3     H2       HT       0.417000       1.00800           0
     23211 TIP3     277      TIP3     OH2      OT      -0.834000       15.9994           0
     23212 TIP3     277      TIP3     H1       HT       0.417000       1.00800           0
     23213 TIP3     277      TIP3     H2       HT       0.417000       1.00800           0
     23214 TIP3     278      TIP3     OH2      OT      -0.834000       15.9994           0
     23215 TIP3     278      TIP3     H1       HT       0.417000       1.00800           0
     23216 TIP3     278      TIP3     H2       HT       0.417000       1.00800           0
     23217 TIP3     279      TIP3     OH2      OT      -0.834000       15.9994           0
     23218 TIP3     279      TIP3     H1       HT       0.417000       1.00800           0
     23219 TIP3     279      TIP3     H2       HT       0.417000       1.00800           0
     23220 TIP3     280      TIP3     OH2      OT      -0.834000       15.9994           0
     23221 TIP3     280      TIP3     H1       HT       0.417000       1.00800           0
     23222 TIP3     280      TIP3     H2       HT       0.417000       1.00800           0
     23223 TIP3     281      TIP3     OH2      OT      -0.834000       15.9994           0
     23224 TIP3     281      TIP3     H1       HT       0.417000       1.00800           0
     23225 TIP3     281      TIP3     H2       HT       0.417000       1.00800           0
     23226 TIP3     282      TIP3     OH2      OT      -0.834000       15.9994           0
     23227 TIP3     282      TIP3     H1       HT       0.417000       1.00800           0
     23228 TIP3     282      TIP3     H2       HT       0.417000       1.00800           0
     23229 TIP3     283      TIP3     OH2      OT      -0.834000       15.9994           0
     23230 TIP3     283      TIP3     H1       HT       0.417000       1.00800           0
     23231 TIP3     283      TIP3     H2       HT       0.417000       1.00800           0
     23232 TIP3     284      TIP3     OH2      OT      -0.834000       15.9994           0
     23233 TIP3     284      TIP3     H1       HT       0.417000       1.00800           0
     23234 TIP3     284      TIP3     H2       HT       0.417000       1.00800           0
     23235 TIP3     285      TIP3     OH2      OT      -0.834000       15.9994           0
     23236 TIP3     285      TIP3     H1       HT       0.417000       1.00800           0
     23237 TIP3     285      TIP3     H2       HT       0.417000       1.00800           0
     23238 TIP3     286      TIP3     OH2      OT      -0.834000       15.9994           0
     23239 TIP3     286      TIP3     H1       HT       0.417000       1.00800           0
     23240 TIP3     286      TIP3     H2       HT       0.417000       1.00800           0
     23241 TIP3     287      TIP3     OH2      OT      -0.834000       15.9994           0
     23242 TIP3     287      TIP3     H1       HT       0.417000       1.00800           0
     23243 TIP3     287      TIP3     H2       HT       0.417000       1.00800           0
     23244 TIP3     288      TIP3     OH2      OT      -0.834000       15.9994           0
     23245 TIP3     288      TIP3     H1       HT       0.417000       1.00800           0
     23246 TIP3     288      TIP3     H2       HT       0.417000       1.00800           0
     23247 TIP3     289      TIP3     OH2      OT      -0.834000       15.9994           0
     23248 TIP3     289      TIP3     H1       HT       0.417000       1.00800           0
     23249 TIP3     289      TIP3     H2       HT       0.417000       1.00800           0
     23250 TIP3     290      TIP3     OH2      OT      -0.834000       15.9994           0
     23251 TIP3     290      TIP3     H1       HT       0.417000       1.00800           0
     23252 TIP3     290      TIP3     H2       HT       0.417000       1.00800           0
     23253 TIP3     291      TIP3     OH2      OT      -0.834000       15.9994           0
     23254 TIP3     291      TIP3     H1       HT       0.417000       1.00800           0
     23255 TIP3     291      TIP3     H2       HT       0.417000       1.00800           0
     23256 TIP3     292      TIP3     OH2      OT      -0.834000       15.9994           0
     23257 TIP3     292      TIP3     H1       HT       0.417000       1.00800           0
     23258 TIP3     292      TIP3     H2       HT       0.417000       1.00800           0
     23259 TIP3     293      TIP3     OH2      OT      -0.834000       15.9994           0
     23260 TIP3     293      TIP3     H1       HT       0.417000       1.00800           0
     23261 TIP3     293      TIP3     H2       HT       0.417000       1.00800           0
     23262 TIP3     294      TIP3     OH2      OT      -0.834000       15.9994           0
     23263 TIP3     294      TIP3     H1       HT       0.417000       1.00800           0
     23264 TIP3     294      TIP3     H2       HT       0.417000       1.00800           0
     23265 TIP3     295      TIP3     OH2      OT      -0.834000       15.9994           0
     23266 TIP3     295      TIP3     H1       HT       0.417000       1.00800           0
     23267 TIP3     295      TIP3     H2       HT       0.417000       1.00800           0
     23268 TIP3     296      TIP3     OH2      OT      -0.834000       15.9994           0
     23269 TIP3     296      TIP3     H1       HT       0.417000       1.00800           0
     23270 TIP3     296      TIP3     H2       HT       0.417000       1.00800           0
     23271 TIP3     297      TIP3     OH2      OT      -0.834000       15.9994           0
     23272 TIP3     297      TIP3     H1       HT       0.417000       1.00800           0
     23273 TIP3     297      TIP3     H2       HT       0.417000       1.00800           0
     23274 TIP3     298      TIP3     OH2      OT      -0.834000       15.9994           0
     23275 TIP3     298      TIP3     H1       HT       0.417000       1.00800           0
     23276 TIP3     298      TIP3     H2       HT       0.417000       1.00800           0
     23277 TIP3     299      TIP3     OH2      OT      -0.834000       15.9994           0
     23278 TIP3     299      TIP3     H1       HT       0.417000       1.00800           0
     23279 TIP3     299      TIP3     H2       HT       0.417000       1.00800           0
     23280 TIP3     300      TIP3     OH2      OT      -0.834000       15.9994           0
     23281 TIP3     300      TIP3     H1       HT       0.417000       1.00800           0
     23282 TIP3     300      TIP3     H2       HT       0.417000       1.00800           0
     23283 TIP3     301      TIP3     OH2      OT      -0.834000       15.9994           0
     23284 TIP3     301      TIP3     H1       HT       0.417000       1.00800           0
     23285 TIP3     301      TIP3     H2       HT       0.417000       1.00800           0
     23286 TIP3     302      TIP3     OH2      OT      -0.834000       15.9994           0
     23287 TIP3     302      TIP3     H1       HT       0.417000       1.00800           0
     23288 TIP3     302      TIP3     H2       HT       0.417000       1.00800           0
     23289 TIP3     303      TIP3     OH2      OT      -0.834000       15.9994           0
     23290 TIP3     303      TIP3     H1       HT       0.417000       1.00800           0
     23291 TIP3     303      TIP3     H2       HT       0.417000       1.00800           0
     23292 TIP3     304      TIP3     OH2      OT      -0.834000       15.9994           0
     23293 TIP3     304      TIP3     H1       HT       0.417000       1.00800           0
     23294 TIP3     304      TIP3     H2       HT       0.417000       1.00800           0
     23295 TIP3     305      TIP3     OH2      OT      -0.834000       15.9994           0
     23296 TIP3     305      TIP3     H1       HT       0.417000       1.00800           0
     23297 TIP3     305      TIP3     H2       HT       0.417000       1.00800           0
     23298 TIP3     306      TIP3     OH2      OT      -0.834000       15.9994           0
     23299 TIP3     306      TIP3     H1       HT       0.417000       1.00800           0
     23300 TIP3     306      TIP3     H2       HT       0.417000       1.00800           0
     23301 TIP3     307      TIP3     OH2      OT      -0.834000       15.9994           0
     23302 TIP3     307      TIP3     H1       HT       0.417000       1.00800           0
     23303 TIP3     307      TIP3     H2       HT       0.417000       1.00800           0
     23304 TIP3     308      TIP3     OH2      OT      -0.834000       15.9994           0
     23305 TIP3     308      TIP3     H1       HT       0.417000       1.00800           0
     23306 TIP3     308      TIP3     H2       HT       0.417000       1.00800           0
     23307 TIP3     309      TIP3     OH2      OT      -0.834000       15.9994           0
     23308 TIP3     309      TIP3     H1       HT       0.417000       1.00800           0
     23309 TIP3     309      TIP3     H2       HT       0.417000       1.00800           0
     23310 TIP3     310      TIP3     OH2      OT      -0.834000       15.9994           0
     23311 TIP3     310      TIP3     H1       HT       0.417000       1.00800           0
     23312 TIP3     310      TIP3     H2       HT       0.417000       1.00800           0
     23313 TIP3     311      TIP3     OH2      OT      -0.834000       15.9994           0
     23314 TIP3     311      TIP3     H1       HT       0.417000       1.00800           0
     23315 TIP3     311      TIP3     H2       HT       0.417000       1.00800           0
     23316 TIP3     312      TIP3     OH2      OT      -0.834000       15.9994           0
     23317 TIP3     312      TIP3     H1       HT       0.417000       1.00800           0
     23318 TIP3     312      TIP3     H2       HT       0.417000       1.00800           0
     23319 TIP3     313      TIP3     OH2      OT      -0.834000       15.9994           0
     23320 TIP3     313      TIP3     H1       HT       0.417000       1.00800           0
     23321 TIP3     313      TIP3     H2       HT       0.417000       1.00800           0
     23322 TIP3     314      TIP3     OH2      OT      -0.834000       15.9994           0
     23323 TIP3     314      TIP3     H1       HT       0.417000       1.00800           0
     23324 TIP3     314      TIP3     H2       HT       0.417000       1.00800           0
     23325 TIP3     315      TIP3     OH2      OT      -0.834000       15.9994           0
     23326 TIP3     315      TIP3     H1       HT       0.417000       1.00800           0
     23327 TIP3     315      TIP3     H2       HT       0.417000       1.00800           0
     23328 TIP3     316      TIP3     OH2      OT      -0.834000       15.9994           0
     23329 TIP3     316      TIP3     H1       HT       0.417000       1.00800           0
     23330 TIP3     316      TIP3     H2       HT       0.417000       1.00800           0
     23331 TIP3     317      TIP3     OH2      OT      -0.834000       15.9994           0
     23332 TIP3     317      TIP3     H1       HT       0.417000       1.00800           0
     23333 TIP3     317      TIP3     H2       HT       0.417000       1.00800           0
     23334 TIP3     318      TIP3     OH2      OT      -0.834000       15.9994           0
     23335 TIP3     318      TIP3     H1       HT       0.417000       1.00800           0
     23336 TIP3     318      TIP3     H2       HT       0.417000       1.00800           0
     23337 TIP3     319      TIP3     OH2      OT      -0.834000       15.9994           0
     23338 TIP3     319      TIP3     H1       HT       0.417000       1.00800           0
     23339 TIP3     319      TIP3     H2       HT       0.417000       1.00800           0
     23340 TIP3     320      TIP3     OH2      OT      -0.834000       15.9994           0
     23341 TIP3     320      TIP3     H1       HT       0.417000       1.00800           0
     23342 TIP3     320      TIP3     H2       HT       0.417000       1.00800           0
     23343 TIP3     321      TIP3     OH2      OT      -0.834000       15.9994           0
     23344 TIP3     321      TIP3     H1       HT       0.417000       1.00800           0
     23345 TIP3     321      TIP3     H2       HT       0.417000       1.00800           0
     23346 TIP3     322      TIP3     OH2      OT      -0.834000       15.9994           0
     23347 TIP3     322      TIP3     H1       HT       0.417000       1.00800           0
     23348 TIP3     322      TIP3     H2       HT       0.417000       1.00800           0
     23349 TIP3     323      TIP3     OH2      OT      -0.834000       15.9994           0
     23350 TIP3     323      TIP3     H1       HT       0.417000       1.00800           0
     23351 TIP3     323      TIP3     H2       HT       0.417000       1.00800           0
     23352 TIP3     324      TIP3     OH2      OT      -0.834000       15.9994           0
     23353 TIP3     324      TIP3     H1       HT       0.417000       1.00800           0
     23354 TIP3     324      TIP3     H2       HT       0.417000       1.00800           0
     23355 TIP3     325      TIP3     OH2      OT      -0.834000       15.9994           0
     23356 TIP3     325      TIP3     H1       HT       0.417000       1.00800           0
     23357 TIP3     325      TIP3     H2       HT       0.417000       1.00800           0
     23358 TIP3     326      TIP3     OH2      OT      -0.834000       15.9994           0
     23359 TIP3     326      TIP3     H1       HT       0.417000       1.00800           0
     23360 TIP3     326      TIP3     H2       HT       0.417000       1.00800           0
     23361 TIP3     327      TIP3     OH2      OT      -0.834000       15.9994           0
     23362 TIP3     327      TIP3     H1       HT       0.417000       1.00800           0
     23363 TIP3     327      TIP3     H2       HT       0.417000       1.00800           0
     23364 TIP3     328      TIP3     OH2      OT      -0.834000       15.9994           0
     23365 TIP3     328      TIP3     H1       HT       0.417000       1.00800           0
     23366 TIP3     328      TIP3     H2       HT       0.417000       1.00800           0
     23367 TIP3     329      TIP3     OH2      OT      -0.834000       15.9994           0
     23368 TIP3     329      TIP3     H1       HT       0.417000       1.00800           0
     23369 TIP3     329      TIP3     H2       HT       0.417000       1.00800           0
     23370 TIP3     330      TIP3     OH2      OT      -0.834000       15.9994           0
     23371 TIP3     330      TIP3     H1       HT       0.417000       1.00800           0
     23372 TIP3     330      TIP3     H2       HT       0.417000       1.00800           0
     23373 TIP3     331      TIP3     OH2      OT      -0.834000       15.9994           0
     23374 TIP3     331      TIP3     H1       HT       0.417000       1.00800           0
     23375 TIP3     331      TIP3     H2       HT       0.417000       1.00800           0
     23376 TIP3     332      TIP3     OH2      OT      -0.834000       15.9994           0
     23377 TIP3     332      TIP3     H1       HT       0.417000       1.00800           0
     23378 TIP3     332      TIP3     H2       HT       0.417000       1.00800           0
     23379 TIP3     333      TIP3     OH2      OT      -0.834000       15.9994           0
     23380 TIP3     333      TIP3     H1       HT       0.417000       1.00800           0
     23381 TIP3     333      TIP3     H2       HT       0.417000       1.00800           0
     23382 TIP3     334      TIP3     OH2      OT      -0.834000       15.9994           0
     23383 TIP3     334      TIP3     H1       HT       0.417000       1.00800           0
     23384 TIP3     334      TIP3     H2       HT       0.417000       1.00800           0
     23385 TIP3     335      TIP3     OH2      OT      -0.834000       15.9994           0
     23386 TIP3     335      TIP3     H1       HT       0.417000       1.00800           0
     23387 TIP3     335      TIP3     H2       HT       0.417000       1.00800           0
     23388 TIP3     336      TIP3     OH2      OT      -0.834000       15.9994           0
     23389 TIP3     336      TIP3     H1       HT       0.417000       1.00800           0
     23390 TIP3     336      TIP3     H2       HT       0.417000       1.00800           0
     23391 TIP3     337      TIP3     OH2      OT      -0.834000       15.9994           0
     23392 TIP3     337      TIP3     H1       HT       0.417000       1.00800           0
     23393 TIP3     337      TIP3     H2       HT       0.417000       1.00800           0
     23394 TIP3     338      TIP3     OH2      OT      -0.834000       15.9994           0
     23395 TIP3     338      TIP3     H1       HT       0.417000       1.00800           0
     23396 TIP3     338      TIP3     H2       HT       0.417000       1.00800           0
     23397 TIP3     339      TIP3     OH2      OT      -0.834000       15.9994           0
     23398 TIP3     339      TIP3     H1       HT       0.417000       1.00800           0
     23399 TIP3     339      TIP3     H2       HT       0.417000       1.00800           0
     23400 TIP3     340      TIP3     OH2      OT      -0.834000       15.9994           0
     23401 TIP3     340      TIP3     H1       HT       0.417000       1.00800           0
     23402 TIP3     340      TIP3     H2       HT       0.417000       1.00800           0
     23403 TIP3     341      TIP3     OH2      OT      -0.834000       15.9994           0
     23404 TIP3     341      TIP3     H1       HT       0.417000       1.00800           0
     23405 TIP3     341      TIP3     H2       HT       0.417000       1.00800           0
     23406 TIP3     342      TIP3     OH2      OT      -0.834000       15.9994           0
     23407 TIP3     342      TIP3     H1       HT       0.417000       1.00800           0
     23408 TIP3     342      TIP3     H2       HT       0.417000       1.00800           0
     23409 TIP3     343      TIP3     OH2      OT      -0.834000       15.9994           0
     23410 TIP3     343      TIP3     H1       HT       0.417000       1.00800           0
     23411 TIP3     343      TIP3     H2       HT       0.417000       1.00800           0
     23412 TIP3     344      TIP3     OH2      OT      -0.834000       15.9994           0
     23413 TIP3     344      TIP3     H1       HT       0.417000       1.00800           0
     23414 TIP3     344      TIP3     H2       HT       0.417000       1.00800           0
     23415 TIP3     345      TIP3     OH2      OT      -0.834000       15.9994           0
     23416 TIP3     345      TIP3     H1       HT       0.417000       1.00800           0
     23417 TIP3     345      TIP3     H2       HT       0.417000       1.00800           0
     23418 TIP3     346      TIP3     OH2      OT      -0.834000       15.9994           0
     23419 TIP3     346      TIP3     H1       HT       0.417000       1.00800           0
     23420 TIP3     346      TIP3     H2       HT       0.417000       1.00800           0
     23421 TIP3     347      TIP3     OH2      OT      -0.834000       15.9994           0
     23422 TIP3     347      TIP3     H1       HT       0.417000       1.00800           0
     23423 TIP3     347      TIP3     H2       HT       0.417000       1.00800           0
     23424 TIP3     348      TIP3     OH2      OT      -0.834000       15.9994           0
     23425 TIP3     348      TIP3     H1       HT       0.417000       1.00800           0
     23426 TIP3     348      TIP3     H2       HT       0.417000       1.00800           0
     23427 TIP3     349      TIP3     OH2      OT      -0.834000       15.9994           0
     23428 TIP3     349      TIP3     H1       HT       0.417000       1.00800           0
     23429 TIP3     349      TIP3     H2       HT       0.417000       1.00800           0
     23430 TIP3     350      TIP3     OH2      OT      -0.834000       15.9994           0
     23431 TIP3     350      TIP3     H1       HT       0.417000       1.00800           0
     23432 TIP3     350      TIP3     H2       HT       0.417000       1.00800           0
     23433 TIP3     351      TIP3     OH2      OT      -0.834000       15.9994           0
     23434 TIP3     351      TIP3     H1       HT       0.417000       1.00800           0
     23435 TIP3     351      TIP3     H2       HT       0.417000       1.00800           0
     23436 TIP3     352      TIP3     OH2      OT      -0.834000       15.9994           0
     23437 TIP3     352      TIP3     H1       HT       0.417000       1.00800           0
     23438 TIP3     352      TIP3     H2       HT       0.417000       1.00800           0
     23439 TIP3     353      TIP3     OH2      OT      -0.834000       15.9994           0
     23440 TIP3     353      TIP3     H1       HT       0.417000       1.00800           0
     23441 TIP3     353      TIP3     H2       HT       0.417000       1.00800           0
     23442 TIP3     354      TIP3     OH2      OT      -0.834000       15.9994           0
     23443 TIP3     354      TIP3     H1       HT       0.417000       1.00800           0
     23444 TIP3     354      TIP3     H2       HT       0.417000       1.00800           0
     23445 TIP3     355      TIP3     OH2      OT      -0.834000       15.9994           0
     23446 TIP3     355      TIP3     H1       HT       0.417000       1.00800           0
     23447 TIP3     355      TIP3     H2       HT       0.417000       1.00800           0
     23448 TIP3     356      TIP3     OH2      OT      -0.834000       15.9994           0
     23449 TIP3     356      TIP3     H1       HT       0.417000       1.00800           0
     23450 TIP3     356      TIP3     H2       HT       0.417000       1.00800           0
     23451 TIP3     357      TIP3     OH2      OT      -0.834000       15.9994           0
     23452 TIP3     357      TIP3     H1       HT       0.417000       1.00800           0
     23453 TIP3     357      TIP3     H2       HT       0.417000       1.00800           0
     23454 TIP3     358      TIP3     OH2      OT      -0.834000       15.9994           0
     23455 TIP3     358      TIP3     H1       HT       0.417000       1.00800           0
     23456 TIP3     358      TIP3     H2       HT       0.417000       1.00800           0
     23457 TIP3     359      TIP3     OH2      OT      -0.834000       15.9994           0
     23458 TIP3     359      TIP3     H1       HT       0.417000       1.00800           0
     23459 TIP3     359      TIP3     H2       HT       0.417000       1.00800           0
     23460 TIP3     360      TIP3     OH2      OT      -0.834000       15.9994           0
     23461 TIP3     360      TIP3     H1       HT       0.417000       1.00800           0
     23462 TIP3     360      TIP3     H2       HT       0.417000       1.00800           0
     23463 TIP3     361      TIP3     OH2      OT      -0.834000       15.9994           0
     23464 TIP3     361      TIP3     H1       HT       0.417000       1.00800           0
     23465 TIP3     361      TIP3     H2       HT       0.417000       1.00800           0
     23466 TIP3     362      TIP3     OH2      OT      -0.834000       15.9994           0
     23467 TIP3     362      TIP3     H1       HT       0.417000       1.00800           0
     23468 TIP3     362      TIP3     H2       HT       0.417000       1.00800           0
     23469 TIP3     363      TIP3     OH2      OT      -0.834000       15.9994           0
     23470 TIP3     363      TIP3     H1       HT       0.417000       1.00800           0
     23471 TIP3     363      TIP3     H2       HT       0.417000       1.00800           0
     23472 TIP3     364      TIP3     OH2      OT      -0.834000       15.9994           0
     23473 TIP3     364      TIP3     H1       HT       0.417000       1.00800           0
     23474 TIP3     364      TIP3     H2       HT       0.417000       1.00800           0
     23475 TIP3     365      TIP3     OH2      OT      -0.834000       15.9994           0
     23476 TIP3     365      TIP3     H1       HT       0.417000       1.00800           0
     23477 TIP3     365      TIP3     H2       HT       0.417000       1.00800           0
     23478 TIP3     366      TIP3     OH2      OT      -0.834000       15.9994           0
     23479 TIP3     366      TIP3     H1       HT       0.417000       1.00800           0
     23480 TIP3     366      TIP3     H2       HT       0.417000       1.00800           0
     23481 TIP3     367      TIP3     OH2      OT      -0.834000       15.9994           0
     23482 TIP3     367      TIP3     H1       HT       0.417000       1.00800           0
     23483 TIP3     367      TIP3     H2       HT       0.417000       1.00800           0
     23484 TIP3     368      TIP3     OH2      OT      -0.834000       15.9994           0
     23485 TIP3     368      TIP3     H1       HT       0.417000       1.00800           0
     23486 TIP3     368      TIP3     H2       HT       0.417000       1.00800           0
     23487 TIP3     369      TIP3     OH2      OT      -0.834000       15.9994           0
     23488 TIP3     369      TIP3     H1       HT       0.417000       1.00800           0
     23489 TIP3     369      TIP3     H2       HT       0.417000       1.00800           0
     23490 TIP3     370      TIP3     OH2      OT      -0.834000       15.9994           0
     23491 TIP3     370      TIP3     H1       HT       0.417000       1.00800           0
     23492 TIP3     370      TIP3     H2       HT       0.417000       1.00800           0
     23493 TIP3     371      TIP3     OH2      OT      -0.834000       15.9994           0
     23494 TIP3     371      TIP3     H1       HT       0.417000       1.00800           0
     23495 TIP3     371      TIP3     H2       HT       0.417000       1.00800           0
     23496 TIP3     372      TIP3     OH2      OT      -0.834000       15.9994           0
     23497 TIP3     372      TIP3     H1       HT       0.417000       1.00800           0
     23498 TIP3     372      TIP3     H2       HT       0.417000       1.00800           0
     23499 TIP3     373      TIP3     OH2      OT      -0.834000       15.9994           0
     23500 TIP3     373      TIP3     H1       HT       0.417000       1.00800           0
     23501 TIP3     373      TIP3     H2       HT       0.417000       1.00800           0
     23502 TIP3     374      TIP3     OH2      OT      -0.834000       15.9994           0
     23503 TIP3     374      TIP3     H1       HT       0.417000       1.00800           0
     23504 TIP3     374      TIP3     H2       HT       0.417000       1.00800           0
     23505 TIP3     375      TIP3     OH2      OT      -0.834000       15.9994           0
     23506 TIP3     375      TIP3     H1       HT       0.417000       1.00800           0
     23507 TIP3     375      TIP3     H2       HT       0.417000       1.00800           0
     23508 TIP3     376      TIP3     OH2      OT      -0.834000       15.9994           0
     23509 TIP3     376      TIP3     H1       HT       0.417000       1.00800           0
     23510 TIP3     376      TIP3     H2       HT       0.417000       1.00800           0
     23511 TIP3     377      TIP3     OH2      OT      -0.834000       15.9994           0
     23512 TIP3     377      TIP3     H1       HT       0.417000       1.00800           0
     23513 TIP3     377      TIP3     H2       HT       0.417000       1.00800           0
     23514 TIP3     378      TIP3     OH2      OT      -0.834000       15.9994           0
     23515 TIP3     378      TIP3     H1       HT       0.417000       1.00800           0
     23516 TIP3     378      TIP3     H2       HT       0.417000       1.00800           0
     23517 TIP3     379      TIP3     OH2      OT      -0.834000       15.9994           0
     23518 TIP3     379      TIP3     H1       HT       0.417000       1.00800           0
     23519 TIP3     379      TIP3     H2       HT       0.417000       1.00800           0
     23520 TIP3     380      TIP3     OH2      OT      -0.834000       15.9994           0
     23521 TIP3     380      TIP3     H1       HT       0.417000       1.00800           0
     23522 TIP3     380      TIP3     H2       HT       0.417000       1.00800           0
     23523 TIP3     381      TIP3     OH2      OT      -0.834000       15.9994           0
     23524 TIP3     381      TIP3     H1       HT       0.417000       1.00800           0
     23525 TIP3     381      TIP3     H2       HT       0.417000       1.00800           0
     23526 TIP3     382      TIP3     OH2      OT      -0.834000       15.9994           0
     23527 TIP3     382      TIP3     H1       HT       0.417000       1.00800           0
     23528 TIP3     382      TIP3     H2       HT       0.417000       1.00800           0
     23529 TIP3     383      TIP3     OH2      OT      -0.834000       15.9994           0
     23530 TIP3     383      TIP3     H1       HT       0.417000       1.00800           0
     23531 TIP3     383      TIP3     H2       HT       0.417000       1.00800           0
     23532 TIP3     384      TIP3     OH2      OT      -0.834000       15.9994           0
     23533 TIP3     384      TIP3     H1       HT       0.417000       1.00800           0
     23534 TIP3     384      TIP3     H2       HT       0.417000       1.00800           0
     23535 TIP3     385      TIP3     OH2      OT      -0.834000       15.9994           0
     23536 TIP3     385      TIP3     H1       HT       0.417000       1.00800           0
     23537 TIP3     385      TIP3     H2       HT       0.417000       1.00800           0
     23538 TIP3     386      TIP3     OH2      OT      -0.834000       15.9994           0
     23539 TIP3     386      TIP3     H1       HT       0.417000       1.00800           0
     23540 TIP3     386      TIP3     H2       HT       0.417000       1.00800           0
     23541 TIP3     387      TIP3     OH2      OT      -0.834000       15.9994           0
     23542 TIP3     387      TIP3     H1       HT       0.417000       1.00800           0
     23543 TIP3     387      TIP3     H2       HT       0.417000       1.00800           0
     23544 TIP3     388      TIP3     OH2      OT      -0.834000       15.9994           0
     23545 TIP3     388      TIP3     H1       HT       0.417000       1.00800           0
     23546 TIP3     388      TIP3     H2       HT       0.417000       1.00800           0
     23547 TIP3     389      TIP3     OH2      OT      -0.834000       15.9994           0
     23548 TIP3     389      TIP3     H1       HT       0.417000       1.00800           0
     23549 TIP3     389      TIP3     H2       HT       0.417000       1.00800           0
     23550 TIP3     390      TIP3     OH2      OT      -0.834000       15.9994           0
     23551 TIP3     390      TIP3     H1       HT       0.417000       1.00800           0
     23552 TIP3     390      TIP3     H2       HT       0.417000       1.00800           0
     23553 TIP3     391      TIP3     OH2      OT      -0.834000       15.9994           0
     23554 TIP3     391      TIP3     H1       HT       0.417000       1.00800           0
     23555 TIP3     391      TIP3     H2       HT       0.417000       1.00800           0
     23556 TIP3     392      TIP3     OH2      OT      -0.834000       15.9994           0
     23557 TIP3     392      TIP3     H1       HT       0.417000       1.00800           0
     23558 TIP3     392      TIP3     H2       HT       0.417000       1.00800           0
     23559 TIP3     393      TIP3     OH2      OT      -0.834000       15.9994           0
     23560 TIP3     393      TIP3     H1       HT       0.417000       1.00800           0
     23561 TIP3     393      TIP3     H2       HT       0.417000       1.00800           0
     23562 TIP3     394      TIP3     OH2      OT      -0.834000       15.9994           0
     23563 TIP3     394      TIP3     H1       HT       0.417000       1.00800           0
     23564 TIP3     394      TIP3     H2       HT       0.417000       1.00800           0
     23565 TIP3     395      TIP3     OH2      OT      -0.834000       15.9994           0
     23566 TIP3     395      TIP3     H1       HT       0.417000       1.00800           0
     23567 TIP3     395      TIP3     H2       HT       0.417000       1.00800           0
     23568 TIP3     396      TIP3     OH2      OT      -0.834000       15.9994           0
     23569 TIP3     396      TIP3     H1       HT       0.417000       1.00800           0
     23570 TIP3     396      TIP3     H2       HT       0.417000       1.00800           0
     23571 TIP3     397      TIP3     OH2      OT      -0.834000       15.9994           0
     23572 TIP3     397      TIP3     H1       HT       0.417000       1.00800           0
     23573 TIP3     397      TIP3     H2       HT       0.417000       1.00800           0
     23574 TIP3     398      TIP3     OH2      OT      -0.834000       15.9994           0
     23575 TIP3     398      TIP3     H1       HT       0.417000       1.00800           0
     23576 TIP3     398      TIP3     H2       HT       0.417000       1.00800           0
     23577 TIP3     399      TIP3     OH2      OT      -0.834000       15.9994           0
     23578 TIP3     399      TIP3     H1       HT       0.417000       1.00800           0
     23579 TIP3     399      TIP3     H2       HT       0.417000       1.00800           0
     23580 TIP3     400      TIP3     OH2      OT      -0.834000       15.9994           0
     23581 TIP3     400      TIP3     H1       HT       0.417000       1.00800           0
     23582 TIP3     400      TIP3     H2       HT       0.417000       1.00800           0
     23583 TIP3     401      TIP3     OH2      OT      -0.834000       15.9994           0
     23584 TIP3     401      TIP3     H1       HT       0.417000       1.00800           0
     23585 TIP3     401      TIP3     H2       HT       0.417000       1.00800           0
     23586 TIP3     402      TIP3     OH2      OT      -0.834000       15.9994           0
     23587 TIP3     402      TIP3     H1       HT       0.417000       1.00800           0
     23588 TIP3     402      TIP3     H2       HT       0.417000       1.00800           0
     23589 TIP3     403      TIP3     OH2      OT      -0.834000       15.9994           0
     23590 TIP3     403      TIP3     H1       HT       0.417000       1.00800           0
     23591 TIP3     403      TIP3     H2       HT       0.417000       1.00800           0
     23592 TIP3     404      TIP3     OH2      OT      -0.834000       15.9994           0
     23593 TIP3     404      TIP3     H1       HT       0.417000       1.00800           0
     23594 TIP3     404      TIP3     H2       HT       0.417000       1.00800           0
     23595 TIP3     405      TIP3     OH2      OT      -0.834000       15.9994           0
     23596 TIP3     405      TIP3     H1       HT       0.417000       1.00800           0
     23597 TIP3     405      TIP3     H2       HT       0.417000       1.00800           0
     23598 TIP3     406      TIP3     OH2      OT      -0.834000       15.9994           0
     23599 TIP3     406      TIP3     H1       HT       0.417000       1.00800           0
     23600 TIP3     406      TIP3     H2       HT       0.417000       1.00800           0
     23601 TIP3     407      TIP3     OH2      OT      -0.834000       15.9994           0
     23602 TIP3     407      TIP3     H1       HT       0.417000       1.00800           0
     23603 TIP3     407      TIP3     H2       HT       0.417000       1.00800           0
     23604 TIP3     408      TIP3     OH2      OT      -0.834000       15.9994           0
     23605 TIP3     408      TIP3     H1       HT       0.417000       1.00800           0
     23606 TIP3     408      TIP3     H2       HT       0.417000       1.00800           0
     23607 TIP3     409      TIP3     OH2      OT      -0.834000       15.9994           0
     23608 TIP3     409      TIP3     H1       HT       0.417000       1.00800           0
     23609 TIP3     409      TIP3     H2       HT       0.417000       1.00800           0
     23610 TIP3     410      TIP3     OH2      OT      -0.834000       15.9994           0
     23611 TIP3     410      TIP3     H1       HT       0.417000       1.00800           0
     23612 TIP3     410      TIP3     H2       HT       0.417000       1.00800           0
     23613 TIP3     411      TIP3     OH2      OT      -0.834000       15.9994           0
     23614 TIP3     411      TIP3     H1       HT       0.417000       1.00800           0
     23615 TIP3     411      TIP3     H2       HT       0.417000       1.00800           0
     23616 TIP3     412      TIP3     OH2      OT      -0.834000       15.9994           0
     23617 TIP3     412      TIP3     H1       HT       0.417000       1.00800           0
     23618 TIP3     412      TIP3     H2       HT       0.417000       1.00800           0
     23619 TIP3     413      TIP3     OH2      OT      -0.834000       15.9994           0
     23620 TIP3     413      TIP3     H1       HT       0.417000       1.00800           0
     23621 TIP3     413      TIP3     H2       HT       0.417000       1.00800           0
     23622 TIP3     414      TIP3     OH2      OT      -0.834000       15.9994           0
     23623 TIP3     414      TIP3     H1       HT       0.417000       1.00800           0
     23624 TIP3     414      TIP3     H2       HT       0.417000       1.00800           0
     23625 TIP3     415      TIP3     OH2      OT      -0.834000       15.9994           0
     23626 TIP3     415      TIP3     H1       HT       0.417000       1.00800           0
     23627 TIP3     415      TIP3     H2       HT       0.417000       1.00800           0
     23628 TIP3     416      TIP3     OH2      OT      -0.834000       15.9994           0
     23629 TIP3     416      TIP3     H1       HT       0.417000       1.00800           0
     23630 TIP3     416      TIP3     H2       HT       0.417000       1.00800           0
     23631 TIP3     417      TIP3     OH2      OT      -0.834000       15.9994           0
     23632 TIP3     417      TIP3     H1       HT       0.417000       1.00800           0
     23633 TIP3     417      TIP3     H2       HT       0.417000       1.00800           0
     23634 TIP3     418      TIP3     OH2      OT      -0.834000       15.9994           0
     23635 TIP3     418      TIP3     H1       HT       0.417000       1.00800           0
     23636 TIP3     418      TIP3     H2       HT       0.417000       1.00800           0
     23637 TIP3     419      TIP3     OH2      OT      -0.834000       15.9994           0
     23638 TIP3     419      TIP3     H1       HT       0.417000       1.00800           0
     23639 TIP3     419      TIP3     H2       HT       0.417000       1.00800           0
     23640 TIP3     420      TIP3     OH2      OT      -0.834000       15.9994           0
     23641 TIP3     420      TIP3     H1       HT       0.417000       1.00800           0
     23642 TIP3     420      TIP3     H2       HT       0.417000       1.00800           0
     23643 TIP3     421      TIP3     OH2      OT      -0.834000       15.9994           0
     23644 TIP3     421      TIP3     H1       HT       0.417000       1.00800           0
     23645 TIP3     421      TIP3     H2       HT       0.417000       1.00800           0
     23646 TIP3     422      TIP3     OH2      OT      -0.834000       15.9994           0
     23647 TIP3     422      TIP3     H1       HT       0.417000       1.00800           0
     23648 TIP3     422      TIP3     H2       HT       0.417000       1.00800           0
     23649 TIP3     423      TIP3     OH2      OT      -0.834000       15.9994           0
     23650 TIP3     423      TIP3     H1       HT       0.417000       1.00800           0
     23651 TIP3     423      TIP3     H2       HT       0.417000       1.00800           0
     23652 TIP3     424      TIP3     OH2      OT      -0.834000       15.9994           0
     23653 TIP3     424      TIP3     H1       HT       0.417000       1.00800           0
     23654 TIP3     424      TIP3     H2       HT       0.417000       1.00800           0
     23655 TIP3     425      TIP3     OH2      OT      -0.834000       15.9994           0
     23656 TIP3     425      TIP3     H1       HT       0.417000       1.00800           0
     23657 TIP3     425      TIP3     H2       HT       0.417000       1.00800           0
     23658 TIP3     426      TIP3     OH2      OT      -0.834000       15.9994           0
     23659 TIP3     426      TIP3     H1       HT       0.417000       1.00800           0
     23660 TIP3     426      TIP3     H2       HT       0.417000       1.00800           0
     23661 TIP3     427      TIP3     OH2      OT      -0.834000       15.9994           0
     23662 TIP3     427      TIP3     H1       HT       0.417000       1.00800           0
     23663 TIP3     427      TIP3     H2       HT       0.417000       1.00800           0
     23664 TIP3     428      TIP3     OH2      OT      -0.834000       15.9994           0
     23665 TIP3     428      TIP3     H1       HT       0.417000       1.00800           0
     23666 TIP3     428      TIP3     H2       HT       0.417000       1.00800           0
     23667 TIP3     429      TIP3     OH2      OT      -0.834000       15.9994           0
     23668 TIP3     429      TIP3     H1       HT       0.417000       1.00800           0
     23669 TIP3     429      TIP3     H2       HT       0.417000       1.00800           0
     23670 TIP3     430      TIP3     OH2      OT      -0.834000       15.9994           0
     23671 TIP3     430      TIP3     H1       HT       0.417000       1.00800           0
     23672 TIP3     430      TIP3     H2       HT       0.417000       1.00800           0
     23673 TIP3     431      TIP3     OH2      OT      -0.834000       15.9994           0
     23674 TIP3     431      TIP3     H1       HT       0.417000       1.00800           0
     23675 TIP3     431      TIP3     H2       HT       0.417000       1.00800           0
     23676 TIP3     432      TIP3     OH2      OT      -0.834000       15.9994           0
     23677 TIP3     432      TIP3     H1       HT       0.417000       1.00800           0
     23678 TIP3     432      TIP3     H2       HT       0.417000       1.00800           0
     23679 TIP3     433      TIP3     OH2      OT      -0.834000       15.9994           0
     23680 TIP3     433      TIP3     H1       HT       0.417000       1.00800           0
     23681 TIP3     433      TIP3     H2       HT       0.417000       1.00800           0
     23682 TIP3     434      TIP3     OH2      OT      -0.834000       15.9994           0
     23683 TIP3     434      TIP3     H1       HT       0.417000       1.00800           0
     23684 TIP3     434      TIP3     H2       HT       0.417000       1.00800           0
     23685 TIP3     435      TIP3     OH2      OT      -0.834000       15.9994           0
     23686 TIP3     435      TIP3     H1       HT       0.417000       1.00800           0
     23687 TIP3     435      TIP3     H2       HT       0.417000       1.00800           0
     23688 TIP3     436      TIP3     OH2      OT      -0.834000       15.9994           0
     23689 TIP3     436      TIP3     H1       HT       0.417000       1.00800           0
     23690 TIP3     436      TIP3     H2       HT       0.417000       1.00800           0
     23691 TIP3     437      TIP3     OH2      OT      -0.834000       15.9994           0
     23692 TIP3     437      TIP3     H1       HT       0.417000       1.00800           0
     23693 TIP3     437      TIP3     H2       HT       0.417000       1.00800           0
     23694 TIP3     438      TIP3     OH2      OT      -0.834000       15.9994           0
     23695 TIP3     438      TIP3     H1       HT       0.417000       1.00800           0
     23696 TIP3     438      TIP3     H2       HT       0.417000       1.00800           0
     23697 TIP3     439      TIP3     OH2      OT      -0.834000       15.9994           0
     23698 TIP3     439      TIP3     H1       HT       0.417000       1.00800           0
     23699 TIP3     439      TIP3     H2       HT       0.417000       1.00800           0
     23700 TIP3     440      TIP3     OH2      OT      -0.834000       15.9994           0
     23701 TIP3     440      TIP3     H1       HT       0.417000       1.00800           0
     23702 TIP3     440      TIP3     H2       HT       0.417000       1.00800           0
     23703 TIP3     441      TIP3     OH2      OT      -0.834000       15.9994           0
     23704 TIP3     441      TIP3     H1       HT       0.417000       1.00800           0
     23705 TIP3     441      TIP3     H2       HT       0.417000       1.00800           0
     23706 TIP3     442      TIP3     OH2      OT      -0.834000       15.9994           0
     23707 TIP3     442      TIP3     H1       HT       0.417000       1.00800           0
     23708 TIP3     442      TIP3     H2       HT       0.417000       1.00800           0
     23709 TIP3     443      TIP3     OH2      OT      -0.834000       15.9994           0
     23710 TIP3     443      TIP3     H1       HT       0.417000       1.00800           0
     23711 TIP3     443      TIP3     H2       HT       0.417000       1.00800           0
     23712 TIP3     444      TIP3     OH2      OT      -0.834000       15.9994           0
     23713 TIP3     444      TIP3     H1       HT       0.417000       1.00800           0
     23714 TIP3     444      TIP3     H2       HT       0.417000       1.00800           0
     23715 TIP3     445      TIP3     OH2      OT      -0.834000       15.9994           0
     23716 TIP3     445      TIP3     H1       HT       0.417000       1.00800           0
     23717 TIP3     445      TIP3     H2       HT       0.417000       1.00800           0
     23718 TIP3     446      TIP3     OH2      OT      -0.834000       15.9994           0
     23719 TIP3     446      TIP3     H1       HT       0.417000       1.00800           0
     23720 TIP3     446      TIP3     H2       HT       0.417000       1.00800           0
     23721 TIP3     447      TIP3     OH2      OT      -0.834000       15.9994           0
     23722 TIP3     447      TIP3     H1       HT       0.417000       1.00800           0
     23723 TIP3     447      TIP3     H2       HT       0.417000       1.00800           0
     23724 TIP3     448      TIP3     OH2      OT      -0.834000       15.9994           0
     23725 TIP3     448      TIP3     H1       HT       0.417000       1.00800           0
     23726 TIP3     448      TIP3     H2       HT       0.417000       1.00800           0
     23727 TIP3     449      TIP3     OH2      OT      -0.834000       15.9994           0
     23728 TIP3     449      TIP3     H1       HT       0.417000       1.00800           0
     23729 TIP3     449      TIP3     H2       HT       0.417000       1.00800           0
     23730 TIP3     450      TIP3     OH2      OT      -0.834000       15.9994           0
     23731 TIP3     450      TIP3     H1       HT       0.417000       1.00800           0
     23732 TIP3     450      TIP3     H2       HT       0.417000       1.00800           0
     23733 TIP3     451      TIP3     OH2      OT      -0.834000       15.9994           0
     23734 TIP3     451      TIP3     H1       HT       0.417000       1.00800           0
     23735 TIP3     451      TIP3     H2       HT       0.417000       1.00800           0
     23736 TIP3     452      TIP3     OH2      OT      -0.834000       15.9994           0
     23737 TIP3     452      TIP3     H1       HT       0.417000       1.00800           0
     23738 TIP3     452      TIP3     H2       HT       0.417000       1.00800           0
     23739 TIP3     453      TIP3     OH2      OT      -0.834000       15.9994           0
     23740 TIP3     453      TIP3     H1       HT       0.417000       1.00800           0
     23741 TIP3     453      TIP3     H2       HT       0.417000       1.00800           0
     23742 TIP3     454      TIP3     OH2      OT      -0.834000       15.9994           0
     23743 TIP3     454      TIP3     H1       HT       0.417000       1.00800           0
     23744 TIP3     454      TIP3     H2       HT       0.417000       1.00800           0
     23745 TIP3     455      TIP3     OH2      OT      -0.834000       15.9994           0
     23746 TIP3     455      TIP3     H1       HT       0.417000       1.00800           0
     23747 TIP3     455      TIP3     H2       HT       0.417000       1.00800           0
     23748 TIP3     456      TIP3     OH2      OT      -0.834000       15.9994           0
     23749 TIP3     456      TIP3     H1       HT       0.417000       1.00800           0
     23750 TIP3     456      TIP3     H2       HT       0.417000       1.00800           0
     23751 TIP3     457      TIP3     OH2      OT      -0.834000       15.9994           0
     23752 TIP3     457      TIP3     H1       HT       0.417000       1.00800           0
     23753 TIP3     457      TIP3     H2       HT       0.417000       1.00800           0
     23754 TIP3     458      TIP3     OH2      OT      -0.834000       15.9994           0
     23755 TIP3     458      TIP3     H1       HT       0.417000       1.00800           0
     23756 TIP3     458      TIP3     H2       HT       0.417000       1.00800           0
     23757 TIP3     459      TIP3     OH2      OT      -0.834000       15.9994           0
     23758 TIP3     459      TIP3     H1       HT       0.417000       1.00800           0
     23759 TIP3     459      TIP3     H2       HT       0.417000       1.00800           0
     23760 TIP3     460      TIP3     OH2      OT      -0.834000       15.9994           0
     23761 TIP3     460      TIP3     H1       HT       0.417000       1.00800           0
     23762 TIP3     460      TIP3     H2       HT       0.417000       1.00800           0
     23763 TIP3     461      TIP3     OH2      OT      -0.834000       15.9994           0
     23764 TIP3     461      TIP3     H1       HT       0.417000       1.00800           0
     23765 TIP3     461      TIP3     H2       HT       0.417000       1.00800           0
     23766 TIP3     462      TIP3     OH2      OT      -0.834000       15.9994           0
     23767 TIP3     462      TIP3     H1       HT       0.417000       1.00800           0
     23768 TIP3     462      TIP3     H2       HT       0.417000       1.00800           0
     23769 TIP3     463      TIP3     OH2      OT      -0.834000       15.9994           0
     23770 TIP3     463      TIP3     H1       HT       0.417000       1.00800           0
     23771 TIP3     463      TIP3     H2       HT       0.417000       1.00800           0
     23772 TIP3     464      TIP3     OH2      OT      -0.834000       15.9994           0
     23773 TIP3     464      TIP3     H1       HT       0.417000       1.00800           0
     23774 TIP3     464      TIP3     H2       HT       0.417000       1.00800           0
     23775 TIP3     465      TIP3     OH2      OT      -0.834000       15.9994           0
     23776 TIP3     465      TIP3     H1       HT       0.417000       1.00800           0
     23777 TIP3     465      TIP3     H2       HT       0.417000       1.00800           0
     23778 TIP3     466      TIP3     OH2      OT      -0.834000       15.9994           0
     23779 TIP3     466      TIP3     H1       HT       0.417000       1.00800           0
     23780 TIP3     466      TIP3     H2       HT       0.417000       1.00800           0
     23781 TIP3     467      TIP3     OH2      OT      -0.834000       15.9994           0
     23782 TIP3     467      TIP3     H1       HT       0.417000       1.00800           0
     23783 TIP3     467      TIP3     H2       HT       0.417000       1.00800           0
     23784 TIP3     468      TIP3     OH2      OT      -0.834000       15.9994           0
     23785 TIP3     468      TIP3     H1       HT       0.417000       1.00800           0
     23786 TIP3     468      TIP3     H2       HT       0.417000       1.00800           0
     23787 TIP3     469      TIP3     OH2      OT      -0.834000       15.9994           0
     23788 TIP3     469      TIP3     H1       HT       0.417000       1.00800           0
     23789 TIP3     469      TIP3     H2       HT       0.417000       1.00800           0
     23790 TIP3     470      TIP3     OH2      OT      -0.834000       15.9994           0
     23791 TIP3     470      TIP3     H1       HT       0.417000       1.00800           0
     23792 TIP3     470      TIP3     H2       HT       0.417000       1.00800           0
     23793 TIP3     471      TIP3     OH2      OT      -0.834000       15.9994           0
     23794 TIP3     471      TIP3     H1       HT       0.417000       1.00800           0
     23795 TIP3     471      TIP3     H2       HT       0.417000       1.00800           0
     23796 TIP3     472      TIP3     OH2      OT      -0.834000       15.9994           0
     23797 TIP3     472      TIP3     H1       HT       0.417000       1.00800           0
     23798 TIP3     472      TIP3     H2       HT       0.417000       1.00800           0
     23799 TIP3     473      TIP3     OH2      OT      -0.834000       15.9994           0
     23800 TIP3     473      TIP3     H1       HT       0.417000       1.00800           0
     23801 TIP3     473      TIP3     H2       HT       0.417000       1.00800           0
     23802 TIP3     474      TIP3     OH2      OT      -0.834000       15.9994           0
     23803 TIP3     474      TIP3     H1       HT       0.417000       1.00800           0
     23804 TIP3     474      TIP3     H2       HT       0.417000       1.00800           0
     23805 TIP3     475      TIP3     OH2      OT      -0.834000       15.9994           0
     23806 TIP3     475      TIP3     H1       HT       0.417000       1.00800           0
     23807 TIP3     475      TIP3     H2       HT       0.417000       1.00800           0
     23808 TIP3     476      TIP3     OH2      OT      -0.834000       15.9994           0
     23809 TIP3     476      TIP3     H1       HT       0.417000       1.00800           0
     23810 TIP3     476      TIP3     H2       HT       0.417000       1.00800           0
     23811 TIP3     477      TIP3     OH2      OT      -0.834000       15.9994           0
     23812 TIP3     477      TIP3     H1       HT       0.417000       1.00800           0
     23813 TIP3     477      TIP3     H2       HT       0.417000       1.00800           0
     23814 TIP3     478      TIP3     OH2      OT      -0.834000       15.9994           0
     23815 TIP3     478      TIP3     H1       HT       0.417000       1.00800           0
     23816 TIP3     478      TIP3     H2       HT       0.417000       1.00800           0
     23817 TIP3     479      TIP3     OH2      OT      -0.834000       15.9994           0
     23818 TIP3     479      TIP3     H1       HT       0.417000       1.00800           0
     23819 TIP3     479      TIP3     H2       HT       0.417000       1.00800           0
     23820 TIP3     480      TIP3     OH2      OT      -0.834000       15.9994           0
     23821 TIP3     480      TIP3     H1       HT       0.417000       1.00800           0
     23822 TIP3     480      TIP3     H2       HT       0.417000       1.00800           0
     23823 TIP3     481      TIP3     OH2      OT      -0.834000       15.9994           0
     23824 TIP3     481      TIP3     H1       HT       0.417000       1.00800           0
     23825 TIP3     481      TIP3     H2       HT       0.417000       1.00800           0
     23826 TIP3     482      TIP3     OH2      OT      -0.834000       15.9994           0
     23827 TIP3     482      TIP3     H1       HT       0.417000       1.00800           0
     23828 TIP3     482      TIP3     H2       HT       0.417000       1.00800           0
     23829 TIP3     483      TIP3     OH2      OT      -0.834000       15.9994           0
     23830 TIP3     483      TIP3     H1       HT       0.417000       1.00800           0
     23831 TIP3     483      TIP3     H2       HT       0.417000       1.00800           0
     23832 TIP3     484      TIP3     OH2      OT      -0.834000       15.9994           0
     23833 TIP3     484      TIP3     H1       HT       0.417000       1.00800           0
     23834 TIP3     484      TIP3     H2       HT       0.417000       1.00800           0
     23835 TIP3     485      TIP3     OH2      OT      -0.834000       15.9994           0
     23836 TIP3     485      TIP3     H1       HT       0.417000       1.00800           0
     23837 TIP3     485      TIP3     H2       HT       0.417000       1.00800           0
     23838 TIP3     486      TIP3     OH2      OT      -0.834000       15.9994           0
     23839 TIP3     486      TIP3     H1       HT       0.417000       1.00800           0
     23840 TIP3     486      TIP3     H2       HT       0.417000       1.00800           0
     23841 TIP3     487      TIP3     OH2      OT      -0.834000       15.9994           0
     23842 TIP3     487      TIP3     H1       HT       0.417000       1.00800           0
     23843 TIP3     487      TIP3     H2       HT       0.417000       1.00800           0
     23844 TIP3     488      TIP3     OH2      OT      -0.834000       15.9994           0
     23845 TIP3     488      TIP3     H1       HT       0.417000       1.00800           0
     23846 TIP3     488      TIP3     H2       HT       0.417000       1.00800           0
     23847 TIP3     489      TIP3     OH2      OT      -0.834000       15.9994           0
     23848 TIP3     489      TIP3     H1       HT       0.417000       1.00800           0
     23849 TIP3     489      TIP3     H2       HT       0.417000       1.00800           0
     23850 TIP3     490      TIP3     OH2      OT      -0.834000       15.9994           0
     23851 TIP3     490      TIP3     H1       HT       0.417000       1.00800           0
     23852 TIP3     490      TIP3     H2       HT       0.417000       1.00800           0
     23853 TIP3     491      TIP3     OH2      OT      -0.834000       15.9994           0
     23854 TIP3     491      TIP3     H1       HT       0.417000       1.00800           0
     23855 TIP3     491      TIP3     H2       HT       0.417000       1.00800           0
     23856 TIP3     492      TIP3     OH2      OT      -0.834000       15.9994           0
     23857 TIP3     492      TIP3     H1       HT       0.417000       1.00800           0
     23858 TIP3     492      TIP3     H2       HT       0.417000       1.00800           0
     23859 TIP3     493      TIP3     OH2      OT      -0.834000       15.9994           0
     23860 TIP3     493      TIP3     H1       HT       0.417000       1.00800           0
     23861 TIP3     493      TIP3     H2       HT       0.417000       1.00800           0
     23862 TIP3     494      TIP3     OH2      OT      -0.834000       15.9994           0
     23863 TIP3     494      TIP3     H1       HT       0.417000       1.00800           0
     23864 TIP3     494      TIP3     H2       HT       0.417000       1.00800           0
     23865 TIP3     495      TIP3     OH2      OT      -0.834000       15.9994           0
     23866 TIP3     495      TIP3     H1       HT       0.417000       1.00800           0
     23867 TIP3     495      TIP3     H2       HT       0.417000       1.00800           0
     23868 TIP3     496      TIP3     OH2      OT      -0.834000       15.9994           0
     23869 TIP3     496      TIP3     H1       HT       0.417000       1.00800           0
     23870 TIP3     496      TIP3     H2       HT       0.417000       1.00800           0
     23871 TIP3     497      TIP3     OH2      OT      -0.834000       15.9994           0
     23872 TIP3     497      TIP3     H1       HT       0.417000       1.00800           0
     23873 TIP3     497      TIP3     H2       HT       0.417000       1.00800           0
     23874 TIP3     498      TIP3     OH2      OT      -0.834000       15.9994           0
     23875 TIP3     498      TIP3     H1       HT       0.417000       1.00800           0
     23876 TIP3     498      TIP3     H2       HT       0.417000       1.00800           0
     23877 TIP3     499      TIP3     OH2      OT      -0.834000       15.9994           0
     23878 TIP3     499      TIP3     H1       HT       0.417000       1.00800           0
     23879 TIP3     499      TIP3     H2       HT       0.417000       1.00800           0
     23880 TIP3     500      TIP3     OH2      OT      -0.834000       15.9994           0
     23881 TIP3     500      TIP3     H1       HT       0.417000       1.00800           0
     23882 TIP3     500      TIP3     H2       HT       0.417000       1.00800           0
     23883 TIP3     501      TIP3     OH2      OT      -0.834000       15.9994           0
     23884 TIP3     501      TIP3     H1       HT       0.417000       1.00800           0
     23885 TIP3     501      TIP3     H2       HT       0.417000       1.00800           0
     23886 TIP3     502      TIP3     OH2      OT      -0.834000       15.9994           0
     23887 TIP3     502      TIP3     H1       HT       0.417000       1.00800           0
     23888 TIP3     502      TIP3     H2       HT       0.417000       1.00800           0
     23889 TIP3     503      TIP3     OH2      OT      -0.834000       15.9994           0
     23890 TIP3     503      TIP3     H1       HT       0.417000       1.00800           0
     23891 TIP3     503      TIP3     H2       HT       0.417000       1.00800           0
     23892 TIP3     504      TIP3     OH2      OT      -0.834000       15.9994           0
     23893 TIP3     504      TIP3     H1       HT       0.417000       1.00800           0
     23894 TIP3     504      TIP3     H2       HT       0.417000       1.00800           0
     23895 TIP3     505      TIP3     OH2      OT      -0.834000       15.9994           0
     23896 TIP3     505      TIP3     H1       HT       0.417000       1.00800           0
     23897 TIP3     505      TIP3     H2       HT       0.417000       1.00800           0
     23898 TIP3     506      TIP3     OH2      OT      -0.834000       15.9994           0
     23899 TIP3     506      TIP3     H1       HT       0.417000       1.00800           0
     23900 TIP3     506      TIP3     H2       HT       0.417000       1.00800           0
     23901 TIP3     507      TIP3     OH2      OT      -0.834000       15.9994           0
     23902 TIP3     507      TIP3     H1       HT       0.417000       1.00800           0
     23903 TIP3     507      TIP3     H2       HT       0.417000       1.00800           0
     23904 TIP3     508      TIP3     OH2      OT      -0.834000       15.9994           0
     23905 TIP3     508      TIP3     H1       HT       0.417000       1.00800           0
     23906 TIP3     508      TIP3     H2       HT       0.417000       1.00800           0
     23907 TIP3     509      TIP3     OH2      OT      -0.834000       15.9994           0
     23908 TIP3     509      TIP3     H1       HT       0.417000       1.00800           0
     23909 TIP3     509      TIP3     H2       HT       0.417000       1.00800           0
     23910 TIP3     510      TIP3     OH2      OT      -0.834000       15.9994           0
     23911 TIP3     510      TIP3     H1       HT       0.417000       1.00800           0
     23912 TIP3     510      TIP3     H2       HT       0.417000       1.00800           0
     23913 TIP3     511      TIP3     OH2      OT      -0.834000       15.9994           0
     23914 TIP3     511      TIP3     H1       HT       0.417000       1.00800           0
     23915 TIP3     511      TIP3     H2       HT       0.417000       1.00800           0
     23916 TIP3     512      TIP3     OH2      OT      -0.834000       15.9994           0
     23917 TIP3     512      TIP3     H1       HT       0.417000       1.00800           0
     23918 TIP3     512      TIP3     H2       HT       0.417000       1.00800           0
     23919 TIP3     513      TIP3     OH2      OT      -0.834000       15.9994           0
     23920 TIP3     513      TIP3     H1       HT       0.417000       1.00800           0
     23921 TIP3     513      TIP3     H2       HT       0.417000       1.00800           0
     23922 TIP3     514      TIP3     OH2      OT      -0.834000       15.9994           0
     23923 TIP3     514      TIP3     H1       HT       0.417000       1.00800           0
     23924 TIP3     514      TIP3     H2       HT       0.417000       1.00800           0
     23925 TIP3     515      TIP3     OH2      OT      -0.834000       15.9994           0
     23926 TIP3     515      TIP3     H1       HT       0.417000       1.00800           0
     23927 TIP3     515      TIP3     H2       HT       0.417000       1.00800           0
     23928 TIP3     516      TIP3     OH2      OT      -0.834000       15.9994           0
     23929 TIP3     516      TIP3     H1       HT       0.417000       1.00800           0
     23930 TIP3     516      TIP3     H2       HT       0.417000       1.00800           0
     23931 TIP3     517      TIP3     OH2      OT      -0.834000       15.9994           0
     23932 TIP3     517      TIP3     H1       HT       0.417000       1.00800           0
     23933 TIP3     517      TIP3     H2       HT       0.417000       1.00800           0
     23934 TIP3     518      TIP3     OH2      OT      -0.834000       15.9994           0
     23935 TIP3     518      TIP3     H1       HT       0.417000       1.00800           0
     23936 TIP3     518      TIP3     H2       HT       0.417000       1.00800           0
     23937 TIP3     519      TIP3     OH2      OT      -0.834000       15.9994           0
     23938 TIP3     519      TIP3     H1       HT       0.417000       1.00800           0
     23939 TIP3     519      TIP3     H2       HT       0.417000       1.00800           0
     23940 TIP3     520      TIP3     OH2      OT      -0.834000       15.9994           0
     23941 TIP3     520      TIP3     H1       HT       0.417000       1.00800           0
     23942 TIP3     520      TIP3     H2       HT       0.417000       1.00800           0
     23943 TIP3     521      TIP3     OH2      OT      -0.834000       15.9994           0
     23944 TIP3     521      TIP3     H1       HT       0.417000       1.00800           0
     23945 TIP3     521      TIP3     H2       HT       0.417000       1.00800           0
     23946 TIP3     522      TIP3     OH2      OT      -0.834000       15.9994           0
     23947 TIP3     522      TIP3     H1       HT       0.417000       1.00800           0
     23948 TIP3     522      TIP3     H2       HT       0.417000       1.00800           0
     23949 TIP3     523      TIP3     OH2      OT      -0.834000       15.9994           0
     23950 TIP3     523      TIP3     H1       HT       0.417000       1.00800           0
     23951 TIP3     523      TIP3     H2       HT       0.417000       1.00800           0
     23952 TIP3     524      TIP3     OH2      OT      -0.834000       15.9994           0
     23953 TIP3     524      TIP3     H1       HT       0.417000       1.00800           0
     23954 TIP3     524      TIP3     H2       HT       0.417000       1.00800           0
     23955 TIP3     525      TIP3     OH2      OT      -0.834000       15.9994           0
     23956 TIP3     525      TIP3     H1       HT       0.417000       1.00800           0
     23957 TIP3     525      TIP3     H2       HT       0.417000       1.00800           0
     23958 TIP3     526      TIP3     OH2      OT      -0.834000       15.9994           0
     23959 TIP3     526      TIP3     H1       HT       0.417000       1.00800           0
     23960 TIP3     526      TIP3     H2       HT       0.417000       1.00800           0
     23961 TIP3     527      TIP3     OH2      OT      -0.834000       15.9994           0
     23962 TIP3     527      TIP3     H1       HT       0.417000       1.00800           0
     23963 TIP3     527      TIP3     H2       HT       0.417000       1.00800           0
     23964 TIP3     528      TIP3     OH2      OT      -0.834000       15.9994           0
     23965 TIP3     528      TIP3     H1       HT       0.417000       1.00800           0
     23966 TIP3     528      TIP3     H2       HT       0.417000       1.00800           0
     23967 TIP3     529      TIP3     OH2      OT      -0.834000       15.9994           0
     23968 TIP3     529      TIP3     H1       HT       0.417000       1.00800           0
     23969 TIP3     529      TIP3     H2       HT       0.417000       1.00800           0
     23970 TIP3     530      TIP3     OH2      OT      -0.834000       15.9994           0
     23971 TIP3     530      TIP3     H1       HT       0.417000       1.00800           0
     23972 TIP3     530      TIP3     H2       HT       0.417000       1.00800           0
     23973 TIP3     531      TIP3     OH2      OT      -0.834000       15.9994           0
     23974 TIP3     531      TIP3     H1       HT       0.417000       1.00800           0
     23975 TIP3     531      TIP3     H2       HT       0.417000       1.00800           0
     23976 TIP3     532      TIP3     OH2      OT      -0.834000       15.9994           0
     23977 TIP3     532      TIP3     H1       HT       0.417000       1.00800           0
     23978 TIP3     532      TIP3     H2       HT       0.417000       1.00800           0
     23979 TIP3     533      TIP3     OH2      OT      -0.834000       15.9994           0
     23980 TIP3     533      TIP3     H1       HT       0.417000       1.00800           0
     23981 TIP3     533      TIP3     H2       HT       0.417000       1.00800           0
     23982 TIP3     534      TIP3     OH2      OT      -0.834000       15.9994           0
     23983 TIP3     534      TIP3     H1       HT       0.417000       1.00800           0
     23984 TIP3     534      TIP3     H2       HT       0.417000       1.00800           0
     23985 TIP3     535      TIP3     OH2      OT      -0.834000       15.9994           0
     23986 TIP3     535      TIP3     H1       HT       0.417000       1.00800           0
     23987 TIP3     535      TIP3     H2       HT       0.417000       1.00800           0
     23988 TIP3     536      TIP3     OH2      OT      -0.834000       15.9994           0
     23989 TIP3     536      TIP3     H1       HT       0.417000       1.00800           0
     23990 TIP3     536      TIP3     H2       HT       0.417000       1.00800           0
     23991 TIP3     537      TIP3     OH2      OT      -0.834000       15.9994           0
     23992 TIP3     537      TIP3     H1       HT       0.417000       1.00800           0
     23993 TIP3     537      TIP3     H2       HT       0.417000       1.00800           0
     23994 TIP3     538      TIP3     OH2      OT      -0.834000       15.9994           0
     23995 TIP3     538      TIP3     H1       HT       0.417000       1.00800           0
     23996 TIP3     538      TIP3     H2       HT       0.417000       1.00800           0
     23997 TIP3     539      TIP3     OH2      OT      -0.834000       15.9994           0
     23998 TIP3     539      TIP3     H1       HT       0.417000       1.00800           0
     23999 TIP3     539      TIP3     H2       HT       0.417000       1.00800           0
     24000 TIP3     540      TIP3     OH2      OT      -0.834000       15.9994           0
     24001 TIP3     540      TIP3     H1       HT       0.417000       1.00800           0
     24002 TIP3     540      TIP3     H2       HT       0.417000       1.00800           0
     24003 TIP3     541      TIP3     OH2      OT      -0.834000       15.9994           0
     24004 TIP3     541      TIP3     H1       HT       0.417000       1.00800           0
     24005 TIP3     541      TIP3     H2       HT       0.417000       1.00800           0
     24006 TIP3     542      TIP3     OH2      OT      -0.834000       15.9994           0
     24007 TIP3     542      TIP3     H1       HT       0.417000       1.00800           0
     24008 TIP3     542      TIP3     H2       HT       0.417000       1.00800           0
     24009 TIP3     543      TIP3     OH2      OT      -0.834000       15.9994           0
     24010 TIP3     543      TIP3     H1       HT       0.417000       1.00800           0
     24011 TIP3     543      TIP3     H2       HT       0.417000       1.00800           0
     24012 TIP3     544      TIP3     OH2      OT      -0.834000       15.9994           0
     24013 TIP3     544      TIP3     H1       HT       0.417000       1.00800           0
     24014 TIP3     544      TIP3     H2       HT       0.417000       1.00800           0
     24015 TIP3     545      TIP3     OH2      OT      -0.834000       15.9994           0
     24016 TIP3     545      TIP3     H1       HT       0.417000       1.00800           0
     24017 TIP3     545      TIP3     H2       HT       0.417000       1.00800           0
     24018 TIP3     546      TIP3     OH2      OT      -0.834000       15.9994           0
     24019 TIP3     546      TIP3     H1       HT       0.417000       1.00800           0
     24020 TIP3     546      TIP3     H2       HT       0.417000       1.00800           0
     24021 TIP3     547      TIP3     OH2      OT      -0.834000       15.9994           0
     24022 TIP3     547      TIP3     H1       HT       0.417000       1.00800           0
     24023 TIP3     547      TIP3     H2       HT       0.417000       1.00800           0
     24024 TIP3     548      TIP3     OH2      OT      -0.834000       15.9994           0
     24025 TIP3     548      TIP3     H1       HT       0.417000       1.00800           0
     24026 TIP3     548      TIP3     H2       HT       0.417000       1.00800           0
     24027 TIP3     549      TIP3     OH2      OT      -0.834000       15.9994           0
     24028 TIP3     549      TIP3     H1       HT       0.417000       1.00800           0
     24029 TIP3     549      TIP3     H2       HT       0.417000       1.00800           0
     24030 TIP3     550      TIP3     OH2      OT      -0.834000       15.9994           0
     24031 TIP3     550      TIP3     H1       HT       0.417000       1.00800           0
     24032 TIP3     550      TIP3     H2       HT       0.417000       1.00800           0
     24033 TIP3     551      TIP3     OH2      OT      -0.834000       15.9994           0
     24034 TIP3     551      TIP3     H1       HT       0.417000       1.00800           0
     24035 TIP3     551      TIP3     H2       HT       0.417000       1.00800           0
     24036 TIP3     552      TIP3     OH2      OT      -0.834000       15.9994           0
     24037 TIP3     552      TIP3     H1       HT       0.417000       1.00800           0
     24038 TIP3     552      TIP3     H2       HT       0.417000       1.00800           0
     24039 TIP3     553      TIP3     OH2      OT      -0.834000       15.9994           0
     24040 TIP3     553      TIP3     H1       HT       0.417000       1.00800           0
     24041 TIP3     553      TIP3     H2       HT       0.417000       1.00800           0
     24042 TIP3     554      TIP3     OH2      OT      -0.834000       15.9994           0
     24043 TIP3     554      TIP3     H1       HT       0.417000       1.00800           0
     24044 TIP3     554      TIP3     H2       HT       0.417000       1.00800           0
     24045 TIP3     555      TIP3     OH2      OT      -0.834000       15.9994           0
     24046 TIP3     555      TIP3     H1       HT       0.417000       1.00800           0
     24047 TIP3     555      TIP3     H2       HT       0.417000       1.00800           0
     24048 TIP3     556      TIP3     OH2      OT      -0.834000       15.9994           0
     24049 TIP3     556      TIP3     H1       HT       0.417000       1.00800           0
     24050 TIP3     556      TIP3     H2       HT       0.417000       1.00800           0
     24051 TIP3     557      TIP3     OH2      OT      -0.834000       15.9994           0
     24052 TIP3     557      TIP3     H1       HT       0.417000       1.00800           0
     24053 TIP3     557      TIP3     H2       HT       0.417000       1.00800           0
     24054 TIP3     558      TIP3     OH2      OT      -0.834000       15.9994           0
     24055 TIP3     558      TIP3     H1       HT       0.417000       1.00800           0
     24056 TIP3     558      TIP3     H2       HT       0.417000       1.00800           0
     24057 TIP3     559      TIP3     OH2      OT      -0.834000       15.9994           0
     24058 TIP3     559      TIP3     H1       HT       0.417000       1.00800           0
     24059 TIP3     559      TIP3     H2       HT       0.417000       1.00800           0
     24060 TIP3     560      TIP3     OH2      OT      -0.834000       15.9994           0
     24061 TIP3     560      TIP3     H1       HT       0.417000       1.00800           0
     24062 TIP3     560      TIP3     H2       HT       0.417000       1.00800           0
     24063 TIP3     561      TIP3     OH2      OT      -0.834000       15.9994           0
     24064 TIP3     561      TIP3     H1       HT       0.417000       1.00800           0
     24065 TIP3     561      TIP3     H2       HT       0.417000       1.00800           0
     24066 TIP3     562      TIP3     OH2      OT      -0.834000       15.9994           0
     24067 TIP3     562      TIP3     H1       HT       0.417000       1.00800           0
     24068 TIP3     562      TIP3     H2       HT       0.417000       1.00800           0
     24069 TIP3     563      TIP3     OH2      OT      -0.834000       15.9994           0
     24070 TIP3     563      TIP3     H1       HT       0.417000       1.00800           0
     24071 TIP3     563      TIP3     H2       HT       0.417000       1.00800           0
     24072 TIP3     564      TIP3     OH2      OT      -0.834000       15.9994           0
     24073 TIP3     564      TIP3     H1       HT       0.417000       1.00800           0
     24074 TIP3     564      TIP3     H2       HT       0.417000       1.00800           0
     24075 TIP3     565      TIP3     OH2      OT      -0.834000       15.9994           0
     24076 TIP3     565      TIP3     H1       HT       0.417000       1.00800           0
     24077 TIP3     565      TIP3     H2       HT       0.417000       1.00800           0
     24078 TIP3     566      TIP3     OH2      OT      -0.834000       15.9994           0
     24079 TIP3     566      TIP3     H1       HT       0.417000       1.00800           0
     24080 TIP3     566      TIP3     H2       HT       0.417000       1.00800           0
     24081 TIP3     567      TIP3     OH2      OT      -0.834000       15.9994           0
     24082 TIP3     567      TIP3     H1       HT       0.417000       1.00800           0
     24083 TIP3     567      TIP3     H2       HT       0.417000       1.00800           0
     24084 TIP3     568      TIP3     OH2      OT      -0.834000       15.9994           0
     24085 TIP3     568      TIP3     H1       HT       0.417000       1.00800           0
     24086 TIP3     568      TIP3     H2       HT       0.417000       1.00800           0
     24087 TIP3     569      TIP3     OH2      OT      -0.834000       15.9994           0
     24088 TIP3     569      TIP3     H1       HT       0.417000       1.00800           0
     24089 TIP3     569      TIP3     H2       HT       0.417000       1.00800           0
     24090 TIP3     570      TIP3     OH2      OT      -0.834000       15.9994           0
     24091 TIP3     570      TIP3     H1       HT       0.417000       1.00800           0
     24092 TIP3     570      TIP3     H2       HT       0.417000       1.00800           0
     24093 TIP3     571      TIP3     OH2      OT      -0.834000       15.9994           0
     24094 TIP3     571      TIP3     H1       HT       0.417000       1.00800           0
     24095 TIP3     571      TIP3     H2       HT       0.417000       1.00800           0
     24096 TIP3     572      TIP3     OH2      OT      -0.834000       15.9994           0
     24097 TIP3     572      TIP3     H1       HT       0.417000       1.00800           0
     24098 TIP3     572      TIP3     H2       HT       0.417000       1.00800           0
     24099 TIP3     573      TIP3     OH2      OT      -0.834000       15.9994           0
     24100 TIP3     573      TIP3     H1       HT       0.417000       1.00800           0
     24101 TIP3     573      TIP3     H2       HT       0.417000       1.00800           0
     24102 TIP3     574      TIP3     OH2      OT      -0.834000       15.9994           0
     24103 TIP3     574      TIP3     H1       HT       0.417000       1.00800           0
     24104 TIP3     574      TIP3     H2       HT       0.417000       1.00800           0
     24105 TIP3     575      TIP3     OH2      OT      -0.834000       15.9994           0
     24106 TIP3     575      TIP3     H1       HT       0.417000       1.00800           0
     24107 TIP3     575      TIP3     H2       HT       0.417000       1.00800           0
     24108 TIP3     576      TIP3     OH2      OT      -0.834000       15.9994           0
     24109 TIP3     576      TIP3     H1       HT       0.417000       1.00800           0
     24110 TIP3     576      TIP3     H2       HT       0.417000       1.00800           0
     24111 TIP3     577      TIP3     OH2      OT      -0.834000       15.9994           0
     24112 TIP3     577      TIP3     H1       HT       0.417000       1.00800           0
     24113 TIP3     577      TIP3     H2       HT       0.417000       1.00800           0
     24114 TIP3     578      TIP3     OH2      OT      -0.834000       15.9994           0
     24115 TIP3     578      TIP3     H1       HT       0.417000       1.00800           0
     24116 TIP3     578      TIP3     H2       HT       0.417000       1.00800           0
     24117 TIP3     579      TIP3     OH2      OT      -0.834000       15.9994           0
     24118 TIP3     579      TIP3     H1       HT       0.417000       1.00800           0
     24119 TIP3     579      TIP3     H2       HT       0.417000       1.00800           0
     24120 TIP3     580      TIP3     OH2      OT      -0.834000       15.9994           0
     24121 TIP3     580      TIP3     H1       HT       0.417000       1.00800           0
     24122 TIP3     580      TIP3     H2       HT       0.417000       1.00800           0
     24123 TIP3     581      TIP3     OH2      OT      -0.834000       15.9994           0
     24124 TIP3     581      TIP3     H1       HT       0.417000       1.00800           0
     24125 TIP3     581      TIP3     H2       HT       0.417000       1.00800           0
     24126 TIP3     582      TIP3     OH2      OT      -0.834000       15.9994           0
     24127 TIP3     582      TIP3     H1       HT       0.417000       1.00800           0
     24128 TIP3     582      TIP3     H2       HT       0.417000       1.00800           0
     24129 TIP3     583      TIP3     OH2      OT      -0.834000       15.9994           0
     24130 TIP3     583      TIP3     H1       HT       0.417000       1.00800           0
     24131 TIP3     583      TIP3     H2       HT       0.417000       1.00800           0
     24132 TIP3     584      TIP3     OH2      OT      -0.834000       15.9994           0
     24133 TIP3     584      TIP3     H1       HT       0.417000       1.00800           0
     24134 TIP3     584      TIP3     H2       HT       0.417000       1.00800           0
     24135 TIP3     585      TIP3     OH2      OT      -0.834000       15.9994           0
     24136 TIP3     585      TIP3     H1       HT       0.417000       1.00800           0
     24137 TIP3     585      TIP3     H2       HT       0.417000       1.00800           0
     24138 TIP3     586      TIP3     OH2      OT      -0.834000       15.9994           0
     24139 TIP3     586      TIP3     H1       HT       0.417000       1.00800           0
     24140 TIP3     586      TIP3     H2       HT       0.417000       1.00800           0
     24141 TIP3     587      TIP3     OH2      OT      -0.834000       15.9994           0
     24142 TIP3     587      TIP3     H1       HT       0.417000       1.00800           0
     24143 TIP3     587      TIP3     H2       HT       0.417000       1.00800           0
     24144 TIP3     588      TIP3     OH2      OT      -0.834000       15.9994           0
     24145 TIP3     588      TIP3     H1       HT       0.417000       1.00800           0
     24146 TIP3     588      TIP3     H2       HT       0.417000       1.00800           0
     24147 TIP3     589      TIP3     OH2      OT      -0.834000       15.9994           0
     24148 TIP3     589      TIP3     H1       HT       0.417000       1.00800           0
     24149 TIP3     589      TIP3     H2       HT       0.417000       1.00800           0
     24150 TIP3     590      TIP3     OH2      OT      -0.834000       15.9994           0
     24151 TIP3     590      TIP3     H1       HT       0.417000       1.00800           0
     24152 TIP3     590      TIP3     H2       HT       0.417000       1.00800           0
     24153 TIP3     591      TIP3     OH2      OT      -0.834000       15.9994           0
     24154 TIP3     591      TIP3     H1       HT       0.417000       1.00800           0
     24155 TIP3     591      TIP3     H2       HT       0.417000       1.00800           0
     24156 TIP3     592      TIP3     OH2      OT      -0.834000       15.9994           0
     24157 TIP3     592      TIP3     H1       HT       0.417000       1.00800           0
     24158 TIP3     592      TIP3     H2       HT       0.417000       1.00800           0
     24159 TIP3     593      TIP3     OH2      OT      -0.834000       15.9994           0
     24160 TIP3     593      TIP3     H1       HT       0.417000       1.00800           0
     24161 TIP3     593      TIP3     H2       HT       0.417000       1.00800           0
     24162 TIP3     594      TIP3     OH2      OT      -0.834000       15.9994           0
     24163 TIP3     594      TIP3     H1       HT       0.417000       1.00800           0
     24164 TIP3     594      TIP3     H2       HT       0.417000       1.00800           0
     24165 TIP3     595      TIP3     OH2      OT      -0.834000       15.9994           0
     24166 TIP3     595      TIP3     H1       HT       0.417000       1.00800           0
     24167 TIP3     595      TIP3     H2       HT       0.417000       1.00800           0
     24168 TIP3     596      TIP3     OH2      OT      -0.834000       15.9994           0
     24169 TIP3     596      TIP3     H1       HT       0.417000       1.00800           0
     24170 TIP3     596      TIP3     H2       HT       0.417000       1.00800           0
     24171 TIP3     597      TIP3     OH2      OT      -0.834000       15.9994           0
     24172 TIP3     597      TIP3     H1       HT       0.417000       1.00800           0
     24173 TIP3     597      TIP3     H2       HT       0.417000       1.00800           0
     24174 TIP3     598      TIP3     OH2      OT      -0.834000       15.9994           0
     24175 TIP3     598      TIP3     H1       HT       0.417000       1.00800           0
     24176 TIP3     598      TIP3     H2       HT       0.417000       1.00800           0
     24177 TIP3     599      TIP3     OH2      OT      -0.834000       15.9994           0
     24178 TIP3     599      TIP3     H1       HT       0.417000       1.00800           0
     24179 TIP3     599      TIP3     H2       HT       0.417000       1.00800           0
     24180 TIP3     600      TIP3     OH2      OT      -0.834000       15.9994           0
     24181 TIP3     600      TIP3     H1       HT       0.417000       1.00800           0
     24182 TIP3     600      TIP3     H2       HT       0.417000       1.00800           0
     24183 TIP3     601      TIP3     OH2      OT      -0.834000       15.9994           0
     24184 TIP3     601      TIP3     H1       HT       0.417000       1.00800           0
     24185 TIP3     601      TIP3     H2       HT       0.417000       1.00800           0
     24186 TIP3     602      TIP3     OH2      OT      -0.834000       15.9994           0
     24187 TIP3     602      TIP3     H1       HT       0.417000       1.00800           0
     24188 TIP3     602      TIP3     H2       HT       0.417000       1.00800           0
     24189 TIP3     603      TIP3     OH2      OT      -0.834000       15.9994           0
     24190 TIP3     603      TIP3     H1       HT       0.417000       1.00800           0
     24191 TIP3     603      TIP3     H2       HT       0.417000       1.00800           0
     24192 TIP3     604      TIP3     OH2      OT      -0.834000       15.9994           0
     24193 TIP3     604      TIP3     H1       HT       0.417000       1.00800           0
     24194 TIP3     604      TIP3     H2       HT       0.417000       1.00800           0
     24195 TIP3     605      TIP3     OH2      OT      -0.834000       15.9994           0
     24196 TIP3     605      TIP3     H1       HT       0.417000       1.00800           0
     24197 TIP3     605      TIP3     H2       HT       0.417000       1.00800           0
     24198 TIP3     606      TIP3     OH2      OT      -0.834000       15.9994           0
     24199 TIP3     606      TIP3     H1       HT       0.417000       1.00800           0
     24200 TIP3     606      TIP3     H2       HT       0.417000       1.00800           0
     24201 TIP3     607      TIP3     OH2      OT      -0.834000       15.9994           0
     24202 TIP3     607      TIP3     H1       HT       0.417000       1.00800           0
     24203 TIP3     607      TIP3     H2       HT       0.417000       1.00800           0
     24204 TIP3     608      TIP3     OH2      OT      -0.834000       15.9994           0
     24205 TIP3     608      TIP3     H1       HT       0.417000       1.00800           0
     24206 TIP3     608      TIP3     H2       HT       0.417000       1.00800           0
     24207 TIP3     609      TIP3     OH2      OT      -0.834000       15.9994           0
     24208 TIP3     609      TIP3     H1       HT       0.417000       1.00800           0
     24209 TIP3     609      TIP3     H2       HT       0.417000       1.00800           0
     24210 TIP3     610      TIP3     OH2      OT      -0.834000       15.9994           0
     24211 TIP3     610      TIP3     H1       HT       0.417000       1.00800           0
     24212 TIP3     610      TIP3     H2       HT       0.417000       1.00800           0
     24213 TIP3     611      TIP3     OH2      OT      -0.834000       15.9994           0
     24214 TIP3     611      TIP3     H1       HT       0.417000       1.00800           0
     24215 TIP3     611      TIP3     H2       HT       0.417000       1.00800           0
     24216 TIP3     612      TIP3     OH2      OT      -0.834000       15.9994           0
     24217 TIP3     612      TIP3     H1       HT       0.417000       1.00800           0
     24218 TIP3     612      TIP3     H2       HT       0.417000       1.00800           0
     24219 TIP3     613      TIP3     OH2      OT      -0.834000       15.9994           0
     24220 TIP3     613      TIP3     H1       HT       0.417000       1.00800           0
     24221 TIP3     613      TIP3     H2       HT       0.417000       1.00800           0
     24222 TIP3     614      TIP3     OH2      OT      -0.834000       15.9994           0
     24223 TIP3     614      TIP3     H1       HT       0.417000       1.00800           0
     24224 TIP3     614      TIP3     H2       HT       0.417000       1.00800           0
     24225 TIP3     615      TIP3     OH2      OT      -0.834000       15.9994           0
     24226 TIP3     615      TIP3     H1       HT       0.417000       1.00800           0
     24227 TIP3     615      TIP3     H2       HT       0.417000       1.00800           0
     24228 TIP3     616      TIP3     OH2      OT      -0.834000       15.9994           0
     24229 TIP3     616      TIP3     H1       HT       0.417000       1.00800           0
     24230 TIP3     616      TIP3     H2       HT       0.417000       1.00800           0
     24231 TIP3     617      TIP3     OH2      OT      -0.834000       15.9994           0
     24232 TIP3     617      TIP3     H1       HT       0.417000       1.00800           0
     24233 TIP3     617      TIP3     H2       HT       0.417000       1.00800           0
     24234 TIP3     618      TIP3     OH2      OT      -0.834000       15.9994           0
     24235 TIP3     618      TIP3     H1       HT       0.417000       1.00800           0
     24236 TIP3     618      TIP3     H2       HT       0.417000       1.00800           0
     24237 TIP3     619      TIP3     OH2      OT      -0.834000       15.9994           0
     24238 TIP3     619      TIP3     H1       HT       0.417000       1.00800           0
     24239 TIP3     619      TIP3     H2       HT       0.417000       1.00800           0
     24240 TIP3     620      TIP3     OH2      OT      -0.834000       15.9994           0
     24241 TIP3     620      TIP3     H1       HT       0.417000       1.00800           0
     24242 TIP3     620      TIP3     H2       HT       0.417000       1.00800           0
     24243 TIP3     621      TIP3     OH2      OT      -0.834000       15.9994           0
     24244 TIP3     621      TIP3     H1       HT       0.417000       1.00800           0
     24245 TIP3     621      TIP3     H2       HT       0.417000       1.00800           0
     24246 TIP3     622      TIP3     OH2      OT      -0.834000       15.9994           0
     24247 TIP3     622      TIP3     H1       HT       0.417000       1.00800           0
     24248 TIP3     622      TIP3     H2       HT       0.417000       1.00800           0
     24249 TIP3     623      TIP3     OH2      OT      -0.834000       15.9994           0
     24250 TIP3     623      TIP3     H1       HT       0.417000       1.00800           0
     24251 TIP3     623      TIP3     H2       HT       0.417000       1.00800           0
     24252 TIP3     624      TIP3     OH2      OT      -0.834000       15.9994           0
     24253 TIP3     624      TIP3     H1       HT       0.417000       1.00800           0
     24254 TIP3     624      TIP3     H2       HT       0.417000       1.00800           0
     24255 TIP3     625      TIP3     OH2      OT      -0.834000       15.9994           0
     24256 TIP3     625      TIP3     H1       HT       0.417000       1.00800           0
     24257 TIP3     625      TIP3     H2       HT       0.417000       1.00800           0
     24258 TIP3     626      TIP3     OH2      OT      -0.834000       15.9994           0
     24259 TIP3     626      TIP3     H1       HT       0.417000       1.00800           0
     24260 TIP3     626      TIP3     H2       HT       0.417000       1.00800           0
     24261 TIP3     627      TIP3     OH2      OT      -0.834000       15.9994           0
     24262 TIP3     627      TIP3     H1       HT       0.417000       1.00800           0
     24263 TIP3     627      TIP3     H2       HT       0.417000       1.00800           0
     24264 TIP3     628      TIP3     OH2      OT      -0.834000       15.9994           0
     24265 TIP3     628      TIP3     H1       HT       0.417000       1.00800           0
     24266 TIP3     628      TIP3     H2       HT       0.417000       1.00800           0
     24267 TIP3     629      TIP3     OH2      OT      -0.834000       15.9994           0
     24268 TIP3     629      TIP3     H1       HT       0.417000       1.00800           0
     24269 TIP3     629      TIP3     H2       HT       0.417000       1.00800           0
     24270 TIP3     630      TIP3     OH2      OT      -0.834000       15.9994           0
     24271 TIP3     630      TIP3     H1       HT       0.417000       1.00800           0
     24272 TIP3     630      TIP3     H2       HT       0.417000       1.00800           0
     24273 TIP3     631      TIP3     OH2      OT      -0.834000       15.9994           0
     24274 TIP3     631      TIP3     H1       HT       0.417000       1.00800           0
     24275 TIP3     631      TIP3     H2       HT       0.417000       1.00800           0
     24276 TIP3     632      TIP3     OH2      OT      -0.834000       15.9994           0
     24277 TIP3     632      TIP3     H1       HT       0.417000       1.00800           0
     24278 TIP3     632      TIP3     H2       HT       0.417000       1.00800           0
     24279 TIP3     633      TIP3     OH2      OT      -0.834000       15.9994           0
     24280 TIP3     633      TIP3     H1       HT       0.417000       1.00800           0
     24281 TIP3     633      TIP3     H2       HT       0.417000       1.00800           0
     24282 TIP3     634      TIP3     OH2      OT      -0.834000       15.9994           0
     24283 TIP3     634      TIP3     H1       HT       0.417000       1.00800           0
     24284 TIP3     634      TIP3     H2       HT       0.417000       1.00800           0
     24285 TIP3     635      TIP3     OH2      OT      -0.834000       15.9994           0
     24286 TIP3     635      TIP3     H1       HT       0.417000       1.00800           0
     24287 TIP3     635      TIP3     H2       HT       0.417000       1.00800           0
     24288 TIP3     636      TIP3     OH2      OT      -0.834000       15.9994           0
     24289 TIP3     636      TIP3     H1       HT       0.417000       1.00800           0
     24290 TIP3     636      TIP3     H2       HT       0.417000       1.00800           0
     24291 TIP3     637      TIP3     OH2      OT      -0.834000       15.9994           0
     24292 TIP3     637      TIP3     H1       HT       0.417000       1.00800           0
     24293 TIP3     637      TIP3     H2       HT       0.417000       1.00800           0
     24294 TIP3     638      TIP3     OH2      OT      -0.834000       15.9994           0
     24295 TIP3     638      TIP3     H1       HT       0.417000       1.00800           0
     24296 TIP3     638      TIP3     H2       HT       0.417000       1.00800           0
     24297 TIP3     639      TIP3     OH2      OT      -0.834000       15.9994           0
     24298 TIP3     639      TIP3     H1       HT       0.417000       1.00800           0
     24299 TIP3     639      TIP3     H2       HT       0.417000       1.00800           0
     24300 TIP3     640      TIP3     OH2      OT      -0.834000       15.9994           0
     24301 TIP3     640      TIP3     H1       HT       0.417000       1.00800           0
     24302 TIP3     640      TIP3     H2       HT       0.417000       1.00800           0
     24303 TIP3     641      TIP3     OH2      OT      -0.834000       15.9994           0
     24304 TIP3     641      TIP3     H1       HT       0.417000       1.00800           0
     24305 TIP3     641      TIP3     H2       HT       0.417000       1.00800           0
     24306 TIP3     642      TIP3     OH2      OT      -0.834000       15.9994           0
     24307 TIP3     642      TIP3     H1       HT       0.417000       1.00800           0
     24308 TIP3     642      TIP3     H2       HT       0.417000       1.00800           0
     24309 TIP3     643      TIP3     OH2      OT      -0.834000       15.9994           0
     24310 TIP3     643      TIP3     H1       HT       0.417000       1.00800           0
     24311 TIP3     643      TIP3     H2       HT       0.417000       1.00800           0
     24312 TIP3     644      TIP3     OH2      OT      -0.834000       15.9994           0
     24313 TIP3     644      TIP3     H1       HT       0.417000       1.00800           0
     24314 TIP3     644      TIP3     H2       HT       0.417000       1.00800           0
     24315 TIP3     645      TIP3     OH2      OT      -0.834000       15.9994           0
     24316 TIP3     645      TIP3     H1       HT       0.417000       1.00800           0
     24317 TIP3     645      TIP3     H2       HT       0.417000       1.00800           0
     24318 TIP3     646      TIP3     OH2      OT      -0.834000       15.9994           0
     24319 TIP3     646      TIP3     H1       HT       0.417000       1.00800           0
     24320 TIP3     646      TIP3     H2       HT       0.417000       1.00800           0
     24321 TIP3     647      TIP3     OH2      OT      -0.834000       15.9994           0
     24322 TIP3     647      TIP3     H1       HT       0.417000       1.00800           0
     24323 TIP3     647      TIP3     H2       HT       0.417000       1.00800           0
     24324 TIP3     648      TIP3     OH2      OT      -0.834000       15.9994           0
     24325 TIP3     648      TIP3     H1       HT       0.417000       1.00800           0
     24326 TIP3     648      TIP3     H2       HT       0.417000       1.00800           0
     24327 TIP3     649      TIP3     OH2      OT      -0.834000       15.9994           0
     24328 TIP3     649      TIP3     H1       HT       0.417000       1.00800           0
     24329 TIP3     649      TIP3     H2       HT       0.417000       1.00800           0
     24330 TIP3     650      TIP3     OH2      OT      -0.834000       15.9994           0
     24331 TIP3     650      TIP3     H1       HT       0.417000       1.00800           0
     24332 TIP3     650      TIP3     H2       HT       0.417000       1.00800           0
     24333 TIP3     651      TIP3     OH2      OT      -0.834000       15.9994           0
     24334 TIP3     651      TIP3     H1       HT       0.417000       1.00800           0
     24335 TIP3     651      TIP3     H2       HT       0.417000       1.00800           0
     24336 TIP3     652      TIP3     OH2      OT      -0.834000       15.9994           0
     24337 TIP3     652      TIP3     H1       HT       0.417000       1.00800           0
     24338 TIP3     652      TIP3     H2       HT       0.417000       1.00800           0
     24339 TIP3     653      TIP3     OH2      OT      -0.834000       15.9994           0
     24340 TIP3     653      TIP3     H1       HT       0.417000       1.00800           0
     24341 TIP3     653      TIP3     H2       HT       0.417000       1.00800           0
     24342 TIP3     654      TIP3     OH2      OT      -0.834000       15.9994           0
     24343 TIP3     654      TIP3     H1       HT       0.417000       1.00800           0
     24344 TIP3     654      TIP3     H2       HT       0.417000       1.00800           0
     24345 TIP3     655      TIP3     OH2      OT      -0.834000       15.9994           0
     24346 TIP3     655      TIP3     H1       HT       0.417000       1.00800           0
     24347 TIP3     655      TIP3     H2       HT       0.417000       1.00800           0
     24348 TIP3     656      TIP3     OH2      OT      -0.834000       15.9994           0
     24349 TIP3     656      TIP3     H1       HT       0.417000       1.00800           0
     24350 TIP3     656      TIP3     H2       HT       0.417000       1.00800           0
     24351 TIP3     657      TIP3     OH2      OT      -0.834000       15.9994           0
     24352 TIP3     657      TIP3     H1       HT       0.417000       1.00800           0
     24353 TIP3     657      TIP3     H2       HT       0.417000       1.00800           0
     24354 TIP3     658      TIP3     OH2      OT      -0.834000       15.9994           0
     24355 TIP3     658      TIP3     H1       HT       0.417000       1.00800           0
     24356 TIP3     658      TIP3     H2       HT       0.417000       1.00800           0
     24357 TIP3     659      TIP3     OH2      OT      -0.834000       15.9994           0
     24358 TIP3     659      TIP3     H1       HT       0.417000       1.00800           0
     24359 TIP3     659      TIP3     H2       HT       0.417000       1.00800           0
     24360 TIP3     660      TIP3     OH2      OT      -0.834000       15.9994           0
     24361 TIP3     660      TIP3     H1       HT       0.417000       1.00800           0
     24362 TIP3     660      TIP3     H2       HT       0.417000       1.00800           0
     24363 TIP3     661      TIP3     OH2      OT      -0.834000       15.9994           0
     24364 TIP3     661      TIP3     H1       HT       0.417000       1.00800           0
     24365 TIP3     661      TIP3     H2       HT       0.417000       1.00800           0
     24366 TIP3     662      TIP3     OH2      OT      -0.834000       15.9994           0
     24367 TIP3     662      TIP3     H1       HT       0.417000       1.00800           0
     24368 TIP3     662      TIP3     H2       HT       0.417000       1.00800           0
     24369 TIP3     663      TIP3     OH2      OT      -0.834000       15.9994           0
     24370 TIP3     663      TIP3     H1       HT       0.417000       1.00800           0
     24371 TIP3     663      TIP3     H2       HT       0.417000       1.00800           0
     24372 TIP3     664      TIP3     OH2      OT      -0.834000       15.9994           0
     24373 TIP3     664      TIP3     H1       HT       0.417000       1.00800           0
     24374 TIP3     664      TIP3     H2       HT       0.417000       1.00800           0
     24375 TIP3     665      TIP3     OH2      OT      -0.834000       15.9994           0
     24376 TIP3     665      TIP3     H1       HT       0.417000       1.00800           0
     24377 TIP3     665      TIP3     H2       HT       0.417000       1.00800           0
     24378 TIP3     666      TIP3     OH2      OT      -0.834000       15.9994           0
     24379 TIP3     666      TIP3     H1       HT       0.417000       1.00800           0
     24380 TIP3     666      TIP3     H2       HT       0.417000       1.00800           0
     24381 TIP3     667      TIP3     OH2      OT      -0.834000       15.9994           0
     24382 TIP3     667      TIP3     H1       HT       0.417000       1.00800           0
     24383 TIP3     667      TIP3     H2       HT       0.417000       1.00800           0
     24384 TIP3     668      TIP3     OH2      OT      -0.834000       15.9994           0
     24385 TIP3     668      TIP3     H1       HT       0.417000       1.00800           0
     24386 TIP3     668      TIP3     H2       HT       0.417000       1.00800           0
     24387 TIP3     669      TIP3     OH2      OT      -0.834000       15.9994           0
     24388 TIP3     669      TIP3     H1       HT       0.417000       1.00800           0
     24389 TIP3     669      TIP3     H2       HT       0.417000       1.00800           0
     24390 TIP3     670      TIP3     OH2      OT      -0.834000       15.9994           0
     24391 TIP3     670      TIP3     H1       HT       0.417000       1.00800           0
     24392 TIP3     670      TIP3     H2       HT       0.417000       1.00800           0
     24393 TIP3     671      TIP3     OH2      OT      -0.834000       15.9994           0
     24394 TIP3     671      TIP3     H1       HT       0.417000       1.00800           0
     24395 TIP3     671      TIP3     H2       HT       0.417000       1.00800           0
     24396 TIP3     672      TIP3     OH2      OT      -0.834000       15.9994           0
     24397 TIP3     672      TIP3     H1       HT       0.417000       1.00800           0
     24398 TIP3     672      TIP3     H2       HT       0.417000       1.00800           0
     24399 TIP3     673      TIP3     OH2      OT      -0.834000       15.9994           0
     24400 TIP3     673      TIP3     H1       HT       0.417000       1.00800           0
     24401 TIP3     673      TIP3     H2       HT       0.417000       1.00800           0
     24402 TIP3     674      TIP3     OH2      OT      -0.834000       15.9994           0
     24403 TIP3     674      TIP3     H1       HT       0.417000       1.00800           0
     24404 TIP3     674      TIP3     H2       HT       0.417000       1.00800           0
     24405 TIP3     675      TIP3     OH2      OT      -0.834000       15.9994           0
     24406 TIP3     675      TIP3     H1       HT       0.417000       1.00800           0
     24407 TIP3     675      TIP3     H2       HT       0.417000       1.00800           0
     24408 TIP3     676      TIP3     OH2      OT      -0.834000       15.9994           0
     24409 TIP3     676      TIP3     H1       HT       0.417000       1.00800           0
     24410 TIP3     676      TIP3     H2       HT       0.417000       1.00800           0
     24411 TIP3     677      TIP3     OH2      OT      -0.834000       15.9994           0
     24412 TIP3     677      TIP3     H1       HT       0.417000       1.00800           0
     24413 TIP3     677      TIP3     H2       HT       0.417000       1.00800           0
     24414 TIP3     678      TIP3     OH2      OT      -0.834000       15.9994           0
     24415 TIP3     678      TIP3     H1       HT       0.417000       1.00800           0
     24416 TIP3     678      TIP3     H2       HT       0.417000       1.00800           0
     24417 TIP3     679      TIP3     OH2      OT      -0.834000       15.9994           0
     24418 TIP3     679      TIP3     H1       HT       0.417000       1.00800           0
     24419 TIP3     679      TIP3     H2       HT       0.417000       1.00800           0
     24420 TIP3     680      TIP3     OH2      OT      -0.834000       15.9994           0
     24421 TIP3     680      TIP3     H1       HT       0.417000       1.00800           0
     24422 TIP3     680      TIP3     H2       HT       0.417000       1.00800           0
     24423 TIP3     681      TIP3     OH2      OT      -0.834000       15.9994           0
     24424 TIP3     681      TIP3     H1       HT       0.417000       1.00800           0
     24425 TIP3     681      TIP3     H2       HT       0.417000       1.00800           0
     24426 TIP3     682      TIP3     OH2      OT      -0.834000       15.9994           0
     24427 TIP3     682      TIP3     H1       HT       0.417000       1.00800           0
     24428 TIP3     682      TIP3     H2       HT       0.417000       1.00800           0
     24429 TIP3     683      TIP3     OH2      OT      -0.834000       15.9994           0
     24430 TIP3     683      TIP3     H1       HT       0.417000       1.00800           0
     24431 TIP3     683      TIP3     H2       HT       0.417000       1.00800           0
     24432 TIP3     684      TIP3     OH2      OT      -0.834000       15.9994           0
     24433 TIP3     684      TIP3     H1       HT       0.417000       1.00800           0
     24434 TIP3     684      TIP3     H2       HT       0.417000       1.00800           0
     24435 TIP3     685      TIP3     OH2      OT      -0.834000       15.9994           0
     24436 TIP3     685      TIP3     H1       HT       0.417000       1.00800           0
     24437 TIP3     685      TIP3     H2       HT       0.417000       1.00800           0
     24438 TIP3     686      TIP3     OH2      OT      -0.834000       15.9994           0
     24439 TIP3     686      TIP3     H1       HT       0.417000       1.00800           0
     24440 TIP3     686      TIP3     H2       HT       0.417000       1.00800           0
     24441 TIP3     687      TIP3     OH2      OT      -0.834000       15.9994           0
     24442 TIP3     687      TIP3     H1       HT       0.417000       1.00800           0
     24443 TIP3     687      TIP3     H2       HT       0.417000       1.00800           0
     24444 TIP3     688      TIP3     OH2      OT      -0.834000       15.9994           0
     24445 TIP3     688      TIP3     H1       HT       0.417000       1.00800           0
     24446 TIP3     688      TIP3     H2       HT       0.417000       1.00800           0
     24447 TIP3     689      TIP3     OH2      OT      -0.834000       15.9994           0
     24448 TIP3     689      TIP3     H1       HT       0.417000       1.00800           0
     24449 TIP3     689      TIP3     H2       HT       0.417000       1.00800           0
     24450 TIP3     690      TIP3     OH2      OT      -0.834000       15.9994           0
     24451 TIP3     690      TIP3     H1       HT       0.417000       1.00800           0
     24452 TIP3     690      TIP3     H2       HT       0.417000       1.00800           0
     24453 TIP3     691      TIP3     OH2      OT      -0.834000       15.9994           0
     24454 TIP3     691      TIP3     H1       HT       0.417000       1.00800           0
     24455 TIP3     691      TIP3     H2       HT       0.417000       1.00800           0
     24456 TIP3     692      TIP3     OH2      OT      -0.834000       15.9994           0
     24457 TIP3     692      TIP3     H1       HT       0.417000       1.00800           0
     24458 TIP3     692      TIP3     H2       HT       0.417000       1.00800           0
     24459 TIP3     693      TIP3     OH2      OT      -0.834000       15.9994           0
     24460 TIP3     693      TIP3     H1       HT       0.417000       1.00800           0
     24461 TIP3     693      TIP3     H2       HT       0.417000       1.00800           0
     24462 TIP3     694      TIP3     OH2      OT      -0.834000       15.9994           0
     24463 TIP3     694      TIP3     H1       HT       0.417000       1.00800           0
     24464 TIP3     694      TIP3     H2       HT       0.417000       1.00800           0
     24465 TIP3     695      TIP3     OH2      OT      -0.834000       15.9994           0
     24466 TIP3     695      TIP3     H1       HT       0.417000       1.00800           0
     24467 TIP3     695      TIP3     H2       HT       0.417000       1.00800           0
     24468 TIP3     696      TIP3     OH2      OT      -0.834000       15.9994           0
     24469 TIP3     696      TIP3     H1       HT       0.417000       1.00800           0
     24470 TIP3     696      TIP3     H2       HT       0.417000       1.00800           0
     24471 TIP3     697      TIP3     OH2      OT      -0.834000       15.9994           0
     24472 TIP3     697      TIP3     H1       HT       0.417000       1.00800           0
     24473 TIP3     697      TIP3     H2       HT       0.417000       1.00800           0
     24474 TIP3     698      TIP3     OH2      OT      -0.834000       15.9994           0
     24475 TIP3     698      TIP3     H1       HT       0.417000       1.00800           0
     24476 TIP3     698      TIP3     H2       HT       0.417000       1.00800           0
     24477 TIP3     699      TIP3     OH2      OT      -0.834000       15.9994           0
     24478 TIP3     699      TIP3     H1       HT       0.417000       1.00800           0
     24479 TIP3     699      TIP3     H2       HT       0.417000       1.00800           0
     24480 TIP3     700      TIP3     OH2      OT      -0.834000       15.9994           0
     24481 TIP3     700      TIP3     H1       HT       0.417000       1.00800           0
     24482 TIP3     700      TIP3     H2       HT       0.417000       1.00800           0
     24483 TIP3     701      TIP3     OH2      OT      -0.834000       15.9994           0
     24484 TIP3     701      TIP3     H1       HT       0.417000       1.00800           0
     24485 TIP3     701      TIP3     H2       HT       0.417000       1.00800           0
     24486 TIP3     702      TIP3     OH2      OT      -0.834000       15.9994           0
     24487 TIP3     702      TIP3     H1       HT       0.417000       1.00800           0
     24488 TIP3     702      TIP3     H2       HT       0.417000       1.00800           0
     24489 TIP3     703      TIP3     OH2      OT      -0.834000       15.9994           0
     24490 TIP3     703      TIP3     H1       HT       0.417000       1.00800           0
     24491 TIP3     703      TIP3     H2       HT       0.417000       1.00800           0
     24492 TIP3     704      TIP3     OH2      OT      -0.834000       15.9994           0
     24493 TIP3     704      TIP3     H1       HT       0.417000       1.00800           0
     24494 TIP3     704      TIP3     H2       HT       0.417000       1.00800           0
     24495 TIP3     705      TIP3     OH2      OT      -0.834000       15.9994           0
     24496 TIP3     705      TIP3     H1       HT       0.417000       1.00800           0
     24497 TIP3     705      TIP3     H2       HT       0.417000       1.00800           0
     24498 TIP3     706      TIP3     OH2      OT      -0.834000       15.9994           0
     24499 TIP3     706      TIP3     H1       HT       0.417000       1.00800           0
     24500 TIP3     706      TIP3     H2       HT       0.417000       1.00800           0
     24501 TIP3     707      TIP3     OH2      OT      -0.834000       15.9994           0
     24502 TIP3     707      TIP3     H1       HT       0.417000       1.00800           0
     24503 TIP3     707      TIP3     H2       HT       0.417000       1.00800           0
     24504 TIP3     708      TIP3     OH2      OT      -0.834000       15.9994           0
     24505 TIP3     708      TIP3     H1       HT       0.417000       1.00800           0
     24506 TIP3     708      TIP3     H2       HT       0.417000       1.00800           0
     24507 TIP3     709      TIP3     OH2      OT      -0.834000       15.9994           0
     24508 TIP3     709      TIP3     H1       HT       0.417000       1.00800           0
     24509 TIP3     709      TIP3     H2       HT       0.417000       1.00800           0
     24510 TIP3     710      TIP3     OH2      OT      -0.834000       15.9994           0
     24511 TIP3     710      TIP3     H1       HT       0.417000       1.00800           0
     24512 TIP3     710      TIP3     H2       HT       0.417000       1.00800           0
     24513 TIP3     711      TIP3     OH2      OT      -0.834000       15.9994           0
     24514 TIP3     711      TIP3     H1       HT       0.417000       1.00800           0
     24515 TIP3     711      TIP3     H2       HT       0.417000       1.00800           0
     24516 TIP3     712      TIP3     OH2      OT      -0.834000       15.9994           0
     24517 TIP3     712      TIP3     H1       HT       0.417000       1.00800           0
     24518 TIP3     712      TIP3     H2       HT       0.417000       1.00800           0
     24519 TIP3     713      TIP3     OH2      OT      -0.834000       15.9994           0
     24520 TIP3     713      TIP3     H1       HT       0.417000       1.00800           0
     24521 TIP3     713      TIP3     H2       HT       0.417000       1.00800           0
     24522 TIP3     714      TIP3     OH2      OT      -0.834000       15.9994           0
     24523 TIP3     714      TIP3     H1       HT       0.417000       1.00800           0
     24524 TIP3     714      TIP3     H2       HT       0.417000       1.00800           0
     24525 TIP3     715      TIP3     OH2      OT      -0.834000       15.9994           0
     24526 TIP3     715      TIP3     H1       HT       0.417000       1.00800           0
     24527 TIP3     715      TIP3     H2       HT       0.417000       1.00800           0
     24528 TIP3     716      TIP3     OH2      OT      -0.834000       15.9994           0
     24529 TIP3     716      TIP3     H1       HT       0.417000       1.00800           0
     24530 TIP3     716      TIP3     H2       HT       0.417000       1.00800           0
     24531 TIP3     717      TIP3     OH2      OT      -0.834000       15.9994           0
     24532 TIP3     717      TIP3     H1       HT       0.417000       1.00800           0
     24533 TIP3     717      TIP3     H2       HT       0.417000       1.00800           0
     24534 TIP3     718      TIP3     OH2      OT      -0.834000       15.9994           0
     24535 TIP3     718      TIP3     H1       HT       0.417000       1.00800           0
     24536 TIP3     718      TIP3     H2       HT       0.417000       1.00800           0
     24537 TIP3     719      TIP3     OH2      OT      -0.834000       15.9994           0
     24538 TIP3     719      TIP3     H1       HT       0.417000       1.00800           0
     24539 TIP3     719      TIP3     H2       HT       0.417000       1.00800           0
     24540 TIP3     720      TIP3     OH2      OT      -0.834000       15.9994           0
     24541 TIP3     720      TIP3     H1       HT       0.417000       1.00800           0
     24542 TIP3     720      TIP3     H2       HT       0.417000       1.00800           0
     24543 TIP3     721      TIP3     OH2      OT      -0.834000       15.9994           0
     24544 TIP3     721      TIP3     H1       HT       0.417000       1.00800           0
     24545 TIP3     721      TIP3     H2       HT       0.417000       1.00800           0
     24546 TIP3     722      TIP3     OH2      OT      -0.834000       15.9994           0
     24547 TIP3     722      TIP3     H1       HT       0.417000       1.00800           0
     24548 TIP3     722      TIP3     H2       HT       0.417000       1.00800           0
     24549 TIP3     723      TIP3     OH2      OT      -0.834000       15.9994           0
     24550 TIP3     723      TIP3     H1       HT       0.417000       1.00800           0
     24551 TIP3     723      TIP3     H2       HT       0.417000       1.00800           0
     24552 TIP3     724      TIP3     OH2      OT      -0.834000       15.9994           0
     24553 TIP3     724      TIP3     H1       HT       0.417000       1.00800           0
     24554 TIP3     724      TIP3     H2       HT       0.417000       1.00800           0
     24555 TIP3     725      TIP3     OH2      OT      -0.834000       15.9994           0
     24556 TIP3     725      TIP3     H1       HT       0.417000       1.00800           0
     24557 TIP3     725      TIP3     H2       HT       0.417000       1.00800           0
     24558 TIP3     726      TIP3     OH2      OT      -0.834000       15.9994           0
     24559 TIP3     726      TIP3     H1       HT       0.417000       1.00800           0
     24560 TIP3     726      TIP3     H2       HT       0.417000       1.00800           0
     24561 TIP3     727      TIP3     OH2      OT      -0.834000       15.9994           0
     24562 TIP3     727      TIP3     H1       HT       0.417000       1.00800           0
     24563 TIP3     727      TIP3     H2       HT       0.417000       1.00800           0
     24564 TIP3     728      TIP3     OH2      OT      -0.834000       15.9994           0
     24565 TIP3     728      TIP3     H1       HT       0.417000       1.00800           0
     24566 TIP3     728      TIP3     H2       HT       0.417000       1.00800           0
     24567 TIP3     729      TIP3     OH2      OT      -0.834000       15.9994           0
     24568 TIP3     729      TIP3     H1       HT       0.417000       1.00800           0
     24569 TIP3     729      TIP3     H2       HT       0.417000       1.00800           0
     24570 TIP3     730      TIP3     OH2      OT      -0.834000       15.9994           0
     24571 TIP3     730      TIP3     H1       HT       0.417000       1.00800           0
     24572 TIP3     730      TIP3     H2       HT       0.417000       1.00800           0
     24573 TIP3     731      TIP3     OH2      OT      -0.834000       15.9994           0
     24574 TIP3     731      TIP3     H1       HT       0.417000       1.00800           0
     24575 TIP3     731      TIP3     H2       HT       0.417000       1.00800           0
     24576 TIP3     732      TIP3     OH2      OT      -0.834000       15.9994           0
     24577 TIP3     732      TIP3     H1       HT       0.417000       1.00800           0
     24578 TIP3     732      TIP3     H2       HT       0.417000       1.00800           0
     24579 TIP3     733      TIP3     OH2      OT      -0.834000       15.9994           0
     24580 TIP3     733      TIP3     H1       HT       0.417000       1.00800           0
     24581 TIP3     733      TIP3     H2       HT       0.417000       1.00800           0
     24582 TIP3     734      TIP3     OH2      OT      -0.834000       15.9994           0
     24583 TIP3     734      TIP3     H1       HT       0.417000       1.00800           0
     24584 TIP3     734      TIP3     H2       HT       0.417000       1.00800           0
     24585 TIP3     735      TIP3     OH2      OT      -0.834000       15.9994           0
     24586 TIP3     735      TIP3     H1       HT       0.417000       1.00800           0
     24587 TIP3     735      TIP3     H2       HT       0.417000       1.00800           0
     24588 TIP3     736      TIP3     OH2      OT      -0.834000       15.9994           0
     24589 TIP3     736      TIP3     H1       HT       0.417000       1.00800           0
     24590 TIP3     736      TIP3     H2       HT       0.417000       1.00800           0
     24591 TIP3     737      TIP3     OH2      OT      -0.834000       15.9994           0
     24592 TIP3     737      TIP3     H1       HT       0.417000       1.00800           0
     24593 TIP3     737      TIP3     H2       HT       0.417000       1.00800           0
     24594 TIP3     738      TIP3     OH2      OT      -0.834000       15.9994           0
     24595 TIP3     738      TIP3     H1       HT       0.417000       1.00800           0
     24596 TIP3     738      TIP3     H2       HT       0.417000       1.00800           0
     24597 TIP3     739      TIP3     OH2      OT      -0.834000       15.9994           0
     24598 TIP3     739      TIP3     H1       HT       0.417000       1.00800           0
     24599 TIP3     739      TIP3     H2       HT       0.417000       1.00800           0
     24600 TIP3     740      TIP3     OH2      OT      -0.834000       15.9994           0
     24601 TIP3     740      TIP3     H1       HT       0.417000       1.00800           0
     24602 TIP3     740      TIP3     H2       HT       0.417000       1.00800           0
     24603 TIP3     741      TIP3     OH2      OT      -0.834000       15.9994           0
     24604 TIP3     741      TIP3     H1       HT       0.417000       1.00800           0
     24605 TIP3     741      TIP3     H2       HT       0.417000       1.00800           0
     24606 TIP3     742      TIP3     OH2      OT      -0.834000       15.9994           0
     24607 TIP3     742      TIP3     H1       HT       0.417000       1.00800           0
     24608 TIP3     742      TIP3     H2       HT       0.417000       1.00800           0
     24609 TIP3     743      TIP3     OH2      OT      -0.834000       15.9994           0
     24610 TIP3     743      TIP3     H1       HT       0.417000       1.00800           0
     24611 TIP3     743      TIP3     H2       HT       0.417000       1.00800           0
     24612 TIP3     744      TIP3     OH2      OT      -0.834000       15.9994           0
     24613 TIP3     744      TIP3     H1       HT       0.417000       1.00800           0
     24614 TIP3     744      TIP3     H2       HT       0.417000       1.00800           0
     24615 TIP3     745      TIP3     OH2      OT      -0.834000       15.9994           0
     24616 TIP3     745      TIP3     H1       HT       0.417000       1.00800           0
     24617 TIP3     745      TIP3     H2       HT       0.417000       1.00800           0
     24618 TIP3     746      TIP3     OH2      OT      -0.834000       15.9994           0
     24619 TIP3     746      TIP3     H1       HT       0.417000       1.00800           0
     24620 TIP3     746      TIP3     H2       HT       0.417000       1.00800           0
     24621 TIP3     747      TIP3     OH2      OT      -0.834000       15.9994           0
     24622 TIP3     747      TIP3     H1       HT       0.417000       1.00800           0
     24623 TIP3     747      TIP3     H2       HT       0.417000       1.00800           0
     24624 TIP3     748      TIP3     OH2      OT      -0.834000       15.9994           0
     24625 TIP3     748      TIP3     H1       HT       0.417000       1.00800           0
     24626 TIP3     748      TIP3     H2       HT       0.417000       1.00800           0
     24627 TIP3     749      TIP3     OH2      OT      -0.834000       15.9994           0
     24628 TIP3     749      TIP3     H1       HT       0.417000       1.00800           0
     24629 TIP3     749      TIP3     H2       HT       0.417000       1.00800           0
     24630 TIP3     750      TIP3     OH2      OT      -0.834000       15.9994           0
     24631 TIP3     750      TIP3     H1       HT       0.417000       1.00800           0
     24632 TIP3     750      TIP3     H2       HT       0.417000       1.00800           0
     24633 TIP3     751      TIP3     OH2      OT      -0.834000       15.9994           0
     24634 TIP3     751      TIP3     H1       HT       0.417000       1.00800           0
     24635 TIP3     751      TIP3     H2       HT       0.417000       1.00800           0
     24636 TIP3     752      TIP3     OH2      OT      -0.834000       15.9994           0
     24637 TIP3     752      TIP3     H1       HT       0.417000       1.00800           0
     24638 TIP3     752      TIP3     H2       HT       0.417000       1.00800           0
     24639 TIP3     753      TIP3     OH2      OT      -0.834000       15.9994           0
     24640 TIP3     753      TIP3     H1       HT       0.417000       1.00800           0
     24641 TIP3     753      TIP3     H2       HT       0.417000       1.00800           0
     24642 TIP3     754      TIP3     OH2      OT      -0.834000       15.9994           0
     24643 TIP3     754      TIP3     H1       HT       0.417000       1.00800           0
     24644 TIP3     754      TIP3     H2       HT       0.417000       1.00800           0
     24645 TIP3     755      TIP3     OH2      OT      -0.834000       15.9994           0
     24646 TIP3     755      TIP3     H1       HT       0.417000       1.00800           0
     24647 TIP3     755      TIP3     H2       HT       0.417000       1.00800           0
     24648 TIP3     756      TIP3     OH2      OT      -0.834000       15.9994           0
     24649 TIP3     756      TIP3     H1       HT       0.417000       1.00800           0
     24650 TIP3     756      TIP3     H2       HT       0.417000       1.00800           0
     24651 TIP3     757      TIP3     OH2      OT      -0.834000       15.9994           0
     24652 TIP3     757      TIP3     H1       HT       0.417000       1.00800           0
     24653 TIP3     757      TIP3     H2       HT       0.417000       1.00800           0
     24654 TIP3     758      TIP3     OH2      OT      -0.834000       15.9994           0
     24655 TIP3     758      TIP3     H1       HT       0.417000       1.00800           0
     24656 TIP3     758      TIP3     H2       HT       0.417000       1.00800           0
     24657 TIP3     759      TIP3     OH2      OT      -0.834000       15.9994           0
     24658 TIP3     759      TIP3     H1       HT       0.417000       1.00800           0
     24659 TIP3     759      TIP3     H2       HT       0.417000       1.00800           0
     24660 TIP3     760      TIP3     OH2      OT      -0.834000       15.9994           0
     24661 TIP3     760      TIP3     H1       HT       0.417000       1.00800           0
     24662 TIP3     760      TIP3     H2       HT       0.417000       1.00800           0
     24663 TIP3     761      TIP3     OH2      OT      -0.834000       15.9994           0
     24664 TIP3     761      TIP3     H1       HT       0.417000       1.00800           0
     24665 TIP3     761      TIP3     H2       HT       0.417000       1.00800           0
     24666 TIP3     762      TIP3     OH2      OT      -0.834000       15.9994           0
     24667 TIP3     762      TIP3     H1       HT       0.417000       1.00800           0
     24668 TIP3     762      TIP3     H2       HT       0.417000       1.00800           0
     24669 TIP3     763      TIP3     OH2      OT      -0.834000       15.9994           0
     24670 TIP3     763      TIP3     H1       HT       0.417000       1.00800           0
     24671 TIP3     763      TIP3     H2       HT       0.417000       1.00800           0
     24672 TIP3     764      TIP3     OH2      OT      -0.834000       15.9994           0
     24673 TIP3     764      TIP3     H1       HT       0.417000       1.00800           0
     24674 TIP3     764      TIP3     H2       HT       0.417000       1.00800           0
     24675 TIP3     765      TIP3     OH2      OT      -0.834000       15.9994           0
     24676 TIP3     765      TIP3     H1       HT       0.417000       1.00800           0
     24677 TIP3     765      TIP3     H2       HT       0.417000       1.00800           0
     24678 TIP3     766      TIP3     OH2      OT      -0.834000       15.9994           0
     24679 TIP3     766      TIP3     H1       HT       0.417000       1.00800           0
     24680 TIP3     766      TIP3     H2       HT       0.417000       1.00800           0
     24681 TIP3     767      TIP3     OH2      OT      -0.834000       15.9994           0
     24682 TIP3     767      TIP3     H1       HT       0.417000       1.00800           0
     24683 TIP3     767      TIP3     H2       HT       0.417000       1.00800           0
     24684 TIP3     768      TIP3     OH2      OT      -0.834000       15.9994           0
     24685 TIP3     768      TIP3     H1       HT       0.417000       1.00800           0
     24686 TIP3     768      TIP3     H2       HT       0.417000       1.00800           0
     24687 TIP3     769      TIP3     OH2      OT      -0.834000       15.9994           0
     24688 TIP3     769      TIP3     H1       HT       0.417000       1.00800           0
     24689 TIP3     769      TIP3     H2       HT       0.417000       1.00800           0
     24690 TIP3     770      TIP3     OH2      OT      -0.834000       15.9994           0
     24691 TIP3     770      TIP3     H1       HT       0.417000       1.00800           0
     24692 TIP3     770      TIP3     H2       HT       0.417000       1.00800           0
     24693 TIP3     771      TIP3     OH2      OT      -0.834000       15.9994           0
     24694 TIP3     771      TIP3     H1       HT       0.417000       1.00800           0
     24695 TIP3     771      TIP3     H2       HT       0.417000       1.00800           0
     24696 TIP3     772      TIP3     OH2      OT      -0.834000       15.9994           0
     24697 TIP3     772      TIP3     H1       HT       0.417000       1.00800           0
     24698 TIP3     772      TIP3     H2       HT       0.417000       1.00800           0
     24699 TIP3     773      TIP3     OH2      OT      -0.834000       15.9994           0
     24700 TIP3     773      TIP3     H1       HT       0.417000       1.00800           0
     24701 TIP3     773      TIP3     H2       HT       0.417000       1.00800           0
     24702 TIP3     774      TIP3     OH2      OT      -0.834000       15.9994           0
     24703 TIP3     774      TIP3     H1       HT       0.417000       1.00800           0
     24704 TIP3     774      TIP3     H2       HT       0.417000       1.00800           0
     24705 TIP3     775      TIP3     OH2      OT      -0.834000       15.9994           0
     24706 TIP3     775      TIP3     H1       HT       0.417000       1.00800           0
     24707 TIP3     775      TIP3     H2       HT       0.417000       1.00800           0
     24708 TIP3     776      TIP3     OH2      OT      -0.834000       15.9994           0
     24709 TIP3     776      TIP3     H1       HT       0.417000       1.00800           0
     24710 TIP3     776      TIP3     H2       HT       0.417000       1.00800           0
     24711 TIP3     777      TIP3     OH2      OT      -0.834000       15.9994           0
     24712 TIP3     777      TIP3     H1       HT       0.417000       1.00800           0
     24713 TIP3     777      TIP3     H2       HT       0.417000       1.00800           0
     24714 TIP3     778      TIP3     OH2      OT      -0.834000       15.9994           0
     24715 TIP3     778      TIP3     H1       HT       0.417000       1.00800           0
     24716 TIP3     778      TIP3     H2       HT       0.417000       1.00800           0
     24717 TIP3     779      TIP3     OH2      OT      -0.834000       15.9994           0
     24718 TIP3     779      TIP3     H1       HT       0.417000       1.00800           0
     24719 TIP3     779      TIP3     H2       HT       0.417000       1.00800           0
     24720 TIP3     780      TIP3     OH2      OT      -0.834000       15.9994           0
     24721 TIP3     780      TIP3     H1       HT       0.417000       1.00800           0
     24722 TIP3     780      TIP3     H2       HT       0.417000       1.00800           0
     24723 TIP3     781      TIP3     OH2      OT      -0.834000       15.9994           0
     24724 TIP3     781      TIP3     H1       HT       0.417000       1.00800           0
     24725 TIP3     781      TIP3     H2       HT       0.417000       1.00800           0
     24726 TIP3     782      TIP3     OH2      OT      -0.834000       15.9994           0
     24727 TIP3     782      TIP3     H1       HT       0.417000       1.00800           0
     24728 TIP3     782      TIP3     H2       HT       0.417000       1.00800           0
     24729 TIP3     783      TIP3     OH2      OT      -0.834000       15.9994           0
     24730 TIP3     783      TIP3     H1       HT       0.417000       1.00800           0
     24731 TIP3     783      TIP3     H2       HT       0.417000       1.00800           0
     24732 TIP3     784      TIP3     OH2      OT      -0.834000       15.9994           0
     24733 TIP3     784      TIP3     H1       HT       0.417000       1.00800           0
     24734 TIP3     784      TIP3     H2       HT       0.417000       1.00800           0
     24735 TIP3     785      TIP3     OH2      OT      -0.834000       15.9994           0
     24736 TIP3     785      TIP3     H1       HT       0.417000       1.00800           0
     24737 TIP3     785      TIP3     H2       HT       0.417000       1.00800           0
     24738 TIP3     786      TIP3     OH2      OT      -0.834000       15.9994           0
     24739 TIP3     786      TIP3     H1       HT       0.417000       1.00800           0
     24740 TIP3     786      TIP3     H2       HT       0.417000       1.00800           0
     24741 TIP3     787      TIP3     OH2      OT      -0.834000       15.9994           0
     24742 TIP3     787      TIP3     H1       HT       0.417000       1.00800           0
     24743 TIP3     787      TIP3     H2       HT       0.417000       1.00800           0
     24744 TIP3     788      TIP3     OH2      OT      -0.834000       15.9994           0
     24745 TIP3     788      TIP3     H1       HT       0.417000       1.00800           0
     24746 TIP3     788      TIP3     H2       HT       0.417000       1.00800           0
     24747 TIP3     789      TIP3     OH2      OT      -0.834000       15.9994           0
     24748 TIP3     789      TIP3     H1       HT       0.417000       1.00800           0
     24749 TIP3     789      TIP3     H2       HT       0.417000       1.00800           0
     24750 TIP3     790      TIP3     OH2      OT      -0.834000       15.9994           0
     24751 TIP3     790      TIP3     H1       HT       0.417000       1.00800           0
     24752 TIP3     790      TIP3     H2       HT       0.417000       1.00800           0
     24753 TIP3     791      TIP3     OH2      OT      -0.834000       15.9994           0
     24754 TIP3     791      TIP3     H1       HT       0.417000       1.00800           0
     24755 TIP3     791      TIP3     H2       HT       0.417000       1.00800           0
     24756 TIP3     792      TIP3     OH2      OT      -0.834000       15.9994           0
     24757 TIP3     792      TIP3     H1       HT       0.417000       1.00800           0
     24758 TIP3     792      TIP3     H2       HT       0.417000       1.00800           0
     24759 TIP3     793      TIP3     OH2      OT      -0.834000       15.9994           0
     24760 TIP3     793      TIP3     H1       HT       0.417000       1.00800           0
     24761 TIP3     793      TIP3     H2       HT       0.417000       1.00800           0
     24762 TIP3     794      TIP3     OH2      OT      -0.834000       15.9994           0
     24763 TIP3     794      TIP3     H1       HT       0.417000       1.00800           0
     24764 TIP3     794      TIP3     H2       HT       0.417000       1.00800           0
     24765 TIP3     795      TIP3     OH2      OT      -0.834000       15.9994           0
     24766 TIP3     795      TIP3     H1       HT       0.417000       1.00800           0
     24767 TIP3     795      TIP3     H2       HT       0.417000       1.00800           0
     24768 TIP3     796      TIP3     OH2      OT      -0.834000       15.9994           0
     24769 TIP3     796      TIP3     H1       HT       0.417000       1.00800           0
     24770 TIP3     796      TIP3     H2       HT       0.417000       1.00800           0
     24771 TIP3     797      TIP3     OH2      OT      -0.834000       15.9994           0
     24772 TIP3     797      TIP3     H1       HT       0.417000       1.00800           0
     24773 TIP3     797      TIP3     H2       HT       0.417000       1.00800           0
     24774 TIP3     798      TIP3     OH2      OT      -0.834000       15.9994           0
     24775 TIP3     798      TIP3     H1       HT       0.417000       1.00800           0
     24776 TIP3     798      TIP3     H2       HT       0.417000       1.00800           0
     24777 TIP3     799      TIP3     OH2      OT      -0.834000       15.9994           0
     24778 TIP3     799      TIP3     H1       HT       0.417000       1.00800           0
     24779 TIP3     799      TIP3     H2       HT       0.417000       1.00800           0
     24780 TIP3     800      TIP3     OH2      OT      -0.834000       15.9994           0
     24781 TIP3     800      TIP3     H1       HT       0.417000       1.00800           0
     24782 TIP3     800      TIP3     H2       HT       0.417000       1.00800           0
     24783 TIP3     801      TIP3     OH2      OT      -0.834000       15.9994           0
     24784 TIP3     801      TIP3     H1       HT       0.417000       1.00800           0
     24785 TIP3     801      TIP3     H2       HT       0.417000       1.00800           0
     24786 TIP3     802      TIP3     OH2      OT      -0.834000       15.9994           0
     24787 TIP3     802      TIP3     H1       HT       0.417000       1.00800           0
     24788 TIP3     802      TIP3     H2       HT       0.417000       1.00800           0
     24789 TIP3     803      TIP3     OH2      OT      -0.834000       15.9994           0
     24790 TIP3     803      TIP3     H1       HT       0.417000       1.00800           0
     24791 TIP3     803      TIP3     H2       HT       0.417000       1.00800           0
     24792 TIP3     804      TIP3     OH2      OT      -0.834000       15.9994           0
     24793 TIP3     804      TIP3     H1       HT       0.417000       1.00800           0
     24794 TIP3     804      TIP3     H2       HT       0.417000       1.00800           0
     24795 TIP3     805      TIP3     OH2      OT      -0.834000       15.9994           0
     24796 TIP3     805      TIP3     H1       HT       0.417000       1.00800           0
     24797 TIP3     805      TIP3     H2       HT       0.417000       1.00800           0
     24798 TIP3     806      TIP3     OH2      OT      -0.834000       15.9994           0
     24799 TIP3     806      TIP3     H1       HT       0.417000       1.00800           0
     24800 TIP3     806      TIP3     H2       HT       0.417000       1.00800           0
     24801 TIP3     807      TIP3     OH2      OT      -0.834000       15.9994           0
     24802 TIP3     807      TIP3     H1       HT       0.417000       1.00800           0
     24803 TIP3     807      TIP3     H2       HT       0.417000       1.00800           0
     24804 TIP3     808      TIP3     OH2      OT      -0.834000       15.9994           0
     24805 TIP3     808      TIP3     H1       HT       0.417000       1.00800           0
     24806 TIP3     808      TIP3     H2       HT       0.417000       1.00800           0
     24807 TIP3     809      TIP3     OH2      OT      -0.834000       15.9994           0
     24808 TIP3     809      TIP3     H1       HT       0.417000       1.00800           0
     24809 TIP3     809      TIP3     H2       HT       0.417000       1.00800           0
     24810 TIP3     810      TIP3     OH2      OT      -0.834000       15.9994           0
     24811 TIP3     810      TIP3     H1       HT       0.417000       1.00800           0
     24812 TIP3     810      TIP3     H2       HT       0.417000       1.00800           0
     24813 TIP3     811      TIP3     OH2      OT      -0.834000       15.9994           0
     24814 TIP3     811      TIP3     H1       HT       0.417000       1.00800           0
     24815 TIP3     811      TIP3     H2       HT       0.417000       1.00800           0
     24816 TIP3     812      TIP3     OH2      OT      -0.834000       15.9994           0
     24817 TIP3     812      TIP3     H1       HT       0.417000       1.00800           0
     24818 TIP3     812      TIP3     H2       HT       0.417000       1.00800           0
     24819 TIP3     813      TIP3     OH2      OT      -0.834000       15.9994           0
     24820 TIP3     813      TIP3     H1       HT       0.417000       1.00800           0
     24821 TIP3     813      TIP3     H2       HT       0.417000       1.00800           0
     24822 TIP3     814      TIP3     OH2      OT      -0.834000       15.9994           0
     24823 TIP3     814      TIP3     H1       HT       0.417000       1.00800           0
     24824 TIP3     814      TIP3     H2       HT       0.417000       1.00800           0
     24825 TIP3     815      TIP3     OH2      OT      -0.834000       15.9994           0
     24826 TIP3     815      TIP3     H1       HT       0.417000       1.00800           0
     24827 TIP3     815      TIP3     H2       HT       0.417000       1.00800           0
     24828 TIP3     816      TIP3     OH2      OT      -0.834000       15.9994           0
     24829 TIP3     816      TIP3     H1       HT       0.417000       1.00800           0
     24830 TIP3     816      TIP3     H2       HT       0.417000       1.00800           0
     24831 TIP3     817      TIP3     OH2      OT      -0.834000       15.9994           0
     24832 TIP3     817      TIP3     H1       HT       0.417000       1.00800           0
     24833 TIP3     817      TIP3     H2       HT       0.417000       1.00800           0
     24834 TIP3     818      TIP3     OH2      OT      -0.834000       15.9994           0
     24835 TIP3     818      TIP3     H1       HT       0.417000       1.00800           0
     24836 TIP3     818      TIP3     H2       HT       0.417000       1.00800           0
     24837 TIP3     819      TIP3     OH2      OT      -0.834000       15.9994           0
     24838 TIP3     819      TIP3     H1       HT       0.417000       1.00800           0
     24839 TIP3     819      TIP3     H2       HT       0.417000       1.00800           0
     24840 TIP3     820      TIP3     OH2      OT      -0.834000       15.9994           0
     24841 TIP3     820      TIP3     H1       HT       0.417000       1.00800           0
     24842 TIP3     820      TIP3     H2       HT       0.417000       1.00800           0
     24843 TIP3     821      TIP3     OH2      OT      -0.834000       15.9994           0
     24844 TIP3     821      TIP3     H1       HT       0.417000       1.00800           0
     24845 TIP3     821      TIP3     H2       HT       0.417000       1.00800           0
     24846 TIP3     822      TIP3     OH2      OT      -0.834000       15.9994           0
     24847 TIP3     822      TIP3     H1       HT       0.417000       1.00800           0
     24848 TIP3     822      TIP3     H2       HT       0.417000       1.00800           0
     24849 TIP3     823      TIP3     OH2      OT      -0.834000       15.9994           0
     24850 TIP3     823      TIP3     H1       HT       0.417000       1.00800           0
     24851 TIP3     823      TIP3     H2       HT       0.417000       1.00800           0
     24852 TIP3     824      TIP3     OH2      OT      -0.834000       15.9994           0
     24853 TIP3     824      TIP3     H1       HT       0.417000       1.00800           0
     24854 TIP3     824      TIP3     H2       HT       0.417000       1.00800           0
     24855 TIP3     825      TIP3     OH2      OT      -0.834000       15.9994           0
     24856 TIP3     825      TIP3     H1       HT       0.417000       1.00800           0
     24857 TIP3     825      TIP3     H2       HT       0.417000       1.00800           0
     24858 TIP3     826      TIP3     OH2      OT      -0.834000       15.9994           0
     24859 TIP3     826      TIP3     H1       HT       0.417000       1.00800           0
     24860 TIP3     826      TIP3     H2       HT       0.417000       1.00800           0
     24861 TIP3     827      TIP3     OH2      OT      -0.834000       15.9994           0
     24862 TIP3     827      TIP3     H1       HT       0.417000       1.00800           0
     24863 TIP3     827      TIP3     H2       HT       0.417000       1.00800           0
     24864 TIP3     828      TIP3     OH2      OT      -0.834000       15.9994           0
     24865 TIP3     828      TIP3     H1       HT       0.417000       1.00800           0
     24866 TIP3     828      TIP3     H2       HT       0.417000       1.00800           0
     24867 TIP3     829      TIP3     OH2      OT      -0.834000       15.9994           0
     24868 TIP3     829      TIP3     H1       HT       0.417000       1.00800           0
     24869 TIP3     829      TIP3     H2       HT       0.417000       1.00800           0
     24870 TIP3     830      TIP3     OH2      OT      -0.834000       15.9994           0
     24871 TIP3     830      TIP3     H1       HT       0.417000       1.00800           0
     24872 TIP3     830      TIP3     H2       HT       0.417000       1.00800           0
     24873 TIP3     831      TIP3     OH2      OT      -0.834000       15.9994           0
     24874 TIP3     831      TIP3     H1       HT       0.417000       1.00800           0
     24875 TIP3     831      TIP3     H2       HT       0.417000       1.00800           0
     24876 TIP3     832      TIP3     OH2      OT      -0.834000       15.9994           0
     24877 TIP3     832      TIP3     H1       HT       0.417000       1.00800           0
     24878 TIP3     832      TIP3     H2       HT       0.417000       1.00800           0
     24879 TIP3     833      TIP3     OH2      OT      -0.834000       15.9994           0
     24880 TIP3     833      TIP3     H1       HT       0.417000       1.00800           0
     24881 TIP3     833      TIP3     H2       HT       0.417000       1.00800           0
     24882 TIP3     834      TIP3     OH2      OT      -0.834000       15.9994           0
     24883 TIP3     834      TIP3     H1       HT       0.417000       1.00800           0
     24884 TIP3     834      TIP3     H2       HT       0.417000       1.00800           0
     24885 TIP3     835      TIP3     OH2      OT      -0.834000       15.9994           0
     24886 TIP3     835      TIP3     H1       HT       0.417000       1.00800           0
     24887 TIP3     835      TIP3     H2       HT       0.417000       1.00800           0
     24888 TIP3     836      TIP3     OH2      OT      -0.834000       15.9994           0
     24889 TIP3     836      TIP3     H1       HT       0.417000       1.00800           0
     24890 TIP3     836      TIP3     H2       HT       0.417000       1.00800           0
     24891 TIP3     837      TIP3     OH2      OT      -0.834000       15.9994           0
     24892 TIP3     837      TIP3     H1       HT       0.417000       1.00800           0
     24893 TIP3     837      TIP3     H2       HT       0.417000       1.00800           0
     24894 TIP3     838      TIP3     OH2      OT      -0.834000       15.9994           0
     24895 TIP3     838      TIP3     H1       HT       0.417000       1.00800           0
     24896 TIP3     838      TIP3     H2       HT       0.417000       1.00800           0
     24897 TIP3     839      TIP3     OH2      OT      -0.834000       15.9994           0
     24898 TIP3     839      TIP3     H1       HT       0.417000       1.00800           0
     24899 TIP3     839      TIP3     H2       HT       0.417000       1.00800           0
     24900 TIP3     840      TIP3     OH2      OT      -0.834000       15.9994           0
     24901 TIP3     840      TIP3     H1       HT       0.417000       1.00800           0
     24902 TIP3     840      TIP3     H2       HT       0.417000       1.00800           0
     24903 TIP3     841      TIP3     OH2      OT      -0.834000       15.9994           0
     24904 TIP3     841      TIP3     H1       HT       0.417000       1.00800           0
     24905 TIP3     841      TIP3     H2       HT       0.417000       1.00800           0
     24906 TIP3     842      TIP3     OH2      OT      -0.834000       15.9994           0
     24907 TIP3     842      TIP3     H1       HT       0.417000       1.00800           0
     24908 TIP3     842      TIP3     H2       HT       0.417000       1.00800           0
     24909 TIP3     843      TIP3     OH2      OT      -0.834000       15.9994           0
     24910 TIP3     843      TIP3     H1       HT       0.417000       1.00800           0
     24911 TIP3     843      TIP3     H2       HT       0.417000       1.00800           0
     24912 TIP3     844      TIP3     OH2      OT      -0.834000       15.9994           0
     24913 TIP3     844      TIP3     H1       HT       0.417000       1.00800           0
     24914 TIP3     844      TIP3     H2       HT       0.417000       1.00800           0
     24915 TIP3     845      TIP3     OH2      OT      -0.834000       15.9994           0
     24916 TIP3     845      TIP3     H1       HT       0.417000       1.00800           0
     24917 TIP3     845      TIP3     H2       HT       0.417000       1.00800           0
     24918 TIP3     846      TIP3     OH2      OT      -0.834000       15.9994           0
     24919 TIP3     846      TIP3     H1       HT       0.417000       1.00800           0
     24920 TIP3     846      TIP3     H2       HT       0.417000       1.00800           0
     24921 TIP3     847      TIP3     OH2      OT      -0.834000       15.9994           0
     24922 TIP3     847      TIP3     H1       HT       0.417000       1.00800           0
     24923 TIP3     847      TIP3     H2       HT       0.417000       1.00800           0
     24924 TIP3     848      TIP3     OH2      OT      -0.834000       15.9994           0
     24925 TIP3     848      TIP3     H1       HT       0.417000       1.00800           0
     24926 TIP3     848      TIP3     H2       HT       0.417000       1.00800           0
     24927 TIP3     849      TIP3     OH2      OT      -0.834000       15.9994           0
     24928 TIP3     849      TIP3     H1       HT       0.417000       1.00800           0
     24929 TIP3     849      TIP3     H2       HT       0.417000       1.00800           0
     24930 TIP3     850      TIP3     OH2      OT      -0.834000       15.9994           0
     24931 TIP3     850      TIP3     H1       HT       0.417000       1.00800           0
     24932 TIP3     850      TIP3     H2       HT       0.417000       1.00800           0
     24933 TIP3     851      TIP3     OH2      OT      -0.834000       15.9994           0
     24934 TIP3     851      TIP3     H1       HT       0.417000       1.00800           0
     24935 TIP3     851      TIP3     H2       HT       0.417000       1.00800           0
     24936 TIP3     852      TIP3     OH2      OT      -0.834000       15.9994           0
     24937 TIP3     852      TIP3     H1       HT       0.417000       1.00800           0
     24938 TIP3     852      TIP3     H2       HT       0.417000       1.00800           0
     24939 TIP3     853      TIP3     OH2      OT      -0.834000       15.9994           0
     24940 TIP3     853      TIP3     H1       HT       0.417000       1.00800           0
     24941 TIP3     853      TIP3     H2       HT       0.417000       1.00800           0
     24942 TIP3     854      TIP3     OH2      OT      -0.834000       15.9994           0
     24943 TIP3     854      TIP3     H1       HT       0.417000       1.00800           0
     24944 TIP3     854      TIP3     H2       HT       0.417000       1.00800           0
     24945 TIP3     855      TIP3     OH2      OT      -0.834000       15.9994           0
     24946 TIP3     855      TIP3     H1       HT       0.417000       1.00800           0
     24947 TIP3     855      TIP3     H2       HT       0.417000       1.00800           0
     24948 TIP3     856      TIP3     OH2      OT      -0.834000       15.9994           0
     24949 TIP3     856      TIP3     H1       HT       0.417000       1.00800           0
     24950 TIP3     856      TIP3     H2       HT       0.417000       1.00800           0
     24951 TIP3     857      TIP3     OH2      OT      -0.834000       15.9994           0
     24952 TIP3     857      TIP3     H1       HT       0.417000       1.00800           0
     24953 TIP3     857      TIP3     H2       HT       0.417000       1.00800           0
     24954 TIP3     858      TIP3     OH2      OT      -0.834000       15.9994           0
     24955 TIP3     858      TIP3     H1       HT       0.417000       1.00800           0
     24956 TIP3     858      TIP3     H2       HT       0.417000       1.00800           0
     24957 TIP3     859      TIP3     OH2      OT      -0.834000       15.9994           0
     24958 TIP3     859      TIP3     H1       HT       0.417000       1.00800           0
     24959 TIP3     859      TIP3     H2       HT       0.417000       1.00800           0
     24960 TIP3     860      TIP3     OH2      OT      -0.834000       15.9994           0
     24961 TIP3     860      TIP3     H1       HT       0.417000       1.00800           0
     24962 TIP3     860      TIP3     H2       HT       0.417000       1.00800           0
     24963 TIP3     861      TIP3     OH2      OT      -0.834000       15.9994           0
     24964 TIP3     861      TIP3     H1       HT       0.417000       1.00800           0
     24965 TIP3     861      TIP3     H2       HT       0.417000       1.00800           0
     24966 TIP3     862      TIP3     OH2      OT      -0.834000       15.9994           0
     24967 TIP3     862      TIP3     H1       HT       0.417000       1.00800           0
     24968 TIP3     862      TIP3     H2       HT       0.417000       1.00800           0
     24969 TIP3     863      TIP3     OH2      OT      -0.834000       15.9994           0
     24970 TIP3     863      TIP3     H1       HT       0.417000       1.00800           0
     24971 TIP3     863      TIP3     H2       HT       0.417000       1.00800           0
     24972 TIP3     864      TIP3     OH2      OT      -0.834000       15.9994           0
     24973 TIP3     864      TIP3     H1       HT       0.417000       1.00800           0
     24974 TIP3     864      TIP3     H2       HT       0.417000       1.00800           0
     24975 TIP3     865      TIP3     OH2      OT      -0.834000       15.9994           0
     24976 TIP3     865      TIP3     H1       HT       0.417000       1.00800           0
     24977 TIP3     865      TIP3     H2       HT       0.417000       1.00800           0
     24978 TIP3     866      TIP3     OH2      OT      -0.834000       15.9994           0
     24979 TIP3     866      TIP3     H1       HT       0.417000       1.00800           0
     24980 TIP3     866      TIP3     H2       HT       0.417000       1.00800           0
     24981 TIP3     867      TIP3     OH2      OT      -0.834000       15.9994           0
     24982 TIP3     867      TIP3     H1       HT       0.417000       1.00800           0
     24983 TIP3     867      TIP3     H2       HT       0.417000       1.00800           0
     24984 TIP3     868      TIP3     OH2      OT      -0.834000       15.9994           0
     24985 TIP3     868      TIP3     H1       HT       0.417000       1.00800           0
     24986 TIP3     868      TIP3     H2       HT       0.417000       1.00800           0
     24987 TIP3     869      TIP3     OH2      OT      -0.834000       15.9994           0
     24988 TIP3     869      TIP3     H1       HT       0.417000       1.00800           0
     24989 TIP3     869      TIP3     H2       HT       0.417000       1.00800           0
     24990 TIP3     870      TIP3     OH2      OT      -0.834000       15.9994           0
     24991 TIP3     870      TIP3     H1       HT       0.417000       1.00800           0
     24992 TIP3     870      TIP3     H2       HT       0.417000       1.00800           0
     24993 TIP3     871      TIP3     OH2      OT      -0.834000       15.9994           0
     24994 TIP3     871      TIP3     H1       HT       0.417000       1.00800           0
     24995 TIP3     871      TIP3     H2       HT       0.417000       1.00800           0
     24996 TIP3     872      TIP3     OH2      OT      -0.834000       15.9994           0
     24997 TIP3     872      TIP3     H1       HT       0.417000       1.00800           0
     24998 TIP3     872      TIP3     H2       HT       0.417000       1.00800           0
     24999 TIP3     873      TIP3     OH2      OT      -0.834000       15.9994           0
     25000 TIP3     873      TIP3     H1       HT       0.417000       1.00800           0
     25001 TIP3     873      TIP3     H2       HT       0.417000       1.00800           0
     25002 TIP3     874      TIP3     OH2      OT      -0.834000       15.9994           0
     25003 TIP3     874      TIP3     H1       HT       0.417000       1.00800           0
     25004 TIP3     874      TIP3     H2       HT       0.417000       1.00800           0
     25005 TIP3     875      TIP3     OH2      OT      -0.834000       15.9994           0
     25006 TIP3     875      TIP3     H1       HT       0.417000       1.00800           0
     25007 TIP3     875      TIP3     H2       HT       0.417000       1.00800           0
     25008 TIP3     876      TIP3     OH2      OT      -0.834000       15.9994           0
     25009 TIP3     876      TIP3     H1       HT       0.417000       1.00800           0
     25010 TIP3     876      TIP3     H2       HT       0.417000       1.00800           0
     25011 TIP3     877      TIP3     OH2      OT      -0.834000       15.9994           0
     25012 TIP3     877      TIP3     H1       HT       0.417000       1.00800           0
     25013 TIP3     877      TIP3     H2       HT       0.417000       1.00800           0
     25014 TIP3     878      TIP3     OH2      OT      -0.834000       15.9994           0
     25015 TIP3     878      TIP3     H1       HT       0.417000       1.00800           0
     25016 TIP3     878      TIP3     H2       HT       0.417000       1.00800           0
     25017 TIP3     879      TIP3     OH2      OT      -0.834000       15.9994           0
     25018 TIP3     879      TIP3     H1       HT       0.417000       1.00800           0
     25019 TIP3     879      TIP3     H2       HT       0.417000       1.00800           0
     25020 TIP3     880      TIP3     OH2      OT      -0.834000       15.9994           0
     25021 TIP3     880      TIP3     H1       HT       0.417000       1.00800           0
     25022 TIP3     880      TIP3     H2       HT       0.417000       1.00800           0
     25023 TIP3     881      TIP3     OH2      OT      -0.834000       15.9994           0
     25024 TIP3     881      TIP3     H1       HT       0.417000       1.00800           0
     25025 TIP3     881      TIP3     H2       HT       0.417000       1.00800           0
     25026 TIP3     882      TIP3     OH2      OT      -0.834000       15.9994           0
     25027 TIP3     882      TIP3     H1       HT       0.417000       1.00800           0
     25028 TIP3     882      TIP3     H2       HT       0.417000       1.00800           0
     25029 TIP3     883      TIP3     OH2      OT      -0.834000       15.9994           0
     25030 TIP3     883      TIP3     H1       HT       0.417000       1.00800           0
     25031 TIP3     883      TIP3     H2       HT       0.417000       1.00800           0
     25032 TIP3     884      TIP3     OH2      OT      -0.834000       15.9994           0
     25033 TIP3     884      TIP3     H1       HT       0.417000       1.00800           0
     25034 TIP3     884      TIP3     H2       HT       0.417000       1.00800           0
     25035 TIP3     885      TIP3     OH2      OT      -0.834000       15.9994           0
     25036 TIP3     885      TIP3     H1       HT       0.417000       1.00800           0
     25037 TIP3     885      TIP3     H2       HT       0.417000       1.00800           0
     25038 TIP3     886      TIP3     OH2      OT      -0.834000       15.9994           0
     25039 TIP3     886      TIP3     H1       HT       0.417000       1.00800           0
     25040 TIP3     886      TIP3     H2       HT       0.417000       1.00800           0
     25041 TIP3     887      TIP3     OH2      OT      -0.834000       15.9994           0
     25042 TIP3     887      TIP3     H1       HT       0.417000       1.00800           0
     25043 TIP3     887      TIP3     H2       HT       0.417000       1.00800           0
     25044 TIP3     888      TIP3     OH2      OT      -0.834000       15.9994           0
     25045 TIP3     888      TIP3     H1       HT       0.417000       1.00800           0
     25046 TIP3     888      TIP3     H2       HT       0.417000       1.00800           0
     25047 TIP3     889      TIP3     OH2      OT      -0.834000       15.9994           0
     25048 TIP3     889      TIP3     H1       HT       0.417000       1.00800           0
     25049 TIP3     889      TIP3     H2       HT       0.417000       1.00800           0
     25050 TIP3     890      TIP3     OH2      OT      -0.834000       15.9994           0
     25051 TIP3     890      TIP3     H1       HT       0.417000       1.00800           0
     25052 TIP3     890      TIP3     H2       HT       0.417000       1.00800           0
     25053 TIP3     891      TIP3     OH2      OT      -0.834000       15.9994           0
     25054 TIP3     891      TIP3     H1       HT       0.417000       1.00800           0
     25055 TIP3     891      TIP3     H2       HT       0.417000       1.00800           0
     25056 TIP3     892      TIP3     OH2      OT      -0.834000       15.9994           0
     25057 TIP3     892      TIP3     H1       HT       0.417000       1.00800           0
     25058 TIP3     892      TIP3     H2       HT       0.417000       1.00800           0
     25059 TIP3     893      TIP3     OH2      OT      -0.834000       15.9994           0
     25060 TIP3     893      TIP3     H1       HT       0.417000       1.00800           0
     25061 TIP3     893      TIP3     H2       HT       0.417000       1.00800           0
     25062 TIP3     894      TIP3     OH2      OT      -0.834000       15.9994           0
     25063 TIP3     894      TIP3     H1       HT       0.417000       1.00800           0
     25064 TIP3     894      TIP3     H2       HT       0.417000       1.00800           0
     25065 TIP3     895      TIP3     OH2      OT      -0.834000       15.9994           0
     25066 TIP3     895      TIP3     H1       HT       0.417000       1.00800           0
     25067 TIP3     895      TIP3     H2       HT       0.417000       1.00800           0
     25068 TIP3     896      TIP3     OH2      OT      -0.834000       15.9994           0
     25069 TIP3     896      TIP3     H1       HT       0.417000       1.00800           0
     25070 TIP3     896      TIP3     H2       HT       0.417000       1.00800           0
     25071 TIP3     897      TIP3     OH2      OT      -0.834000       15.9994           0
     25072 TIP3     897      TIP3     H1       HT       0.417000       1.00800           0
     25073 TIP3     897      TIP3     H2       HT       0.417000       1.00800           0
     25074 TIP3     898      TIP3     OH2      OT      -0.834000       15.9994           0
     25075 TIP3     898      TIP3     H1       HT       0.417000       1.00800           0
     25076 TIP3     898      TIP3     H2       HT       0.417000       1.00800           0
     25077 TIP3     899      TIP3     OH2      OT      -0.834000       15.9994           0
     25078 TIP3     899      TIP3     H1       HT       0.417000       1.00800           0
     25079 TIP3     899      TIP3     H2       HT       0.417000       1.00800           0
     25080 TIP3     900      TIP3     OH2      OT      -0.834000       15.9994           0
     25081 TIP3     900      TIP3     H1       HT       0.417000       1.00800           0
     25082 TIP3     900      TIP3     H2       HT       0.417000       1.00800           0
     25083 TIP3     901      TIP3     OH2      OT      -0.834000       15.9994           0
     25084 TIP3     901      TIP3     H1       HT       0.417000       1.00800           0
     25085 TIP3     901      TIP3     H2       HT       0.417000       1.00800           0
     25086 TIP3     902      TIP3     OH2      OT      -0.834000       15.9994           0
     25087 TIP3     902      TIP3     H1       HT       0.417000       1.00800           0
     25088 TIP3     902      TIP3     H2       HT       0.417000       1.00800           0
     25089 TIP3     903      TIP3     OH2      OT      -0.834000       15.9994           0
     25090 TIP3     903      TIP3     H1       HT       0.417000       1.00800           0
     25091 TIP3     903      TIP3     H2       HT       0.417000       1.00800           0
     25092 TIP3     904      TIP3     OH2      OT      -0.834000       15.9994           0
     25093 TIP3     904      TIP3     H1       HT       0.417000       1.00800           0
     25094 TIP3     904      TIP3     H2       HT       0.417000       1.00800           0
     25095 TIP3     905      TIP3     OH2      OT      -0.834000       15.9994           0
     25096 TIP3     905      TIP3     H1       HT       0.417000       1.00800           0
     25097 TIP3     905      TIP3     H2       HT       0.417000       1.00800           0
     25098 TIP3     906      TIP3     OH2      OT      -0.834000       15.9994           0
     25099 TIP3     906      TIP3     H1       HT       0.417000       1.00800           0
     25100 TIP3     906      TIP3     H2       HT       0.417000       1.00800           0
     25101 TIP3     907      TIP3     OH2      OT      -0.834000       15.9994           0
     25102 TIP3     907      TIP3     H1       HT       0.417000       1.00800           0
     25103 TIP3     907      TIP3     H2       HT       0.417000       1.00800           0
     25104 TIP3     908      TIP3     OH2      OT      -0.834000       15.9994           0
     25105 TIP3     908      TIP3     H1       HT       0.417000       1.00800           0
     25106 TIP3     908      TIP3     H2       HT       0.417000       1.00800           0
     25107 TIP3     909      TIP3     OH2      OT      -0.834000       15.9994           0
     25108 TIP3     909      TIP3     H1       HT       0.417000       1.00800           0
     25109 TIP3     909      TIP3     H2       HT       0.417000       1.00800           0
     25110 TIP3     910      TIP3     OH2      OT      -0.834000       15.9994           0
     25111 TIP3     910      TIP3     H1       HT       0.417000       1.00800           0
     25112 TIP3     910      TIP3     H2       HT       0.417000       1.00800           0
     25113 TIP3     911      TIP3     OH2      OT      -0.834000       15.9994           0
     25114 TIP3     911      TIP3     H1       HT       0.417000       1.00800           0
     25115 TIP3     911      TIP3     H2       HT       0.417000       1.00800           0
     25116 TIP3     912      TIP3     OH2      OT      -0.834000       15.9994           0
     25117 TIP3     912      TIP3     H1       HT       0.417000       1.00800           0
     25118 TIP3     912      TIP3     H2       HT       0.417000       1.00800           0
     25119 TIP3     913      TIP3     OH2      OT      -0.834000       15.9994           0
     25120 TIP3     913      TIP3     H1       HT       0.417000       1.00800           0
     25121 TIP3     913      TIP3     H2       HT       0.417000       1.00800           0
     25122 TIP3     914      TIP3     OH2      OT      -0.834000       15.9994           0
     25123 TIP3     914      TIP3     H1       HT       0.417000       1.00800           0
     25124 TIP3     914      TIP3     H2       HT       0.417000       1.00800           0
     25125 TIP3     915      TIP3     OH2      OT      -0.834000       15.9994           0
     25126 TIP3     915      TIP3     H1       HT       0.417000       1.00800           0
     25127 TIP3     915      TIP3     H2       HT       0.417000       1.00800           0
     25128 TIP3     916      TIP3     OH2      OT      -0.834000       15.9994           0
     25129 TIP3     916      TIP3     H1       HT       0.417000       1.00800           0
     25130 TIP3     916      TIP3     H2       HT       0.417000       1.00800           0
     25131 TIP3     917      TIP3     OH2      OT      -0.834000       15.9994           0
     25132 TIP3     917      TIP3     H1       HT       0.417000       1.00800           0
     25133 TIP3     917      TIP3     H2       HT       0.417000       1.00800           0
     25134 TIP3     918      TIP3     OH2      OT      -0.834000       15.9994           0
     25135 TIP3     918      TIP3     H1       HT       0.417000       1.00800           0
     25136 TIP3     918      TIP3     H2       HT       0.417000       1.00800           0
     25137 TIP3     919      TIP3     OH2      OT      -0.834000       15.9994           0
     25138 TIP3     919      TIP3     H1       HT       0.417000       1.00800           0
     25139 TIP3     919      TIP3     H2       HT       0.417000       1.00800           0
     25140 TIP3     920      TIP3     OH2      OT      -0.834000       15.9994           0
     25141 TIP3     920      TIP3     H1       HT       0.417000       1.00800           0
     25142 TIP3     920      TIP3     H2       HT       0.417000       1.00800           0
     25143 TIP3     921      TIP3     OH2      OT      -0.834000       15.9994           0
     25144 TIP3     921      TIP3     H1       HT       0.417000       1.00800           0
     25145 TIP3     921      TIP3     H2       HT       0.417000       1.00800           0
     25146 TIP3     922      TIP3     OH2      OT      -0.834000       15.9994           0
     25147 TIP3     922      TIP3     H1       HT       0.417000       1.00800           0
     25148 TIP3     922      TIP3     H2       HT       0.417000       1.00800           0
     25149 TIP3     923      TIP3     OH2      OT      -0.834000       15.9994           0
     25150 TIP3     923      TIP3     H1       HT       0.417000       1.00800           0
     25151 TIP3     923      TIP3     H2       HT       0.417000       1.00800           0
     25152 TIP3     924      TIP3     OH2      OT      -0.834000       15.9994           0
     25153 TIP3     924      TIP3     H1       HT       0.417000       1.00800           0
     25154 TIP3     924      TIP3     H2       HT       0.417000       1.00800           0
     25155 TIP3     925      TIP3     OH2      OT      -0.834000       15.9994           0
     25156 TIP3     925      TIP3     H1       HT       0.417000       1.00800           0
     25157 TIP3     925      TIP3     H2       HT       0.417000       1.00800           0
     25158 TIP3     926      TIP3     OH2      OT      -0.834000       15.9994           0
     25159 TIP3     926      TIP3     H1       HT       0.417000       1.00800           0
     25160 TIP3     926      TIP3     H2       HT       0.417000       1.00800           0
     25161 TIP3     927      TIP3     OH2      OT      -0.834000       15.9994           0
     25162 TIP3     927      TIP3     H1       HT       0.417000       1.00800           0
     25163 TIP3     927      TIP3     H2       HT       0.417000       1.00800           0
     25164 TIP3     928      TIP3     OH2      OT      -0.834000       15.9994           0
     25165 TIP3     928      TIP3     H1       HT       0.417000       1.00800           0
     25166 TIP3     928      TIP3     H2       HT       0.417000       1.00800           0
     25167 TIP3     929      TIP3     OH2      OT      -0.834000       15.9994           0
     25168 TIP3     929      TIP3     H1       HT       0.417000       1.00800           0
     25169 TIP3     929      TIP3     H2       HT       0.417000       1.00800           0
     25170 TIP3     930      TIP3     OH2      OT      -0.834000       15.9994           0
     25171 TIP3     930      TIP3     H1       HT       0.417000       1.00800           0
     25172 TIP3     930      TIP3     H2       HT       0.417000       1.00800           0
     25173 TIP3     931      TIP3     OH2      OT      -0.834000       15.9994           0
     25174 TIP3     931      TIP3     H1       HT       0.417000       1.00800           0
     25175 TIP3     931      TIP3     H2       HT       0.417000       1.00800           0
     25176 TIP3     932      TIP3     OH2      OT      -0.834000       15.9994           0
     25177 TIP3     932      TIP3     H1       HT       0.417000       1.00800           0
     25178 TIP3     932      TIP3     H2       HT       0.417000       1.00800           0
     25179 TIP3     933      TIP3     OH2      OT      -0.834000       15.9994           0
     25180 TIP3     933      TIP3     H1       HT       0.417000       1.00800           0
     25181 TIP3     933      TIP3     H2       HT       0.417000       1.00800           0
     25182 TIP3     934      TIP3     OH2      OT      -0.834000       15.9994           0
     25183 TIP3     934      TIP3     H1       HT       0.417000       1.00800           0
     25184 TIP3     934      TIP3     H2       HT       0.417000       1.00800           0
     25185 TIP3     935      TIP3     OH2      OT      -0.834000       15.9994           0
     25186 TIP3     935      TIP3     H1       HT       0.417000       1.00800           0
     25187 TIP3     935      TIP3     H2       HT       0.417000       1.00800           0
     25188 TIP3     936      TIP3     OH2      OT      -0.834000       15.9994           0
     25189 TIP3     936      TIP3     H1       HT       0.417000       1.00800           0
     25190 TIP3     936      TIP3     H2       HT       0.417000       1.00800           0
     25191 TIP3     937      TIP3     OH2      OT      -0.834000       15.9994           0
     25192 TIP3     937      TIP3     H1       HT       0.417000       1.00800           0
     25193 TIP3     937      TIP3     H2       HT       0.417000       1.00800           0
     25194 TIP3     938      TIP3     OH2      OT      -0.834000       15.9994           0
     25195 TIP3     938      TIP3     H1       HT       0.417000       1.00800           0
     25196 TIP3     938      TIP3     H2       HT       0.417000       1.00800           0
     25197 TIP3     939      TIP3     OH2      OT      -0.834000       15.9994           0
     25198 TIP3     939      TIP3     H1       HT       0.417000       1.00800           0
     25199 TIP3     939      TIP3     H2       HT       0.417000       1.00800           0
     25200 TIP3     940      TIP3     OH2      OT      -0.834000       15.9994           0
     25201 TIP3     940      TIP3     H1       HT       0.417000       1.00800           0
     25202 TIP3     940      TIP3     H2       HT       0.417000       1.00800           0
     25203 TIP3     941      TIP3     OH2      OT      -0.834000       15.9994           0
     25204 TIP3     941      TIP3     H1       HT       0.417000       1.00800           0
     25205 TIP3     941      TIP3     H2       HT       0.417000       1.00800           0
     25206 TIP3     942      TIP3     OH2      OT      -0.834000       15.9994           0
     25207 TIP3     942      TIP3     H1       HT       0.417000       1.00800           0
     25208 TIP3     942      TIP3     H2       HT       0.417000       1.00800           0
     25209 TIP3     943      TIP3     OH2      OT      -0.834000       15.9994           0
     25210 TIP3     943      TIP3     H1       HT       0.417000       1.00800           0
     25211 TIP3     943      TIP3     H2       HT       0.417000       1.00800           0
     25212 TIP3     944      TIP3     OH2      OT      -0.834000       15.9994           0
     25213 TIP3     944      TIP3     H1       HT       0.417000       1.00800           0
     25214 TIP3     944      TIP3     H2       HT       0.417000       1.00800           0
     25215 TIP3     945      TIP3     OH2      OT      -0.834000       15.9994           0
     25216 TIP3     945      TIP3     H1       HT       0.417000       1.00800           0
     25217 TIP3     945      TIP3     H2       HT       0.417000       1.00800           0
     25218 TIP3     946      TIP3     OH2      OT      -0.834000       15.9994           0
     25219 TIP3     946      TIP3     H1       HT       0.417000       1.00800           0
     25220 TIP3     946      TIP3     H2       HT       0.417000       1.00800           0
     25221 TIP3     947      TIP3     OH2      OT      -0.834000       15.9994           0
     25222 TIP3     947      TIP3     H1       HT       0.417000       1.00800           0
     25223 TIP3     947      TIP3     H2       HT       0.417000       1.00800           0
     25224 TIP3     948      TIP3     OH2      OT      -0.834000       15.9994           0
     25225 TIP3     948      TIP3     H1       HT       0.417000       1.00800           0
     25226 TIP3     948      TIP3     H2       HT       0.417000       1.00800           0
     25227 TIP3     949      TIP3     OH2      OT      -0.834000       15.9994           0
     25228 TIP3     949      TIP3     H1       HT       0.417000       1.00800           0
     25229 TIP3     949      TIP3     H2       HT       0.417000       1.00800           0
     25230 TIP3     950      TIP3     OH2      OT      -0.834000       15.9994           0
     25231 TIP3     950      TIP3     H1       HT       0.417000       1.00800           0
     25232 TIP3     950      TIP3     H2       HT       0.417000       1.00800           0
     25233 TIP3     951      TIP3     OH2      OT      -0.834000       15.9994           0
     25234 TIP3     951      TIP3     H1       HT       0.417000       1.00800           0
     25235 TIP3     951      TIP3     H2       HT       0.417000       1.00800           0
     25236 TIP3     952      TIP3     OH2      OT      -0.834000       15.9994           0
     25237 TIP3     952      TIP3     H1       HT       0.417000       1.00800           0
     25238 TIP3     952      TIP3     H2       HT       0.417000       1.00800           0
     25239 TIP3     953      TIP3     OH2      OT      -0.834000       15.9994           0
     25240 TIP3     953      TIP3     H1       HT       0.417000       1.00800           0
     25241 TIP3     953      TIP3     H2       HT       0.417000       1.00800           0
     25242 TIP3     954      TIP3     OH2      OT      -0.834000       15.9994           0
     25243 TIP3     954      TIP3     H1       HT       0.417000       1.00800           0
     25244 TIP3     954      TIP3     H2       HT       0.417000       1.00800           0
     25245 TIP3     955      TIP3     OH2      OT      -0.834000       15.9994           0
     25246 TIP3     955      TIP3     H1       HT       0.417000       1.00800           0
     25247 TIP3     955      TIP3     H2       HT       0.417000       1.00800           0
     25248 TIP3     956      TIP3     OH2      OT      -0.834000       15.9994           0
     25249 TIP3     956      TIP3     H1       HT       0.417000       1.00800           0
     25250 TIP3     956      TIP3     H2       HT       0.417000       1.00800           0
     25251 TIP3     957      TIP3     OH2      OT      -0.834000       15.9994           0
     25252 TIP3     957      TIP3     H1       HT       0.417000       1.00800           0
     25253 TIP3     957      TIP3     H2       HT       0.417000       1.00800           0
     25254 TIP3     958      TIP3     OH2      OT      -0.834000       15.9994           0
     25255 TIP3     958      TIP3     H1       HT       0.417000       1.00800           0
     25256 TIP3     958      TIP3     H2       HT       0.417000       1.00800           0
     25257 TIP3     959      TIP3     OH2      OT      -0.834000       15.9994           0
     25258 TIP3     959      TIP3     H1       HT       0.417000       1.00800           0
     25259 TIP3     959      TIP3     H2       HT       0.417000       1.00800           0
     25260 TIP3     960      TIP3     OH2      OT      -0.834000       15.9994           0
     25261 TIP3     960      TIP3     H1       HT       0.417000       1.00800           0
     25262 TIP3     960      TIP3     H2       HT       0.417000       1.00800           0
     25263 TIP3     961      TIP3     OH2      OT      -0.834000       15.9994           0
     25264 TIP3     961      TIP3     H1       HT       0.417000       1.00800           0
     25265 TIP3     961      TIP3     H2       HT       0.417000       1.00800           0
     25266 TIP3     962      TIP3     OH2      OT      -0.834000       15.9994           0
     25267 TIP3     962      TIP3     H1       HT       0.417000       1.00800           0
     25268 TIP3     962      TIP3     H2       HT       0.417000       1.00800           0
     25269 TIP3     963      TIP3     OH2      OT      -0.834000       15.9994           0
     25270 TIP3     963      TIP3     H1       HT       0.417000       1.00800           0
     25271 TIP3     963      TIP3     H2       HT       0.417000       1.00800           0
     25272 TIP3     964      TIP3     OH2      OT      -0.834000       15.9994           0
     25273 TIP3     964      TIP3     H1       HT       0.417000       1.00800           0
     25274 TIP3     964      TIP3     H2       HT       0.417000       1.00800           0
     25275 TIP3     965      TIP3     OH2      OT      -0.834000       15.9994           0
     25276 TIP3     965      TIP3     H1       HT       0.417000       1.00800           0
     25277 TIP3     965      TIP3     H2       HT       0.417000       1.00800           0
     25278 TIP3     966      TIP3     OH2      OT      -0.834000       15.9994           0
     25279 TIP3     966      TIP3     H1       HT       0.417000       1.00800           0
     25280 TIP3     966      TIP3     H2       HT       0.417000       1.00800           0
     25281 TIP3     967      TIP3     OH2      OT      -0.834000       15.9994           0
     25282 TIP3     967      TIP3     H1       HT       0.417000       1.00800           0
     25283 TIP3     967      TIP3     H2       HT       0.417000       1.00800           0
     25284 TIP3     968      TIP3     OH2      OT      -0.834000       15.9994           0
     25285 TIP3     968      TIP3     H1       HT       0.417000       1.00800           0
     25286 TIP3     968      TIP3     H2       HT       0.417000       1.00800           0
     25287 TIP3     969      TIP3     OH2      OT      -0.834000       15.9994           0
     25288 TIP3     969      TIP3     H1       HT       0.417000       1.00800           0
     25289 TIP3     969      TIP3     H2       HT       0.417000       1.00800           0
     25290 TIP3     970      TIP3     OH2      OT      -0.834000       15.9994           0
     25291 TIP3     970      TIP3     H1       HT       0.417000       1.00800           0
     25292 TIP3     970      TIP3     H2       HT       0.417000       1.00800           0
     25293 TIP3     971      TIP3     OH2      OT      -0.834000       15.9994           0
     25294 TIP3     971      TIP3     H1       HT       0.417000       1.00800           0
     25295 TIP3     971      TIP3     H2       HT       0.417000       1.00800           0
     25296 TIP3     972      TIP3     OH2      OT      -0.834000       15.9994           0
     25297 TIP3     972      TIP3     H1       HT       0.417000       1.00800           0
     25298 TIP3     972      TIP3     H2       HT       0.417000       1.00800           0
     25299 TIP3     973      TIP3     OH2      OT      -0.834000       15.9994           0
     25300 TIP3     973      TIP3     H1       HT       0.417000       1.00800           0
     25301 TIP3     973      TIP3     H2       HT       0.417000       1.00800           0
     25302 TIP3     974      TIP3     OH2      OT      -0.834000       15.9994           0
     25303 TIP3     974      TIP3     H1       HT       0.417000       1.00800           0
     25304 TIP3     974      TIP3     H2       HT       0.417000       1.00800           0
     25305 TIP3     975      TIP3     OH2      OT      -0.834000       15.9994           0
     25306 TIP3     975      TIP3     H1       HT       0.417000       1.00800           0
     25307 TIP3     975      TIP3     H2       HT       0.417000       1.00800           0
     25308 TIP3     976      TIP3     OH2      OT      -0.834000       15.9994           0
     25309 TIP3     976      TIP3     H1       HT       0.417000       1.00800           0
     25310 TIP3     976      TIP3     H2       HT       0.417000       1.00800           0
     25311 TIP3     977      TIP3     OH2      OT      -0.834000       15.9994           0
     25312 TIP3     977      TIP3     H1       HT       0.417000       1.00800           0
     25313 TIP3     977      TIP3     H2       HT       0.417000       1.00800           0
     25314 TIP3     978      TIP3     OH2      OT      -0.834000       15.9994           0
     25315 TIP3     978      TIP3     H1       HT       0.417000       1.00800           0
     25316 TIP3     978      TIP3     H2       HT       0.417000       1.00800           0
     25317 TIP3     979      TIP3     OH2      OT      -0.834000       15.9994           0
     25318 TIP3     979      TIP3     H1       HT       0.417000       1.00800           0
     25319 TIP3     979      TIP3     H2       HT       0.417000       1.00800           0
     25320 TIP3     980      TIP3     OH2      OT      -0.834000       15.9994           0
     25321 TIP3     980      TIP3     H1       HT       0.417000       1.00800           0
     25322 TIP3     980      TIP3     H2       HT       0.417000       1.00800           0
     25323 TIP3     981      TIP3     OH2      OT      -0.834000       15.9994           0
     25324 TIP3     981      TIP3     H1       HT       0.417000       1.00800           0
     25325 TIP3     981      TIP3     H2       HT       0.417000       1.00800           0
     25326 TIP3     982      TIP3     OH2      OT      -0.834000       15.9994           0
     25327 TIP3     982      TIP3     H1       HT       0.417000       1.00800           0
     25328 TIP3     982      TIP3     H2       HT       0.417000       1.00800           0
     25329 TIP3     983      TIP3     OH2      OT      -0.834000       15.9994           0
     25330 TIP3     983      TIP3     H1       HT       0.417000       1.00800           0
     25331 TIP3     983      TIP3     H2       HT       0.417000       1.00800           0
     25332 TIP3     984      TIP3     OH2      OT      -0.834000       15.9994           0
     25333 TIP3     984      TIP3     H1       HT       0.417000       1.00800           0
     25334 TIP3     984      TIP3     H2       HT       0.417000       1.00800           0
     25335 TIP3     985      TIP3     OH2      OT      -0.834000       15.9994           0
     25336 TIP3     985      TIP3     H1       HT       0.417000       1.00800           0
     25337 TIP3     985      TIP3     H2       HT       0.417000       1.00800           0
     25338 TIP3     986      TIP3     OH2      OT      -0.834000       15.9994           0
     25339 TIP3     986      TIP3     H1       HT       0.417000       1.00800           0
     25340 TIP3     986      TIP3     H2       HT       0.417000       1.00800           0
     25341 TIP3     987      TIP3     OH2      OT      -0.834000       15.9994           0
     25342 TIP3     987      TIP3     H1       HT       0.417000       1.00800           0
     25343 TIP3     987      TIP3     H2       HT       0.417000       1.00800           0
     25344 TIP3     988      TIP3     OH2      OT      -0.834000       15.9994           0
     25345 TIP3     988      TIP3     H1       HT       0.417000       1.00800           0
     25346 TIP3     988      TIP3     H2       HT       0.417000       1.00800           0
     25347 TIP3     989      TIP3     OH2      OT      -0.834000       15.9994           0
     25348 TIP3     989      TIP3     H1       HT       0.417000       1.00800           0
     25349 TIP3     989      TIP3     H2       HT       0.417000       1.00800           0
     25350 TIP3     990      TIP3     OH2      OT      -0.834000       15.9994           0
     25351 TIP3     990      TIP3     H1       HT       0.417000       1.00800           0
     25352 TIP3     990      TIP3     H2       HT       0.417000       1.00800           0
     25353 TIP3     991      TIP3     OH2      OT      -0.834000       15.9994           0
     25354 TIP3     991      TIP3     H1       HT       0.417000       1.00800           0
     25355 TIP3     991      TIP3     H2       HT       0.417000       1.00800           0
     25356 TIP3     992      TIP3     OH2      OT      -0.834000       15.9994           0
     25357 TIP3     992      TIP3     H1       HT       0.417000       1.00800           0
     25358 TIP3     992      TIP3     H2       HT       0.417000       1.00800           0
     25359 TIP3     993      TIP3     OH2      OT      -0.834000       15.9994           0
     25360 TIP3     993      TIP3     H1       HT       0.417000       1.00800           0
     25361 TIP3     993      TIP3     H2       HT       0.417000       1.00800           0
     25362 TIP3     994      TIP3     OH2      OT      -0.834000       15.9994           0
     25363 TIP3     994      TIP3     H1       HT       0.417000       1.00800           0
     25364 TIP3     994      TIP3     H2       HT       0.417000       1.00800           0
     25365 TIP3     995      TIP3     OH2      OT      -0.834000       15.9994           0
     25366 TIP3     995      TIP3     H1       HT       0.417000       1.00800           0
     25367 TIP3     995      TIP3     H2       HT       0.417000       1.00800           0
     25368 TIP3     996      TIP3     OH2      OT      -0.834000       15.9994           0
     25369 TIP3     996      TIP3     H1       HT       0.417000       1.00800           0
     25370 TIP3     996      TIP3     H2       HT       0.417000       1.00800           0
     25371 TIP3     997      TIP3     OH2      OT      -0.834000       15.9994           0
     25372 TIP3     997      TIP3     H1       HT       0.417000       1.00800           0
     25373 TIP3     997      TIP3     H2       HT       0.417000       1.00800           0
     25374 TIP3     998      TIP3     OH2      OT      -0.834000       15.9994           0
     25375 TIP3     998      TIP3     H1       HT       0.417000       1.00800           0
     25376 TIP3     998      TIP3     H2       HT       0.417000       1.00800           0
     25377 TIP3     999      TIP3     OH2      OT      -0.834000       15.9994           0
     25378 TIP3     999      TIP3     H1       HT       0.417000       1.00800           0
     25379 TIP3     999      TIP3     H2       HT       0.417000       1.00800           0
     25380 TIP3     1000     TIP3     OH2      OT      -0.834000       15.9994           0
     25381 TIP3     1000     TIP3     H1       HT       0.417000       1.00800           0
     25382 TIP3     1000     TIP3     H2       HT       0.417000       1.00800           0
     25383 TIP3     1001     TIP3     OH2      OT      -0.834000       15.9994           0
     25384 TIP3     1001     TIP3     H1       HT       0.417000       1.00800           0
     25385 TIP3     1001     TIP3     H2       HT       0.417000       1.00800           0
     25386 TIP3     1002     TIP3     OH2      OT      -0.834000       15.9994           0
     25387 TIP3     1002     TIP3     H1       HT       0.417000       1.00800           0
     25388 TIP3     1002     TIP3     H2       HT       0.417000       1.00800           0
     25389 TIP3     1003     TIP3     OH2      OT      -0.834000       15.9994           0
     25390 TIP3     1003     TIP3     H1       HT       0.417000       1.00800           0
     25391 TIP3     1003     TIP3     H2       HT       0.417000       1.00800           0
     25392 TIP3     1004     TIP3     OH2      OT      -0.834000       15.9994           0
     25393 TIP3     1004     TIP3     H1       HT       0.417000       1.00800           0
     25394 TIP3     1004     TIP3     H2       HT       0.417000       1.00800           0
     25395 TIP3     1005     TIP3     OH2      OT      -0.834000       15.9994           0
     25396 TIP3     1005     TIP3     H1       HT       0.417000       1.00800           0
     25397 TIP3     1005     TIP3     H2       HT       0.417000       1.00800           0
     25398 TIP3     1006     TIP3     OH2      OT      -0.834000       15.9994           0
     25399 TIP3     1006     TIP3     H1       HT       0.417000       1.00800           0
     25400 TIP3     1006     TIP3     H2       HT       0.417000       1.00800           0
     25401 TIP3     1007     TIP3     OH2      OT      -0.834000       15.9994           0
     25402 TIP3     1007     TIP3     H1       HT       0.417000       1.00800           0
     25403 TIP3     1007     TIP3     H2       HT       0.417000       1.00800           0
     25404 TIP3     1008     TIP3     OH2      OT      -0.834000       15.9994           0
     25405 TIP3     1008     TIP3     H1       HT       0.417000       1.00800           0
     25406 TIP3     1008     TIP3     H2       HT       0.417000       1.00800           0
     25407 TIP3     1009     TIP3     OH2      OT      -0.834000       15.9994           0
     25408 TIP3     1009     TIP3     H1       HT       0.417000       1.00800           0
     25409 TIP3     1009     TIP3     H2       HT       0.417000       1.00800           0
     25410 TIP3     1010     TIP3     OH2      OT      -0.834000       15.9994           0
     25411 TIP3     1010     TIP3     H1       HT       0.417000       1.00800           0
     25412 TIP3     1010     TIP3     H2       HT       0.417000       1.00800           0
     25413 TIP3     1011     TIP3     OH2      OT      -0.834000       15.9994           0
     25414 TIP3     1011     TIP3     H1       HT       0.417000       1.00800           0
     25415 TIP3     1011     TIP3     H2       HT       0.417000       1.00800           0
     25416 TIP3     1012     TIP3     OH2      OT      -0.834000       15.9994           0
     25417 TIP3     1012     TIP3     H1       HT       0.417000       1.00800           0
     25418 TIP3     1012     TIP3     H2       HT       0.417000       1.00800           0
     25419 TIP3     1013     TIP3     OH2      OT      -0.834000       15.9994           0
     25420 TIP3     1013     TIP3     H1       HT       0.417000       1.00800           0
     25421 TIP3     1013     TIP3     H2       HT       0.417000       1.00800           0
     25422 TIP3     1014     TIP3     OH2      OT      -0.834000       15.9994           0
     25423 TIP3     1014     TIP3     H1       HT       0.417000       1.00800           0
     25424 TIP3     1014     TIP3     H2       HT       0.417000       1.00800           0
     25425 TIP3     1015     TIP3     OH2      OT      -0.834000       15.9994           0
     25426 TIP3     1015     TIP3     H1       HT       0.417000       1.00800           0
     25427 TIP3     1015     TIP3     H2       HT       0.417000       1.00800           0
     25428 TIP3     1016     TIP3     OH2      OT      -0.834000       15.9994           0
     25429 TIP3     1016     TIP3     H1       HT       0.417000       1.00800           0
     25430 TIP3     1016     TIP3     H2       HT       0.417000       1.00800           0
     25431 TIP3     1017     TIP3     OH2      OT      -0.834000       15.9994           0
     25432 TIP3     1017     TIP3     H1       HT       0.417000       1.00800           0
     25433 TIP3     1017     TIP3     H2       HT       0.417000       1.00800           0
     25434 TIP3     1018     TIP3     OH2      OT      -0.834000       15.9994           0
     25435 TIP3     1018     TIP3     H1       HT       0.417000       1.00800           0
     25436 TIP3     1018     TIP3     H2       HT       0.417000       1.00800           0
     25437 TIP3     1019     TIP3     OH2      OT      -0.834000       15.9994           0
     25438 TIP3     1019     TIP3     H1       HT       0.417000       1.00800           0
     25439 TIP3     1019     TIP3     H2       HT       0.417000       1.00800           0
     25440 TIP3     1020     TIP3     OH2      OT      -0.834000       15.9994           0
     25441 TIP3     1020     TIP3     H1       HT       0.417000       1.00800           0
     25442 TIP3     1020     TIP3     H2       HT       0.417000       1.00800           0
     25443 TIP3     1021     TIP3     OH2      OT      -0.834000       15.9994           0
     25444 TIP3     1021     TIP3     H1       HT       0.417000       1.00800           0
     25445 TIP3     1021     TIP3     H2       HT       0.417000       1.00800           0
     25446 TIP3     1022     TIP3     OH2      OT      -0.834000       15.9994           0
     25447 TIP3     1022     TIP3     H1       HT       0.417000       1.00800           0
     25448 TIP3     1022     TIP3     H2       HT       0.417000       1.00800           0
     25449 TIP3     1023     TIP3     OH2      OT      -0.834000       15.9994           0
     25450 TIP3     1023     TIP3     H1       HT       0.417000       1.00800           0
     25451 TIP3     1023     TIP3     H2       HT       0.417000       1.00800           0
     25452 TIP3     1024     TIP3     OH2      OT      -0.834000       15.9994           0
     25453 TIP3     1024     TIP3     H1       HT       0.417000       1.00800           0
     25454 TIP3     1024     TIP3     H2       HT       0.417000       1.00800           0
     25455 TIP3     1025     TIP3     OH2      OT      -0.834000       15.9994           0
     25456 TIP3     1025     TIP3     H1       HT       0.417000       1.00800           0
     25457 TIP3     1025     TIP3     H2       HT       0.417000       1.00800           0
     25458 TIP3     1026     TIP3     OH2      OT      -0.834000       15.9994           0
     25459 TIP3     1026     TIP3     H1       HT       0.417000       1.00800           0
     25460 TIP3     1026     TIP3     H2       HT       0.417000       1.00800           0
     25461 TIP3     1027     TIP3     OH2      OT      -0.834000       15.9994           0
     25462 TIP3     1027     TIP3     H1       HT       0.417000       1.00800           0
     25463 TIP3     1027     TIP3     H2       HT       0.417000       1.00800           0
     25464 TIP3     1028     TIP3     OH2      OT      -0.834000       15.9994           0
     25465 TIP3     1028     TIP3     H1       HT       0.417000       1.00800           0
     25466 TIP3     1028     TIP3     H2       HT       0.417000       1.00800           0
     25467 TIP3     1029     TIP3     OH2      OT      -0.834000       15.9994           0
     25468 TIP3     1029     TIP3     H1       HT       0.417000       1.00800           0
     25469 TIP3     1029     TIP3     H2       HT       0.417000       1.00800           0
     25470 TIP3     1030     TIP3     OH2      OT      -0.834000       15.9994           0
     25471 TIP3     1030     TIP3     H1       HT       0.417000       1.00800           0
     25472 TIP3     1030     TIP3     H2       HT       0.417000       1.00800           0
     25473 TIP3     1031     TIP3     OH2      OT      -0.834000       15.9994           0
     25474 TIP3     1031     TIP3     H1       HT       0.417000       1.00800           0
     25475 TIP3     1031     TIP3     H2       HT       0.417000       1.00800           0
     25476 TIP3     1032     TIP3     OH2      OT      -0.834000       15.9994           0
     25477 TIP3     1032     TIP3     H1       HT       0.417000       1.00800           0
     25478 TIP3     1032     TIP3     H2       HT       0.417000       1.00800           0
     25479 TIP3     1033     TIP3     OH2      OT      -0.834000       15.9994           0
     25480 TIP3     1033     TIP3     H1       HT       0.417000       1.00800           0
     25481 TIP3     1033     TIP3     H2       HT       0.417000       1.00800           0
     25482 TIP3     1034     TIP3     OH2      OT      -0.834000       15.9994           0
     25483 TIP3     1034     TIP3     H1       HT       0.417000       1.00800           0
     25484 TIP3     1034     TIP3     H2       HT       0.417000       1.00800           0
     25485 TIP3     1035     TIP3     OH2      OT      -0.834000       15.9994           0
     25486 TIP3     1035     TIP3     H1       HT       0.417000       1.00800           0
     25487 TIP3     1035     TIP3     H2       HT       0.417000       1.00800           0
     25488 TIP3     1036     TIP3     OH2      OT      -0.834000       15.9994           0
     25489 TIP3     1036     TIP3     H1       HT       0.417000       1.00800           0
     25490 TIP3     1036     TIP3     H2       HT       0.417000       1.00800           0
     25491 TIP3     1037     TIP3     OH2      OT      -0.834000       15.9994           0
     25492 TIP3     1037     TIP3     H1       HT       0.417000       1.00800           0
     25493 TIP3     1037     TIP3     H2       HT       0.417000       1.00800           0
     25494 TIP3     1038     TIP3     OH2      OT      -0.834000       15.9994           0
     25495 TIP3     1038     TIP3     H1       HT       0.417000       1.00800           0
     25496 TIP3     1038     TIP3     H2       HT       0.417000       1.00800           0
     25497 TIP3     1039     TIP3     OH2      OT      -0.834000       15.9994           0
     25498 TIP3     1039     TIP3     H1       HT       0.417000       1.00800           0
     25499 TIP3     1039     TIP3     H2       HT       0.417000       1.00800           0
     25500 TIP3     1040     TIP3     OH2      OT      -0.834000       15.9994           0
     25501 TIP3     1040     TIP3     H1       HT       0.417000       1.00800           0
     25502 TIP3     1040     TIP3     H2       HT       0.417000       1.00800           0
     25503 TIP3     1041     TIP3     OH2      OT      -0.834000       15.9994           0
     25504 TIP3     1041     TIP3     H1       HT       0.417000       1.00800           0
     25505 TIP3     1041     TIP3     H2       HT       0.417000       1.00800           0
     25506 TIP3     1042     TIP3     OH2      OT      -0.834000       15.9994           0
     25507 TIP3     1042     TIP3     H1       HT       0.417000       1.00800           0
     25508 TIP3     1042     TIP3     H2       HT       0.417000       1.00800           0
     25509 TIP3     1043     TIP3     OH2      OT      -0.834000       15.9994           0
     25510 TIP3     1043     TIP3     H1       HT       0.417000       1.00800           0
     25511 TIP3     1043     TIP3     H2       HT       0.417000       1.00800           0
     25512 TIP3     1044     TIP3     OH2      OT      -0.834000       15.9994           0
     25513 TIP3     1044     TIP3     H1       HT       0.417000       1.00800           0
     25514 TIP3     1044     TIP3     H2       HT       0.417000       1.00800           0
     25515 TIP3     1045     TIP3     OH2      OT      -0.834000       15.9994           0
     25516 TIP3     1045     TIP3     H1       HT       0.417000       1.00800           0
     25517 TIP3     1045     TIP3     H2       HT       0.417000       1.00800           0
     25518 TIP3     1046     TIP3     OH2      OT      -0.834000       15.9994           0
     25519 TIP3     1046     TIP3     H1       HT       0.417000       1.00800           0
     25520 TIP3     1046     TIP3     H2       HT       0.417000       1.00800           0
     25521 TIP3     1047     TIP3     OH2      OT      -0.834000       15.9994           0
     25522 TIP3     1047     TIP3     H1       HT       0.417000       1.00800           0
     25523 TIP3     1047     TIP3     H2       HT       0.417000       1.00800           0
     25524 TIP3     1048     TIP3     OH2      OT      -0.834000       15.9994           0
     25525 TIP3     1048     TIP3     H1       HT       0.417000       1.00800           0
     25526 TIP3     1048     TIP3     H2       HT       0.417000       1.00800           0
     25527 TIP3     1049     TIP3     OH2      OT      -0.834000       15.9994           0
     25528 TIP3     1049     TIP3     H1       HT       0.417000       1.00800           0
     25529 TIP3     1049     TIP3     H2       HT       0.417000       1.00800           0
     25530 TIP3     1050     TIP3     OH2      OT      -0.834000       15.9994           0
     25531 TIP3     1050     TIP3     H1       HT       0.417000       1.00800           0
     25532 TIP3     1050     TIP3     H2       HT       0.417000       1.00800           0
     25533 TIP3     1051     TIP3     OH2      OT      -0.834000       15.9994           0
     25534 TIP3     1051     TIP3     H1       HT       0.417000       1.00800           0
     25535 TIP3     1051     TIP3     H2       HT       0.417000       1.00800           0
     25536 TIP3     1052     TIP3     OH2      OT      -0.834000       15.9994           0
     25537 TIP3     1052     TIP3     H1       HT       0.417000       1.00800           0
     25538 TIP3     1052     TIP3     H2       HT       0.417000       1.00800           0
     25539 TIP3     1053     TIP3     OH2      OT      -0.834000       15.9994           0
     25540 TIP3     1053     TIP3     H1       HT       0.417000       1.00800           0
     25541 TIP3     1053     TIP3     H2       HT       0.417000       1.00800           0
     25542 TIP3     1054     TIP3     OH2      OT      -0.834000       15.9994           0
     25543 TIP3     1054     TIP3     H1       HT       0.417000       1.00800           0
     25544 TIP3     1054     TIP3     H2       HT       0.417000       1.00800           0
     25545 TIP3     1055     TIP3     OH2      OT      -0.834000       15.9994           0
     25546 TIP3     1055     TIP3     H1       HT       0.417000       1.00800           0
     25547 TIP3     1055     TIP3     H2       HT       0.417000       1.00800           0
     25548 TIP3     1056     TIP3     OH2      OT      -0.834000       15.9994           0
     25549 TIP3     1056     TIP3     H1       HT       0.417000       1.00800           0
     25550 TIP3     1056     TIP3     H2       HT       0.417000       1.00800           0
     25551 TIP3     1057     TIP3     OH2      OT      -0.834000       15.9994           0
     25552 TIP3     1057     TIP3     H1       HT       0.417000       1.00800           0
     25553 TIP3     1057     TIP3     H2       HT       0.417000       1.00800           0
     25554 TIP3     1058     TIP3     OH2      OT      -0.834000       15.9994           0
     25555 TIP3     1058     TIP3     H1       HT       0.417000       1.00800           0
     25556 TIP3     1058     TIP3     H2       HT       0.417000       1.00800           0
     25557 TIP3     1059     TIP3     OH2      OT      -0.834000       15.9994           0
     25558 TIP3     1059     TIP3     H1       HT       0.417000       1.00800           0
     25559 TIP3     1059     TIP3     H2       HT       0.417000       1.00800           0
     25560 TIP3     1060     TIP3     OH2      OT      -0.834000       15.9994           0
     25561 TIP3     1060     TIP3     H1       HT       0.417000       1.00800           0
     25562 TIP3     1060     TIP3     H2       HT       0.417000       1.00800           0
     25563 TIP3     1061     TIP3     OH2      OT      -0.834000       15.9994           0
     25564 TIP3     1061     TIP3     H1       HT       0.417000       1.00800           0
     25565 TIP3     1061     TIP3     H2       HT       0.417000       1.00800           0
     25566 TIP3     1062     TIP3     OH2      OT      -0.834000       15.9994           0
     25567 TIP3     1062     TIP3     H1       HT       0.417000       1.00800           0
     25568 TIP3     1062     TIP3     H2       HT       0.417000       1.00800           0
     25569 TIP3     1063     TIP3     OH2      OT      -0.834000       15.9994           0
     25570 TIP3     1063     TIP3     H1       HT       0.417000       1.00800           0
     25571 TIP3     1063     TIP3     H2       HT       0.417000       1.00800           0
     25572 TIP3     1064     TIP3     OH2      OT      -0.834000       15.9994           0
     25573 TIP3     1064     TIP3     H1       HT       0.417000       1.00800           0
     25574 TIP3     1064     TIP3     H2       HT       0.417000       1.00800           0
     25575 TIP3     1065     TIP3     OH2      OT      -0.834000       15.9994           0
     25576 TIP3     1065     TIP3     H1       HT       0.417000       1.00800           0
     25577 TIP3     1065     TIP3     H2       HT       0.417000       1.00800           0
     25578 TIP3     1066     TIP3     OH2      OT      -0.834000       15.9994           0
     25579 TIP3     1066     TIP3     H1       HT       0.417000       1.00800           0
     25580 TIP3     1066     TIP3     H2       HT       0.417000       1.00800           0
     25581 TIP3     1067     TIP3     OH2      OT      -0.834000       15.9994           0
     25582 TIP3     1067     TIP3     H1       HT       0.417000       1.00800           0
     25583 TIP3     1067     TIP3     H2       HT       0.417000       1.00800           0
     25584 TIP3     1068     TIP3     OH2      OT      -0.834000       15.9994           0
     25585 TIP3     1068     TIP3     H1       HT       0.417000       1.00800           0
     25586 TIP3     1068     TIP3     H2       HT       0.417000       1.00800           0
     25587 TIP3     1069     TIP3     OH2      OT      -0.834000       15.9994           0
     25588 TIP3     1069     TIP3     H1       HT       0.417000       1.00800           0
     25589 TIP3     1069     TIP3     H2       HT       0.417000       1.00800           0
     25590 TIP3     1070     TIP3     OH2      OT      -0.834000       15.9994           0
     25591 TIP3     1070     TIP3     H1       HT       0.417000       1.00800           0
     25592 TIP3     1070     TIP3     H2       HT       0.417000       1.00800           0
     25593 TIP3     1071     TIP3     OH2      OT      -0.834000       15.9994           0
     25594 TIP3     1071     TIP3     H1       HT       0.417000       1.00800           0
     25595 TIP3     1071     TIP3     H2       HT       0.417000       1.00800           0
     25596 TIP3     1072     TIP3     OH2      OT      -0.834000       15.9994           0
     25597 TIP3     1072     TIP3     H1       HT       0.417000       1.00800           0
     25598 TIP3     1072     TIP3     H2       HT       0.417000       1.00800           0
     25599 TIP3     1073     TIP3     OH2      OT      -0.834000       15.9994           0
     25600 TIP3     1073     TIP3     H1       HT       0.417000       1.00800           0
     25601 TIP3     1073     TIP3     H2       HT       0.417000       1.00800           0
     25602 TIP3     1074     TIP3     OH2      OT      -0.834000       15.9994           0
     25603 TIP3     1074     TIP3     H1       HT       0.417000       1.00800           0
     25604 TIP3     1074     TIP3     H2       HT       0.417000       1.00800           0
     25605 TIP3     1075     TIP3     OH2      OT      -0.834000       15.9994           0
     25606 TIP3     1075     TIP3     H1       HT       0.417000       1.00800           0
     25607 TIP3     1075     TIP3     H2       HT       0.417000       1.00800           0
     25608 TIP3     1076     TIP3     OH2      OT      -0.834000       15.9994           0
     25609 TIP3     1076     TIP3     H1       HT       0.417000       1.00800           0
     25610 TIP3     1076     TIP3     H2       HT       0.417000       1.00800           0
     25611 TIP3     1077     TIP3     OH2      OT      -0.834000       15.9994           0
     25612 TIP3     1077     TIP3     H1       HT       0.417000       1.00800           0
     25613 TIP3     1077     TIP3     H2       HT       0.417000       1.00800           0
     25614 TIP3     1078     TIP3     OH2      OT      -0.834000       15.9994           0
     25615 TIP3     1078     TIP3     H1       HT       0.417000       1.00800           0
     25616 TIP3     1078     TIP3     H2       HT       0.417000       1.00800           0
     25617 TIP3     1079     TIP3     OH2      OT      -0.834000       15.9994           0
     25618 TIP3     1079     TIP3     H1       HT       0.417000       1.00800           0
     25619 TIP3     1079     TIP3     H2       HT       0.417000       1.00800           0
     25620 TIP3     1080     TIP3     OH2      OT      -0.834000       15.9994           0
     25621 TIP3     1080     TIP3     H1       HT       0.417000       1.00800           0
     25622 TIP3     1080     TIP3     H2       HT       0.417000       1.00800           0
     25623 TIP3     1081     TIP3     OH2      OT      -0.834000       15.9994           0
     25624 TIP3     1081     TIP3     H1       HT       0.417000       1.00800           0
     25625 TIP3     1081     TIP3     H2       HT       0.417000       1.00800           0
     25626 TIP3     1082     TIP3     OH2      OT      -0.834000       15.9994           0
     25627 TIP3     1082     TIP3     H1       HT       0.417000       1.00800           0
     25628 TIP3     1082     TIP3     H2       HT       0.417000       1.00800           0
     25629 TIP3     1083     TIP3     OH2      OT      -0.834000       15.9994           0
     25630 TIP3     1083     TIP3     H1       HT       0.417000       1.00800           0
     25631 TIP3     1083     TIP3     H2       HT       0.417000       1.00800           0
     25632 TIP3     1084     TIP3     OH2      OT      -0.834000       15.9994           0
     25633 TIP3     1084     TIP3     H1       HT       0.417000       1.00800           0
     25634 TIP3     1084     TIP3     H2       HT       0.417000       1.00800           0
     25635 TIP3     1085     TIP3     OH2      OT      -0.834000       15.9994           0
     25636 TIP3     1085     TIP3     H1       HT       0.417000       1.00800           0
     25637 TIP3     1085     TIP3     H2       HT       0.417000       1.00800           0
     25638 TIP3     1086     TIP3     OH2      OT      -0.834000       15.9994           0
     25639 TIP3     1086     TIP3     H1       HT       0.417000       1.00800           0
     25640 TIP3     1086     TIP3     H2       HT       0.417000       1.00800           0
     25641 TIP3     1087     TIP3     OH2      OT      -0.834000       15.9994           0
     25642 TIP3     1087     TIP3     H1       HT       0.417000       1.00800           0
     25643 TIP3     1087     TIP3     H2       HT       0.417000       1.00800           0
     25644 TIP3     1088     TIP3     OH2      OT      -0.834000       15.9994           0
     25645 TIP3     1088     TIP3     H1       HT       0.417000       1.00800           0
     25646 TIP3     1088     TIP3     H2       HT       0.417000       1.00800           0
     25647 TIP3     1089     TIP3     OH2      OT      -0.834000       15.9994           0
     25648 TIP3     1089     TIP3     H1       HT       0.417000       1.00800           0
     25649 TIP3     1089     TIP3     H2       HT       0.417000       1.00800           0
     25650 TIP3     1090     TIP3     OH2      OT      -0.834000       15.9994           0
     25651 TIP3     1090     TIP3     H1       HT       0.417000       1.00800           0
     25652 TIP3     1090     TIP3     H2       HT       0.417000       1.00800           0
     25653 TIP3     1091     TIP3     OH2      OT      -0.834000       15.9994           0
     25654 TIP3     1091     TIP3     H1       HT       0.417000       1.00800           0
     25655 TIP3     1091     TIP3     H2       HT       0.417000       1.00800           0
     25656 TIP3     1092     TIP3     OH2      OT      -0.834000       15.9994           0
     25657 TIP3     1092     TIP3     H1       HT       0.417000       1.00800           0
     25658 TIP3     1092     TIP3     H2       HT       0.417000       1.00800           0
     25659 TIP3     1093     TIP3     OH2      OT      -0.834000       15.9994           0
     25660 TIP3     1093     TIP3     H1       HT       0.417000       1.00800           0
     25661 TIP3     1093     TIP3     H2       HT       0.417000       1.00800           0
     25662 TIP3     1094     TIP3     OH2      OT      -0.834000       15.9994           0
     25663 TIP3     1094     TIP3     H1       HT       0.417000       1.00800           0
     25664 TIP3     1094     TIP3     H2       HT       0.417000       1.00800           0
     25665 TIP3     1095     TIP3     OH2      OT      -0.834000       15.9994           0
     25666 TIP3     1095     TIP3     H1       HT       0.417000       1.00800           0
     25667 TIP3     1095     TIP3     H2       HT       0.417000       1.00800           0
     25668 TIP3     1096     TIP3     OH2      OT      -0.834000       15.9994           0
     25669 TIP3     1096     TIP3     H1       HT       0.417000       1.00800           0
     25670 TIP3     1096     TIP3     H2       HT       0.417000       1.00800           0
     25671 TIP3     1097     TIP3     OH2      OT      -0.834000       15.9994           0
     25672 TIP3     1097     TIP3     H1       HT       0.417000       1.00800           0
     25673 TIP3     1097     TIP3     H2       HT       0.417000       1.00800           0
     25674 TIP3     1098     TIP3     OH2      OT      -0.834000       15.9994           0
     25675 TIP3     1098     TIP3     H1       HT       0.417000       1.00800           0
     25676 TIP3     1098     TIP3     H2       HT       0.417000       1.00800           0
     25677 TIP3     1099     TIP3     OH2      OT      -0.834000       15.9994           0
     25678 TIP3     1099     TIP3     H1       HT       0.417000       1.00800           0
     25679 TIP3     1099     TIP3     H2       HT       0.417000       1.00800           0
     25680 TIP3     1100     TIP3     OH2      OT      -0.834000       15.9994           0
     25681 TIP3     1100     TIP3     H1       HT       0.417000       1.00800           0
     25682 TIP3     1100     TIP3     H2       HT       0.417000       1.00800           0
     25683 TIP3     1101     TIP3     OH2      OT      -0.834000       15.9994           0
     25684 TIP3     1101     TIP3     H1       HT       0.417000       1.00800           0
     25685 TIP3     1101     TIP3     H2       HT       0.417000       1.00800           0
     25686 TIP3     1102     TIP3     OH2      OT      -0.834000       15.9994           0
     25687 TIP3     1102     TIP3     H1       HT       0.417000       1.00800           0
     25688 TIP3     1102     TIP3     H2       HT       0.417000       1.00800           0
     25689 TIP3     1103     TIP3     OH2      OT      -0.834000       15.9994           0
     25690 TIP3     1103     TIP3     H1       HT       0.417000       1.00800           0
     25691 TIP3     1103     TIP3     H2       HT       0.417000       1.00800           0
     25692 TIP3     1104     TIP3     OH2      OT      -0.834000       15.9994           0
     25693 TIP3     1104     TIP3     H1       HT       0.417000       1.00800           0
     25694 TIP3     1104     TIP3     H2       HT       0.417000       1.00800           0
     25695 TIP3     1105     TIP3     OH2      OT      -0.834000       15.9994           0
     25696 TIP3     1105     TIP3     H1       HT       0.417000       1.00800           0
     25697 TIP3     1105     TIP3     H2       HT       0.417000       1.00800           0
     25698 TIP3     1106     TIP3     OH2      OT      -0.834000       15.9994           0
     25699 TIP3     1106     TIP3     H1       HT       0.417000       1.00800           0
     25700 TIP3     1106     TIP3     H2       HT       0.417000       1.00800           0
     25701 TIP3     1107     TIP3     OH2      OT      -0.834000       15.9994           0
     25702 TIP3     1107     TIP3     H1       HT       0.417000       1.00800           0
     25703 TIP3     1107     TIP3     H2       HT       0.417000       1.00800           0
     25704 TIP3     1108     TIP3     OH2      OT      -0.834000       15.9994           0
     25705 TIP3     1108     TIP3     H1       HT       0.417000       1.00800           0
     25706 TIP3     1108     TIP3     H2       HT       0.417000       1.00800           0
     25707 TIP3     1109     TIP3     OH2      OT      -0.834000       15.9994           0
     25708 TIP3     1109     TIP3     H1       HT       0.417000       1.00800           0
     25709 TIP3     1109     TIP3     H2       HT       0.417000       1.00800           0
     25710 TIP3     1110     TIP3     OH2      OT      -0.834000       15.9994           0
     25711 TIP3     1110     TIP3     H1       HT       0.417000       1.00800           0
     25712 TIP3     1110     TIP3     H2       HT       0.417000       1.00800           0
     25713 TIP3     1111     TIP3     OH2      OT      -0.834000       15.9994           0
     25714 TIP3     1111     TIP3     H1       HT       0.417000       1.00800           0
     25715 TIP3     1111     TIP3     H2       HT       0.417000       1.00800           0
     25716 TIP3     1112     TIP3     OH2      OT      -0.834000       15.9994           0
     25717 TIP3     1112     TIP3     H1       HT       0.417000       1.00800           0
     25718 TIP3     1112     TIP3     H2       HT       0.417000       1.00800           0
     25719 TIP3     1113     TIP3     OH2      OT      -0.834000       15.9994           0
     25720 TIP3     1113     TIP3     H1       HT       0.417000       1.00800           0
     25721 TIP3     1113     TIP3     H2       HT       0.417000       1.00800           0
     25722 TIP3     1114     TIP3     OH2      OT      -0.834000       15.9994           0
     25723 TIP3     1114     TIP3     H1       HT       0.417000       1.00800           0
     25724 TIP3     1114     TIP3     H2       HT       0.417000       1.00800           0
     25725 TIP3     1115     TIP3     OH2      OT      -0.834000       15.9994           0
     25726 TIP3     1115     TIP3     H1       HT       0.417000       1.00800           0
     25727 TIP3     1115     TIP3     H2       HT       0.417000       1.00800           0
     25728 TIP3     1116     TIP3     OH2      OT      -0.834000       15.9994           0
     25729 TIP3     1116     TIP3     H1       HT       0.417000       1.00800           0
     25730 TIP3     1116     TIP3     H2       HT       0.417000       1.00800           0
     25731 TIP3     1117     TIP3     OH2      OT      -0.834000       15.9994           0
     25732 TIP3     1117     TIP3     H1       HT       0.417000       1.00800           0
     25733 TIP3     1117     TIP3     H2       HT       0.417000       1.00800           0
     25734 TIP3     1118     TIP3     OH2      OT      -0.834000       15.9994           0
     25735 TIP3     1118     TIP3     H1       HT       0.417000       1.00800           0
     25736 TIP3     1118     TIP3     H2       HT       0.417000       1.00800           0
     25737 TIP3     1119     TIP3     OH2      OT      -0.834000       15.9994           0
     25738 TIP3     1119     TIP3     H1       HT       0.417000       1.00800           0
     25739 TIP3     1119     TIP3     H2       HT       0.417000       1.00800           0
     25740 TIP3     1120     TIP3     OH2      OT      -0.834000       15.9994           0
     25741 TIP3     1120     TIP3     H1       HT       0.417000       1.00800           0
     25742 TIP3     1120     TIP3     H2       HT       0.417000       1.00800           0
     25743 TIP3     1121     TIP3     OH2      OT      -0.834000       15.9994           0
     25744 TIP3     1121     TIP3     H1       HT       0.417000       1.00800           0
     25745 TIP3     1121     TIP3     H2       HT       0.417000       1.00800           0
     25746 TIP3     1122     TIP3     OH2      OT      -0.834000       15.9994           0
     25747 TIP3     1122     TIP3     H1       HT       0.417000       1.00800           0
     25748 TIP3     1122     TIP3     H2       HT       0.417000       1.00800           0
     25749 TIP3     1123     TIP3     OH2      OT      -0.834000       15.9994           0
     25750 TIP3     1123     TIP3     H1       HT       0.417000       1.00800           0
     25751 TIP3     1123     TIP3     H2       HT       0.417000       1.00800           0
     25752 TIP3     1124     TIP3     OH2      OT      -0.834000       15.9994           0
     25753 TIP3     1124     TIP3     H1       HT       0.417000       1.00800           0
     25754 TIP3     1124     TIP3     H2       HT       0.417000       1.00800           0
     25755 TIP3     1125     TIP3     OH2      OT      -0.834000       15.9994           0
     25756 TIP3     1125     TIP3     H1       HT       0.417000       1.00800           0
     25757 TIP3     1125     TIP3     H2       HT       0.417000       1.00800           0
     25758 TIP3     1126     TIP3     OH2      OT      -0.834000       15.9994           0
     25759 TIP3     1126     TIP3     H1       HT       0.417000       1.00800           0
     25760 TIP3     1126     TIP3     H2       HT       0.417000       1.00800           0
     25761 TIP3     1127     TIP3     OH2      OT      -0.834000       15.9994           0
     25762 TIP3     1127     TIP3     H1       HT       0.417000       1.00800           0
     25763 TIP3     1127     TIP3     H2       HT       0.417000       1.00800           0
     25764 TIP3     1128     TIP3     OH2      OT      -0.834000       15.9994           0
     25765 TIP3     1128     TIP3     H1       HT       0.417000       1.00800           0
     25766 TIP3     1128     TIP3     H2       HT       0.417000       1.00800           0
     25767 TIP3     1129     TIP3     OH2      OT      -0.834000       15.9994           0
     25768 TIP3     1129     TIP3     H1       HT       0.417000       1.00800           0
     25769 TIP3     1129     TIP3     H2       HT       0.417000       1.00800           0
     25770 TIP3     1130     TIP3     OH2      OT      -0.834000       15.9994           0
     25771 TIP3     1130     TIP3     H1       HT       0.417000       1.00800           0
     25772 TIP3     1130     TIP3     H2       HT       0.417000       1.00800           0
     25773 TIP3     1131     TIP3     OH2      OT      -0.834000       15.9994           0
     25774 TIP3     1131     TIP3     H1       HT       0.417000       1.00800           0
     25775 TIP3     1131     TIP3     H2       HT       0.417000       1.00800           0
     25776 TIP3     1132     TIP3     OH2      OT      -0.834000       15.9994           0
     25777 TIP3     1132     TIP3     H1       HT       0.417000       1.00800           0
     25778 TIP3     1132     TIP3     H2       HT       0.417000       1.00800           0
     25779 TIP3     1133     TIP3     OH2      OT      -0.834000       15.9994           0
     25780 TIP3     1133     TIP3     H1       HT       0.417000       1.00800           0
     25781 TIP3     1133     TIP3     H2       HT       0.417000       1.00800           0
     25782 TIP3     1134     TIP3     OH2      OT      -0.834000       15.9994           0
     25783 TIP3     1134     TIP3     H1       HT       0.417000       1.00800           0
     25784 TIP3     1134     TIP3     H2       HT       0.417000       1.00800           0
     25785 TIP3     1135     TIP3     OH2      OT      -0.834000       15.9994           0
     25786 TIP3     1135     TIP3     H1       HT       0.417000       1.00800           0
     25787 TIP3     1135     TIP3     H2       HT       0.417000       1.00800           0
     25788 TIP3     1136     TIP3     OH2      OT      -0.834000       15.9994           0
     25789 TIP3     1136     TIP3     H1       HT       0.417000       1.00800           0
     25790 TIP3     1136     TIP3     H2       HT       0.417000       1.00800           0
     25791 TIP3     1137     TIP3     OH2      OT      -0.834000       15.9994           0
     25792 TIP3     1137     TIP3     H1       HT       0.417000       1.00800           0
     25793 TIP3     1137     TIP3     H2       HT       0.417000       1.00800           0
     25794 TIP3     1138     TIP3     OH2      OT      -0.834000       15.9994           0
     25795 TIP3     1138     TIP3     H1       HT       0.417000       1.00800           0
     25796 TIP3     1138     TIP3     H2       HT       0.417000       1.00800           0
     25797 TIP3     1139     TIP3     OH2      OT      -0.834000       15.9994           0
     25798 TIP3     1139     TIP3     H1       HT       0.417000       1.00800           0
     25799 TIP3     1139     TIP3     H2       HT       0.417000       1.00800           0
     25800 TIP3     1140     TIP3     OH2      OT      -0.834000       15.9994           0
     25801 TIP3     1140     TIP3     H1       HT       0.417000       1.00800           0
     25802 TIP3     1140     TIP3     H2       HT       0.417000       1.00800           0
     25803 TIP3     1141     TIP3     OH2      OT      -0.834000       15.9994           0
     25804 TIP3     1141     TIP3     H1       HT       0.417000       1.00800           0
     25805 TIP3     1141     TIP3     H2       HT       0.417000       1.00800           0
     25806 TIP3     1142     TIP3     OH2      OT      -0.834000       15.9994           0
     25807 TIP3     1142     TIP3     H1       HT       0.417000       1.00800           0
     25808 TIP3     1142     TIP3     H2       HT       0.417000       1.00800           0
     25809 TIP3     1143     TIP3     OH2      OT      -0.834000       15.9994           0
     25810 TIP3     1143     TIP3     H1       HT       0.417000       1.00800           0
     25811 TIP3     1143     TIP3     H2       HT       0.417000       1.00800           0
     25812 TIP3     1144     TIP3     OH2      OT      -0.834000       15.9994           0
     25813 TIP3     1144     TIP3     H1       HT       0.417000       1.00800           0
     25814 TIP3     1144     TIP3     H2       HT       0.417000       1.00800           0
     25815 TIP3     1145     TIP3     OH2      OT      -0.834000       15.9994           0
     25816 TIP3     1145     TIP3     H1       HT       0.417000       1.00800           0
     25817 TIP3     1145     TIP3     H2       HT       0.417000       1.00800           0
     25818 TIP3     1146     TIP3     OH2      OT      -0.834000       15.9994           0
     25819 TIP3     1146     TIP3     H1       HT       0.417000       1.00800           0
     25820 TIP3     1146     TIP3     H2       HT       0.417000       1.00800           0
     25821 TIP3     1147     TIP3     OH2      OT      -0.834000       15.9994           0
     25822 TIP3     1147     TIP3     H1       HT       0.417000       1.00800           0
     25823 TIP3     1147     TIP3     H2       HT       0.417000       1.00800           0
     25824 TIP3     1148     TIP3     OH2      OT      -0.834000       15.9994           0
     25825 TIP3     1148     TIP3     H1       HT       0.417000       1.00800           0
     25826 TIP3     1148     TIP3     H2       HT       0.417000       1.00800           0
     25827 TIP3     1149     TIP3     OH2      OT      -0.834000       15.9994           0
     25828 TIP3     1149     TIP3     H1       HT       0.417000       1.00800           0
     25829 TIP3     1149     TIP3     H2       HT       0.417000       1.00800           0
     25830 TIP3     1150     TIP3     OH2      OT      -0.834000       15.9994           0
     25831 TIP3     1150     TIP3     H1       HT       0.417000       1.00800           0
     25832 TIP3     1150     TIP3     H2       HT       0.417000       1.00800           0
     25833 TIP3     1151     TIP3     OH2      OT      -0.834000       15.9994           0
     25834 TIP3     1151     TIP3     H1       HT       0.417000       1.00800           0
     25835 TIP3     1151     TIP3     H2       HT       0.417000       1.00800           0
     25836 TIP3     1152     TIP3     OH2      OT      -0.834000       15.9994           0
     25837 TIP3     1152     TIP3     H1       HT       0.417000       1.00800           0
     25838 TIP3     1152     TIP3     H2       HT       0.417000       1.00800           0
     25839 TIP3     1153     TIP3     OH2      OT      -0.834000       15.9994           0
     25840 TIP3     1153     TIP3     H1       HT       0.417000       1.00800           0
     25841 TIP3     1153     TIP3     H2       HT       0.417000       1.00800           0
     25842 TIP3     1154     TIP3     OH2      OT      -0.834000       15.9994           0
     25843 TIP3     1154     TIP3     H1       HT       0.417000       1.00800           0
     25844 TIP3     1154     TIP3     H2       HT       0.417000       1.00800           0
     25845 TIP3     1155     TIP3     OH2      OT      -0.834000       15.9994           0
     25846 TIP3     1155     TIP3     H1       HT       0.417000       1.00800           0
     25847 TIP3     1155     TIP3     H2       HT       0.417000       1.00800           0
     25848 TIP3     1156     TIP3     OH2      OT      -0.834000       15.9994           0
     25849 TIP3     1156     TIP3     H1       HT       0.417000       1.00800           0
     25850 TIP3     1156     TIP3     H2       HT       0.417000       1.00800           0
     25851 TIP3     1157     TIP3     OH2      OT      -0.834000       15.9994           0
     25852 TIP3     1157     TIP3     H1       HT       0.417000       1.00800           0
     25853 TIP3     1157     TIP3     H2       HT       0.417000       1.00800           0
     25854 TIP3     1158     TIP3     OH2      OT      -0.834000       15.9994           0
     25855 TIP3     1158     TIP3     H1       HT       0.417000       1.00800           0
     25856 TIP3     1158     TIP3     H2       HT       0.417000       1.00800           0
     25857 TIP3     1159     TIP3     OH2      OT      -0.834000       15.9994           0
     25858 TIP3     1159     TIP3     H1       HT       0.417000       1.00800           0
     25859 TIP3     1159     TIP3     H2       HT       0.417000       1.00800           0
     25860 TIP3     1160     TIP3     OH2      OT      -0.834000       15.9994           0
     25861 TIP3     1160     TIP3     H1       HT       0.417000       1.00800           0
     25862 TIP3     1160     TIP3     H2       HT       0.417000       1.00800           0
     25863 TIP3     1161     TIP3     OH2      OT      -0.834000       15.9994           0
     25864 TIP3     1161     TIP3     H1       HT       0.417000       1.00800           0
     25865 TIP3     1161     TIP3     H2       HT       0.417000       1.00800           0
     25866 TIP3     1162     TIP3     OH2      OT      -0.834000       15.9994           0
     25867 TIP3     1162     TIP3     H1       HT       0.417000       1.00800           0
     25868 TIP3     1162     TIP3     H2       HT       0.417000       1.00800           0
     25869 TIP3     1163     TIP3     OH2      OT      -0.834000       15.9994           0
     25870 TIP3     1163     TIP3     H1       HT       0.417000       1.00800           0
     25871 TIP3     1163     TIP3     H2       HT       0.417000       1.00800           0
     25872 TIP3     1164     TIP3     OH2      OT      -0.834000       15.9994           0
     25873 TIP3     1164     TIP3     H1       HT       0.417000       1.00800           0
     25874 TIP3     1164     TIP3     H2       HT       0.417000       1.00800           0
     25875 TIP3     1165     TIP3     OH2      OT      -0.834000       15.9994           0
     25876 TIP3     1165     TIP3     H1       HT       0.417000       1.00800           0
     25877 TIP3     1165     TIP3     H2       HT       0.417000       1.00800           0
     25878 TIP3     1166     TIP3     OH2      OT      -0.834000       15.9994           0
     25879 TIP3     1166     TIP3     H1       HT       0.417000       1.00800           0
     25880 TIP3     1166     TIP3     H2       HT       0.417000       1.00800           0
     25881 TIP3     1167     TIP3     OH2      OT      -0.834000       15.9994           0
     25882 TIP3     1167     TIP3     H1       HT       0.417000       1.00800           0
     25883 TIP3     1167     TIP3     H2       HT       0.417000       1.00800           0
     25884 TIP3     1168     TIP3     OH2      OT      -0.834000       15.9994           0
     25885 TIP3     1168     TIP3     H1       HT       0.417000       1.00800           0
     25886 TIP3     1168     TIP3     H2       HT       0.417000       1.00800           0
     25887 TIP3     1169     TIP3     OH2      OT      -0.834000       15.9994           0
     25888 TIP3     1169     TIP3     H1       HT       0.417000       1.00800           0
     25889 TIP3     1169     TIP3     H2       HT       0.417000       1.00800           0
     25890 TIP3     1170     TIP3     OH2      OT      -0.834000       15.9994           0
     25891 TIP3     1170     TIP3     H1       HT       0.417000       1.00800           0
     25892 TIP3     1170     TIP3     H2       HT       0.417000       1.00800           0
     25893 TIP3     1171     TIP3     OH2      OT      -0.834000       15.9994           0
     25894 TIP3     1171     TIP3     H1       HT       0.417000       1.00800           0
     25895 TIP3     1171     TIP3     H2       HT       0.417000       1.00800           0
     25896 TIP3     1172     TIP3     OH2      OT      -0.834000       15.9994           0
     25897 TIP3     1172     TIP3     H1       HT       0.417000       1.00800           0
     25898 TIP3     1172     TIP3     H2       HT       0.417000       1.00800           0
     25899 TIP3     1173     TIP3     OH2      OT      -0.834000       15.9994           0
     25900 TIP3     1173     TIP3     H1       HT       0.417000       1.00800           0
     25901 TIP3     1173     TIP3     H2       HT       0.417000       1.00800           0
     25902 TIP3     1174     TIP3     OH2      OT      -0.834000       15.9994           0
     25903 TIP3     1174     TIP3     H1       HT       0.417000       1.00800           0
     25904 TIP3     1174     TIP3     H2       HT       0.417000       1.00800           0
     25905 TIP3     1175     TIP3     OH2      OT      -0.834000       15.9994           0
     25906 TIP3     1175     TIP3     H1       HT       0.417000       1.00800           0
     25907 TIP3     1175     TIP3     H2       HT       0.417000       1.00800           0
     25908 TIP3     1176     TIP3     OH2      OT      -0.834000       15.9994           0
     25909 TIP3     1176     TIP3     H1       HT       0.417000       1.00800           0
     25910 TIP3     1176     TIP3     H2       HT       0.417000       1.00800           0
     25911 TIP3     1177     TIP3     OH2      OT      -0.834000       15.9994           0
     25912 TIP3     1177     TIP3     H1       HT       0.417000       1.00800           0
     25913 TIP3     1177     TIP3     H2       HT       0.417000       1.00800           0
     25914 TIP3     1178     TIP3     OH2      OT      -0.834000       15.9994           0
     25915 TIP3     1178     TIP3     H1       HT       0.417000       1.00800           0
     25916 TIP3     1178     TIP3     H2       HT       0.417000       1.00800           0
     25917 TIP3     1179     TIP3     OH2      OT      -0.834000       15.9994           0
     25918 TIP3     1179     TIP3     H1       HT       0.417000       1.00800           0
     25919 TIP3     1179     TIP3     H2       HT       0.417000       1.00800           0
     25920 TIP3     1180     TIP3     OH2      OT      -0.834000       15.9994           0
     25921 TIP3     1180     TIP3     H1       HT       0.417000       1.00800           0
     25922 TIP3     1180     TIP3     H2       HT       0.417000       1.00800           0
     25923 TIP3     1181     TIP3     OH2      OT      -0.834000       15.9994           0
     25924 TIP3     1181     TIP3     H1       HT       0.417000       1.00800           0
     25925 TIP3     1181     TIP3     H2       HT       0.417000       1.00800           0
     25926 TIP3     1182     TIP3     OH2      OT      -0.834000       15.9994           0
     25927 TIP3     1182     TIP3     H1       HT       0.417000       1.00800           0
     25928 TIP3     1182     TIP3     H2       HT       0.417000       1.00800           0
     25929 TIP3     1183     TIP3     OH2      OT      -0.834000       15.9994           0
     25930 TIP3     1183     TIP3     H1       HT       0.417000       1.00800           0
     25931 TIP3     1183     TIP3     H2       HT       0.417000       1.00800           0
     25932 TIP3     1184     TIP3     OH2      OT      -0.834000       15.9994           0
     25933 TIP3     1184     TIP3     H1       HT       0.417000       1.00800           0
     25934 TIP3     1184     TIP3     H2       HT       0.417000       1.00800           0
     25935 TIP3     1185     TIP3     OH2      OT      -0.834000       15.9994           0
     25936 TIP3     1185     TIP3     H1       HT       0.417000       1.00800           0
     25937 TIP3     1185     TIP3     H2       HT       0.417000       1.00800           0
     25938 TIP3     1186     TIP3     OH2      OT      -0.834000       15.9994           0
     25939 TIP3     1186     TIP3     H1       HT       0.417000       1.00800           0
     25940 TIP3     1186     TIP3     H2       HT       0.417000       1.00800           0
     25941 TIP3     1187     TIP3     OH2      OT      -0.834000       15.9994           0
     25942 TIP3     1187     TIP3     H1       HT       0.417000       1.00800           0
     25943 TIP3     1187     TIP3     H2       HT       0.417000       1.00800           0
     25944 TIP3     1188     TIP3     OH2      OT      -0.834000       15.9994           0
     25945 TIP3     1188     TIP3     H1       HT       0.417000       1.00800           0
     25946 TIP3     1188     TIP3     H2       HT       0.417000       1.00800           0
     25947 TIP3     1189     TIP3     OH2      OT      -0.834000       15.9994           0
     25948 TIP3     1189     TIP3     H1       HT       0.417000       1.00800           0
     25949 TIP3     1189     TIP3     H2       HT       0.417000       1.00800           0
     25950 TIP3     1190     TIP3     OH2      OT      -0.834000       15.9994           0
     25951 TIP3     1190     TIP3     H1       HT       0.417000       1.00800           0
     25952 TIP3     1190     TIP3     H2       HT       0.417000       1.00800           0
     25953 TIP3     1191     TIP3     OH2      OT      -0.834000       15.9994           0
     25954 TIP3     1191     TIP3     H1       HT       0.417000       1.00800           0
     25955 TIP3     1191     TIP3     H2       HT       0.417000       1.00800           0
     25956 TIP3     1192     TIP3     OH2      OT      -0.834000       15.9994           0
     25957 TIP3     1192     TIP3     H1       HT       0.417000       1.00800           0
     25958 TIP3     1192     TIP3     H2       HT       0.417000       1.00800           0
     25959 TIP3     1193     TIP3     OH2      OT      -0.834000       15.9994           0
     25960 TIP3     1193     TIP3     H1       HT       0.417000       1.00800           0
     25961 TIP3     1193     TIP3     H2       HT       0.417000       1.00800           0
     25962 TIP3     1194     TIP3     OH2      OT      -0.834000       15.9994           0
     25963 TIP3     1194     TIP3     H1       HT       0.417000       1.00800           0
     25964 TIP3     1194     TIP3     H2       HT       0.417000       1.00800           0
     25965 TIP3     1195     TIP3     OH2      OT      -0.834000       15.9994           0
     25966 TIP3     1195     TIP3     H1       HT       0.417000       1.00800           0
     25967 TIP3     1195     TIP3     H2       HT       0.417000       1.00800           0
     25968 TIP3     1196     TIP3     OH2      OT      -0.834000       15.9994           0
     25969 TIP3     1196     TIP3     H1       HT       0.417000       1.00800           0
     25970 TIP3     1196     TIP3     H2       HT       0.417000       1.00800           0
     25971 TIP3     1197     TIP3     OH2      OT      -0.834000       15.9994           0
     25972 TIP3     1197     TIP3     H1       HT       0.417000       1.00800           0
     25973 TIP3     1197     TIP3     H2       HT       0.417000       1.00800           0
     25974 TIP3     1198     TIP3     OH2      OT      -0.834000       15.9994           0
     25975 TIP3     1198     TIP3     H1       HT       0.417000       1.00800           0
     25976 TIP3     1198     TIP3     H2       HT       0.417000       1.00800           0
     25977 TIP3     1199     TIP3     OH2      OT      -0.834000       15.9994           0
     25978 TIP3     1199     TIP3     H1       HT       0.417000       1.00800           0
     25979 TIP3     1199     TIP3     H2       HT       0.417000       1.00800           0
     25980 TIP3     1200     TIP3     OH2      OT      -0.834000       15.9994           0
     25981 TIP3     1200     TIP3     H1       HT       0.417000       1.00800           0
     25982 TIP3     1200     TIP3     H2       HT       0.417000       1.00800           0
     25983 TIP3     1201     TIP3     OH2      OT      -0.834000       15.9994           0
     25984 TIP3     1201     TIP3     H1       HT       0.417000       1.00800           0
     25985 TIP3     1201     TIP3     H2       HT       0.417000       1.00800           0
     25986 TIP3     1202     TIP3     OH2      OT      -0.834000       15.9994           0
     25987 TIP3     1202     TIP3     H1       HT       0.417000       1.00800           0
     25988 TIP3     1202     TIP3     H2       HT       0.417000       1.00800           0
     25989 TIP3     1203     TIP3     OH2      OT      -0.834000       15.9994           0
     25990 TIP3     1203     TIP3     H1       HT       0.417000       1.00800           0
     25991 TIP3     1203     TIP3     H2       HT       0.417000       1.00800           0
     25992 TIP3     1204     TIP3     OH2      OT      -0.834000       15.9994           0
     25993 TIP3     1204     TIP3     H1       HT       0.417000       1.00800           0
     25994 TIP3     1204     TIP3     H2       HT       0.417000       1.00800           0
     25995 TIP3     1205     TIP3     OH2      OT      -0.834000       15.9994           0
     25996 TIP3     1205     TIP3     H1       HT       0.417000       1.00800           0
     25997 TIP3     1205     TIP3     H2       HT       0.417000       1.00800           0
     25998 TIP3     1206     TIP3     OH2      OT      -0.834000       15.9994           0
     25999 TIP3     1206     TIP3     H1       HT       0.417000       1.00800           0
     26000 TIP3     1206     TIP3     H2       HT       0.417000       1.00800           0
     26001 TIP3     1207     TIP3     OH2      OT      -0.834000       15.9994           0
     26002 TIP3     1207     TIP3     H1       HT       0.417000       1.00800           0
     26003 TIP3     1207     TIP3     H2       HT       0.417000       1.00800           0
     26004 TIP3     1208     TIP3     OH2      OT      -0.834000       15.9994           0
     26005 TIP3     1208     TIP3     H1       HT       0.417000       1.00800           0
     26006 TIP3     1208     TIP3     H2       HT       0.417000       1.00800           0
     26007 TIP3     1209     TIP3     OH2      OT      -0.834000       15.9994           0
     26008 TIP3     1209     TIP3     H1       HT       0.417000       1.00800           0
     26009 TIP3     1209     TIP3     H2       HT       0.417000       1.00800           0
     26010 TIP3     1210     TIP3     OH2      OT      -0.834000       15.9994           0
     26011 TIP3     1210     TIP3     H1       HT       0.417000       1.00800           0
     26012 TIP3     1210     TIP3     H2       HT       0.417000       1.00800           0
     26013 TIP3     1211     TIP3     OH2      OT      -0.834000       15.9994           0
     26014 TIP3     1211     TIP3     H1       HT       0.417000       1.00800           0
     26015 TIP3     1211     TIP3     H2       HT       0.417000       1.00800           0
     26016 TIP3     1212     TIP3     OH2      OT      -0.834000       15.9994           0
     26017 TIP3     1212     TIP3     H1       HT       0.417000       1.00800           0
     26018 TIP3     1212     TIP3     H2       HT       0.417000       1.00800           0
     26019 TIP3     1213     TIP3     OH2      OT      -0.834000       15.9994           0
     26020 TIP3     1213     TIP3     H1       HT       0.417000       1.00800           0
     26021 TIP3     1213     TIP3     H2       HT       0.417000       1.00800           0
     26022 TIP3     1214     TIP3     OH2      OT      -0.834000       15.9994           0
     26023 TIP3     1214     TIP3     H1       HT       0.417000       1.00800           0
     26024 TIP3     1214     TIP3     H2       HT       0.417000       1.00800           0
     26025 TIP3     1215     TIP3     OH2      OT      -0.834000       15.9994           0
     26026 TIP3     1215     TIP3     H1       HT       0.417000       1.00800           0
     26027 TIP3     1215     TIP3     H2       HT       0.417000       1.00800           0
     26028 TIP3     1216     TIP3     OH2      OT      -0.834000       15.9994           0
     26029 TIP3     1216     TIP3     H1       HT       0.417000       1.00800           0
     26030 TIP3     1216     TIP3     H2       HT       0.417000       1.00800           0
     26031 TIP3     1217     TIP3     OH2      OT      -0.834000       15.9994           0
     26032 TIP3     1217     TIP3     H1       HT       0.417000       1.00800           0
     26033 TIP3     1217     TIP3     H2       HT       0.417000       1.00800           0
     26034 TIP3     1218     TIP3     OH2      OT      -0.834000       15.9994           0
     26035 TIP3     1218     TIP3     H1       HT       0.417000       1.00800           0
     26036 TIP3     1218     TIP3     H2       HT       0.417000       1.00800           0
     26037 TIP3     1219     TIP3     OH2      OT      -0.834000       15.9994           0
     26038 TIP3     1219     TIP3     H1       HT       0.417000       1.00800           0
     26039 TIP3     1219     TIP3     H2       HT       0.417000       1.00800           0
     26040 TIP3     1220     TIP3     OH2      OT      -0.834000       15.9994           0
     26041 TIP3     1220     TIP3     H1       HT       0.417000       1.00800           0
     26042 TIP3     1220     TIP3     H2       HT       0.417000       1.00800           0
     26043 TIP3     1221     TIP3     OH2      OT      -0.834000       15.9994           0
     26044 TIP3     1221     TIP3     H1       HT       0.417000       1.00800           0
     26045 TIP3     1221     TIP3     H2       HT       0.417000       1.00800           0
     26046 TIP3     1222     TIP3     OH2      OT      -0.834000       15.9994           0
     26047 TIP3     1222     TIP3     H1       HT       0.417000       1.00800           0
     26048 TIP3     1222     TIP3     H2       HT       0.417000       1.00800           0
     26049 TIP3     1223     TIP3     OH2      OT      -0.834000       15.9994           0
     26050 TIP3     1223     TIP3     H1       HT       0.417000       1.00800           0
     26051 TIP3     1223     TIP3     H2       HT       0.417000       1.00800           0
     26052 TIP3     1224     TIP3     OH2      OT      -0.834000       15.9994           0
     26053 TIP3     1224     TIP3     H1       HT       0.417000       1.00800           0
     26054 TIP3     1224     TIP3     H2       HT       0.417000       1.00800           0
     26055 TIP3     1225     TIP3     OH2      OT      -0.834000       15.9994           0
     26056 TIP3     1225     TIP3     H1       HT       0.417000       1.00800           0
     26057 TIP3     1225     TIP3     H2       HT       0.417000       1.00800           0
     26058 TIP3     1226     TIP3     OH2      OT      -0.834000       15.9994           0
     26059 TIP3     1226     TIP3     H1       HT       0.417000       1.00800           0
     26060 TIP3     1226     TIP3     H2       HT       0.417000       1.00800           0
     26061 TIP3     1227     TIP3     OH2      OT      -0.834000       15.9994           0
     26062 TIP3     1227     TIP3     H1       HT       0.417000       1.00800           0
     26063 TIP3     1227     TIP3     H2       HT       0.417000       1.00800           0
     26064 TIP3     1228     TIP3     OH2      OT      -0.834000       15.9994           0
     26065 TIP3     1228     TIP3     H1       HT       0.417000       1.00800           0
     26066 TIP3     1228     TIP3     H2       HT       0.417000       1.00800           0
     26067 TIP3     1229     TIP3     OH2      OT      -0.834000       15.9994           0
     26068 TIP3     1229     TIP3     H1       HT       0.417000       1.00800           0
     26069 TIP3     1229     TIP3     H2       HT       0.417000       1.00800           0
     26070 TIP3     1230     TIP3     OH2      OT      -0.834000       15.9994           0
     26071 TIP3     1230     TIP3     H1       HT       0.417000       1.00800           0
     26072 TIP3     1230     TIP3     H2       HT       0.417000       1.00800           0
     26073 TIP3     1231     TIP3     OH2      OT      -0.834000       15.9994           0
     26074 TIP3     1231     TIP3     H1       HT       0.417000       1.00800           0
     26075 TIP3     1231     TIP3     H2       HT       0.417000       1.00800           0
     26076 TIP3     1232     TIP3     OH2      OT      -0.834000       15.9994           0
     26077 TIP3     1232     TIP3     H1       HT       0.417000       1.00800           0
     26078 TIP3     1232     TIP3     H2       HT       0.417000       1.00800           0
     26079 TIP3     1233     TIP3     OH2      OT      -0.834000       15.9994           0
     26080 TIP3     1233     TIP3     H1       HT       0.417000       1.00800           0
     26081 TIP3     1233     TIP3     H2       HT       0.417000       1.00800           0
     26082 TIP3     1234     TIP3     OH2      OT      -0.834000       15.9994           0
     26083 TIP3     1234     TIP3     H1       HT       0.417000       1.00800           0
     26084 TIP3     1234     TIP3     H2       HT       0.417000       1.00800           0
     26085 TIP3     1235     TIP3     OH2      OT      -0.834000       15.9994           0
     26086 TIP3     1235     TIP3     H1       HT       0.417000       1.00800           0
     26087 TIP3     1235     TIP3     H2       HT       0.417000       1.00800           0
     26088 TIP3     1236     TIP3     OH2      OT      -0.834000       15.9994           0
     26089 TIP3     1236     TIP3     H1       HT       0.417000       1.00800           0
     26090 TIP3     1236     TIP3     H2       HT       0.417000       1.00800           0
     26091 TIP3     1237     TIP3     OH2      OT      -0.834000       15.9994           0
     26092 TIP3     1237     TIP3     H1       HT       0.417000       1.00800           0
     26093 TIP3     1237     TIP3     H2       HT       0.417000       1.00800           0
     26094 TIP3     1238     TIP3     OH2      OT      -0.834000       15.9994           0
     26095 TIP3     1238     TIP3     H1       HT       0.417000       1.00800           0
     26096 TIP3     1238     TIP3     H2       HT       0.417000       1.00800           0
     26097 TIP3     1239     TIP3     OH2      OT      -0.834000       15.9994           0
     26098 TIP3     1239     TIP3     H1       HT       0.417000       1.00800           0
     26099 TIP3     1239     TIP3     H2       HT       0.417000       1.00800           0
     26100 TIP3     1240     TIP3     OH2      OT      -0.834000       15.9994           0
     26101 TIP3     1240     TIP3     H1       HT       0.417000       1.00800           0
     26102 TIP3     1240     TIP3     H2       HT       0.417000       1.00800           0
     26103 TIP3     1241     TIP3     OH2      OT      -0.834000       15.9994           0
     26104 TIP3     1241     TIP3     H1       HT       0.417000       1.00800           0
     26105 TIP3     1241     TIP3     H2       HT       0.417000       1.00800           0
     26106 TIP3     1242     TIP3     OH2      OT      -0.834000       15.9994           0
     26107 TIP3     1242     TIP3     H1       HT       0.417000       1.00800           0
     26108 TIP3     1242     TIP3     H2       HT       0.417000       1.00800           0
     26109 TIP3     1243     TIP3     OH2      OT      -0.834000       15.9994           0
     26110 TIP3     1243     TIP3     H1       HT       0.417000       1.00800           0
     26111 TIP3     1243     TIP3     H2       HT       0.417000       1.00800           0
     26112 TIP3     1244     TIP3     OH2      OT      -0.834000       15.9994           0
     26113 TIP3     1244     TIP3     H1       HT       0.417000       1.00800           0
     26114 TIP3     1244     TIP3     H2       HT       0.417000       1.00800           0
     26115 TIP3     1245     TIP3     OH2      OT      -0.834000       15.9994           0
     26116 TIP3     1245     TIP3     H1       HT       0.417000       1.00800           0
     26117 TIP3     1245     TIP3     H2       HT       0.417000       1.00800           0
     26118 TIP3     1246     TIP3     OH2      OT      -0.834000       15.9994           0
     26119 TIP3     1246     TIP3     H1       HT       0.417000       1.00800           0
     26120 TIP3     1246     TIP3     H2       HT       0.417000       1.00800           0
     26121 TIP3     1247     TIP3     OH2      OT      -0.834000       15.9994           0
     26122 TIP3     1247     TIP3     H1       HT       0.417000       1.00800           0
     26123 TIP3     1247     TIP3     H2       HT       0.417000       1.00800           0
     26124 TIP3     1248     TIP3     OH2      OT      -0.834000       15.9994           0
     26125 TIP3     1248     TIP3     H1       HT       0.417000       1.00800           0
     26126 TIP3     1248     TIP3     H2       HT       0.417000       1.00800           0
     26127 TIP3     1249     TIP3     OH2      OT      -0.834000       15.9994           0
     26128 TIP3     1249     TIP3     H1       HT       0.417000       1.00800           0
     26129 TIP3     1249     TIP3     H2       HT       0.417000       1.00800           0
     26130 TIP3     1250     TIP3     OH2      OT      -0.834000       15.9994           0
     26131 TIP3     1250     TIP3     H1       HT       0.417000       1.00800           0
     26132 TIP3     1250     TIP3     H2       HT       0.417000       1.00800           0
     26133 TIP3     1251     TIP3     OH2      OT      -0.834000       15.9994           0
     26134 TIP3     1251     TIP3     H1       HT       0.417000       1.00800           0
     26135 TIP3     1251     TIP3     H2       HT       0.417000       1.00800           0
     26136 TIP3     1252     TIP3     OH2      OT      -0.834000       15.9994           0
     26137 TIP3     1252     TIP3     H1       HT       0.417000       1.00800           0
     26138 TIP3     1252     TIP3     H2       HT       0.417000       1.00800           0
     26139 TIP3     1253     TIP3     OH2      OT      -0.834000       15.9994           0
     26140 TIP3     1253     TIP3     H1       HT       0.417000       1.00800           0
     26141 TIP3     1253     TIP3     H2       HT       0.417000       1.00800           0
     26142 TIP3     1254     TIP3     OH2      OT      -0.834000       15.9994           0
     26143 TIP3     1254     TIP3     H1       HT       0.417000       1.00800           0
     26144 TIP3     1254     TIP3     H2       HT       0.417000       1.00800           0
     26145 TIP3     1255     TIP3     OH2      OT      -0.834000       15.9994           0
     26146 TIP3     1255     TIP3     H1       HT       0.417000       1.00800           0
     26147 TIP3     1255     TIP3     H2       HT       0.417000       1.00800           0
     26148 TIP3     1256     TIP3     OH2      OT      -0.834000       15.9994           0
     26149 TIP3     1256     TIP3     H1       HT       0.417000       1.00800           0
     26150 TIP3     1256     TIP3     H2       HT       0.417000       1.00800           0
     26151 TIP3     1257     TIP3     OH2      OT      -0.834000       15.9994           0
     26152 TIP3     1257     TIP3     H1       HT       0.417000       1.00800           0
     26153 TIP3     1257     TIP3     H2       HT       0.417000       1.00800           0
     26154 TIP3     1258     TIP3     OH2      OT      -0.834000       15.9994           0
     26155 TIP3     1258     TIP3     H1       HT       0.417000       1.00800           0
     26156 TIP3     1258     TIP3     H2       HT       0.417000       1.00800           0
     26157 TIP3     1259     TIP3     OH2      OT      -0.834000       15.9994           0
     26158 TIP3     1259     TIP3     H1       HT       0.417000       1.00800           0
     26159 TIP3     1259     TIP3     H2       HT       0.417000       1.00800           0
     26160 TIP3     1260     TIP3     OH2      OT      -0.834000       15.9994           0
     26161 TIP3     1260     TIP3     H1       HT       0.417000       1.00800           0
     26162 TIP3     1260     TIP3     H2       HT       0.417000       1.00800           0
     26163 TIP3     1261     TIP3     OH2      OT      -0.834000       15.9994           0
     26164 TIP3     1261     TIP3     H1       HT       0.417000       1.00800           0
     26165 TIP3     1261     TIP3     H2       HT       0.417000       1.00800           0
     26166 TIP3     1262     TIP3     OH2      OT      -0.834000       15.9994           0
     26167 TIP3     1262     TIP3     H1       HT       0.417000       1.00800           0
     26168 TIP3     1262     TIP3     H2       HT       0.417000       1.00800           0
     26169 TIP3     1263     TIP3     OH2      OT      -0.834000       15.9994           0
     26170 TIP3     1263     TIP3     H1       HT       0.417000       1.00800           0
     26171 TIP3     1263     TIP3     H2       HT       0.417000       1.00800           0
     26172 TIP3     1264     TIP3     OH2      OT      -0.834000       15.9994           0
     26173 TIP3     1264     TIP3     H1       HT       0.417000       1.00800           0
     26174 TIP3     1264     TIP3     H2       HT       0.417000       1.00800           0
     26175 TIP3     1265     TIP3     OH2      OT      -0.834000       15.9994           0
     26176 TIP3     1265     TIP3     H1       HT       0.417000       1.00800           0
     26177 TIP3     1265     TIP3     H2       HT       0.417000       1.00800           0
     26178 TIP3     1266     TIP3     OH2      OT      -0.834000       15.9994           0
     26179 TIP3     1266     TIP3     H1       HT       0.417000       1.00800           0
     26180 TIP3     1266     TIP3     H2       HT       0.417000       1.00800           0
     26181 TIP3     1267     TIP3     OH2      OT      -0.834000       15.9994           0
     26182 TIP3     1267     TIP3     H1       HT       0.417000       1.00800           0
     26183 TIP3     1267     TIP3     H2       HT       0.417000       1.00800           0
     26184 TIP3     1268     TIP3     OH2      OT      -0.834000       15.9994           0
     26185 TIP3     1268     TIP3     H1       HT       0.417000       1.00800           0
     26186 TIP3     1268     TIP3     H2       HT       0.417000       1.00800           0
     26187 TIP3     1269     TIP3     OH2      OT      -0.834000       15.9994           0
     26188 TIP3     1269     TIP3     H1       HT       0.417000       1.00800           0
     26189 TIP3     1269     TIP3     H2       HT       0.417000       1.00800           0
     26190 TIP3     1270     TIP3     OH2      OT      -0.834000       15.9994           0
     26191 TIP3     1270     TIP3     H1       HT       0.417000       1.00800           0
     26192 TIP3     1270     TIP3     H2       HT       0.417000       1.00800           0
     26193 TIP3     1271     TIP3     OH2      OT      -0.834000       15.9994           0
     26194 TIP3     1271     TIP3     H1       HT       0.417000       1.00800           0
     26195 TIP3     1271     TIP3     H2       HT       0.417000       1.00800           0
     26196 TIP3     1272     TIP3     OH2      OT      -0.834000       15.9994           0
     26197 TIP3     1272     TIP3     H1       HT       0.417000       1.00800           0
     26198 TIP3     1272     TIP3     H2       HT       0.417000       1.00800           0
     26199 TIP3     1273     TIP3     OH2      OT      -0.834000       15.9994           0
     26200 TIP3     1273     TIP3     H1       HT       0.417000       1.00800           0
     26201 TIP3     1273     TIP3     H2       HT       0.417000       1.00800           0
     26202 TIP3     1274     TIP3     OH2      OT      -0.834000       15.9994           0
     26203 TIP3     1274     TIP3     H1       HT       0.417000       1.00800           0
     26204 TIP3     1274     TIP3     H2       HT       0.417000       1.00800           0
     26205 TIP3     1275     TIP3     OH2      OT      -0.834000       15.9994           0
     26206 TIP3     1275     TIP3     H1       HT       0.417000       1.00800           0
     26207 TIP3     1275     TIP3     H2       HT       0.417000       1.00800           0
     26208 TIP3     1276     TIP3     OH2      OT      -0.834000       15.9994           0
     26209 TIP3     1276     TIP3     H1       HT       0.417000       1.00800           0
     26210 TIP3     1276     TIP3     H2       HT       0.417000       1.00800           0
     26211 TIP3     1277     TIP3     OH2      OT      -0.834000       15.9994           0
     26212 TIP3     1277     TIP3     H1       HT       0.417000       1.00800           0
     26213 TIP3     1277     TIP3     H2       HT       0.417000       1.00800           0
     26214 TIP3     1278     TIP3     OH2      OT      -0.834000       15.9994           0
     26215 TIP3     1278     TIP3     H1       HT       0.417000       1.00800           0
     26216 TIP3     1278     TIP3     H2       HT       0.417000       1.00800           0
     26217 TIP3     1279     TIP3     OH2      OT      -0.834000       15.9994           0
     26218 TIP3     1279     TIP3     H1       HT       0.417000       1.00800           0
     26219 TIP3     1279     TIP3     H2       HT       0.417000       1.00800           0
     26220 TIP3     1280     TIP3     OH2      OT      -0.834000       15.9994           0
     26221 TIP3     1280     TIP3     H1       HT       0.417000       1.00800           0
     26222 TIP3     1280     TIP3     H2       HT       0.417000       1.00800           0
     26223 TIP3     1281     TIP3     OH2      OT      -0.834000       15.9994           0
     26224 TIP3     1281     TIP3     H1       HT       0.417000       1.00800           0
     26225 TIP3     1281     TIP3     H2       HT       0.417000       1.00800           0
     26226 TIP3     1282     TIP3     OH2      OT      -0.834000       15.9994           0
     26227 TIP3     1282     TIP3     H1       HT       0.417000       1.00800           0
     26228 TIP3     1282     TIP3     H2       HT       0.417000       1.00800           0
     26229 TIP3     1283     TIP3     OH2      OT      -0.834000       15.9994           0
     26230 TIP3     1283     TIP3     H1       HT       0.417000       1.00800           0
     26231 TIP3     1283     TIP3     H2       HT       0.417000       1.00800           0
     26232 TIP3     1284     TIP3     OH2      OT      -0.834000       15.9994           0
     26233 TIP3     1284     TIP3     H1       HT       0.417000       1.00800           0
     26234 TIP3     1284     TIP3     H2       HT       0.417000       1.00800           0
     26235 TIP3     1285     TIP3     OH2      OT      -0.834000       15.9994           0
     26236 TIP3     1285     TIP3     H1       HT       0.417000       1.00800           0
     26237 TIP3     1285     TIP3     H2       HT       0.417000       1.00800           0
     26238 TIP3     1286     TIP3     OH2      OT      -0.834000       15.9994           0
     26239 TIP3     1286     TIP3     H1       HT       0.417000       1.00800           0
     26240 TIP3     1286     TIP3     H2       HT       0.417000       1.00800           0
     26241 TIP3     1287     TIP3     OH2      OT      -0.834000       15.9994           0
     26242 TIP3     1287     TIP3     H1       HT       0.417000       1.00800           0
     26243 TIP3     1287     TIP3     H2       HT       0.417000       1.00800           0
     26244 TIP3     1288     TIP3     OH2      OT      -0.834000       15.9994           0
     26245 TIP3     1288     TIP3     H1       HT       0.417000       1.00800           0
     26246 TIP3     1288     TIP3     H2       HT       0.417000       1.00800           0
     26247 TIP3     1289     TIP3     OH2      OT      -0.834000       15.9994           0
     26248 TIP3     1289     TIP3     H1       HT       0.417000       1.00800           0
     26249 TIP3     1289     TIP3     H2       HT       0.417000       1.00800           0
     26250 TIP3     1290     TIP3     OH2      OT      -0.834000       15.9994           0
     26251 TIP3     1290     TIP3     H1       HT       0.417000       1.00800           0
     26252 TIP3     1290     TIP3     H2       HT       0.417000       1.00800           0
     26253 TIP3     1291     TIP3     OH2      OT      -0.834000       15.9994           0
     26254 TIP3     1291     TIP3     H1       HT       0.417000       1.00800           0
     26255 TIP3     1291     TIP3     H2       HT       0.417000       1.00800           0
     26256 TIP3     1292     TIP3     OH2      OT      -0.834000       15.9994           0
     26257 TIP3     1292     TIP3     H1       HT       0.417000       1.00800           0
     26258 TIP3     1292     TIP3     H2       HT       0.417000       1.00800           0
     26259 TIP3     1293     TIP3     OH2      OT      -0.834000       15.9994           0
     26260 TIP3     1293     TIP3     H1       HT       0.417000       1.00800           0
     26261 TIP3     1293     TIP3     H2       HT       0.417000       1.00800           0
     26262 TIP3     1294     TIP3     OH2      OT      -0.834000       15.9994           0
     26263 TIP3     1294     TIP3     H1       HT       0.417000       1.00800           0
     26264 TIP3     1294     TIP3     H2       HT       0.417000       1.00800           0
     26265 TIP3     1295     TIP3     OH2      OT      -0.834000       15.9994           0
     26266 TIP3     1295     TIP3     H1       HT       0.417000       1.00800           0
     26267 TIP3     1295     TIP3     H2       HT       0.417000       1.00800           0
     26268 TIP3     1296     TIP3     OH2      OT      -0.834000       15.9994           0
     26269 TIP3     1296     TIP3     H1       HT       0.417000       1.00800           0
     26270 TIP3     1296     TIP3     H2       HT       0.417000       1.00800           0
     26271 TIP3     1297     TIP3     OH2      OT      -0.834000       15.9994           0
     26272 TIP3     1297     TIP3     H1       HT       0.417000       1.00800           0
     26273 TIP3     1297     TIP3     H2       HT       0.417000       1.00800           0
     26274 TIP3     1298     TIP3     OH2      OT      -0.834000       15.9994           0
     26275 TIP3     1298     TIP3     H1       HT       0.417000       1.00800           0
     26276 TIP3     1298     TIP3     H2       HT       0.417000       1.00800           0
     26277 TIP3     1299     TIP3     OH2      OT      -0.834000       15.9994           0
     26278 TIP3     1299     TIP3     H1       HT       0.417000       1.00800           0
     26279 TIP3     1299     TIP3     H2       HT       0.417000       1.00800           0
     26280 TIP3     1300     TIP3     OH2      OT      -0.834000       15.9994           0
     26281 TIP3     1300     TIP3     H1       HT       0.417000       1.00800           0
     26282 TIP3     1300     TIP3     H2       HT       0.417000       1.00800           0
     26283 TIP3     1301     TIP3     OH2      OT      -0.834000       15.9994           0
     26284 TIP3     1301     TIP3     H1       HT       0.417000       1.00800           0
     26285 TIP3     1301     TIP3     H2       HT       0.417000       1.00800           0
     26286 TIP3     1302     TIP3     OH2      OT      -0.834000       15.9994           0
     26287 TIP3     1302     TIP3     H1       HT       0.417000       1.00800           0
     26288 TIP3     1302     TIP3     H2       HT       0.417000       1.00800           0
     26289 TIP3     1303     TIP3     OH2      OT      -0.834000       15.9994           0
     26290 TIP3     1303     TIP3     H1       HT       0.417000       1.00800           0
     26291 TIP3     1303     TIP3     H2       HT       0.417000       1.00800           0
     26292 TIP3     1304     TIP3     OH2      OT      -0.834000       15.9994           0
     26293 TIP3     1304     TIP3     H1       HT       0.417000       1.00800           0
     26294 TIP3     1304     TIP3     H2       HT       0.417000       1.00800           0
     26295 TIP3     1305     TIP3     OH2      OT      -0.834000       15.9994           0
     26296 TIP3     1305     TIP3     H1       HT       0.417000       1.00800           0
     26297 TIP3     1305     TIP3     H2       HT       0.417000       1.00800           0
     26298 TIP3     1306     TIP3     OH2      OT      -0.834000       15.9994           0
     26299 TIP3     1306     TIP3     H1       HT       0.417000       1.00800           0
     26300 TIP3     1306     TIP3     H2       HT       0.417000       1.00800           0
     26301 TIP3     1307     TIP3     OH2      OT      -0.834000       15.9994           0
     26302 TIP3     1307     TIP3     H1       HT       0.417000       1.00800           0
     26303 TIP3     1307     TIP3     H2       HT       0.417000       1.00800           0
     26304 TIP3     1308     TIP3     OH2      OT      -0.834000       15.9994           0
     26305 TIP3     1308     TIP3     H1       HT       0.417000       1.00800           0
     26306 TIP3     1308     TIP3     H2       HT       0.417000       1.00800           0
     26307 TIP3     1309     TIP3     OH2      OT      -0.834000       15.9994           0
     26308 TIP3     1309     TIP3     H1       HT       0.417000       1.00800           0
     26309 TIP3     1309     TIP3     H2       HT       0.417000       1.00800           0
     26310 TIP3     1310     TIP3     OH2      OT      -0.834000       15.9994           0
     26311 TIP3     1310     TIP3     H1       HT       0.417000       1.00800           0
     26312 TIP3     1310     TIP3     H2       HT       0.417000       1.00800           0
     26313 TIP3     1311     TIP3     OH2      OT      -0.834000       15.9994           0
     26314 TIP3     1311     TIP3     H1       HT       0.417000       1.00800           0
     26315 TIP3     1311     TIP3     H2       HT       0.417000       1.00800           0
     26316 TIP3     1312     TIP3     OH2      OT      -0.834000       15.9994           0
     26317 TIP3     1312     TIP3     H1       HT       0.417000       1.00800           0
     26318 TIP3     1312     TIP3     H2       HT       0.417000       1.00800           0
     26319 TIP3     1313     TIP3     OH2      OT      -0.834000       15.9994           0
     26320 TIP3     1313     TIP3     H1       HT       0.417000       1.00800           0
     26321 TIP3     1313     TIP3     H2       HT       0.417000       1.00800           0
     26322 TIP3     1314     TIP3     OH2      OT      -0.834000       15.9994           0
     26323 TIP3     1314     TIP3     H1       HT       0.417000       1.00800           0
     26324 TIP3     1314     TIP3     H2       HT       0.417000       1.00800           0
     26325 TIP3     1315     TIP3     OH2      OT      -0.834000       15.9994           0
     26326 TIP3     1315     TIP3     H1       HT       0.417000       1.00800           0
     26327 TIP3     1315     TIP3     H2       HT       0.417000       1.00800           0
     26328 TIP3     1316     TIP3     OH2      OT      -0.834000       15.9994           0
     26329 TIP3     1316     TIP3     H1       HT       0.417000       1.00800           0
     26330 TIP3     1316     TIP3     H2       HT       0.417000       1.00800           0
     26331 TIP3     1317     TIP3     OH2      OT      -0.834000       15.9994           0
     26332 TIP3     1317     TIP3     H1       HT       0.417000       1.00800           0
     26333 TIP3     1317     TIP3     H2       HT       0.417000       1.00800           0
     26334 TIP3     1318     TIP3     OH2      OT      -0.834000       15.9994           0
     26335 TIP3     1318     TIP3     H1       HT       0.417000       1.00800           0
     26336 TIP3     1318     TIP3     H2       HT       0.417000       1.00800           0
     26337 TIP3     1319     TIP3     OH2      OT      -0.834000       15.9994           0
     26338 TIP3     1319     TIP3     H1       HT       0.417000       1.00800           0
     26339 TIP3     1319     TIP3     H2       HT       0.417000       1.00800           0
     26340 TIP3     1320     TIP3     OH2      OT      -0.834000       15.9994           0
     26341 TIP3     1320     TIP3     H1       HT       0.417000       1.00800           0
     26342 TIP3     1320     TIP3     H2       HT       0.417000       1.00800           0
     26343 TIP3     1321     TIP3     OH2      OT      -0.834000       15.9994           0
     26344 TIP3     1321     TIP3     H1       HT       0.417000       1.00800           0
     26345 TIP3     1321     TIP3     H2       HT       0.417000       1.00800           0
     26346 TIP3     1322     TIP3     OH2      OT      -0.834000       15.9994           0
     26347 TIP3     1322     TIP3     H1       HT       0.417000       1.00800           0
     26348 TIP3     1322     TIP3     H2       HT       0.417000       1.00800           0
     26349 TIP3     1323     TIP3     OH2      OT      -0.834000       15.9994           0
     26350 TIP3     1323     TIP3     H1       HT       0.417000       1.00800           0
     26351 TIP3     1323     TIP3     H2       HT       0.417000       1.00800           0
     26352 TIP3     1324     TIP3     OH2      OT      -0.834000       15.9994           0
     26353 TIP3     1324     TIP3     H1       HT       0.417000       1.00800           0
     26354 TIP3     1324     TIP3     H2       HT       0.417000       1.00800           0
     26355 TIP3     1325     TIP3     OH2      OT      -0.834000       15.9994           0
     26356 TIP3     1325     TIP3     H1       HT       0.417000       1.00800           0
     26357 TIP3     1325     TIP3     H2       HT       0.417000       1.00800           0
     26358 TIP3     1326     TIP3     OH2      OT      -0.834000       15.9994           0
     26359 TIP3     1326     TIP3     H1       HT       0.417000       1.00800           0
     26360 TIP3     1326     TIP3     H2       HT       0.417000       1.00800           0
     26361 TIP3     1327     TIP3     OH2      OT      -0.834000       15.9994           0
     26362 TIP3     1327     TIP3     H1       HT       0.417000       1.00800           0
     26363 TIP3     1327     TIP3     H2       HT       0.417000       1.00800           0
     26364 TIP3     1328     TIP3     OH2      OT      -0.834000       15.9994           0
     26365 TIP3     1328     TIP3     H1       HT       0.417000       1.00800           0
     26366 TIP3     1328     TIP3     H2       HT       0.417000       1.00800           0
     26367 TIP3     1329     TIP3     OH2      OT      -0.834000       15.9994           0
     26368 TIP3     1329     TIP3     H1       HT       0.417000       1.00800           0
     26369 TIP3     1329     TIP3     H2       HT       0.417000       1.00800           0
     26370 TIP3     1330     TIP3     OH2      OT      -0.834000       15.9994           0
     26371 TIP3     1330     TIP3     H1       HT       0.417000       1.00800           0
     26372 TIP3     1330     TIP3     H2       HT       0.417000       1.00800           0
     26373 TIP3     1331     TIP3     OH2      OT      -0.834000       15.9994           0
     26374 TIP3     1331     TIP3     H1       HT       0.417000       1.00800           0
     26375 TIP3     1331     TIP3     H2       HT       0.417000       1.00800           0
     26376 TIP3     1332     TIP3     OH2      OT      -0.834000       15.9994           0
     26377 TIP3     1332     TIP3     H1       HT       0.417000       1.00800           0
     26378 TIP3     1332     TIP3     H2       HT       0.417000       1.00800           0
     26379 TIP3     1333     TIP3     OH2      OT      -0.834000       15.9994           0
     26380 TIP3     1333     TIP3     H1       HT       0.417000       1.00800           0
     26381 TIP3     1333     TIP3     H2       HT       0.417000       1.00800           0
     26382 TIP3     1334     TIP3     OH2      OT      -0.834000       15.9994           0
     26383 TIP3     1334     TIP3     H1       HT       0.417000       1.00800           0
     26384 TIP3     1334     TIP3     H2       HT       0.417000       1.00800           0
     26385 TIP3     1335     TIP3     OH2      OT      -0.834000       15.9994           0
     26386 TIP3     1335     TIP3     H1       HT       0.417000       1.00800           0
     26387 TIP3     1335     TIP3     H2       HT       0.417000       1.00800           0
     26388 TIP3     1336     TIP3     OH2      OT      -0.834000       15.9994           0
     26389 TIP3     1336     TIP3     H1       HT       0.417000       1.00800           0
     26390 TIP3     1336     TIP3     H2       HT       0.417000       1.00800           0
     26391 TIP3     1337     TIP3     OH2      OT      -0.834000       15.9994           0
     26392 TIP3     1337     TIP3     H1       HT       0.417000       1.00800           0
     26393 TIP3     1337     TIP3     H2       HT       0.417000       1.00800           0
     26394 TIP3     1338     TIP3     OH2      OT      -0.834000       15.9994           0
     26395 TIP3     1338     TIP3     H1       HT       0.417000       1.00800           0
     26396 TIP3     1338     TIP3     H2       HT       0.417000       1.00800           0
     26397 TIP3     1339     TIP3     OH2      OT      -0.834000       15.9994           0
     26398 TIP3     1339     TIP3     H1       HT       0.417000       1.00800           0
     26399 TIP3     1339     TIP3     H2       HT       0.417000       1.00800           0
     26400 TIP3     1340     TIP3     OH2      OT      -0.834000       15.9994           0
     26401 TIP3     1340     TIP3     H1       HT       0.417000       1.00800           0
     26402 TIP3     1340     TIP3     H2       HT       0.417000       1.00800           0
     26403 TIP3     1341     TIP3     OH2      OT      -0.834000       15.9994           0
     26404 TIP3     1341     TIP3     H1       HT       0.417000       1.00800           0
     26405 TIP3     1341     TIP3     H2       HT       0.417000       1.00800           0
     26406 TIP3     1342     TIP3     OH2      OT      -0.834000       15.9994           0
     26407 TIP3     1342     TIP3     H1       HT       0.417000       1.00800           0
     26408 TIP3     1342     TIP3     H2       HT       0.417000       1.00800           0
     26409 TIP3     1343     TIP3     OH2      OT      -0.834000       15.9994           0
     26410 TIP3     1343     TIP3     H1       HT       0.417000       1.00800           0
     26411 TIP3     1343     TIP3     H2       HT       0.417000       1.00800           0
     26412 TIP3     1344     TIP3     OH2      OT      -0.834000       15.9994           0
     26413 TIP3     1344     TIP3     H1       HT       0.417000       1.00800           0
     26414 TIP3     1344     TIP3     H2       HT       0.417000       1.00800           0
     26415 TIP3     1345     TIP3     OH2      OT      -0.834000       15.9994           0
     26416 TIP3     1345     TIP3     H1       HT       0.417000       1.00800           0
     26417 TIP3     1345     TIP3     H2       HT       0.417000       1.00800           0
     26418 TIP3     1346     TIP3     OH2      OT      -0.834000       15.9994           0
     26419 TIP3     1346     TIP3     H1       HT       0.417000       1.00800           0
     26420 TIP3     1346     TIP3     H2       HT       0.417000       1.00800           0
     26421 TIP3     1347     TIP3     OH2      OT      -0.834000       15.9994           0
     26422 TIP3     1347     TIP3     H1       HT       0.417000       1.00800           0
     26423 TIP3     1347     TIP3     H2       HT       0.417000       1.00800           0
     26424 TIP3     1348     TIP3     OH2      OT      -0.834000       15.9994           0
     26425 TIP3     1348     TIP3     H1       HT       0.417000       1.00800           0
     26426 TIP3     1348     TIP3     H2       HT       0.417000       1.00800           0
     26427 TIP3     1349     TIP3     OH2      OT      -0.834000       15.9994           0
     26428 TIP3     1349     TIP3     H1       HT       0.417000       1.00800           0
     26429 TIP3     1349     TIP3     H2       HT       0.417000       1.00800           0
     26430 TIP3     1350     TIP3     OH2      OT      -0.834000       15.9994           0
     26431 TIP3     1350     TIP3     H1       HT       0.417000       1.00800           0
     26432 TIP3     1350     TIP3     H2       HT       0.417000       1.00800           0
     26433 TIP3     1351     TIP3     OH2      OT      -0.834000       15.9994           0
     26434 TIP3     1351     TIP3     H1       HT       0.417000       1.00800           0
     26435 TIP3     1351     TIP3     H2       HT       0.417000       1.00800           0
     26436 TIP3     1352     TIP3     OH2      OT      -0.834000       15.9994           0
     26437 TIP3     1352     TIP3     H1       HT       0.417000       1.00800           0
     26438 TIP3     1352     TIP3     H2       HT       0.417000       1.00800           0
     26439 TIP3     1353     TIP3     OH2      OT      -0.834000       15.9994           0
     26440 TIP3     1353     TIP3     H1       HT       0.417000       1.00800           0
     26441 TIP3     1353     TIP3     H2       HT       0.417000       1.00800           0
     26442 TIP3     1354     TIP3     OH2      OT      -0.834000       15.9994           0
     26443 TIP3     1354     TIP3     H1       HT       0.417000       1.00800           0
     26444 TIP3     1354     TIP3     H2       HT       0.417000       1.00800           0
     26445 TIP3     1355     TIP3     OH2      OT      -0.834000       15.9994           0
     26446 TIP3     1355     TIP3     H1       HT       0.417000       1.00800           0
     26447 TIP3     1355     TIP3     H2       HT       0.417000       1.00800           0
     26448 TIP3     1356     TIP3     OH2      OT      -0.834000       15.9994           0
     26449 TIP3     1356     TIP3     H1       HT       0.417000       1.00800           0
     26450 TIP3     1356     TIP3     H2       HT       0.417000       1.00800           0
     26451 TIP3     1357     TIP3     OH2      OT      -0.834000       15.9994           0
     26452 TIP3     1357     TIP3     H1       HT       0.417000       1.00800           0
     26453 TIP3     1357     TIP3     H2       HT       0.417000       1.00800           0
     26454 TIP3     1358     TIP3     OH2      OT      -0.834000       15.9994           0
     26455 TIP3     1358     TIP3     H1       HT       0.417000       1.00800           0
     26456 TIP3     1358     TIP3     H2       HT       0.417000       1.00800           0
     26457 TIP3     1359     TIP3     OH2      OT      -0.834000       15.9994           0
     26458 TIP3     1359     TIP3     H1       HT       0.417000       1.00800           0
     26459 TIP3     1359     TIP3     H2       HT       0.417000       1.00800           0
     26460 TIP3     1360     TIP3     OH2      OT      -0.834000       15.9994           0
     26461 TIP3     1360     TIP3     H1       HT       0.417000       1.00800           0
     26462 TIP3     1360     TIP3     H2       HT       0.417000       1.00800           0
     26463 TIP3     1361     TIP3     OH2      OT      -0.834000       15.9994           0
     26464 TIP3     1361     TIP3     H1       HT       0.417000       1.00800           0
     26465 TIP3     1361     TIP3     H2       HT       0.417000       1.00800           0
     26466 TIP3     1362     TIP3     OH2      OT      -0.834000       15.9994           0
     26467 TIP3     1362     TIP3     H1       HT       0.417000       1.00800           0
     26468 TIP3     1362     TIP3     H2       HT       0.417000       1.00800           0
     26469 TIP3     1363     TIP3     OH2      OT      -0.834000       15.9994           0
     26470 TIP3     1363     TIP3     H1       HT       0.417000       1.00800           0
     26471 TIP3     1363     TIP3     H2       HT       0.417000       1.00800           0
     26472 TIP3     1364     TIP3     OH2      OT      -0.834000       15.9994           0
     26473 TIP3     1364     TIP3     H1       HT       0.417000       1.00800           0
     26474 TIP3     1364     TIP3     H2       HT       0.417000       1.00800           0
     26475 TIP3     1365     TIP3     OH2      OT      -0.834000       15.9994           0
     26476 TIP3     1365     TIP3     H1       HT       0.417000       1.00800           0
     26477 TIP3     1365     TIP3     H2       HT       0.417000       1.00800           0
     26478 TIP3     1366     TIP3     OH2      OT      -0.834000       15.9994           0
     26479 TIP3     1366     TIP3     H1       HT       0.417000       1.00800           0
     26480 TIP3     1366     TIP3     H2       HT       0.417000       1.00800           0
     26481 TIP3     1367     TIP3     OH2      OT      -0.834000       15.9994           0
     26482 TIP3     1367     TIP3     H1       HT       0.417000       1.00800           0
     26483 TIP3     1367     TIP3     H2       HT       0.417000       1.00800           0
     26484 TIP3     1368     TIP3     OH2      OT      -0.834000       15.9994           0
     26485 TIP3     1368     TIP3     H1       HT       0.417000       1.00800           0
     26486 TIP3     1368     TIP3     H2       HT       0.417000       1.00800           0
     26487 TIP3     1369     TIP3     OH2      OT      -0.834000       15.9994           0
     26488 TIP3     1369     TIP3     H1       HT       0.417000       1.00800           0
     26489 TIP3     1369     TIP3     H2       HT       0.417000       1.00800           0
     26490 TIP3     1370     TIP3     OH2      OT      -0.834000       15.9994           0
     26491 TIP3     1370     TIP3     H1       HT       0.417000       1.00800           0
     26492 TIP3     1370     TIP3     H2       HT       0.417000       1.00800           0
     26493 TIP3     1371     TIP3     OH2      OT      -0.834000       15.9994           0
     26494 TIP3     1371     TIP3     H1       HT       0.417000       1.00800           0
     26495 TIP3     1371     TIP3     H2       HT       0.417000       1.00800           0
     26496 TIP3     1372     TIP3     OH2      OT      -0.834000       15.9994           0
     26497 TIP3     1372     TIP3     H1       HT       0.417000       1.00800           0
     26498 TIP3     1372     TIP3     H2       HT       0.417000       1.00800           0
     26499 TIP3     1373     TIP3     OH2      OT      -0.834000       15.9994           0
     26500 TIP3     1373     TIP3     H1       HT       0.417000       1.00800           0
     26501 TIP3     1373     TIP3     H2       HT       0.417000       1.00800           0
     26502 TIP3     1374     TIP3     OH2      OT      -0.834000       15.9994           0
     26503 TIP3     1374     TIP3     H1       HT       0.417000       1.00800           0
     26504 TIP3     1374     TIP3     H2       HT       0.417000       1.00800           0
     26505 TIP3     1375     TIP3     OH2      OT      -0.834000       15.9994           0
     26506 TIP3     1375     TIP3     H1       HT       0.417000       1.00800           0
     26507 TIP3     1375     TIP3     H2       HT       0.417000       1.00800           0
     26508 TIP3     1376     TIP3     OH2      OT      -0.834000       15.9994           0
     26509 TIP3     1376     TIP3     H1       HT       0.417000       1.00800           0
     26510 TIP3     1376     TIP3     H2       HT       0.417000       1.00800           0
     26511 TIP3     1377     TIP3     OH2      OT      -0.834000       15.9994           0
     26512 TIP3     1377     TIP3     H1       HT       0.417000       1.00800           0
     26513 TIP3     1377     TIP3     H2       HT       0.417000       1.00800           0
     26514 TIP3     1378     TIP3     OH2      OT      -0.834000       15.9994           0
     26515 TIP3     1378     TIP3     H1       HT       0.417000       1.00800           0
     26516 TIP3     1378     TIP3     H2       HT       0.417000       1.00800           0
     26517 TIP3     1379     TIP3     OH2      OT      -0.834000       15.9994           0
     26518 TIP3     1379     TIP3     H1       HT       0.417000       1.00800           0
     26519 TIP3     1379     TIP3     H2       HT       0.417000       1.00800           0
     26520 TIP3     1380     TIP3     OH2      OT      -0.834000       15.9994           0
     26521 TIP3     1380     TIP3     H1       HT       0.417000       1.00800           0
     26522 TIP3     1380     TIP3     H2       HT       0.417000       1.00800           0
     26523 TIP3     1381     TIP3     OH2      OT      -0.834000       15.9994           0
     26524 TIP3     1381     TIP3     H1       HT       0.417000       1.00800           0
     26525 TIP3     1381     TIP3     H2       HT       0.417000       1.00800           0
     26526 TIP3     1382     TIP3     OH2      OT      -0.834000       15.9994           0
     26527 TIP3     1382     TIP3     H1       HT       0.417000       1.00800           0
     26528 TIP3     1382     TIP3     H2       HT       0.417000       1.00800           0
     26529 TIP3     1383     TIP3     OH2      OT      -0.834000       15.9994           0
     26530 TIP3     1383     TIP3     H1       HT       0.417000       1.00800           0
     26531 TIP3     1383     TIP3     H2       HT       0.417000       1.00800           0
     26532 TIP3     1384     TIP3     OH2      OT      -0.834000       15.9994           0
     26533 TIP3     1384     TIP3     H1       HT       0.417000       1.00800           0
     26534 TIP3     1384     TIP3     H2       HT       0.417000       1.00800           0
     26535 TIP3     1385     TIP3     OH2      OT      -0.834000       15.9994           0
     26536 TIP3     1385     TIP3     H1       HT       0.417000       1.00800           0
     26537 TIP3     1385     TIP3     H2       HT       0.417000       1.00800           0
     26538 TIP3     1386     TIP3     OH2      OT      -0.834000       15.9994           0
     26539 TIP3     1386     TIP3     H1       HT       0.417000       1.00800           0
     26540 TIP3     1386     TIP3     H2       HT       0.417000       1.00800           0
     26541 TIP3     1387     TIP3     OH2      OT      -0.834000       15.9994           0
     26542 TIP3     1387     TIP3     H1       HT       0.417000       1.00800           0
     26543 TIP3     1387     TIP3     H2       HT       0.417000       1.00800           0
     26544 TIP3     1388     TIP3     OH2      OT      -0.834000       15.9994           0
     26545 TIP3     1388     TIP3     H1       HT       0.417000       1.00800           0
     26546 TIP3     1388     TIP3     H2       HT       0.417000       1.00800           0
     26547 TIP3     1389     TIP3     OH2      OT      -0.834000       15.9994           0
     26548 TIP3     1389     TIP3     H1       HT       0.417000       1.00800           0
     26549 TIP3     1389     TIP3     H2       HT       0.417000       1.00800           0
     26550 TIP3     1390     TIP3     OH2      OT      -0.834000       15.9994           0
     26551 TIP3     1390     TIP3     H1       HT       0.417000       1.00800           0
     26552 TIP3     1390     TIP3     H2       HT       0.417000       1.00800           0
     26553 TIP3     1391     TIP3     OH2      OT      -0.834000       15.9994           0
     26554 TIP3     1391     TIP3     H1       HT       0.417000       1.00800           0
     26555 TIP3     1391     TIP3     H2       HT       0.417000       1.00800           0
     26556 TIP3     1392     TIP3     OH2      OT      -0.834000       15.9994           0
     26557 TIP3     1392     TIP3     H1       HT       0.417000       1.00800           0
     26558 TIP3     1392     TIP3     H2       HT       0.417000       1.00800           0
     26559 TIP3     1393     TIP3     OH2      OT      -0.834000       15.9994           0
     26560 TIP3     1393     TIP3     H1       HT       0.417000       1.00800           0
     26561 TIP3     1393     TIP3     H2       HT       0.417000       1.00800           0
     26562 TIP3     1394     TIP3     OH2      OT      -0.834000       15.9994           0
     26563 TIP3     1394     TIP3     H1       HT       0.417000       1.00800           0
     26564 TIP3     1394     TIP3     H2       HT       0.417000       1.00800           0
     26565 TIP3     1395     TIP3     OH2      OT      -0.834000       15.9994           0
     26566 TIP3     1395     TIP3     H1       HT       0.417000       1.00800           0
     26567 TIP3     1395     TIP3     H2       HT       0.417000       1.00800           0
     26568 TIP3     1396     TIP3     OH2      OT      -0.834000       15.9994           0
     26569 TIP3     1396     TIP3     H1       HT       0.417000       1.00800           0
     26570 TIP3     1396     TIP3     H2       HT       0.417000       1.00800           0
     26571 TIP3     1397     TIP3     OH2      OT      -0.834000       15.9994           0
     26572 TIP3     1397     TIP3     H1       HT       0.417000       1.00800           0
     26573 TIP3     1397     TIP3     H2       HT       0.417000       1.00800           0
     26574 TIP3     1398     TIP3     OH2      OT      -0.834000       15.9994           0
     26575 TIP3     1398     TIP3     H1       HT       0.417000       1.00800           0
     26576 TIP3     1398     TIP3     H2       HT       0.417000       1.00800           0
     26577 TIP3     1399     TIP3     OH2      OT      -0.834000       15.9994           0
     26578 TIP3     1399     TIP3     H1       HT       0.417000       1.00800           0
     26579 TIP3     1399     TIP3     H2       HT       0.417000       1.00800           0
     26580 TIP3     1400     TIP3     OH2      OT      -0.834000       15.9994           0
     26581 TIP3     1400     TIP3     H1       HT       0.417000       1.00800           0
     26582 TIP3     1400     TIP3     H2       HT       0.417000       1.00800           0
     26583 TIP3     1401     TIP3     OH2      OT      -0.834000       15.9994           0
     26584 TIP3     1401     TIP3     H1       HT       0.417000       1.00800           0
     26585 TIP3     1401     TIP3     H2       HT       0.417000       1.00800           0
     26586 TIP3     1402     TIP3     OH2      OT      -0.834000       15.9994           0
     26587 TIP3     1402     TIP3     H1       HT       0.417000       1.00800           0
     26588 TIP3     1402     TIP3     H2       HT       0.417000       1.00800           0
     26589 TIP3     1403     TIP3     OH2      OT      -0.834000       15.9994           0
     26590 TIP3     1403     TIP3     H1       HT       0.417000       1.00800           0
     26591 TIP3     1403     TIP3     H2       HT       0.417000       1.00800           0
     26592 TIP3     1404     TIP3     OH2      OT      -0.834000       15.9994           0
     26593 TIP3     1404     TIP3     H1       HT       0.417000       1.00800           0
     26594 TIP3     1404     TIP3     H2       HT       0.417000       1.00800           0
     26595 TIP3     1405     TIP3     OH2      OT      -0.834000       15.9994           0
     26596 TIP3     1405     TIP3     H1       HT       0.417000       1.00800           0
     26597 TIP3     1405     TIP3     H2       HT       0.417000       1.00800           0
     26598 TIP3     1406     TIP3     OH2      OT      -0.834000       15.9994           0
     26599 TIP3     1406     TIP3     H1       HT       0.417000       1.00800           0
     26600 TIP3     1406     TIP3     H2       HT       0.417000       1.00800           0
     26601 TIP3     1407     TIP3     OH2      OT      -0.834000       15.9994           0
     26602 TIP3     1407     TIP3     H1       HT       0.417000       1.00800           0
     26603 TIP3     1407     TIP3     H2       HT       0.417000       1.00800           0
     26604 TIP3     1408     TIP3     OH2      OT      -0.834000       15.9994           0
     26605 TIP3     1408     TIP3     H1       HT       0.417000       1.00800           0
     26606 TIP3     1408     TIP3     H2       HT       0.417000       1.00800           0
     26607 TIP3     1409     TIP3     OH2      OT      -0.834000       15.9994           0
     26608 TIP3     1409     TIP3     H1       HT       0.417000       1.00800           0
     26609 TIP3     1409     TIP3     H2       HT       0.417000       1.00800           0
     26610 TIP3     1410     TIP3     OH2      OT      -0.834000       15.9994           0
     26611 TIP3     1410     TIP3     H1       HT       0.417000       1.00800           0
     26612 TIP3     1410     TIP3     H2       HT       0.417000       1.00800           0
     26613 TIP3     1411     TIP3     OH2      OT      -0.834000       15.9994           0
     26614 TIP3     1411     TIP3     H1       HT       0.417000       1.00800           0
     26615 TIP3     1411     TIP3     H2       HT       0.417000       1.00800           0
     26616 TIP3     1412     TIP3     OH2      OT      -0.834000       15.9994           0
     26617 TIP3     1412     TIP3     H1       HT       0.417000       1.00800           0
     26618 TIP3     1412     TIP3     H2       HT       0.417000       1.00800           0
     26619 TIP3     1413     TIP3     OH2      OT      -0.834000       15.9994           0
     26620 TIP3     1413     TIP3     H1       HT       0.417000       1.00800           0
     26621 TIP3     1413     TIP3     H2       HT       0.417000       1.00800           0
     26622 TIP3     1414     TIP3     OH2      OT      -0.834000       15.9994           0
     26623 TIP3     1414     TIP3     H1       HT       0.417000       1.00800           0
     26624 TIP3     1414     TIP3     H2       HT       0.417000       1.00800           0
     26625 TIP3     1415     TIP3     OH2      OT      -0.834000       15.9994           0
     26626 TIP3     1415     TIP3     H1       HT       0.417000       1.00800           0
     26627 TIP3     1415     TIP3     H2       HT       0.417000       1.00800           0
     26628 TIP3     1416     TIP3     OH2      OT      -0.834000       15.9994           0
     26629 TIP3     1416     TIP3     H1       HT       0.417000       1.00800           0
     26630 TIP3     1416     TIP3     H2       HT       0.417000       1.00800           0
     26631 TIP3     1417     TIP3     OH2      OT      -0.834000       15.9994           0
     26632 TIP3     1417     TIP3     H1       HT       0.417000       1.00800           0
     26633 TIP3     1417     TIP3     H2       HT       0.417000       1.00800           0
     26634 TIP3     1418     TIP3     OH2      OT      -0.834000       15.9994           0
     26635 TIP3     1418     TIP3     H1       HT       0.417000       1.00800           0
     26636 TIP3     1418     TIP3     H2       HT       0.417000       1.00800           0
     26637 TIP3     1419     TIP3     OH2      OT      -0.834000       15.9994           0
     26638 TIP3     1419     TIP3     H1       HT       0.417000       1.00800           0
     26639 TIP3     1419     TIP3     H2       HT       0.417000       1.00800           0
     26640 TIP3     1420     TIP3     OH2      OT      -0.834000       15.9994           0
     26641 TIP3     1420     TIP3     H1       HT       0.417000       1.00800           0
     26642 TIP3     1420     TIP3     H2       HT       0.417000       1.00800           0
     26643 TIP3     1421     TIP3     OH2      OT      -0.834000       15.9994           0
     26644 TIP3     1421     TIP3     H1       HT       0.417000       1.00800           0
     26645 TIP3     1421     TIP3     H2       HT       0.417000       1.00800           0
     26646 TIP3     1422     TIP3     OH2      OT      -0.834000       15.9994           0
     26647 TIP3     1422     TIP3     H1       HT       0.417000       1.00800           0
     26648 TIP3     1422     TIP3     H2       HT       0.417000       1.00800           0
     26649 TIP3     1423     TIP3     OH2      OT      -0.834000       15.9994           0
     26650 TIP3     1423     TIP3     H1       HT       0.417000       1.00800           0
     26651 TIP3     1423     TIP3     H2       HT       0.417000       1.00800           0
     26652 TIP3     1424     TIP3     OH2      OT      -0.834000       15.9994           0
     26653 TIP3     1424     TIP3     H1       HT       0.417000       1.00800           0
     26654 TIP3     1424     TIP3     H2       HT       0.417000       1.00800           0
     26655 TIP3     1425     TIP3     OH2      OT      -0.834000       15.9994           0
     26656 TIP3     1425     TIP3     H1       HT       0.417000       1.00800           0
     26657 TIP3     1425     TIP3     H2       HT       0.417000       1.00800           0
     26658 TIP3     1426     TIP3     OH2      OT      -0.834000       15.9994           0
     26659 TIP3     1426     TIP3     H1       HT       0.417000       1.00800           0
     26660 TIP3     1426     TIP3     H2       HT       0.417000       1.00800           0
     26661 TIP3     1427     TIP3     OH2      OT      -0.834000       15.9994           0
     26662 TIP3     1427     TIP3     H1       HT       0.417000       1.00800           0
     26663 TIP3     1427     TIP3     H2       HT       0.417000       1.00800           0
     26664 TIP3     1428     TIP3     OH2      OT      -0.834000       15.9994           0
     26665 TIP3     1428     TIP3     H1       HT       0.417000       1.00800           0
     26666 TIP3     1428     TIP3     H2       HT       0.417000       1.00800           0
     26667 TIP3     1429     TIP3     OH2      OT      -0.834000       15.9994           0
     26668 TIP3     1429     TIP3     H1       HT       0.417000       1.00800           0
     26669 TIP3     1429     TIP3     H2       HT       0.417000       1.00800           0
     26670 TIP3     1430     TIP3     OH2      OT      -0.834000       15.9994           0
     26671 TIP3     1430     TIP3     H1       HT       0.417000       1.00800           0
     26672 TIP3     1430     TIP3     H2       HT       0.417000       1.00800           0
     26673 TIP3     1431     TIP3     OH2      OT      -0.834000       15.9994           0
     26674 TIP3     1431     TIP3     H1       HT       0.417000       1.00800           0
     26675 TIP3     1431     TIP3     H2       HT       0.417000       1.00800           0
     26676 TIP3     1432     TIP3     OH2      OT      -0.834000       15.9994           0
     26677 TIP3     1432     TIP3     H1       HT       0.417000       1.00800           0
     26678 TIP3     1432     TIP3     H2       HT       0.417000       1.00800           0
     26679 TIP3     1433     TIP3     OH2      OT      -0.834000       15.9994           0
     26680 TIP3     1433     TIP3     H1       HT       0.417000       1.00800           0
     26681 TIP3     1433     TIP3     H2       HT       0.417000       1.00800           0
     26682 TIP3     1434     TIP3     OH2      OT      -0.834000       15.9994           0
     26683 TIP3     1434     TIP3     H1       HT       0.417000       1.00800           0
     26684 TIP3     1434     TIP3     H2       HT       0.417000       1.00800           0
     26685 TIP3     1435     TIP3     OH2      OT      -0.834000       15.9994           0
     26686 TIP3     1435     TIP3     H1       HT       0.417000       1.00800           0
     26687 TIP3     1435     TIP3     H2       HT       0.417000       1.00800           0
     26688 TIP3     1436     TIP3     OH2      OT      -0.834000       15.9994           0
     26689 TIP3     1436     TIP3     H1       HT       0.417000       1.00800           0
     26690 TIP3     1436     TIP3     H2       HT       0.417000       1.00800           0
     26691 TIP3     1437     TIP3     OH2      OT      -0.834000       15.9994           0
     26692 TIP3     1437     TIP3     H1       HT       0.417000       1.00800           0
     26693 TIP3     1437     TIP3     H2       HT       0.417000       1.00800           0
     26694 TIP3     1438     TIP3     OH2      OT      -0.834000       15.9994           0
     26695 TIP3     1438     TIP3     H1       HT       0.417000       1.00800           0
     26696 TIP3     1438     TIP3     H2       HT       0.417000       1.00800           0
     26697 TIP3     1439     TIP3     OH2      OT      -0.834000       15.9994           0
     26698 TIP3     1439     TIP3     H1       HT       0.417000       1.00800           0
     26699 TIP3     1439     TIP3     H2       HT       0.417000       1.00800           0
     26700 TIP3     1440     TIP3     OH2      OT      -0.834000       15.9994           0
     26701 TIP3     1440     TIP3     H1       HT       0.417000       1.00800           0
     26702 TIP3     1440     TIP3     H2       HT       0.417000       1.00800           0
     26703 TIP3     1441     TIP3     OH2      OT      -0.834000       15.9994           0
     26704 TIP3     1441     TIP3     H1       HT       0.417000       1.00800           0
     26705 TIP3     1441     TIP3     H2       HT       0.417000       1.00800           0
     26706 TIP3     1442     TIP3     OH2      OT      -0.834000       15.9994           0
     26707 TIP3     1442     TIP3     H1       HT       0.417000       1.00800           0
     26708 TIP3     1442     TIP3     H2       HT       0.417000       1.00800           0
     26709 TIP3     1443     TIP3     OH2      OT      -0.834000       15.9994           0
     26710 TIP3     1443     TIP3     H1       HT       0.417000       1.00800           0
     26711 TIP3     1443     TIP3     H2       HT       0.417000       1.00800           0
     26712 TIP3     1444     TIP3     OH2      OT      -0.834000       15.9994           0
     26713 TIP3     1444     TIP3     H1       HT       0.417000       1.00800           0
     26714 TIP3     1444     TIP3     H2       HT       0.417000       1.00800           0
     26715 TIP3     1445     TIP3     OH2      OT      -0.834000       15.9994           0
     26716 TIP3     1445     TIP3     H1       HT       0.417000       1.00800           0
     26717 TIP3     1445     TIP3     H2       HT       0.417000       1.00800           0
     26718 TIP3     1446     TIP3     OH2      OT      -0.834000       15.9994           0
     26719 TIP3     1446     TIP3     H1       HT       0.417000       1.00800           0
     26720 TIP3     1446     TIP3     H2       HT       0.417000       1.00800           0
     26721 TIP3     1447     TIP3     OH2      OT      -0.834000       15.9994           0
     26722 TIP3     1447     TIP3     H1       HT       0.417000       1.00800           0
     26723 TIP3     1447     TIP3     H2       HT       0.417000       1.00800           0
     26724 TIP3     1448     TIP3     OH2      OT      -0.834000       15.9994           0
     26725 TIP3     1448     TIP3     H1       HT       0.417000       1.00800           0
     26726 TIP3     1448     TIP3     H2       HT       0.417000       1.00800           0
     26727 TIP3     1449     TIP3     OH2      OT      -0.834000       15.9994           0
     26728 TIP3     1449     TIP3     H1       HT       0.417000       1.00800           0
     26729 TIP3     1449     TIP3     H2       HT       0.417000       1.00800           0
     26730 TIP3     1450     TIP3     OH2      OT      -0.834000       15.9994           0
     26731 TIP3     1450     TIP3     H1       HT       0.417000       1.00800           0
     26732 TIP3     1450     TIP3     H2       HT       0.417000       1.00800           0
     26733 TIP3     1451     TIP3     OH2      OT      -0.834000       15.9994           0
     26734 TIP3     1451     TIP3     H1       HT       0.417000       1.00800           0
     26735 TIP3     1451     TIP3     H2       HT       0.417000       1.00800           0
     26736 TIP3     1452     TIP3     OH2      OT      -0.834000       15.9994           0
     26737 TIP3     1452     TIP3     H1       HT       0.417000       1.00800           0
     26738 TIP3     1452     TIP3     H2       HT       0.417000       1.00800           0
     26739 TIP3     1453     TIP3     OH2      OT      -0.834000       15.9994           0
     26740 TIP3     1453     TIP3     H1       HT       0.417000       1.00800           0
     26741 TIP3     1453     TIP3     H2       HT       0.417000       1.00800           0
     26742 TIP3     1454     TIP3     OH2      OT      -0.834000       15.9994           0
     26743 TIP3     1454     TIP3     H1       HT       0.417000       1.00800           0
     26744 TIP3     1454     TIP3     H2       HT       0.417000       1.00800           0
     26745 TIP3     1455     TIP3     OH2      OT      -0.834000       15.9994           0
     26746 TIP3     1455     TIP3     H1       HT       0.417000       1.00800           0
     26747 TIP3     1455     TIP3     H2       HT       0.417000       1.00800           0
     26748 TIP3     1456     TIP3     OH2      OT      -0.834000       15.9994           0
     26749 TIP3     1456     TIP3     H1       HT       0.417000       1.00800           0
     26750 TIP3     1456     TIP3     H2       HT       0.417000       1.00800           0
     26751 TIP3     1457     TIP3     OH2      OT      -0.834000       15.9994           0
     26752 TIP3     1457     TIP3     H1       HT       0.417000       1.00800           0
     26753 TIP3     1457     TIP3     H2       HT       0.417000       1.00800           0
     26754 TIP3     1458     TIP3     OH2      OT      -0.834000       15.9994           0
     26755 TIP3     1458     TIP3     H1       HT       0.417000       1.00800           0
     26756 TIP3     1458     TIP3     H2       HT       0.417000       1.00800           0
     26757 TIP3     1459     TIP3     OH2      OT      -0.834000       15.9994           0
     26758 TIP3     1459     TIP3     H1       HT       0.417000       1.00800           0
     26759 TIP3     1459     TIP3     H2       HT       0.417000       1.00800           0
     26760 TIP3     1460     TIP3     OH2      OT      -0.834000       15.9994           0
     26761 TIP3     1460     TIP3     H1       HT       0.417000       1.00800           0
     26762 TIP3     1460     TIP3     H2       HT       0.417000       1.00800           0
     26763 TIP3     1461     TIP3     OH2      OT      -0.834000       15.9994           0
     26764 TIP3     1461     TIP3     H1       HT       0.417000       1.00800           0
     26765 TIP3     1461     TIP3     H2       HT       0.417000       1.00800           0
     26766 TIP3     1462     TIP3     OH2      OT      -0.834000       15.9994           0
     26767 TIP3     1462     TIP3     H1       HT       0.417000       1.00800           0
     26768 TIP3     1462     TIP3     H2       HT       0.417000       1.00800           0
     26769 TIP3     1463     TIP3     OH2      OT      -0.834000       15.9994           0
     26770 TIP3     1463     TIP3     H1       HT       0.417000       1.00800           0
     26771 TIP3     1463     TIP3     H2       HT       0.417000       1.00800           0
     26772 TIP3     1464     TIP3     OH2      OT      -0.834000       15.9994           0
     26773 TIP3     1464     TIP3     H1       HT       0.417000       1.00800           0
     26774 TIP3     1464     TIP3     H2       HT       0.417000       1.00800           0
     26775 TIP3     1465     TIP3     OH2      OT      -0.834000       15.9994           0
     26776 TIP3     1465     TIP3     H1       HT       0.417000       1.00800           0
     26777 TIP3     1465     TIP3     H2       HT       0.417000       1.00800           0
     26778 TIP3     1466     TIP3     OH2      OT      -0.834000       15.9994           0
     26779 TIP3     1466     TIP3     H1       HT       0.417000       1.00800           0
     26780 TIP3     1466     TIP3     H2       HT       0.417000       1.00800           0
     26781 TIP3     1467     TIP3     OH2      OT      -0.834000       15.9994           0
     26782 TIP3     1467     TIP3     H1       HT       0.417000       1.00800           0
     26783 TIP3     1467     TIP3     H2       HT       0.417000       1.00800           0
     26784 TIP3     1468     TIP3     OH2      OT      -0.834000       15.9994           0
     26785 TIP3     1468     TIP3     H1       HT       0.417000       1.00800           0
     26786 TIP3     1468     TIP3     H2       HT       0.417000       1.00800           0
     26787 TIP3     1469     TIP3     OH2      OT      -0.834000       15.9994           0
     26788 TIP3     1469     TIP3     H1       HT       0.417000       1.00800           0
     26789 TIP3     1469     TIP3     H2       HT       0.417000       1.00800           0
     26790 TIP3     1470     TIP3     OH2      OT      -0.834000       15.9994           0
     26791 TIP3     1470     TIP3     H1       HT       0.417000       1.00800           0
     26792 TIP3     1470     TIP3     H2       HT       0.417000       1.00800           0
     26793 TIP3     1471     TIP3     OH2      OT      -0.834000       15.9994           0
     26794 TIP3     1471     TIP3     H1       HT       0.417000       1.00800           0
     26795 TIP3     1471     TIP3     H2       HT       0.417000       1.00800           0
     26796 TIP3     1472     TIP3     OH2      OT      -0.834000       15.9994           0
     26797 TIP3     1472     TIP3     H1       HT       0.417000       1.00800           0
     26798 TIP3     1472     TIP3     H2       HT       0.417000       1.00800           0
     26799 TIP3     1473     TIP3     OH2      OT      -0.834000       15.9994           0
     26800 TIP3     1473     TIP3     H1       HT       0.417000       1.00800           0
     26801 TIP3     1473     TIP3     H2       HT       0.417000       1.00800           0
     26802 TIP3     1474     TIP3     OH2      OT      -0.834000       15.9994           0
     26803 TIP3     1474     TIP3     H1       HT       0.417000       1.00800           0
     26804 TIP3     1474     TIP3     H2       HT       0.417000       1.00800           0
     26805 TIP3     1475     TIP3     OH2      OT      -0.834000       15.9994           0
     26806 TIP3     1475     TIP3     H1       HT       0.417000       1.00800           0
     26807 TIP3     1475     TIP3     H2       HT       0.417000       1.00800           0
     26808 TIP3     1476     TIP3     OH2      OT      -0.834000       15.9994           0
     26809 TIP3     1476     TIP3     H1       HT       0.417000       1.00800           0
     26810 TIP3     1476     TIP3     H2       HT       0.417000       1.00800           0
     26811 TIP3     1477     TIP3     OH2      OT      -0.834000       15.9994           0
     26812 TIP3     1477     TIP3     H1       HT       0.417000       1.00800           0
     26813 TIP3     1477     TIP3     H2       HT       0.417000       1.00800           0
     26814 TIP3     1478     TIP3     OH2      OT      -0.834000       15.9994           0
     26815 TIP3     1478     TIP3     H1       HT       0.417000       1.00800           0
     26816 TIP3     1478     TIP3     H2       HT       0.417000       1.00800           0
     26817 TIP3     1479     TIP3     OH2      OT      -0.834000       15.9994           0
     26818 TIP3     1479     TIP3     H1       HT       0.417000       1.00800           0
     26819 TIP3     1479     TIP3     H2       HT       0.417000       1.00800           0
     26820 TIP3     1480     TIP3     OH2      OT      -0.834000       15.9994           0
     26821 TIP3     1480     TIP3     H1       HT       0.417000       1.00800           0
     26822 TIP3     1480     TIP3     H2       HT       0.417000       1.00800           0
     26823 TIP3     1481     TIP3     OH2      OT      -0.834000       15.9994           0
     26824 TIP3     1481     TIP3     H1       HT       0.417000       1.00800           0
     26825 TIP3     1481     TIP3     H2       HT       0.417000       1.00800           0
     26826 TIP3     1482     TIP3     OH2      OT      -0.834000       15.9994           0
     26827 TIP3     1482     TIP3     H1       HT       0.417000       1.00800           0
     26828 TIP3     1482     TIP3     H2       HT       0.417000       1.00800           0
     26829 TIP3     1483     TIP3     OH2      OT      -0.834000       15.9994           0
     26830 TIP3     1483     TIP3     H1       HT       0.417000       1.00800           0
     26831 TIP3     1483     TIP3     H2       HT       0.417000       1.00800           0
     26832 TIP3     1484     TIP3     OH2      OT      -0.834000       15.9994           0
     26833 TIP3     1484     TIP3     H1       HT       0.417000       1.00800           0
     26834 TIP3     1484     TIP3     H2       HT       0.417000       1.00800           0
     26835 TIP3     1485     TIP3     OH2      OT      -0.834000       15.9994           0
     26836 TIP3     1485     TIP3     H1       HT       0.417000       1.00800           0
     26837 TIP3     1485     TIP3     H2       HT       0.417000       1.00800           0
     26838 TIP3     1486     TIP3     OH2      OT      -0.834000       15.9994           0
     26839 TIP3     1486     TIP3     H1       HT       0.417000       1.00800           0
     26840 TIP3     1486     TIP3     H2       HT       0.417000       1.00800           0
     26841 TIP3     1487     TIP3     OH2      OT      -0.834000       15.9994           0
     26842 TIP3     1487     TIP3     H1       HT       0.417000       1.00800           0
     26843 TIP3     1487     TIP3     H2       HT       0.417000       1.00800           0
     26844 TIP3     1488     TIP3     OH2      OT      -0.834000       15.9994           0
     26845 TIP3     1488     TIP3     H1       HT       0.417000       1.00800           0
     26846 TIP3     1488     TIP3     H2       HT       0.417000       1.00800           0
     26847 TIP3     1489     TIP3     OH2      OT      -0.834000       15.9994           0
     26848 TIP3     1489     TIP3     H1       HT       0.417000       1.00800           0
     26849 TIP3     1489     TIP3     H2       HT       0.417000       1.00800           0
     26850 TIP3     1490     TIP3     OH2      OT      -0.834000       15.9994           0
     26851 TIP3     1490     TIP3     H1       HT       0.417000       1.00800           0
     26852 TIP3     1490     TIP3     H2       HT       0.417000       1.00800           0
     26853 TIP3     1491     TIP3     OH2      OT      -0.834000       15.9994           0
     26854 TIP3     1491     TIP3     H1       HT       0.417000       1.00800           0
     26855 TIP3     1491     TIP3     H2       HT       0.417000       1.00800           0
     26856 TIP3     1492     TIP3     OH2      OT      -0.834000       15.9994           0
     26857 TIP3     1492     TIP3     H1       HT       0.417000       1.00800           0
     26858 TIP3     1492     TIP3     H2       HT       0.417000       1.00800           0
     26859 TIP3     1493     TIP3     OH2      OT      -0.834000       15.9994           0
     26860 TIP3     1493     TIP3     H1       HT       0.417000       1.00800           0
     26861 TIP3     1493     TIP3     H2       HT       0.417000       1.00800           0
     26862 TIP3     1494     TIP3     OH2      OT      -0.834000       15.9994           0
     26863 TIP3     1494     TIP3     H1       HT       0.417000       1.00800           0
     26864 TIP3     1494     TIP3     H2       HT       0.417000       1.00800           0
     26865 TIP3     1495     TIP3     OH2      OT      -0.834000       15.9994           0
     26866 TIP3     1495     TIP3     H1       HT       0.417000       1.00800           0
     26867 TIP3     1495     TIP3     H2       HT       0.417000       1.00800           0
     26868 TIP3     1496     TIP3     OH2      OT      -0.834000       15.9994           0
     26869 TIP3     1496     TIP3     H1       HT       0.417000       1.00800           0
     26870 TIP3     1496     TIP3     H2       HT       0.417000       1.00800           0
     26871 TIP3     1497     TIP3     OH2      OT      -0.834000       15.9994           0
     26872 TIP3     1497     TIP3     H1       HT       0.417000       1.00800           0
     26873 TIP3     1497     TIP3     H2       HT       0.417000       1.00800           0
     26874 TIP3     1498     TIP3     OH2      OT      -0.834000       15.9994           0
     26875 TIP3     1498     TIP3     H1       HT       0.417000       1.00800           0
     26876 TIP3     1498     TIP3     H2       HT       0.417000       1.00800           0
     26877 TIP3     1499     TIP3     OH2      OT      -0.834000       15.9994           0
     26878 TIP3     1499     TIP3     H1       HT       0.417000       1.00800           0
     26879 TIP3     1499     TIP3     H2       HT       0.417000       1.00800           0
     26880 TIP3     1500     TIP3     OH2      OT      -0.834000       15.9994           0
     26881 TIP3     1500     TIP3     H1       HT       0.417000       1.00800           0
     26882 TIP3     1500     TIP3     H2       HT       0.417000       1.00800           0
     26883 TIP3     1501     TIP3     OH2      OT      -0.834000       15.9994           0
     26884 TIP3     1501     TIP3     H1       HT       0.417000       1.00800           0
     26885 TIP3     1501     TIP3     H2       HT       0.417000       1.00800           0
     26886 TIP3     1502     TIP3     OH2      OT      -0.834000       15.9994           0
     26887 TIP3     1502     TIP3     H1       HT       0.417000       1.00800           0
     26888 TIP3     1502     TIP3     H2       HT       0.417000       1.00800           0
     26889 TIP3     1503     TIP3     OH2      OT      -0.834000       15.9994           0
     26890 TIP3     1503     TIP3     H1       HT       0.417000       1.00800           0
     26891 TIP3     1503     TIP3     H2       HT       0.417000       1.00800           0
     26892 TIP3     1504     TIP3     OH2      OT      -0.834000       15.9994           0
     26893 TIP3     1504     TIP3     H1       HT       0.417000       1.00800           0
     26894 TIP3     1504     TIP3     H2       HT       0.417000       1.00800           0
     26895 TIP3     1505     TIP3     OH2      OT      -0.834000       15.9994           0
     26896 TIP3     1505     TIP3     H1       HT       0.417000       1.00800           0
     26897 TIP3     1505     TIP3     H2       HT       0.417000       1.00800           0
     26898 TIP3     1506     TIP3     OH2      OT      -0.834000       15.9994           0
     26899 TIP3     1506     TIP3     H1       HT       0.417000       1.00800           0
     26900 TIP3     1506     TIP3     H2       HT       0.417000       1.00800           0
     26901 TIP3     1507     TIP3     OH2      OT      -0.834000       15.9994           0
     26902 TIP3     1507     TIP3     H1       HT       0.417000       1.00800           0
     26903 TIP3     1507     TIP3     H2       HT       0.417000       1.00800           0
     26904 TIP3     1508     TIP3     OH2      OT      -0.834000       15.9994           0
     26905 TIP3     1508     TIP3     H1       HT       0.417000       1.00800           0
     26906 TIP3     1508     TIP3     H2       HT       0.417000       1.00800           0
     26907 TIP3     1509     TIP3     OH2      OT      -0.834000       15.9994           0
     26908 TIP3     1509     TIP3     H1       HT       0.417000       1.00800           0
     26909 TIP3     1509     TIP3     H2       HT       0.417000       1.00800           0
     26910 TIP3     1510     TIP3     OH2      OT      -0.834000       15.9994           0
     26911 TIP3     1510     TIP3     H1       HT       0.417000       1.00800           0
     26912 TIP3     1510     TIP3     H2       HT       0.417000       1.00800           0
     26913 TIP3     1511     TIP3     OH2      OT      -0.834000       15.9994           0
     26914 TIP3     1511     TIP3     H1       HT       0.417000       1.00800           0
     26915 TIP3     1511     TIP3     H2       HT       0.417000       1.00800           0
     26916 TIP3     1512     TIP3     OH2      OT      -0.834000       15.9994           0
     26917 TIP3     1512     TIP3     H1       HT       0.417000       1.00800           0
     26918 TIP3     1512     TIP3     H2       HT       0.417000       1.00800           0
     26919 TIP3     1513     TIP3     OH2      OT      -0.834000       15.9994           0
     26920 TIP3     1513     TIP3     H1       HT       0.417000       1.00800           0
     26921 TIP3     1513     TIP3     H2       HT       0.417000       1.00800           0
     26922 TIP3     1514     TIP3     OH2      OT      -0.834000       15.9994           0
     26923 TIP3     1514     TIP3     H1       HT       0.417000       1.00800           0
     26924 TIP3     1514     TIP3     H2       HT       0.417000       1.00800           0
     26925 TIP3     1515     TIP3     OH2      OT      -0.834000       15.9994           0
     26926 TIP3     1515     TIP3     H1       HT       0.417000       1.00800           0
     26927 TIP3     1515     TIP3     H2       HT       0.417000       1.00800           0
     26928 TIP3     1516     TIP3     OH2      OT      -0.834000       15.9994           0
     26929 TIP3     1516     TIP3     H1       HT       0.417000       1.00800           0
     26930 TIP3     1516     TIP3     H2       HT       0.417000       1.00800           0
     26931 TIP3     1517     TIP3     OH2      OT      -0.834000       15.9994           0
     26932 TIP3     1517     TIP3     H1       HT       0.417000       1.00800           0
     26933 TIP3     1517     TIP3     H2       HT       0.417000       1.00800           0
     26934 TIP3     1518     TIP3     OH2      OT      -0.834000       15.9994           0
     26935 TIP3     1518     TIP3     H1       HT       0.417000       1.00800           0
     26936 TIP3     1518     TIP3     H2       HT       0.417000       1.00800           0
     26937 TIP3     1519     TIP3     OH2      OT      -0.834000       15.9994           0
     26938 TIP3     1519     TIP3     H1       HT       0.417000       1.00800           0
     26939 TIP3     1519     TIP3     H2       HT       0.417000       1.00800           0
     26940 TIP3     1520     TIP3     OH2      OT      -0.834000       15.9994           0
     26941 TIP3     1520     TIP3     H1       HT       0.417000       1.00800           0
     26942 TIP3     1520     TIP3     H2       HT       0.417000       1.00800           0
     26943 TIP3     1521     TIP3     OH2      OT      -0.834000       15.9994           0
     26944 TIP3     1521     TIP3     H1       HT       0.417000       1.00800           0
     26945 TIP3     1521     TIP3     H2       HT       0.417000       1.00800           0
     26946 TIP3     1522     TIP3     OH2      OT      -0.834000       15.9994           0
     26947 TIP3     1522     TIP3     H1       HT       0.417000       1.00800           0
     26948 TIP3     1522     TIP3     H2       HT       0.417000       1.00800           0
     26949 TIP3     1523     TIP3     OH2      OT      -0.834000       15.9994           0
     26950 TIP3     1523     TIP3     H1       HT       0.417000       1.00800           0
     26951 TIP3     1523     TIP3     H2       HT       0.417000       1.00800           0
     26952 TIP3     1524     TIP3     OH2      OT      -0.834000       15.9994           0
     26953 TIP3     1524     TIP3     H1       HT       0.417000       1.00800           0
     26954 TIP3     1524     TIP3     H2       HT       0.417000       1.00800           0
     26955 TIP3     1525     TIP3     OH2      OT      -0.834000       15.9994           0
     26956 TIP3     1525     TIP3     H1       HT       0.417000       1.00800           0
     26957 TIP3     1525     TIP3     H2       HT       0.417000       1.00800           0
     26958 TIP3     1526     TIP3     OH2      OT      -0.834000       15.9994           0
     26959 TIP3     1526     TIP3     H1       HT       0.417000       1.00800           0
     26960 TIP3     1526     TIP3     H2       HT       0.417000       1.00800           0
     26961 TIP3     1527     TIP3     OH2      OT      -0.834000       15.9994           0
     26962 TIP3     1527     TIP3     H1       HT       0.417000       1.00800           0
     26963 TIP3     1527     TIP3     H2       HT       0.417000       1.00800           0
     26964 TIP3     1528     TIP3     OH2      OT      -0.834000       15.9994           0
     26965 TIP3     1528     TIP3     H1       HT       0.417000       1.00800           0
     26966 TIP3     1528     TIP3     H2       HT       0.417000       1.00800           0
     26967 TIP3     1529     TIP3     OH2      OT      -0.834000       15.9994           0
     26968 TIP3     1529     TIP3     H1       HT       0.417000       1.00800           0
     26969 TIP3     1529     TIP3     H2       HT       0.417000       1.00800           0
     26970 TIP3     1530     TIP3     OH2      OT      -0.834000       15.9994           0
     26971 TIP3     1530     TIP3     H1       HT       0.417000       1.00800           0
     26972 TIP3     1530     TIP3     H2       HT       0.417000       1.00800           0
     26973 TIP3     1531     TIP3     OH2      OT      -0.834000       15.9994           0
     26974 TIP3     1531     TIP3     H1       HT       0.417000       1.00800           0
     26975 TIP3     1531     TIP3     H2       HT       0.417000       1.00800           0
     26976 TIP3     1532     TIP3     OH2      OT      -0.834000       15.9994           0
     26977 TIP3     1532     TIP3     H1       HT       0.417000       1.00800           0
     26978 TIP3     1532     TIP3     H2       HT       0.417000       1.00800           0
     26979 TIP3     1533     TIP3     OH2      OT      -0.834000       15.9994           0
     26980 TIP3     1533     TIP3     H1       HT       0.417000       1.00800           0
     26981 TIP3     1533     TIP3     H2       HT       0.417000       1.00800           0
     26982 TIP3     1534     TIP3     OH2      OT      -0.834000       15.9994           0
     26983 TIP3     1534     TIP3     H1       HT       0.417000       1.00800           0
     26984 TIP3     1534     TIP3     H2       HT       0.417000       1.00800           0
     26985 TIP3     1535     TIP3     OH2      OT      -0.834000       15.9994           0
     26986 TIP3     1535     TIP3     H1       HT       0.417000       1.00800           0
     26987 TIP3     1535     TIP3     H2       HT       0.417000       1.00800           0
     26988 TIP3     1536     TIP3     OH2      OT      -0.834000       15.9994           0
     26989 TIP3     1536     TIP3     H1       HT       0.417000       1.00800           0
     26990 TIP3     1536     TIP3     H2       HT       0.417000       1.00800           0
     26991 TIP3     1537     TIP3     OH2      OT      -0.834000       15.9994           0
     26992 TIP3     1537     TIP3     H1       HT       0.417000       1.00800           0
     26993 TIP3     1537     TIP3     H2       HT       0.417000       1.00800           0
     26994 TIP3     1538     TIP3     OH2      OT      -0.834000       15.9994           0
     26995 TIP3     1538     TIP3     H1       HT       0.417000       1.00800           0
     26996 TIP3     1538     TIP3     H2       HT       0.417000       1.00800           0
     26997 TIP3     1539     TIP3     OH2      OT      -0.834000       15.9994           0
     26998 TIP3     1539     TIP3     H1       HT       0.417000       1.00800           0
     26999 TIP3     1539     TIP3     H2       HT       0.417000       1.00800           0
     27000 TIP3     1540     TIP3     OH2      OT      -0.834000       15.9994           0
     27001 TIP3     1540     TIP3     H1       HT       0.417000       1.00800           0
     27002 TIP3     1540     TIP3     H2       HT       0.417000       1.00800           0
     27003 TIP3     1541     TIP3     OH2      OT      -0.834000       15.9994           0
     27004 TIP3     1541     TIP3     H1       HT       0.417000       1.00800           0
     27005 TIP3     1541     TIP3     H2       HT       0.417000       1.00800           0
     27006 TIP3     1542     TIP3     OH2      OT      -0.834000       15.9994           0
     27007 TIP3     1542     TIP3     H1       HT       0.417000       1.00800           0
     27008 TIP3     1542     TIP3     H2       HT       0.417000       1.00800           0
     27009 TIP3     1543     TIP3     OH2      OT      -0.834000       15.9994           0
     27010 TIP3     1543     TIP3     H1       HT       0.417000       1.00800           0
     27011 TIP3     1543     TIP3     H2       HT       0.417000       1.00800           0
     27012 TIP3     1544     TIP3     OH2      OT      -0.834000       15.9994           0
     27013 TIP3     1544     TIP3     H1       HT       0.417000       1.00800           0
     27014 TIP3     1544     TIP3     H2       HT       0.417000       1.00800           0
     27015 TIP3     1545     TIP3     OH2      OT      -0.834000       15.9994           0
     27016 TIP3     1545     TIP3     H1       HT       0.417000       1.00800           0
     27017 TIP3     1545     TIP3     H2       HT       0.417000       1.00800           0
     27018 TIP3     1546     TIP3     OH2      OT      -0.834000       15.9994           0
     27019 TIP3     1546     TIP3     H1       HT       0.417000       1.00800           0
     27020 TIP3     1546     TIP3     H2       HT       0.417000       1.00800           0
     27021 TIP3     1547     TIP3     OH2      OT      -0.834000       15.9994           0
     27022 TIP3     1547     TIP3     H1       HT       0.417000       1.00800           0
     27023 TIP3     1547     TIP3     H2       HT       0.417000       1.00800           0
     27024 TIP3     1548     TIP3     OH2      OT      -0.834000       15.9994           0
     27025 TIP3     1548     TIP3     H1       HT       0.417000       1.00800           0
     27026 TIP3     1548     TIP3     H2       HT       0.417000       1.00800           0
     27027 TIP3     1549     TIP3     OH2      OT      -0.834000       15.9994           0
     27028 TIP3     1549     TIP3     H1       HT       0.417000       1.00800           0
     27029 TIP3     1549     TIP3     H2       HT       0.417000       1.00800           0
     27030 TIP3     1550     TIP3     OH2      OT      -0.834000       15.9994           0
     27031 TIP3     1550     TIP3     H1       HT       0.417000       1.00800           0
     27032 TIP3     1550     TIP3     H2       HT       0.417000       1.00800           0
     27033 TIP3     1551     TIP3     OH2      OT      -0.834000       15.9994           0
     27034 TIP3     1551     TIP3     H1       HT       0.417000       1.00800           0
     27035 TIP3     1551     TIP3     H2       HT       0.417000       1.00800           0
     27036 TIP3     1552     TIP3     OH2      OT      -0.834000       15.9994           0
     27037 TIP3     1552     TIP3     H1       HT       0.417000       1.00800           0
     27038 TIP3     1552     TIP3     H2       HT       0.417000       1.00800           0
     27039 TIP3     1553     TIP3     OH2      OT      -0.834000       15.9994           0
     27040 TIP3     1553     TIP3     H1       HT       0.417000       1.00800           0
     27041 TIP3     1553     TIP3     H2       HT       0.417000       1.00800           0
     27042 TIP3     1554     TIP3     OH2      OT      -0.834000       15.9994           0
     27043 TIP3     1554     TIP3     H1       HT       0.417000       1.00800           0
     27044 TIP3     1554     TIP3     H2       HT       0.417000       1.00800           0
     27045 TIP3     1555     TIP3     OH2      OT      -0.834000       15.9994           0
     27046 TIP3     1555     TIP3     H1       HT       0.417000       1.00800           0
     27047 TIP3     1555     TIP3     H2       HT       0.417000       1.00800           0
     27048 TIP3     1556     TIP3     OH2      OT      -0.834000       15.9994           0
     27049 TIP3     1556     TIP3     H1       HT       0.417000       1.00800           0
     27050 TIP3     1556     TIP3     H2       HT       0.417000       1.00800           0
     27051 TIP3     1557     TIP3     OH2      OT      -0.834000       15.9994           0
     27052 TIP3     1557     TIP3     H1       HT       0.417000       1.00800           0
     27053 TIP3     1557     TIP3     H2       HT       0.417000       1.00800           0
     27054 TIP3     1558     TIP3     OH2      OT      -0.834000       15.9994           0
     27055 TIP3     1558     TIP3     H1       HT       0.417000       1.00800           0
     27056 TIP3     1558     TIP3     H2       HT       0.417000       1.00800           0
     27057 TIP3     1559     TIP3     OH2      OT      -0.834000       15.9994           0
     27058 TIP3     1559     TIP3     H1       HT       0.417000       1.00800           0
     27059 TIP3     1559     TIP3     H2       HT       0.417000       1.00800           0
     27060 TIP3     1560     TIP3     OH2      OT      -0.834000       15.9994           0
     27061 TIP3     1560     TIP3     H1       HT       0.417000       1.00800           0
     27062 TIP3     1560     TIP3     H2       HT       0.417000       1.00800           0
     27063 TIP3     1561     TIP3     OH2      OT      -0.834000       15.9994           0
     27064 TIP3     1561     TIP3     H1       HT       0.417000       1.00800           0
     27065 TIP3     1561     TIP3     H2       HT       0.417000       1.00800           0
     27066 TIP3     1562     TIP3     OH2      OT      -0.834000       15.9994           0
     27067 TIP3     1562     TIP3     H1       HT       0.417000       1.00800           0
     27068 TIP3     1562     TIP3     H2       HT       0.417000       1.00800           0
     27069 TIP3     1563     TIP3     OH2      OT      -0.834000       15.9994           0
     27070 TIP3     1563     TIP3     H1       HT       0.417000       1.00800           0
     27071 TIP3     1563     TIP3     H2       HT       0.417000       1.00800           0
     27072 TIP3     1564     TIP3     OH2      OT      -0.834000       15.9994           0
     27073 TIP3     1564     TIP3     H1       HT       0.417000       1.00800           0
     27074 TIP3     1564     TIP3     H2       HT       0.417000       1.00800           0
     27075 TIP3     1565     TIP3     OH2      OT      -0.834000       15.9994           0
     27076 TIP3     1565     TIP3     H1       HT       0.417000       1.00800           0
     27077 TIP3     1565     TIP3     H2       HT       0.417000       1.00800           0
     27078 TIP3     1566     TIP3     OH2      OT      -0.834000       15.9994           0
     27079 TIP3     1566     TIP3     H1       HT       0.417000       1.00800           0
     27080 TIP3     1566     TIP3     H2       HT       0.417000       1.00800           0
     27081 TIP3     1567     TIP3     OH2      OT      -0.834000       15.9994           0
     27082 TIP3     1567     TIP3     H1       HT       0.417000       1.00800           0
     27083 TIP3     1567     TIP3     H2       HT       0.417000       1.00800           0
     27084 TIP3     1568     TIP3     OH2      OT      -0.834000       15.9994           0
     27085 TIP3     1568     TIP3     H1       HT       0.417000       1.00800           0
     27086 TIP3     1568     TIP3     H2       HT       0.417000       1.00800           0
     27087 TIP3     1569     TIP3     OH2      OT      -0.834000       15.9994           0
     27088 TIP3     1569     TIP3     H1       HT       0.417000       1.00800           0
     27089 TIP3     1569     TIP3     H2       HT       0.417000       1.00800           0
     27090 TIP3     1570     TIP3     OH2      OT      -0.834000       15.9994           0
     27091 TIP3     1570     TIP3     H1       HT       0.417000       1.00800           0
     27092 TIP3     1570     TIP3     H2       HT       0.417000       1.00800           0
     27093 TIP3     1571     TIP3     OH2      OT      -0.834000       15.9994           0
     27094 TIP3     1571     TIP3     H1       HT       0.417000       1.00800           0
     27095 TIP3     1571     TIP3     H2       HT       0.417000       1.00800           0
     27096 TIP3     1572     TIP3     OH2      OT      -0.834000       15.9994           0
     27097 TIP3     1572     TIP3     H1       HT       0.417000       1.00800           0
     27098 TIP3     1572     TIP3     H2       HT       0.417000       1.00800           0
     27099 TIP3     1573     TIP3     OH2      OT      -0.834000       15.9994           0
     27100 TIP3     1573     TIP3     H1       HT       0.417000       1.00800           0
     27101 TIP3     1573     TIP3     H2       HT       0.417000       1.00800           0
     27102 TIP3     1574     TIP3     OH2      OT      -0.834000       15.9994           0
     27103 TIP3     1574     TIP3     H1       HT       0.417000       1.00800           0
     27104 TIP3     1574     TIP3     H2       HT       0.417000       1.00800           0
     27105 TIP3     1575     TIP3     OH2      OT      -0.834000       15.9994           0
     27106 TIP3     1575     TIP3     H1       HT       0.417000       1.00800           0
     27107 TIP3     1575     TIP3     H2       HT       0.417000       1.00800           0
     27108 TIP3     1576     TIP3     OH2      OT      -0.834000       15.9994           0
     27109 TIP3     1576     TIP3     H1       HT       0.417000       1.00800           0
     27110 TIP3     1576     TIP3     H2       HT       0.417000       1.00800           0
     27111 TIP3     1577     TIP3     OH2      OT      -0.834000       15.9994           0
     27112 TIP3     1577     TIP3     H1       HT       0.417000       1.00800           0
     27113 TIP3     1577     TIP3     H2       HT       0.417000       1.00800           0
     27114 TIP3     1578     TIP3     OH2      OT      -0.834000       15.9994           0
     27115 TIP3     1578     TIP3     H1       HT       0.417000       1.00800           0
     27116 TIP3     1578     TIP3     H2       HT       0.417000       1.00800           0
     27117 TIP3     1579     TIP3     OH2      OT      -0.834000       15.9994           0
     27118 TIP3     1579     TIP3     H1       HT       0.417000       1.00800           0
     27119 TIP3     1579     TIP3     H2       HT       0.417000       1.00800           0
     27120 TIP3     1580     TIP3     OH2      OT      -0.834000       15.9994           0
     27121 TIP3     1580     TIP3     H1       HT       0.417000       1.00800           0
     27122 TIP3     1580     TIP3     H2       HT       0.417000       1.00800           0
     27123 TIP3     1581     TIP3     OH2      OT      -0.834000       15.9994           0
     27124 TIP3     1581     TIP3     H1       HT       0.417000       1.00800           0
     27125 TIP3     1581     TIP3     H2       HT       0.417000       1.00800           0
     27126 TIP3     1582     TIP3     OH2      OT      -0.834000       15.9994           0
     27127 TIP3     1582     TIP3     H1       HT       0.417000       1.00800           0
     27128 TIP3     1582     TIP3     H2       HT       0.417000       1.00800           0
     27129 TIP3     1583     TIP3     OH2      OT      -0.834000       15.9994           0
     27130 TIP3     1583     TIP3     H1       HT       0.417000       1.00800           0
     27131 TIP3     1583     TIP3     H2       HT       0.417000       1.00800           0
     27132 TIP3     1584     TIP3     OH2      OT      -0.834000       15.9994           0
     27133 TIP3     1584     TIP3     H1       HT       0.417000       1.00800           0
     27134 TIP3     1584     TIP3     H2       HT       0.417000       1.00800           0
     27135 TIP3     1585     TIP3     OH2      OT      -0.834000       15.9994           0
     27136 TIP3     1585     TIP3     H1       HT       0.417000       1.00800           0
     27137 TIP3     1585     TIP3     H2       HT       0.417000       1.00800           0
     27138 TIP3     1586     TIP3     OH2      OT      -0.834000       15.9994           0
     27139 TIP3     1586     TIP3     H1       HT       0.417000       1.00800           0
     27140 TIP3     1586     TIP3     H2       HT       0.417000       1.00800           0
     27141 TIP3     1587     TIP3     OH2      OT      -0.834000       15.9994           0
     27142 TIP3     1587     TIP3     H1       HT       0.417000       1.00800           0
     27143 TIP3     1587     TIP3     H2       HT       0.417000       1.00800           0
     27144 TIP3     1588     TIP3     OH2      OT      -0.834000       15.9994           0
     27145 TIP3     1588     TIP3     H1       HT       0.417000       1.00800           0
     27146 TIP3     1588     TIP3     H2       HT       0.417000       1.00800           0
     27147 TIP3     1589     TIP3     OH2      OT      -0.834000       15.9994           0
     27148 TIP3     1589     TIP3     H1       HT       0.417000       1.00800           0
     27149 TIP3     1589     TIP3     H2       HT       0.417000       1.00800           0
     27150 TIP3     1590     TIP3     OH2      OT      -0.834000       15.9994           0
     27151 TIP3     1590     TIP3     H1       HT       0.417000       1.00800           0
     27152 TIP3     1590     TIP3     H2       HT       0.417000       1.00800           0
     27153 TIP3     1591     TIP3     OH2      OT      -0.834000       15.9994           0
     27154 TIP3     1591     TIP3     H1       HT       0.417000       1.00800           0
     27155 TIP3     1591     TIP3     H2       HT       0.417000       1.00800           0
     27156 TIP3     1592     TIP3     OH2      OT      -0.834000       15.9994           0
     27157 TIP3     1592     TIP3     H1       HT       0.417000       1.00800           0
     27158 TIP3     1592     TIP3     H2       HT       0.417000       1.00800           0
     27159 TIP3     1593     TIP3     OH2      OT      -0.834000       15.9994           0
     27160 TIP3     1593     TIP3     H1       HT       0.417000       1.00800           0
     27161 TIP3     1593     TIP3     H2       HT       0.417000       1.00800           0
     27162 TIP3     1594     TIP3     OH2      OT      -0.834000       15.9994           0
     27163 TIP3     1594     TIP3     H1       HT       0.417000       1.00800           0
     27164 TIP3     1594     TIP3     H2       HT       0.417000       1.00800           0
     27165 TIP3     1595     TIP3     OH2      OT      -0.834000       15.9994           0
     27166 TIP3     1595     TIP3     H1       HT       0.417000       1.00800           0
     27167 TIP3     1595     TIP3     H2       HT       0.417000       1.00800           0
     27168 TIP3     1596     TIP3     OH2      OT      -0.834000       15.9994           0
     27169 TIP3     1596     TIP3     H1       HT       0.417000       1.00800           0
     27170 TIP3     1596     TIP3     H2       HT       0.417000       1.00800           0
     27171 TIP3     1597     TIP3     OH2      OT      -0.834000       15.9994           0
     27172 TIP3     1597     TIP3     H1       HT       0.417000       1.00800           0
     27173 TIP3     1597     TIP3     H2       HT       0.417000       1.00800           0
     27174 TIP3     1598     TIP3     OH2      OT      -0.834000       15.9994           0
     27175 TIP3     1598     TIP3     H1       HT       0.417000       1.00800           0
     27176 TIP3     1598     TIP3     H2       HT       0.417000       1.00800           0
     27177 TIP3     1599     TIP3     OH2      OT      -0.834000       15.9994           0
     27178 TIP3     1599     TIP3     H1       HT       0.417000       1.00800           0
     27179 TIP3     1599     TIP3     H2       HT       0.417000       1.00800           0
     27180 TIP3     1600     TIP3     OH2      OT      -0.834000       15.9994           0
     27181 TIP3     1600     TIP3     H1       HT       0.417000       1.00800           0
     27182 TIP3     1600     TIP3     H2       HT       0.417000       1.00800           0
     27183 TIP3     1601     TIP3     OH2      OT      -0.834000       15.9994           0
     27184 TIP3     1601     TIP3     H1       HT       0.417000       1.00800           0
     27185 TIP3     1601     TIP3     H2       HT       0.417000       1.00800           0
     27186 TIP3     1602     TIP3     OH2      OT      -0.834000       15.9994           0
     27187 TIP3     1602     TIP3     H1       HT       0.417000       1.00800           0
     27188 TIP3     1602     TIP3     H2       HT       0.417000       1.00800           0
     27189 TIP3     1603     TIP3     OH2      OT      -0.834000       15.9994           0
     27190 TIP3     1603     TIP3     H1       HT       0.417000       1.00800           0
     27191 TIP3     1603     TIP3     H2       HT       0.417000       1.00800           0
     27192 TIP3     1604     TIP3     OH2      OT      -0.834000       15.9994           0
     27193 TIP3     1604     TIP3     H1       HT       0.417000       1.00800           0
     27194 TIP3     1604     TIP3     H2       HT       0.417000       1.00800           0
     27195 TIP3     1605     TIP3     OH2      OT      -0.834000       15.9994           0
     27196 TIP3     1605     TIP3     H1       HT       0.417000       1.00800           0
     27197 TIP3     1605     TIP3     H2       HT       0.417000       1.00800           0
     27198 TIP3     1606     TIP3     OH2      OT      -0.834000       15.9994           0
     27199 TIP3     1606     TIP3     H1       HT       0.417000       1.00800           0
     27200 TIP3     1606     TIP3     H2       HT       0.417000       1.00800           0
     27201 TIP3     1607     TIP3     OH2      OT      -0.834000       15.9994           0
     27202 TIP3     1607     TIP3     H1       HT       0.417000       1.00800           0
     27203 TIP3     1607     TIP3     H2       HT       0.417000       1.00800           0
     27204 TIP3     1608     TIP3     OH2      OT      -0.834000       15.9994           0
     27205 TIP3     1608     TIP3     H1       HT       0.417000       1.00800           0
     27206 TIP3     1608     TIP3     H2       HT       0.417000       1.00800           0
     27207 TIP3     1609     TIP3     OH2      OT      -0.834000       15.9994           0
     27208 TIP3     1609     TIP3     H1       HT       0.417000       1.00800           0
     27209 TIP3     1609     TIP3     H2       HT       0.417000       1.00800           0
     27210 TIP3     1610     TIP3     OH2      OT      -0.834000       15.9994           0
     27211 TIP3     1610     TIP3     H1       HT       0.417000       1.00800           0
     27212 TIP3     1610     TIP3     H2       HT       0.417000       1.00800           0
     27213 TIP3     1611     TIP3     OH2      OT      -0.834000       15.9994           0
     27214 TIP3     1611     TIP3     H1       HT       0.417000       1.00800           0
     27215 TIP3     1611     TIP3     H2       HT       0.417000       1.00800           0
     27216 TIP3     1612     TIP3     OH2      OT      -0.834000       15.9994           0
     27217 TIP3     1612     TIP3     H1       HT       0.417000       1.00800           0
     27218 TIP3     1612     TIP3     H2       HT       0.417000       1.00800           0
     27219 TIP3     1613     TIP3     OH2      OT      -0.834000       15.9994           0
     27220 TIP3     1613     TIP3     H1       HT       0.417000       1.00800           0
     27221 TIP3     1613     TIP3     H2       HT       0.417000       1.00800           0
     27222 TIP3     1614     TIP3     OH2      OT      -0.834000       15.9994           0
     27223 TIP3     1614     TIP3     H1       HT       0.417000       1.00800           0
     27224 TIP3     1614     TIP3     H2       HT       0.417000       1.00800           0
     27225 TIP3     1615     TIP3     OH2      OT      -0.834000       15.9994           0
     27226 TIP3     1615     TIP3     H1       HT       0.417000       1.00800           0
     27227 TIP3     1615     TIP3     H2       HT       0.417000       1.00800           0
     27228 TIP3     1616     TIP3     OH2      OT      -0.834000       15.9994           0
     27229 TIP3     1616     TIP3     H1       HT       0.417000       1.00800           0
     27230 TIP3     1616     TIP3     H2       HT       0.417000       1.00800           0
     27231 TIP3     1617     TIP3     OH2      OT      -0.834000       15.9994           0
     27232 TIP3     1617     TIP3     H1       HT       0.417000       1.00800           0
     27233 TIP3     1617     TIP3     H2       HT       0.417000       1.00800           0
     27234 TIP3     1618     TIP3     OH2      OT      -0.834000       15.9994           0
     27235 TIP3     1618     TIP3     H1       HT       0.417000       1.00800           0
     27236 TIP3     1618     TIP3     H2       HT       0.417000       1.00800           0
     27237 TIP3     1619     TIP3     OH2      OT      -0.834000       15.9994           0
     27238 TIP3     1619     TIP3     H1       HT       0.417000       1.00800           0
     27239 TIP3     1619     TIP3     H2       HT       0.417000       1.00800           0
     27240 TIP3     1620     TIP3     OH2      OT      -0.834000       15.9994           0
     27241 TIP3     1620     TIP3     H1       HT       0.417000       1.00800           0
     27242 TIP3     1620     TIP3     H2       HT       0.417000       1.00800           0
     27243 TIP3     1621     TIP3     OH2      OT      -0.834000       15.9994           0
     27244 TIP3     1621     TIP3     H1       HT       0.417000       1.00800           0
     27245 TIP3     1621     TIP3     H2       HT       0.417000       1.00800           0
     27246 TIP3     1622     TIP3     OH2      OT      -0.834000       15.9994           0
     27247 TIP3     1622     TIP3     H1       HT       0.417000       1.00800           0
     27248 TIP3     1622     TIP3     H2       HT       0.417000       1.00800           0
     27249 TIP3     1623     TIP3     OH2      OT      -0.834000       15.9994           0
     27250 TIP3     1623     TIP3     H1       HT       0.417000       1.00800           0
     27251 TIP3     1623     TIP3     H2       HT       0.417000       1.00800           0
     27252 TIP3     1624     TIP3     OH2      OT      -0.834000       15.9994           0
     27253 TIP3     1624     TIP3     H1       HT       0.417000       1.00800           0
     27254 TIP3     1624     TIP3     H2       HT       0.417000       1.00800           0
     27255 TIP3     1625     TIP3     OH2      OT      -0.834000       15.9994           0
     27256 TIP3     1625     TIP3     H1       HT       0.417000       1.00800           0
     27257 TIP3     1625     TIP3     H2       HT       0.417000       1.00800           0
     27258 TIP3     1626     TIP3     OH2      OT      -0.834000       15.9994           0
     27259 TIP3     1626     TIP3     H1       HT       0.417000       1.00800           0
     27260 TIP3     1626     TIP3     H2       HT       0.417000       1.00800           0
     27261 TIP3     1627     TIP3     OH2      OT      -0.834000       15.9994           0
     27262 TIP3     1627     TIP3     H1       HT       0.417000       1.00800           0
     27263 TIP3     1627     TIP3     H2       HT       0.417000       1.00800           0
     27264 TIP3     1628     TIP3     OH2      OT      -0.834000       15.9994           0
     27265 TIP3     1628     TIP3     H1       HT       0.417000       1.00800           0
     27266 TIP3     1628     TIP3     H2       HT       0.417000       1.00800           0
     27267 TIP3     1629     TIP3     OH2      OT      -0.834000       15.9994           0
     27268 TIP3     1629     TIP3     H1       HT       0.417000       1.00800           0
     27269 TIP3     1629     TIP3     H2       HT       0.417000       1.00800           0
     27270 TIP3     1630     TIP3     OH2      OT      -0.834000       15.9994           0
     27271 TIP3     1630     TIP3     H1       HT       0.417000       1.00800           0
     27272 TIP3     1630     TIP3     H2       HT       0.417000       1.00800           0
     27273 TIP3     1631     TIP3     OH2      OT      -0.834000       15.9994           0
     27274 TIP3     1631     TIP3     H1       HT       0.417000       1.00800           0
     27275 TIP3     1631     TIP3     H2       HT       0.417000       1.00800           0
     27276 TIP3     1632     TIP3     OH2      OT      -0.834000       15.9994           0
     27277 TIP3     1632     TIP3     H1       HT       0.417000       1.00800           0
     27278 TIP3     1632     TIP3     H2       HT       0.417000       1.00800           0
     27279 TIP3     1633     TIP3     OH2      OT      -0.834000       15.9994           0
     27280 TIP3     1633     TIP3     H1       HT       0.417000       1.00800           0
     27281 TIP3     1633     TIP3     H2       HT       0.417000       1.00800           0
     27282 TIP3     1634     TIP3     OH2      OT      -0.834000       15.9994           0
     27283 TIP3     1634     TIP3     H1       HT       0.417000       1.00800           0
     27284 TIP3     1634     TIP3     H2       HT       0.417000       1.00800           0
     27285 TIP3     1635     TIP3     OH2      OT      -0.834000       15.9994           0
     27286 TIP3     1635     TIP3     H1       HT       0.417000       1.00800           0
     27287 TIP3     1635     TIP3     H2       HT       0.417000       1.00800           0
     27288 TIP3     1636     TIP3     OH2      OT      -0.834000       15.9994           0
     27289 TIP3     1636     TIP3     H1       HT       0.417000       1.00800           0
     27290 TIP3     1636     TIP3     H2       HT       0.417000       1.00800           0
     27291 TIP3     1637     TIP3     OH2      OT      -0.834000       15.9994           0
     27292 TIP3     1637     TIP3     H1       HT       0.417000       1.00800           0
     27293 TIP3     1637     TIP3     H2       HT       0.417000       1.00800           0
     27294 TIP3     1638     TIP3     OH2      OT      -0.834000       15.9994           0
     27295 TIP3     1638     TIP3     H1       HT       0.417000       1.00800           0
     27296 TIP3     1638     TIP3     H2       HT       0.417000       1.00800           0
     27297 TIP3     1639     TIP3     OH2      OT      -0.834000       15.9994           0
     27298 TIP3     1639     TIP3     H1       HT       0.417000       1.00800           0
     27299 TIP3     1639     TIP3     H2       HT       0.417000       1.00800           0
     27300 TIP3     1640     TIP3     OH2      OT      -0.834000       15.9994           0
     27301 TIP3     1640     TIP3     H1       HT       0.417000       1.00800           0
     27302 TIP3     1640     TIP3     H2       HT       0.417000       1.00800           0
     27303 TIP3     1641     TIP3     OH2      OT      -0.834000       15.9994           0
     27304 TIP3     1641     TIP3     H1       HT       0.417000       1.00800           0
     27305 TIP3     1641     TIP3     H2       HT       0.417000       1.00800           0
     27306 TIP3     1642     TIP3     OH2      OT      -0.834000       15.9994           0
     27307 TIP3     1642     TIP3     H1       HT       0.417000       1.00800           0
     27308 TIP3     1642     TIP3     H2       HT       0.417000       1.00800           0
     27309 TIP3     1643     TIP3     OH2      OT      -0.834000       15.9994           0
     27310 TIP3     1643     TIP3     H1       HT       0.417000       1.00800           0
     27311 TIP3     1643     TIP3     H2       HT       0.417000       1.00800           0
     27312 TIP3     1644     TIP3     OH2      OT      -0.834000       15.9994           0
     27313 TIP3     1644     TIP3     H1       HT       0.417000       1.00800           0
     27314 TIP3     1644     TIP3     H2       HT       0.417000       1.00800           0
     27315 TIP3     1645     TIP3     OH2      OT      -0.834000       15.9994           0
     27316 TIP3     1645     TIP3     H1       HT       0.417000       1.00800           0
     27317 TIP3     1645     TIP3     H2       HT       0.417000       1.00800           0
     27318 TIP3     1646     TIP3     OH2      OT      -0.834000       15.9994           0
     27319 TIP3     1646     TIP3     H1       HT       0.417000       1.00800           0
     27320 TIP3     1646     TIP3     H2       HT       0.417000       1.00800           0
     27321 TIP3     1647     TIP3     OH2      OT      -0.834000       15.9994           0
     27322 TIP3     1647     TIP3     H1       HT       0.417000       1.00800           0
     27323 TIP3     1647     TIP3     H2       HT       0.417000       1.00800           0
     27324 TIP3     1648     TIP3     OH2      OT      -0.834000       15.9994           0
     27325 TIP3     1648     TIP3     H1       HT       0.417000       1.00800           0
     27326 TIP3     1648     TIP3     H2       HT       0.417000       1.00800           0
     27327 TIP3     1649     TIP3     OH2      OT      -0.834000       15.9994           0
     27328 TIP3     1649     TIP3     H1       HT       0.417000       1.00800           0
     27329 TIP3     1649     TIP3     H2       HT       0.417000       1.00800           0
     27330 TIP3     1650     TIP3     OH2      OT      -0.834000       15.9994           0
     27331 TIP3     1650     TIP3     H1       HT       0.417000       1.00800           0
     27332 TIP3     1650     TIP3     H2       HT       0.417000       1.00800           0
     27333 TIP3     1651     TIP3     OH2      OT      -0.834000       15.9994           0
     27334 TIP3     1651     TIP3     H1       HT       0.417000       1.00800           0
     27335 TIP3     1651     TIP3     H2       HT       0.417000       1.00800           0
     27336 TIP3     1652     TIP3     OH2      OT      -0.834000       15.9994           0
     27337 TIP3     1652     TIP3     H1       HT       0.417000       1.00800           0
     27338 TIP3     1652     TIP3     H2       HT       0.417000       1.00800           0
     27339 TIP3     1653     TIP3     OH2      OT      -0.834000       15.9994           0
     27340 TIP3     1653     TIP3     H1       HT       0.417000       1.00800           0
     27341 TIP3     1653     TIP3     H2       HT       0.417000       1.00800           0
     27342 TIP3     1654     TIP3     OH2      OT      -0.834000       15.9994           0
     27343 TIP3     1654     TIP3     H1       HT       0.417000       1.00800           0
     27344 TIP3     1654     TIP3     H2       HT       0.417000       1.00800           0
     27345 TIP3     1655     TIP3     OH2      OT      -0.834000       15.9994           0
     27346 TIP3     1655     TIP3     H1       HT       0.417000       1.00800           0
     27347 TIP3     1655     TIP3     H2       HT       0.417000       1.00800           0
     27348 TIP3     1656     TIP3     OH2      OT      -0.834000       15.9994           0
     27349 TIP3     1656     TIP3     H1       HT       0.417000       1.00800           0
     27350 TIP3     1656     TIP3     H2       HT       0.417000       1.00800           0
     27351 TIP3     1657     TIP3     OH2      OT      -0.834000       15.9994           0
     27352 TIP3     1657     TIP3     H1       HT       0.417000       1.00800           0
     27353 TIP3     1657     TIP3     H2       HT       0.417000       1.00800           0
     27354 TIP3     1658     TIP3     OH2      OT      -0.834000       15.9994           0
     27355 TIP3     1658     TIP3     H1       HT       0.417000       1.00800           0
     27356 TIP3     1658     TIP3     H2       HT       0.417000       1.00800           0
     27357 TIP3     1659     TIP3     OH2      OT      -0.834000       15.9994           0
     27358 TIP3     1659     TIP3     H1       HT       0.417000       1.00800           0
     27359 TIP3     1659     TIP3     H2       HT       0.417000       1.00800           0
     27360 TIP3     1660     TIP3     OH2      OT      -0.834000       15.9994           0
     27361 TIP3     1660     TIP3     H1       HT       0.417000       1.00800           0
     27362 TIP3     1660     TIP3     H2       HT       0.417000       1.00800           0
     27363 TIP3     1661     TIP3     OH2      OT      -0.834000       15.9994           0
     27364 TIP3     1661     TIP3     H1       HT       0.417000       1.00800           0
     27365 TIP3     1661     TIP3     H2       HT       0.417000       1.00800           0
     27366 TIP3     1662     TIP3     OH2      OT      -0.834000       15.9994           0
     27367 TIP3     1662     TIP3     H1       HT       0.417000       1.00800           0
     27368 TIP3     1662     TIP3     H2       HT       0.417000       1.00800           0
     27369 TIP3     1663     TIP3     OH2      OT      -0.834000       15.9994           0
     27370 TIP3     1663     TIP3     H1       HT       0.417000       1.00800           0
     27371 TIP3     1663     TIP3     H2       HT       0.417000       1.00800           0
     27372 TIP3     1664     TIP3     OH2      OT      -0.834000       15.9994           0
     27373 TIP3     1664     TIP3     H1       HT       0.417000       1.00800           0
     27374 TIP3     1664     TIP3     H2       HT       0.417000       1.00800           0
     27375 TIP3     1665     TIP3     OH2      OT      -0.834000       15.9994           0
     27376 TIP3     1665     TIP3     H1       HT       0.417000       1.00800           0
     27377 TIP3     1665     TIP3     H2       HT       0.417000       1.00800           0
     27378 TIP3     1666     TIP3     OH2      OT      -0.834000       15.9994           0
     27379 TIP3     1666     TIP3     H1       HT       0.417000       1.00800           0
     27380 TIP3     1666     TIP3     H2       HT       0.417000       1.00800           0
     27381 TIP3     1667     TIP3     OH2      OT      -0.834000       15.9994           0
     27382 TIP3     1667     TIP3     H1       HT       0.417000       1.00800           0
     27383 TIP3     1667     TIP3     H2       HT       0.417000       1.00800           0
     27384 TIP3     1668     TIP3     OH2      OT      -0.834000       15.9994           0
     27385 TIP3     1668     TIP3     H1       HT       0.417000       1.00800           0
     27386 TIP3     1668     TIP3     H2       HT       0.417000       1.00800           0
     27387 TIP3     1669     TIP3     OH2      OT      -0.834000       15.9994           0
     27388 TIP3     1669     TIP3     H1       HT       0.417000       1.00800           0
     27389 TIP3     1669     TIP3     H2       HT       0.417000       1.00800           0
     27390 TIP3     1670     TIP3     OH2      OT      -0.834000       15.9994           0
     27391 TIP3     1670     TIP3     H1       HT       0.417000       1.00800           0
     27392 TIP3     1670     TIP3     H2       HT       0.417000       1.00800           0
     27393 TIP3     1671     TIP3     OH2      OT      -0.834000       15.9994           0
     27394 TIP3     1671     TIP3     H1       HT       0.417000       1.00800           0
     27395 TIP3     1671     TIP3     H2       HT       0.417000       1.00800           0
     27396 TIP3     1672     TIP3     OH2      OT      -0.834000       15.9994           0
     27397 TIP3     1672     TIP3     H1       HT       0.417000       1.00800           0
     27398 TIP3     1672     TIP3     H2       HT       0.417000       1.00800           0
     27399 TIP3     1673     TIP3     OH2      OT      -0.834000       15.9994           0
     27400 TIP3     1673     TIP3     H1       HT       0.417000       1.00800           0
     27401 TIP3     1673     TIP3     H2       HT       0.417000       1.00800           0
     27402 TIP3     1674     TIP3     OH2      OT      -0.834000       15.9994           0
     27403 TIP3     1674     TIP3     H1       HT       0.417000       1.00800           0
     27404 TIP3     1674     TIP3     H2       HT       0.417000       1.00800           0
     27405 TIP3     1675     TIP3     OH2      OT      -0.834000       15.9994           0
     27406 TIP3     1675     TIP3     H1       HT       0.417000       1.00800           0
     27407 TIP3     1675     TIP3     H2       HT       0.417000       1.00800           0
     27408 TIP3     1676     TIP3     OH2      OT      -0.834000       15.9994           0
     27409 TIP3     1676     TIP3     H1       HT       0.417000       1.00800           0
     27410 TIP3     1676     TIP3     H2       HT       0.417000       1.00800           0
     27411 TIP3     1677     TIP3     OH2      OT      -0.834000       15.9994           0
     27412 TIP3     1677     TIP3     H1       HT       0.417000       1.00800           0
     27413 TIP3     1677     TIP3     H2       HT       0.417000       1.00800           0
     27414 TIP3     1678     TIP3     OH2      OT      -0.834000       15.9994           0
     27415 TIP3     1678     TIP3     H1       HT       0.417000       1.00800           0
     27416 TIP3     1678     TIP3     H2       HT       0.417000       1.00800           0
     27417 TIP3     1679     TIP3     OH2      OT      -0.834000       15.9994           0
     27418 TIP3     1679     TIP3     H1       HT       0.417000       1.00800           0
     27419 TIP3     1679     TIP3     H2       HT       0.417000       1.00800           0
     27420 TIP3     1680     TIP3     OH2      OT      -0.834000       15.9994           0
     27421 TIP3     1680     TIP3     H1       HT       0.417000       1.00800           0
     27422 TIP3     1680     TIP3     H2       HT       0.417000       1.00800           0
     27423 TIP3     1681     TIP3     OH2      OT      -0.834000       15.9994           0
     27424 TIP3     1681     TIP3     H1       HT       0.417000       1.00800           0
     27425 TIP3     1681     TIP3     H2       HT       0.417000       1.00800           0
     27426 TIP3     1682     TIP3     OH2      OT      -0.834000       15.9994           0
     27427 TIP3     1682     TIP3     H1       HT       0.417000       1.00800           0
     27428 TIP3     1682     TIP3     H2       HT       0.417000       1.00800           0
     27429 TIP3     1683     TIP3     OH2      OT      -0.834000       15.9994           0
     27430 TIP3     1683     TIP3     H1       HT       0.417000       1.00800           0
     27431 TIP3     1683     TIP3     H2       HT       0.417000       1.00800           0
     27432 TIP3     1684     TIP3     OH2      OT      -0.834000       15.9994           0
     27433 TIP3     1684     TIP3     H1       HT       0.417000       1.00800           0
     27434 TIP3     1684     TIP3     H2       HT       0.417000       1.00800           0
     27435 TIP3     1685     TIP3     OH2      OT      -0.834000       15.9994           0
     27436 TIP3     1685     TIP3     H1       HT       0.417000       1.00800           0
     27437 TIP3     1685     TIP3     H2       HT       0.417000       1.00800           0
     27438 TIP3     1686     TIP3     OH2      OT      -0.834000       15.9994           0
     27439 TIP3     1686     TIP3     H1       HT       0.417000       1.00800           0
     27440 TIP3     1686     TIP3     H2       HT       0.417000       1.00800           0
     27441 TIP3     1687     TIP3     OH2      OT      -0.834000       15.9994           0
     27442 TIP3     1687     TIP3     H1       HT       0.417000       1.00800           0
     27443 TIP3     1687     TIP3     H2       HT       0.417000       1.00800           0
     27444 TIP3     1688     TIP3     OH2      OT      -0.834000       15.9994           0
     27445 TIP3     1688     TIP3     H1       HT       0.417000       1.00800           0
     27446 TIP3     1688     TIP3     H2       HT       0.417000       1.00800           0
     27447 TIP3     1689     TIP3     OH2      OT      -0.834000       15.9994           0
     27448 TIP3     1689     TIP3     H1       HT       0.417000       1.00800           0
     27449 TIP3     1689     TIP3     H2       HT       0.417000       1.00800           0
     27450 TIP3     1690     TIP3     OH2      OT      -0.834000       15.9994           0
     27451 TIP3     1690     TIP3     H1       HT       0.417000       1.00800           0
     27452 TIP3     1690     TIP3     H2       HT       0.417000       1.00800           0
     27453 TIP3     1691     TIP3     OH2      OT      -0.834000       15.9994           0
     27454 TIP3     1691     TIP3     H1       HT       0.417000       1.00800           0
     27455 TIP3     1691     TIP3     H2       HT       0.417000       1.00800           0
     27456 TIP3     1692     TIP3     OH2      OT      -0.834000       15.9994           0
     27457 TIP3     1692     TIP3     H1       HT       0.417000       1.00800           0
     27458 TIP3     1692     TIP3     H2       HT       0.417000       1.00800           0
     27459 TIP3     1693     TIP3     OH2      OT      -0.834000       15.9994           0
     27460 TIP3     1693     TIP3     H1       HT       0.417000       1.00800           0
     27461 TIP3     1693     TIP3     H2       HT       0.417000       1.00800           0
     27462 TIP3     1694     TIP3     OH2      OT      -0.834000       15.9994           0
     27463 TIP3     1694     TIP3     H1       HT       0.417000       1.00800           0
     27464 TIP3     1694     TIP3     H2       HT       0.417000       1.00800           0
     27465 TIP3     1695     TIP3     OH2      OT      -0.834000       15.9994           0
     27466 TIP3     1695     TIP3     H1       HT       0.417000       1.00800           0
     27467 TIP3     1695     TIP3     H2       HT       0.417000       1.00800           0
     27468 TIP3     1696     TIP3     OH2      OT      -0.834000       15.9994           0
     27469 TIP3     1696     TIP3     H1       HT       0.417000       1.00800           0
     27470 TIP3     1696     TIP3     H2       HT       0.417000       1.00800           0
     27471 TIP3     1697     TIP3     OH2      OT      -0.834000       15.9994           0
     27472 TIP3     1697     TIP3     H1       HT       0.417000       1.00800           0
     27473 TIP3     1697     TIP3     H2       HT       0.417000       1.00800           0
     27474 TIP3     1698     TIP3     OH2      OT      -0.834000       15.9994           0
     27475 TIP3     1698     TIP3     H1       HT       0.417000       1.00800           0
     27476 TIP3     1698     TIP3     H2       HT       0.417000       1.00800           0
     27477 TIP3     1699     TIP3     OH2      OT      -0.834000       15.9994           0
     27478 TIP3     1699     TIP3     H1       HT       0.417000       1.00800           0
     27479 TIP3     1699     TIP3     H2       HT       0.417000       1.00800           0
     27480 TIP3     1700     TIP3     OH2      OT      -0.834000       15.9994           0
     27481 TIP3     1700     TIP3     H1       HT       0.417000       1.00800           0
     27482 TIP3     1700     TIP3     H2       HT       0.417000       1.00800           0
     27483 TIP3     1701     TIP3     OH2      OT      -0.834000       15.9994           0
     27484 TIP3     1701     TIP3     H1       HT       0.417000       1.00800           0
     27485 TIP3     1701     TIP3     H2       HT       0.417000       1.00800           0
     27486 TIP3     1702     TIP3     OH2      OT      -0.834000       15.9994           0
     27487 TIP3     1702     TIP3     H1       HT       0.417000       1.00800           0
     27488 TIP3     1702     TIP3     H2       HT       0.417000       1.00800           0
     27489 TIP3     1703     TIP3     OH2      OT      -0.834000       15.9994           0
     27490 TIP3     1703     TIP3     H1       HT       0.417000       1.00800           0
     27491 TIP3     1703     TIP3     H2       HT       0.417000       1.00800           0
     27492 TIP3     1704     TIP3     OH2      OT      -0.834000       15.9994           0
     27493 TIP3     1704     TIP3     H1       HT       0.417000       1.00800           0
     27494 TIP3     1704     TIP3     H2       HT       0.417000       1.00800           0
     27495 TIP3     1705     TIP3     OH2      OT      -0.834000       15.9994           0
     27496 TIP3     1705     TIP3     H1       HT       0.417000       1.00800           0
     27497 TIP3     1705     TIP3     H2       HT       0.417000       1.00800           0
     27498 TIP3     1706     TIP3     OH2      OT      -0.834000       15.9994           0
     27499 TIP3     1706     TIP3     H1       HT       0.417000       1.00800           0
     27500 TIP3     1706     TIP3     H2       HT       0.417000       1.00800           0
     27501 TIP3     1707     TIP3     OH2      OT      -0.834000       15.9994           0
     27502 TIP3     1707     TIP3     H1       HT       0.417000       1.00800           0
     27503 TIP3     1707     TIP3     H2       HT       0.417000       1.00800           0
     27504 TIP3     1708     TIP3     OH2      OT      -0.834000       15.9994           0
     27505 TIP3     1708     TIP3     H1       HT       0.417000       1.00800           0
     27506 TIP3     1708     TIP3     H2       HT       0.417000       1.00800           0
     27507 TIP3     1709     TIP3     OH2      OT      -0.834000       15.9994           0
     27508 TIP3     1709     TIP3     H1       HT       0.417000       1.00800           0
     27509 TIP3     1709     TIP3     H2       HT       0.417000       1.00800           0
     27510 TIP3     1710     TIP3     OH2      OT      -0.834000       15.9994           0
     27511 TIP3     1710     TIP3     H1       HT       0.417000       1.00800           0
     27512 TIP3     1710     TIP3     H2       HT       0.417000       1.00800           0
     27513 TIP3     1711     TIP3     OH2      OT      -0.834000       15.9994           0
     27514 TIP3     1711     TIP3     H1       HT       0.417000       1.00800           0
     27515 TIP3     1711     TIP3     H2       HT       0.417000       1.00800           0
     27516 TIP3     1712     TIP3     OH2      OT      -0.834000       15.9994           0
     27517 TIP3     1712     TIP3     H1       HT       0.417000       1.00800           0
     27518 TIP3     1712     TIP3     H2       HT       0.417000       1.00800           0
     27519 TIP3     1713     TIP3     OH2      OT      -0.834000       15.9994           0
     27520 TIP3     1713     TIP3     H1       HT       0.417000       1.00800           0
     27521 TIP3     1713     TIP3     H2       HT       0.417000       1.00800           0
     27522 TIP3     1714     TIP3     OH2      OT      -0.834000       15.9994           0
     27523 TIP3     1714     TIP3     H1       HT       0.417000       1.00800           0
     27524 TIP3     1714     TIP3     H2       HT       0.417000       1.00800           0
     27525 TIP3     1715     TIP3     OH2      OT      -0.834000       15.9994           0
     27526 TIP3     1715     TIP3     H1       HT       0.417000       1.00800           0
     27527 TIP3     1715     TIP3     H2       HT       0.417000       1.00800           0
     27528 TIP3     1716     TIP3     OH2      OT      -0.834000       15.9994           0
     27529 TIP3     1716     TIP3     H1       HT       0.417000       1.00800           0
     27530 TIP3     1716     TIP3     H2       HT       0.417000       1.00800           0
     27531 TIP3     1717     TIP3     OH2      OT      -0.834000       15.9994           0
     27532 TIP3     1717     TIP3     H1       HT       0.417000       1.00800           0
     27533 TIP3     1717     TIP3     H2       HT       0.417000       1.00800           0
     27534 TIP3     1718     TIP3     OH2      OT      -0.834000       15.9994           0
     27535 TIP3     1718     TIP3     H1       HT       0.417000       1.00800           0
     27536 TIP3     1718     TIP3     H2       HT       0.417000       1.00800           0
     27537 TIP3     1719     TIP3     OH2      OT      -0.834000       15.9994           0
     27538 TIP3     1719     TIP3     H1       HT       0.417000       1.00800           0
     27539 TIP3     1719     TIP3     H2       HT       0.417000       1.00800           0
     27540 TIP3     1720     TIP3     OH2      OT      -0.834000       15.9994           0
     27541 TIP3     1720     TIP3     H1       HT       0.417000       1.00800           0
     27542 TIP3     1720     TIP3     H2       HT       0.417000       1.00800           0
     27543 TIP3     1721     TIP3     OH2      OT      -0.834000       15.9994           0
     27544 TIP3     1721     TIP3     H1       HT       0.417000       1.00800           0
     27545 TIP3     1721     TIP3     H2       HT       0.417000       1.00800           0
     27546 TIP3     1722     TIP3     OH2      OT      -0.834000       15.9994           0
     27547 TIP3     1722     TIP3     H1       HT       0.417000       1.00800           0
     27548 TIP3     1722     TIP3     H2       HT       0.417000       1.00800           0
     27549 TIP3     1723     TIP3     OH2      OT      -0.834000       15.9994           0
     27550 TIP3     1723     TIP3     H1       HT       0.417000       1.00800           0
     27551 TIP3     1723     TIP3     H2       HT       0.417000       1.00800           0
     27552 TIP3     1724     TIP3     OH2      OT      -0.834000       15.9994           0
     27553 TIP3     1724     TIP3     H1       HT       0.417000       1.00800           0
     27554 TIP3     1724     TIP3     H2       HT       0.417000       1.00800           0
     27555 TIP3     1725     TIP3     OH2      OT      -0.834000       15.9994           0
     27556 TIP3     1725     TIP3     H1       HT       0.417000       1.00800           0
     27557 TIP3     1725     TIP3     H2       HT       0.417000       1.00800           0
     27558 TIP3     1726     TIP3     OH2      OT      -0.834000       15.9994           0
     27559 TIP3     1726     TIP3     H1       HT       0.417000       1.00800           0
     27560 TIP3     1726     TIP3     H2       HT       0.417000       1.00800           0
     27561 TIP3     1727     TIP3     OH2      OT      -0.834000       15.9994           0
     27562 TIP3     1727     TIP3     H1       HT       0.417000       1.00800           0
     27563 TIP3     1727     TIP3     H2       HT       0.417000       1.00800           0
     27564 TIP3     1728     TIP3     OH2      OT      -0.834000       15.9994           0
     27565 TIP3     1728     TIP3     H1       HT       0.417000       1.00800           0
     27566 TIP3     1728     TIP3     H2       HT       0.417000       1.00800           0
     27567 TIP3     1729     TIP3     OH2      OT      -0.834000       15.9994           0
     27568 TIP3     1729     TIP3     H1       HT       0.417000       1.00800           0
     27569 TIP3     1729     TIP3     H2       HT       0.417000       1.00800           0
     27570 TIP3     1730     TIP3     OH2      OT      -0.834000       15.9994           0
     27571 TIP3     1730     TIP3     H1       HT       0.417000       1.00800           0
     27572 TIP3     1730     TIP3     H2       HT       0.417000       1.00800           0
     27573 TIP3     1731     TIP3     OH2      OT      -0.834000       15.9994           0
     27574 TIP3     1731     TIP3     H1       HT       0.417000       1.00800           0
     27575 TIP3     1731     TIP3     H2       HT       0.417000       1.00800           0
     27576 TIP3     1732     TIP3     OH2      OT      -0.834000       15.9994           0
     27577 TIP3     1732     TIP3     H1       HT       0.417000       1.00800           0
     27578 TIP3     1732     TIP3     H2       HT       0.417000       1.00800           0
     27579 TIP3     1733     TIP3     OH2      OT      -0.834000       15.9994           0
     27580 TIP3     1733     TIP3     H1       HT       0.417000       1.00800           0
     27581 TIP3     1733     TIP3     H2       HT       0.417000       1.00800           0
     27582 TIP3     1734     TIP3     OH2      OT      -0.834000       15.9994           0
     27583 TIP3     1734     TIP3     H1       HT       0.417000       1.00800           0
     27584 TIP3     1734     TIP3     H2       HT       0.417000       1.00800           0
     27585 TIP3     1735     TIP3     OH2      OT      -0.834000       15.9994           0
     27586 TIP3     1735     TIP3     H1       HT       0.417000       1.00800           0
     27587 TIP3     1735     TIP3     H2       HT       0.417000       1.00800           0
     27588 TIP3     1736     TIP3     OH2      OT      -0.834000       15.9994           0
     27589 TIP3     1736     TIP3     H1       HT       0.417000       1.00800           0
     27590 TIP3     1736     TIP3     H2       HT       0.417000       1.00800           0
     27591 TIP3     1737     TIP3     OH2      OT      -0.834000       15.9994           0
     27592 TIP3     1737     TIP3     H1       HT       0.417000       1.00800           0
     27593 TIP3     1737     TIP3     H2       HT       0.417000       1.00800           0
     27594 TIP3     1738     TIP3     OH2      OT      -0.834000       15.9994           0
     27595 TIP3     1738     TIP3     H1       HT       0.417000       1.00800           0
     27596 TIP3     1738     TIP3     H2       HT       0.417000       1.00800           0
     27597 TIP3     1739     TIP3     OH2      OT      -0.834000       15.9994           0
     27598 TIP3     1739     TIP3     H1       HT       0.417000       1.00800           0
     27599 TIP3     1739     TIP3     H2       HT       0.417000       1.00800           0
     27600 TIP3     1740     TIP3     OH2      OT      -0.834000       15.9994           0
     27601 TIP3     1740     TIP3     H1       HT       0.417000       1.00800           0
     27602 TIP3     1740     TIP3     H2       HT       0.417000       1.00800           0
     27603 TIP3     1741     TIP3     OH2      OT      -0.834000       15.9994           0
     27604 TIP3     1741     TIP3     H1       HT       0.417000       1.00800           0
     27605 TIP3     1741     TIP3     H2       HT       0.417000       1.00800           0
     27606 TIP3     1742     TIP3     OH2      OT      -0.834000       15.9994           0
     27607 TIP3     1742     TIP3     H1       HT       0.417000       1.00800           0
     27608 TIP3     1742     TIP3     H2       HT       0.417000       1.00800           0
     27609 TIP3     1743     TIP3     OH2      OT      -0.834000       15.9994           0
     27610 TIP3     1743     TIP3     H1       HT       0.417000       1.00800           0
     27611 TIP3     1743     TIP3     H2       HT       0.417000       1.00800           0
     27612 TIP3     1744     TIP3     OH2      OT      -0.834000       15.9994           0
     27613 TIP3     1744     TIP3     H1       HT       0.417000       1.00800           0
     27614 TIP3     1744     TIP3     H2       HT       0.417000       1.00800           0
     27615 TIP3     1745     TIP3     OH2      OT      -0.834000       15.9994           0
     27616 TIP3     1745     TIP3     H1       HT       0.417000       1.00800           0
     27617 TIP3     1745     TIP3     H2       HT       0.417000       1.00800           0
     27618 TIP3     1746     TIP3     OH2      OT      -0.834000       15.9994           0
     27619 TIP3     1746     TIP3     H1       HT       0.417000       1.00800           0
     27620 TIP3     1746     TIP3     H2       HT       0.417000       1.00800           0
     27621 TIP3     1747     TIP3     OH2      OT      -0.834000       15.9994           0
     27622 TIP3     1747     TIP3     H1       HT       0.417000       1.00800           0
     27623 TIP3     1747     TIP3     H2       HT       0.417000       1.00800           0
     27624 TIP3     1748     TIP3     OH2      OT      -0.834000       15.9994           0
     27625 TIP3     1748     TIP3     H1       HT       0.417000       1.00800           0
     27626 TIP3     1748     TIP3     H2       HT       0.417000       1.00800           0
     27627 TIP3     1749     TIP3     OH2      OT      -0.834000       15.9994           0
     27628 TIP3     1749     TIP3     H1       HT       0.417000       1.00800           0
     27629 TIP3     1749     TIP3     H2       HT       0.417000       1.00800           0
     27630 TIP3     1750     TIP3     OH2      OT      -0.834000       15.9994           0
     27631 TIP3     1750     TIP3     H1       HT       0.417000       1.00800           0
     27632 TIP3     1750     TIP3     H2       HT       0.417000       1.00800           0
     27633 TIP3     1751     TIP3     OH2      OT      -0.834000       15.9994           0
     27634 TIP3     1751     TIP3     H1       HT       0.417000       1.00800           0
     27635 TIP3     1751     TIP3     H2       HT       0.417000       1.00800           0
     27636 TIP3     1752     TIP3     OH2      OT      -0.834000       15.9994           0
     27637 TIP3     1752     TIP3     H1       HT       0.417000       1.00800           0
     27638 TIP3     1752     TIP3     H2       HT       0.417000       1.00800           0
     27639 TIP3     1753     TIP3     OH2      OT      -0.834000       15.9994           0
     27640 TIP3     1753     TIP3     H1       HT       0.417000       1.00800           0
     27641 TIP3     1753     TIP3     H2       HT       0.417000       1.00800           0
     27642 TIP3     1754     TIP3     OH2      OT      -0.834000       15.9994           0
     27643 TIP3     1754     TIP3     H1       HT       0.417000       1.00800           0
     27644 TIP3     1754     TIP3     H2       HT       0.417000       1.00800           0
     27645 TIP3     1755     TIP3     OH2      OT      -0.834000       15.9994           0
     27646 TIP3     1755     TIP3     H1       HT       0.417000       1.00800           0
     27647 TIP3     1755     TIP3     H2       HT       0.417000       1.00800           0
     27648 TIP3     1756     TIP3     OH2      OT      -0.834000       15.9994           0
     27649 TIP3     1756     TIP3     H1       HT       0.417000       1.00800           0
     27650 TIP3     1756     TIP3     H2       HT       0.417000       1.00800           0
     27651 TIP3     1757     TIP3     OH2      OT      -0.834000       15.9994           0
     27652 TIP3     1757     TIP3     H1       HT       0.417000       1.00800           0
     27653 TIP3     1757     TIP3     H2       HT       0.417000       1.00800           0
     27654 TIP3     1758     TIP3     OH2      OT      -0.834000       15.9994           0
     27655 TIP3     1758     TIP3     H1       HT       0.417000       1.00800           0
     27656 TIP3     1758     TIP3     H2       HT       0.417000       1.00800           0
     27657 TIP3     1759     TIP3     OH2      OT      -0.834000       15.9994           0
     27658 TIP3     1759     TIP3     H1       HT       0.417000       1.00800           0
     27659 TIP3     1759     TIP3     H2       HT       0.417000       1.00800           0
     27660 TIP3     1760     TIP3     OH2      OT      -0.834000       15.9994           0
     27661 TIP3     1760     TIP3     H1       HT       0.417000       1.00800           0
     27662 TIP3     1760     TIP3     H2       HT       0.417000       1.00800           0
     27663 TIP3     1761     TIP3     OH2      OT      -0.834000       15.9994           0
     27664 TIP3     1761     TIP3     H1       HT       0.417000       1.00800           0
     27665 TIP3     1761     TIP3     H2       HT       0.417000       1.00800           0
     27666 TIP3     1762     TIP3     OH2      OT      -0.834000       15.9994           0
     27667 TIP3     1762     TIP3     H1       HT       0.417000       1.00800           0
     27668 TIP3     1762     TIP3     H2       HT       0.417000       1.00800           0
     27669 TIP3     1763     TIP3     OH2      OT      -0.834000       15.9994           0
     27670 TIP3     1763     TIP3     H1       HT       0.417000       1.00800           0
     27671 TIP3     1763     TIP3     H2       HT       0.417000       1.00800           0
     27672 TIP3     1764     TIP3     OH2      OT      -0.834000       15.9994           0
     27673 TIP3     1764     TIP3     H1       HT       0.417000       1.00800           0
     27674 TIP3     1764     TIP3     H2       HT       0.417000       1.00800           0
     27675 TIP3     1765     TIP3     OH2      OT      -0.834000       15.9994           0
     27676 TIP3     1765     TIP3     H1       HT       0.417000       1.00800           0
     27677 TIP3     1765     TIP3     H2       HT       0.417000       1.00800           0
     27678 TIP3     1766     TIP3     OH2      OT      -0.834000       15.9994           0
     27679 TIP3     1766     TIP3     H1       HT       0.417000       1.00800           0
     27680 TIP3     1766     TIP3     H2       HT       0.417000       1.00800           0
     27681 TIP3     1767     TIP3     OH2      OT      -0.834000       15.9994           0
     27682 TIP3     1767     TIP3     H1       HT       0.417000       1.00800           0
     27683 TIP3     1767     TIP3     H2       HT       0.417000       1.00800           0
     27684 TIP3     1768     TIP3     OH2      OT      -0.834000       15.9994           0
     27685 TIP3     1768     TIP3     H1       HT       0.417000       1.00800           0
     27686 TIP3     1768     TIP3     H2       HT       0.417000       1.00800           0
     27687 TIP3     1769     TIP3     OH2      OT      -0.834000       15.9994           0
     27688 TIP3     1769     TIP3     H1       HT       0.417000       1.00800           0
     27689 TIP3     1769     TIP3     H2       HT       0.417000       1.00800           0
     27690 TIP3     1770     TIP3     OH2      OT      -0.834000       15.9994           0
     27691 TIP3     1770     TIP3     H1       HT       0.417000       1.00800           0
     27692 TIP3     1770     TIP3     H2       HT       0.417000       1.00800           0
     27693 TIP3     1771     TIP3     OH2      OT      -0.834000       15.9994           0
     27694 TIP3     1771     TIP3     H1       HT       0.417000       1.00800           0
     27695 TIP3     1771     TIP3     H2       HT       0.417000       1.00800           0
     27696 TIP3     1772     TIP3     OH2      OT      -0.834000       15.9994           0
     27697 TIP3     1772     TIP3     H1       HT       0.417000       1.00800           0
     27698 TIP3     1772     TIP3     H2       HT       0.417000       1.00800           0
     27699 TIP3     1773     TIP3     OH2      OT      -0.834000       15.9994           0
     27700 TIP3     1773     TIP3     H1       HT       0.417000       1.00800           0
     27701 TIP3     1773     TIP3     H2       HT       0.417000       1.00800           0
     27702 TIP3     1774     TIP3     OH2      OT      -0.834000       15.9994           0
     27703 TIP3     1774     TIP3     H1       HT       0.417000       1.00800           0
     27704 TIP3     1774     TIP3     H2       HT       0.417000       1.00800           0
     27705 TIP3     1775     TIP3     OH2      OT      -0.834000       15.9994           0
     27706 TIP3     1775     TIP3     H1       HT       0.417000       1.00800           0
     27707 TIP3     1775     TIP3     H2       HT       0.417000       1.00800           0
     27708 TIP3     1776     TIP3     OH2      OT      -0.834000       15.9994           0
     27709 TIP3     1776     TIP3     H1       HT       0.417000       1.00800           0
     27710 TIP3     1776     TIP3     H2       HT       0.417000       1.00800           0
     27711 TIP3     1777     TIP3     OH2      OT      -0.834000       15.9994           0
     27712 TIP3     1777     TIP3     H1       HT       0.417000       1.00800           0
     27713 TIP3     1777     TIP3     H2       HT       0.417000       1.00800           0
     27714 TIP3     1778     TIP3     OH2      OT      -0.834000       15.9994           0
     27715 TIP3     1778     TIP3     H1       HT       0.417000       1.00800           0
     27716 TIP3     1778     TIP3     H2       HT       0.417000       1.00800           0
     27717 TIP3     1779     TIP3     OH2      OT      -0.834000       15.9994           0
     27718 TIP3     1779     TIP3     H1       HT       0.417000       1.00800           0
     27719 TIP3     1779     TIP3     H2       HT       0.417000       1.00800           0
     27720 TIP3     1780     TIP3     OH2      OT      -0.834000       15.9994           0
     27721 TIP3     1780     TIP3     H1       HT       0.417000       1.00800           0
     27722 TIP3     1780     TIP3     H2       HT       0.417000       1.00800           0
     27723 TIP3     1781     TIP3     OH2      OT      -0.834000       15.9994           0
     27724 TIP3     1781     TIP3     H1       HT       0.417000       1.00800           0
     27725 TIP3     1781     TIP3     H2       HT       0.417000       1.00800           0
     27726 TIP3     1782     TIP3     OH2      OT      -0.834000       15.9994           0
     27727 TIP3     1782     TIP3     H1       HT       0.417000       1.00800           0
     27728 TIP3     1782     TIP3     H2       HT       0.417000       1.00800           0
     27729 TIP3     1783     TIP3     OH2      OT      -0.834000       15.9994           0
     27730 TIP3     1783     TIP3     H1       HT       0.417000       1.00800           0
     27731 TIP3     1783     TIP3     H2       HT       0.417000       1.00800           0
     27732 TIP3     1784     TIP3     OH2      OT      -0.834000       15.9994           0
     27733 TIP3     1784     TIP3     H1       HT       0.417000       1.00800           0
     27734 TIP3     1784     TIP3     H2       HT       0.417000       1.00800           0
     27735 TIP3     1785     TIP3     OH2      OT      -0.834000       15.9994           0
     27736 TIP3     1785     TIP3     H1       HT       0.417000       1.00800           0
     27737 TIP3     1785     TIP3     H2       HT       0.417000       1.00800           0
     27738 TIP3     1786     TIP3     OH2      OT      -0.834000       15.9994           0
     27739 TIP3     1786     TIP3     H1       HT       0.417000       1.00800           0
     27740 TIP3     1786     TIP3     H2       HT       0.417000       1.00800           0
     27741 TIP3     1787     TIP3     OH2      OT      -0.834000       15.9994           0
     27742 TIP3     1787     TIP3     H1       HT       0.417000       1.00800           0
     27743 TIP3     1787     TIP3     H2       HT       0.417000       1.00800           0
     27744 TIP3     1788     TIP3     OH2      OT      -0.834000       15.9994           0
     27745 TIP3     1788     TIP3     H1       HT       0.417000       1.00800           0
     27746 TIP3     1788     TIP3     H2       HT       0.417000       1.00800           0
     27747 TIP3     1789     TIP3     OH2      OT      -0.834000       15.9994           0
     27748 TIP3     1789     TIP3     H1       HT       0.417000       1.00800           0
     27749 TIP3     1789     TIP3     H2       HT       0.417000       1.00800           0
     27750 TIP3     1790     TIP3     OH2      OT      -0.834000       15.9994           0
     27751 TIP3     1790     TIP3     H1       HT       0.417000       1.00800           0
     27752 TIP3     1790     TIP3     H2       HT       0.417000       1.00800           0
     27753 TIP3     1791     TIP3     OH2      OT      -0.834000       15.9994           0
     27754 TIP3     1791     TIP3     H1       HT       0.417000       1.00800           0
     27755 TIP3     1791     TIP3     H2       HT       0.417000       1.00800           0
     27756 TIP3     1792     TIP3     OH2      OT      -0.834000       15.9994           0
     27757 TIP3     1792     TIP3     H1       HT       0.417000       1.00800           0
     27758 TIP3     1792     TIP3     H2       HT       0.417000       1.00800           0
     27759 TIP3     1793     TIP3     OH2      OT      -0.834000       15.9994           0
     27760 TIP3     1793     TIP3     H1       HT       0.417000       1.00800           0
     27761 TIP3     1793     TIP3     H2       HT       0.417000       1.00800           0
     27762 TIP3     1794     TIP3     OH2      OT      -0.834000       15.9994           0
     27763 TIP3     1794     TIP3     H1       HT       0.417000       1.00800           0
     27764 TIP3     1794     TIP3     H2       HT       0.417000       1.00800           0
     27765 TIP3     1795     TIP3     OH2      OT      -0.834000       15.9994           0
     27766 TIP3     1795     TIP3     H1       HT       0.417000       1.00800           0
     27767 TIP3     1795     TIP3     H2       HT       0.417000       1.00800           0
     27768 TIP3     1796     TIP3     OH2      OT      -0.834000       15.9994           0
     27769 TIP3     1796     TIP3     H1       HT       0.417000       1.00800           0
     27770 TIP3     1796     TIP3     H2       HT       0.417000       1.00800           0
     27771 TIP3     1797     TIP3     OH2      OT      -0.834000       15.9994           0
     27772 TIP3     1797     TIP3     H1       HT       0.417000       1.00800           0
     27773 TIP3     1797     TIP3     H2       HT       0.417000       1.00800           0
     27774 TIP3     1798     TIP3     OH2      OT      -0.834000       15.9994           0
     27775 TIP3     1798     TIP3     H1       HT       0.417000       1.00800           0
     27776 TIP3     1798     TIP3     H2       HT       0.417000       1.00800           0
     27777 TIP3     1799     TIP3     OH2      OT      -0.834000       15.9994           0
     27778 TIP3     1799     TIP3     H1       HT       0.417000       1.00800           0
     27779 TIP3     1799     TIP3     H2       HT       0.417000       1.00800           0
     27780 TIP3     1800     TIP3     OH2      OT      -0.834000       15.9994           0
     27781 TIP3     1800     TIP3     H1       HT       0.417000       1.00800           0
     27782 TIP3     1800     TIP3     H2       HT       0.417000       1.00800           0
     27783 TIP3     1801     TIP3     OH2      OT      -0.834000       15.9994           0
     27784 TIP3     1801     TIP3     H1       HT       0.417000       1.00800           0
     27785 TIP3     1801     TIP3     H2       HT       0.417000       1.00800           0
     27786 TIP3     1802     TIP3     OH2      OT      -0.834000       15.9994           0
     27787 TIP3     1802     TIP3     H1       HT       0.417000       1.00800           0
     27788 TIP3     1802     TIP3     H2       HT       0.417000       1.00800           0
     27789 TIP3     1803     TIP3     OH2      OT      -0.834000       15.9994           0
     27790 TIP3     1803     TIP3     H1       HT       0.417000       1.00800           0
     27791 TIP3     1803     TIP3     H2       HT       0.417000       1.00800           0
     27792 TIP3     1804     TIP3     OH2      OT      -0.834000       15.9994           0
     27793 TIP3     1804     TIP3     H1       HT       0.417000       1.00800           0
     27794 TIP3     1804     TIP3     H2       HT       0.417000       1.00800           0
     27795 TIP3     1805     TIP3     OH2      OT      -0.834000       15.9994           0
     27796 TIP3     1805     TIP3     H1       HT       0.417000       1.00800           0
     27797 TIP3     1805     TIP3     H2       HT       0.417000       1.00800           0
     27798 TIP3     1806     TIP3     OH2      OT      -0.834000       15.9994           0
     27799 TIP3     1806     TIP3     H1       HT       0.417000       1.00800           0
     27800 TIP3     1806     TIP3     H2       HT       0.417000       1.00800           0
     27801 TIP3     1807     TIP3     OH2      OT      -0.834000       15.9994           0
     27802 TIP3     1807     TIP3     H1       HT       0.417000       1.00800           0
     27803 TIP3     1807     TIP3     H2       HT       0.417000       1.00800           0
     27804 TIP3     1808     TIP3     OH2      OT      -0.834000       15.9994           0
     27805 TIP3     1808     TIP3     H1       HT       0.417000       1.00800           0
     27806 TIP3     1808     TIP3     H2       HT       0.417000       1.00800           0
     27807 TIP3     1809     TIP3     OH2      OT      -0.834000       15.9994           0
     27808 TIP3     1809     TIP3     H1       HT       0.417000       1.00800           0
     27809 TIP3     1809     TIP3     H2       HT       0.417000       1.00800           0
     27810 TIP3     1810     TIP3     OH2      OT      -0.834000       15.9994           0
     27811 TIP3     1810     TIP3     H1       HT       0.417000       1.00800           0
     27812 TIP3     1810     TIP3     H2       HT       0.417000       1.00800           0
     27813 TIP3     1811     TIP3     OH2      OT      -0.834000       15.9994           0
     27814 TIP3     1811     TIP3     H1       HT       0.417000       1.00800           0
     27815 TIP3     1811     TIP3     H2       HT       0.417000       1.00800           0
     27816 TIP3     1812     TIP3     OH2      OT      -0.834000       15.9994           0
     27817 TIP3     1812     TIP3     H1       HT       0.417000       1.00800           0
     27818 TIP3     1812     TIP3     H2       HT       0.417000       1.00800           0
     27819 TIP3     1813     TIP3     OH2      OT      -0.834000       15.9994           0
     27820 TIP3     1813     TIP3     H1       HT       0.417000       1.00800           0
     27821 TIP3     1813     TIP3     H2       HT       0.417000       1.00800           0
     27822 TIP3     1814     TIP3     OH2      OT      -0.834000       15.9994           0
     27823 TIP3     1814     TIP3     H1       HT       0.417000       1.00800           0
     27824 TIP3     1814     TIP3     H2       HT       0.417000       1.00800           0
     27825 TIP3     1815     TIP3     OH2      OT      -0.834000       15.9994           0
     27826 TIP3     1815     TIP3     H1       HT       0.417000       1.00800           0
     27827 TIP3     1815     TIP3     H2       HT       0.417000       1.00800           0
     27828 TIP3     1816     TIP3     OH2      OT      -0.834000       15.9994           0
     27829 TIP3     1816     TIP3     H1       HT       0.417000       1.00800           0
     27830 TIP3     1816     TIP3     H2       HT       0.417000       1.00800           0
     27831 TIP3     1817     TIP3     OH2      OT      -0.834000       15.9994           0
     27832 TIP3     1817     TIP3     H1       HT       0.417000       1.00800           0
     27833 TIP3     1817     TIP3     H2       HT       0.417000       1.00800           0
     27834 TIP3     1818     TIP3     OH2      OT      -0.834000       15.9994           0
     27835 TIP3     1818     TIP3     H1       HT       0.417000       1.00800           0
     27836 TIP3     1818     TIP3     H2       HT       0.417000       1.00800           0
     27837 TIP3     1819     TIP3     OH2      OT      -0.834000       15.9994           0
     27838 TIP3     1819     TIP3     H1       HT       0.417000       1.00800           0
     27839 TIP3     1819     TIP3     H2       HT       0.417000       1.00800           0
     27840 TIP3     1820     TIP3     OH2      OT      -0.834000       15.9994           0
     27841 TIP3     1820     TIP3     H1       HT       0.417000       1.00800           0
     27842 TIP3     1820     TIP3     H2       HT       0.417000       1.00800           0
     27843 TIP3     1821     TIP3     OH2      OT      -0.834000       15.9994           0
     27844 TIP3     1821     TIP3     H1       HT       0.417000       1.00800           0
     27845 TIP3     1821     TIP3     H2       HT       0.417000       1.00800           0
     27846 TIP3     1822     TIP3     OH2      OT      -0.834000       15.9994           0
     27847 TIP3     1822     TIP3     H1       HT       0.417000       1.00800           0
     27848 TIP3     1822     TIP3     H2       HT       0.417000       1.00800           0
     27849 TIP3     1823     TIP3     OH2      OT      -0.834000       15.9994           0
     27850 TIP3     1823     TIP3     H1       HT       0.417000       1.00800           0
     27851 TIP3     1823     TIP3     H2       HT       0.417000       1.00800           0
     27852 TIP3     1824     TIP3     OH2      OT      -0.834000       15.9994           0
     27853 TIP3     1824     TIP3     H1       HT       0.417000       1.00800           0
     27854 TIP3     1824     TIP3     H2       HT       0.417000       1.00800           0
     27855 TIP3     1825     TIP3     OH2      OT      -0.834000       15.9994           0
     27856 TIP3     1825     TIP3     H1       HT       0.417000       1.00800           0
     27857 TIP3     1825     TIP3     H2       HT       0.417000       1.00800           0
     27858 TIP3     1826     TIP3     OH2      OT      -0.834000       15.9994           0
     27859 TIP3     1826     TIP3     H1       HT       0.417000       1.00800           0
     27860 TIP3     1826     TIP3     H2       HT       0.417000       1.00800           0
     27861 TIP3     1827     TIP3     OH2      OT      -0.834000       15.9994           0
     27862 TIP3     1827     TIP3     H1       HT       0.417000       1.00800           0
     27863 TIP3     1827     TIP3     H2       HT       0.417000       1.00800           0
     27864 TIP3     1828     TIP3     OH2      OT      -0.834000       15.9994           0
     27865 TIP3     1828     TIP3     H1       HT       0.417000       1.00800           0
     27866 TIP3     1828     TIP3     H2       HT       0.417000       1.00800           0
     27867 TIP3     1829     TIP3     OH2      OT      -0.834000       15.9994           0
     27868 TIP3     1829     TIP3     H1       HT       0.417000       1.00800           0
     27869 TIP3     1829     TIP3     H2       HT       0.417000       1.00800           0
     27870 TIP3     1830     TIP3     OH2      OT      -0.834000       15.9994           0
     27871 TIP3     1830     TIP3     H1       HT       0.417000       1.00800           0
     27872 TIP3     1830     TIP3     H2       HT       0.417000       1.00800           0
     27873 TIP3     1831     TIP3     OH2      OT      -0.834000       15.9994           0
     27874 TIP3     1831     TIP3     H1       HT       0.417000       1.00800           0
     27875 TIP3     1831     TIP3     H2       HT       0.417000       1.00800           0
     27876 TIP3     1832     TIP3     OH2      OT      -0.834000       15.9994           0
     27877 TIP3     1832     TIP3     H1       HT       0.417000       1.00800           0
     27878 TIP3     1832     TIP3     H2       HT       0.417000       1.00800           0
     27879 TIP3     1833     TIP3     OH2      OT      -0.834000       15.9994           0
     27880 TIP3     1833     TIP3     H1       HT       0.417000       1.00800           0
     27881 TIP3     1833     TIP3     H2       HT       0.417000       1.00800           0
     27882 TIP3     1834     TIP3     OH2      OT      -0.834000       15.9994           0
     27883 TIP3     1834     TIP3     H1       HT       0.417000       1.00800           0
     27884 TIP3     1834     TIP3     H2       HT       0.417000       1.00800           0
     27885 TIP3     1835     TIP3     OH2      OT      -0.834000       15.9994           0
     27886 TIP3     1835     TIP3     H1       HT       0.417000       1.00800           0
     27887 TIP3     1835     TIP3     H2       HT       0.417000       1.00800           0
     27888 TIP3     1836     TIP3     OH2      OT      -0.834000       15.9994           0
     27889 TIP3     1836     TIP3     H1       HT       0.417000       1.00800           0
     27890 TIP3     1836     TIP3     H2       HT       0.417000       1.00800           0
     27891 TIP3     1837     TIP3     OH2      OT      -0.834000       15.9994           0
     27892 TIP3     1837     TIP3     H1       HT       0.417000       1.00800           0
     27893 TIP3     1837     TIP3     H2       HT       0.417000       1.00800           0
     27894 TIP3     1838     TIP3     OH2      OT      -0.834000       15.9994           0
     27895 TIP3     1838     TIP3     H1       HT       0.417000       1.00800           0
     27896 TIP3     1838     TIP3     H2       HT       0.417000       1.00800           0
     27897 TIP3     1839     TIP3     OH2      OT      -0.834000       15.9994           0
     27898 TIP3     1839     TIP3     H1       HT       0.417000       1.00800           0
     27899 TIP3     1839     TIP3     H2       HT       0.417000       1.00800           0
     27900 TIP3     1840     TIP3     OH2      OT      -0.834000       15.9994           0
     27901 TIP3     1840     TIP3     H1       HT       0.417000       1.00800           0
     27902 TIP3     1840     TIP3     H2       HT       0.417000       1.00800           0
     27903 TIP3     1841     TIP3     OH2      OT      -0.834000       15.9994           0
     27904 TIP3     1841     TIP3     H1       HT       0.417000       1.00800           0
     27905 TIP3     1841     TIP3     H2       HT       0.417000       1.00800           0
     27906 TIP3     1842     TIP3     OH2      OT      -0.834000       15.9994           0
     27907 TIP3     1842     TIP3     H1       HT       0.417000       1.00800           0
     27908 TIP3     1842     TIP3     H2       HT       0.417000       1.00800           0
     27909 TIP3     1843     TIP3     OH2      OT      -0.834000       15.9994           0
     27910 TIP3     1843     TIP3     H1       HT       0.417000       1.00800           0
     27911 TIP3     1843     TIP3     H2       HT       0.417000       1.00800           0
     27912 TIP3     1844     TIP3     OH2      OT      -0.834000       15.9994           0
     27913 TIP3     1844     TIP3     H1       HT       0.417000       1.00800           0
     27914 TIP3     1844     TIP3     H2       HT       0.417000       1.00800           0
     27915 TIP3     1845     TIP3     OH2      OT      -0.834000       15.9994           0
     27916 TIP3     1845     TIP3     H1       HT       0.417000       1.00800           0
     27917 TIP3     1845     TIP3     H2       HT       0.417000       1.00800           0
     27918 TIP3     1846     TIP3     OH2      OT      -0.834000       15.9994           0
     27919 TIP3     1846     TIP3     H1       HT       0.417000       1.00800           0
     27920 TIP3     1846     TIP3     H2       HT       0.417000       1.00800           0
     27921 TIP3     1847     TIP3     OH2      OT      -0.834000       15.9994           0
     27922 TIP3     1847     TIP3     H1       HT       0.417000       1.00800           0
     27923 TIP3     1847     TIP3     H2       HT       0.417000       1.00800           0
     27924 TIP3     1848     TIP3     OH2      OT      -0.834000       15.9994           0
     27925 TIP3     1848     TIP3     H1       HT       0.417000       1.00800           0
     27926 TIP3     1848     TIP3     H2       HT       0.417000       1.00800           0
     27927 TIP3     1849     TIP3     OH2      OT      -0.834000       15.9994           0
     27928 TIP3     1849     TIP3     H1       HT       0.417000       1.00800           0
     27929 TIP3     1849     TIP3     H2       HT       0.417000       1.00800           0
     27930 TIP3     1850     TIP3     OH2      OT      -0.834000       15.9994           0
     27931 TIP3     1850     TIP3     H1       HT       0.417000       1.00800           0
     27932 TIP3     1850     TIP3     H2       HT       0.417000       1.00800           0
     27933 TIP3     1851     TIP3     OH2      OT      -0.834000       15.9994           0
     27934 TIP3     1851     TIP3     H1       HT       0.417000       1.00800           0
     27935 TIP3     1851     TIP3     H2       HT       0.417000       1.00800           0
     27936 TIP3     1852     TIP3     OH2      OT      -0.834000       15.9994           0
     27937 TIP3     1852     TIP3     H1       HT       0.417000       1.00800           0
     27938 TIP3     1852     TIP3     H2       HT       0.417000       1.00800           0
     27939 TIP3     1853     TIP3     OH2      OT      -0.834000       15.9994           0
     27940 TIP3     1853     TIP3     H1       HT       0.417000       1.00800           0
     27941 TIP3     1853     TIP3     H2       HT       0.417000       1.00800           0
     27942 TIP3     1854     TIP3     OH2      OT      -0.834000       15.9994           0
     27943 TIP3     1854     TIP3     H1       HT       0.417000       1.00800           0
     27944 TIP3     1854     TIP3     H2       HT       0.417000       1.00800           0
     27945 TIP3     1855     TIP3     OH2      OT      -0.834000       15.9994           0
     27946 TIP3     1855     TIP3     H1       HT       0.417000       1.00800           0
     27947 TIP3     1855     TIP3     H2       HT       0.417000       1.00800           0
     27948 TIP3     1856     TIP3     OH2      OT      -0.834000       15.9994           0
     27949 TIP3     1856     TIP3     H1       HT       0.417000       1.00800           0
     27950 TIP3     1856     TIP3     H2       HT       0.417000       1.00800           0
     27951 TIP3     1857     TIP3     OH2      OT      -0.834000       15.9994           0
     27952 TIP3     1857     TIP3     H1       HT       0.417000       1.00800           0
     27953 TIP3     1857     TIP3     H2       HT       0.417000       1.00800           0
     27954 TIP3     1858     TIP3     OH2      OT      -0.834000       15.9994           0
     27955 TIP3     1858     TIP3     H1       HT       0.417000       1.00800           0
     27956 TIP3     1858     TIP3     H2       HT       0.417000       1.00800           0
     27957 TIP3     1859     TIP3     OH2      OT      -0.834000       15.9994           0
     27958 TIP3     1859     TIP3     H1       HT       0.417000       1.00800           0
     27959 TIP3     1859     TIP3     H2       HT       0.417000       1.00800           0
     27960 TIP3     1860     TIP3     OH2      OT      -0.834000       15.9994           0
     27961 TIP3     1860     TIP3     H1       HT       0.417000       1.00800           0
     27962 TIP3     1860     TIP3     H2       HT       0.417000       1.00800           0
     27963 TIP3     1861     TIP3     OH2      OT      -0.834000       15.9994           0
     27964 TIP3     1861     TIP3     H1       HT       0.417000       1.00800           0
     27965 TIP3     1861     TIP3     H2       HT       0.417000       1.00800           0
     27966 TIP3     1862     TIP3     OH2      OT      -0.834000       15.9994           0
     27967 TIP3     1862     TIP3     H1       HT       0.417000       1.00800           0
     27968 TIP3     1862     TIP3     H2       HT       0.417000       1.00800           0
     27969 TIP3     1863     TIP3     OH2      OT      -0.834000       15.9994           0
     27970 TIP3     1863     TIP3     H1       HT       0.417000       1.00800           0
     27971 TIP3     1863     TIP3     H2       HT       0.417000       1.00800           0
     27972 TIP3     1864     TIP3     OH2      OT      -0.834000       15.9994           0
     27973 TIP3     1864     TIP3     H1       HT       0.417000       1.00800           0
     27974 TIP3     1864     TIP3     H2       HT       0.417000       1.00800           0
     27975 TIP3     1865     TIP3     OH2      OT      -0.834000       15.9994           0
     27976 TIP3     1865     TIP3     H1       HT       0.417000       1.00800           0
     27977 TIP3     1865     TIP3     H2       HT       0.417000       1.00800           0
     27978 TIP3     1866     TIP3     OH2      OT      -0.834000       15.9994           0
     27979 TIP3     1866     TIP3     H1       HT       0.417000       1.00800           0
     27980 TIP3     1866     TIP3     H2       HT       0.417000       1.00800           0
     27981 TIP3     1867     TIP3     OH2      OT      -0.834000       15.9994           0
     27982 TIP3     1867     TIP3     H1       HT       0.417000       1.00800           0
     27983 TIP3     1867     TIP3     H2       HT       0.417000       1.00800           0
     27984 TIP3     1868     TIP3     OH2      OT      -0.834000       15.9994           0
     27985 TIP3     1868     TIP3     H1       HT       0.417000       1.00800           0
     27986 TIP3     1868     TIP3     H2       HT       0.417000       1.00800           0
     27987 TIP3     1869     TIP3     OH2      OT      -0.834000       15.9994           0
     27988 TIP3     1869     TIP3     H1       HT       0.417000       1.00800           0
     27989 TIP3     1869     TIP3     H2       HT       0.417000       1.00800           0
     27990 TIP3     1870     TIP3     OH2      OT      -0.834000       15.9994           0
     27991 TIP3     1870     TIP3     H1       HT       0.417000       1.00800           0
     27992 TIP3     1870     TIP3     H2       HT       0.417000       1.00800           0
     27993 TIP3     1871     TIP3     OH2      OT      -0.834000       15.9994           0
     27994 TIP3     1871     TIP3     H1       HT       0.417000       1.00800           0
     27995 TIP3     1871     TIP3     H2       HT       0.417000       1.00800           0
     27996 TIP3     1872     TIP3     OH2      OT      -0.834000       15.9994           0
     27997 TIP3     1872     TIP3     H1       HT       0.417000       1.00800           0
     27998 TIP3     1872     TIP3     H2       HT       0.417000       1.00800           0
     27999 TIP3     1873     TIP3     OH2      OT      -0.834000       15.9994           0
     28000 TIP3     1873     TIP3     H1       HT       0.417000       1.00800           0
     28001 TIP3     1873     TIP3     H2       HT       0.417000       1.00800           0
     28002 TIP3     1874     TIP3     OH2      OT      -0.834000       15.9994           0
     28003 TIP3     1874     TIP3     H1       HT       0.417000       1.00800           0
     28004 TIP3     1874     TIP3     H2       HT       0.417000       1.00800           0
     28005 TIP3     1875     TIP3     OH2      OT      -0.834000       15.9994           0
     28006 TIP3     1875     TIP3     H1       HT       0.417000       1.00800           0
     28007 TIP3     1875     TIP3     H2       HT       0.417000       1.00800           0
     28008 TIP3     1876     TIP3     OH2      OT      -0.834000       15.9994           0
     28009 TIP3     1876     TIP3     H1       HT       0.417000       1.00800           0
     28010 TIP3     1876     TIP3     H2       HT       0.417000       1.00800           0
     28011 TIP3     1877     TIP3     OH2      OT      -0.834000       15.9994           0
     28012 TIP3     1877     TIP3     H1       HT       0.417000       1.00800           0
     28013 TIP3     1877     TIP3     H2       HT       0.417000       1.00800           0
     28014 TIP3     1878     TIP3     OH2      OT      -0.834000       15.9994           0
     28015 TIP3     1878     TIP3     H1       HT       0.417000       1.00800           0
     28016 TIP3     1878     TIP3     H2       HT       0.417000       1.00800           0
     28017 TIP3     1879     TIP3     OH2      OT      -0.834000       15.9994           0
     28018 TIP3     1879     TIP3     H1       HT       0.417000       1.00800           0
     28019 TIP3     1879     TIP3     H2       HT       0.417000       1.00800           0
     28020 TIP3     1880     TIP3     OH2      OT      -0.834000       15.9994           0
     28021 TIP3     1880     TIP3     H1       HT       0.417000       1.00800           0
     28022 TIP3     1880     TIP3     H2       HT       0.417000       1.00800           0
     28023 TIP3     1881     TIP3     OH2      OT      -0.834000       15.9994           0
     28024 TIP3     1881     TIP3     H1       HT       0.417000       1.00800           0
     28025 TIP3     1881     TIP3     H2       HT       0.417000       1.00800           0
     28026 TIP3     1882     TIP3     OH2      OT      -0.834000       15.9994           0
     28027 TIP3     1882     TIP3     H1       HT       0.417000       1.00800           0
     28028 TIP3     1882     TIP3     H2       HT       0.417000       1.00800           0
     28029 TIP3     1883     TIP3     OH2      OT      -0.834000       15.9994           0
     28030 TIP3     1883     TIP3     H1       HT       0.417000       1.00800           0
     28031 TIP3     1883     TIP3     H2       HT       0.417000       1.00800           0
     28032 TIP3     1884     TIP3     OH2      OT      -0.834000       15.9994           0
     28033 TIP3     1884     TIP3     H1       HT       0.417000       1.00800           0
     28034 TIP3     1884     TIP3     H2       HT       0.417000       1.00800           0
     28035 TIP3     1885     TIP3     OH2      OT      -0.834000       15.9994           0
     28036 TIP3     1885     TIP3     H1       HT       0.417000       1.00800           0
     28037 TIP3     1885     TIP3     H2       HT       0.417000       1.00800           0
     28038 TIP3     1886     TIP3     OH2      OT      -0.834000       15.9994           0
     28039 TIP3     1886     TIP3     H1       HT       0.417000       1.00800           0
     28040 TIP3     1886     TIP3     H2       HT       0.417000       1.00800           0
     28041 TIP3     1887     TIP3     OH2      OT      -0.834000       15.9994           0
     28042 TIP3     1887     TIP3     H1       HT       0.417000       1.00800           0
     28043 TIP3     1887     TIP3     H2       HT       0.417000       1.00800           0
     28044 TIP3     1888     TIP3     OH2      OT      -0.834000       15.9994           0
     28045 TIP3     1888     TIP3     H1       HT       0.417000       1.00800           0
     28046 TIP3     1888     TIP3     H2       HT       0.417000       1.00800           0
     28047 TIP3     1889     TIP3     OH2      OT      -0.834000       15.9994           0
     28048 TIP3     1889     TIP3     H1       HT       0.417000       1.00800           0
     28049 TIP3     1889     TIP3     H2       HT       0.417000       1.00800           0
     28050 TIP3     1890     TIP3     OH2      OT      -0.834000       15.9994           0
     28051 TIP3     1890     TIP3     H1       HT       0.417000       1.00800           0
     28052 TIP3     1890     TIP3     H2       HT       0.417000       1.00800           0
     28053 TIP3     1891     TIP3     OH2      OT      -0.834000       15.9994           0
     28054 TIP3     1891     TIP3     H1       HT       0.417000       1.00800           0
     28055 TIP3     1891     TIP3     H2       HT       0.417000       1.00800           0
     28056 TIP3     1892     TIP3     OH2      OT      -0.834000       15.9994           0
     28057 TIP3     1892     TIP3     H1       HT       0.417000       1.00800           0
     28058 TIP3     1892     TIP3     H2       HT       0.417000       1.00800           0
     28059 TIP3     1893     TIP3     OH2      OT      -0.834000       15.9994           0
     28060 TIP3     1893     TIP3     H1       HT       0.417000       1.00800           0
     28061 TIP3     1893     TIP3     H2       HT       0.417000       1.00800           0
     28062 TIP3     1894     TIP3     OH2      OT      -0.834000       15.9994           0
     28063 TIP3     1894     TIP3     H1       HT       0.417000       1.00800           0
     28064 TIP3     1894     TIP3     H2       HT       0.417000       1.00800           0
     28065 TIP3     1895     TIP3     OH2      OT      -0.834000       15.9994           0
     28066 TIP3     1895     TIP3     H1       HT       0.417000       1.00800           0
     28067 TIP3     1895     TIP3     H2       HT       0.417000       1.00800           0
     28068 TIP3     1896     TIP3     OH2      OT      -0.834000       15.9994           0
     28069 TIP3     1896     TIP3     H1       HT       0.417000       1.00800           0
     28070 TIP3     1896     TIP3     H2       HT       0.417000       1.00800           0
     28071 TIP3     1897     TIP3     OH2      OT      -0.834000       15.9994           0
     28072 TIP3     1897     TIP3     H1       HT       0.417000       1.00800           0
     28073 TIP3     1897     TIP3     H2       HT       0.417000       1.00800           0
     28074 TIP3     1898     TIP3     OH2      OT      -0.834000       15.9994           0
     28075 TIP3     1898     TIP3     H1       HT       0.417000       1.00800           0
     28076 TIP3     1898     TIP3     H2       HT       0.417000       1.00800           0
     28077 TIP3     1899     TIP3     OH2      OT      -0.834000       15.9994           0
     28078 TIP3     1899     TIP3     H1       HT       0.417000       1.00800           0
     28079 TIP3     1899     TIP3     H2       HT       0.417000       1.00800           0
     28080 TIP3     1900     TIP3     OH2      OT      -0.834000       15.9994           0
     28081 TIP3     1900     TIP3     H1       HT       0.417000       1.00800           0
     28082 TIP3     1900     TIP3     H2       HT       0.417000       1.00800           0
     28083 TIP3     1901     TIP3     OH2      OT      -0.834000       15.9994           0
     28084 TIP3     1901     TIP3     H1       HT       0.417000       1.00800           0
     28085 TIP3     1901     TIP3     H2       HT       0.417000       1.00800           0
     28086 TIP3     1902     TIP3     OH2      OT      -0.834000       15.9994           0
     28087 TIP3     1902     TIP3     H1       HT       0.417000       1.00800           0
     28088 TIP3     1902     TIP3     H2       HT       0.417000       1.00800           0
     28089 TIP3     1903     TIP3     OH2      OT      -0.834000       15.9994           0
     28090 TIP3     1903     TIP3     H1       HT       0.417000       1.00800           0
     28091 TIP3     1903     TIP3     H2       HT       0.417000       1.00800           0
     28092 TIP3     1904     TIP3     OH2      OT      -0.834000       15.9994           0
     28093 TIP3     1904     TIP3     H1       HT       0.417000       1.00800           0
     28094 TIP3     1904     TIP3     H2       HT       0.417000       1.00800           0
     28095 TIP3     1905     TIP3     OH2      OT      -0.834000       15.9994           0
     28096 TIP3     1905     TIP3     H1       HT       0.417000       1.00800           0
     28097 TIP3     1905     TIP3     H2       HT       0.417000       1.00800           0
     28098 TIP3     1906     TIP3     OH2      OT      -0.834000       15.9994           0
     28099 TIP3     1906     TIP3     H1       HT       0.417000       1.00800           0
     28100 TIP3     1906     TIP3     H2       HT       0.417000       1.00800           0
     28101 TIP3     1907     TIP3     OH2      OT      -0.834000       15.9994           0
     28102 TIP3     1907     TIP3     H1       HT       0.417000       1.00800           0
     28103 TIP3     1907     TIP3     H2       HT       0.417000       1.00800           0
     28104 TIP3     1908     TIP3     OH2      OT      -0.834000       15.9994           0
     28105 TIP3     1908     TIP3     H1       HT       0.417000       1.00800           0
     28106 TIP3     1908     TIP3     H2       HT       0.417000       1.00800           0
     28107 TIP3     1909     TIP3     OH2      OT      -0.834000       15.9994           0
     28108 TIP3     1909     TIP3     H1       HT       0.417000       1.00800           0
     28109 TIP3     1909     TIP3     H2       HT       0.417000       1.00800           0
     28110 TIP3     1910     TIP3     OH2      OT      -0.834000       15.9994           0
     28111 TIP3     1910     TIP3     H1       HT       0.417000       1.00800           0
     28112 TIP3     1910     TIP3     H2       HT       0.417000       1.00800           0
     28113 TIP3     1911     TIP3     OH2      OT      -0.834000       15.9994           0
     28114 TIP3     1911     TIP3     H1       HT       0.417000       1.00800           0
     28115 TIP3     1911     TIP3     H2       HT       0.417000       1.00800           0
     28116 TIP3     1912     TIP3     OH2      OT      -0.834000       15.9994           0
     28117 TIP3     1912     TIP3     H1       HT       0.417000       1.00800           0
     28118 TIP3     1912     TIP3     H2       HT       0.417000       1.00800           0
     28119 TIP3     1913     TIP3     OH2      OT      -0.834000       15.9994           0
     28120 TIP3     1913     TIP3     H1       HT       0.417000       1.00800           0
     28121 TIP3     1913     TIP3     H2       HT       0.417000       1.00800           0
     28122 TIP3     1914     TIP3     OH2      OT      -0.834000       15.9994           0
     28123 TIP3     1914     TIP3     H1       HT       0.417000       1.00800           0
     28124 TIP3     1914     TIP3     H2       HT       0.417000       1.00800           0
     28125 TIP3     1915     TIP3     OH2      OT      -0.834000       15.9994           0
     28126 TIP3     1915     TIP3     H1       HT       0.417000       1.00800           0
     28127 TIP3     1915     TIP3     H2       HT       0.417000       1.00800           0
     28128 TIP3     1916     TIP3     OH2      OT      -0.834000       15.9994           0
     28129 TIP3     1916     TIP3     H1       HT       0.417000       1.00800           0
     28130 TIP3     1916     TIP3     H2       HT       0.417000       1.00800           0
     28131 TIP3     1917     TIP3     OH2      OT      -0.834000       15.9994           0
     28132 TIP3     1917     TIP3     H1       HT       0.417000       1.00800           0
     28133 TIP3     1917     TIP3     H2       HT       0.417000       1.00800           0
     28134 TIP3     1918     TIP3     OH2      OT      -0.834000       15.9994           0
     28135 TIP3     1918     TIP3     H1       HT       0.417000       1.00800           0
     28136 TIP3     1918     TIP3     H2       HT       0.417000       1.00800           0
     28137 TIP3     1919     TIP3     OH2      OT      -0.834000       15.9994           0
     28138 TIP3     1919     TIP3     H1       HT       0.417000       1.00800           0
     28139 TIP3     1919     TIP3     H2       HT       0.417000       1.00800           0
     28140 TIP3     1920     TIP3     OH2      OT      -0.834000       15.9994           0
     28141 TIP3     1920     TIP3     H1       HT       0.417000       1.00800           0
     28142 TIP3     1920     TIP3     H2       HT       0.417000       1.00800           0
     28143 TIP3     1921     TIP3     OH2      OT      -0.834000       15.9994           0
     28144 TIP3     1921     TIP3     H1       HT       0.417000       1.00800           0
     28145 TIP3     1921     TIP3     H2       HT       0.417000       1.00800           0
     28146 TIP3     1922     TIP3     OH2      OT      -0.834000       15.9994           0
     28147 TIP3     1922     TIP3     H1       HT       0.417000       1.00800           0
     28148 TIP3     1922     TIP3     H2       HT       0.417000       1.00800           0
     28149 TIP3     1923     TIP3     OH2      OT      -0.834000       15.9994           0
     28150 TIP3     1923     TIP3     H1       HT       0.417000       1.00800           0
     28151 TIP3     1923     TIP3     H2       HT       0.417000       1.00800           0
     28152 TIP3     1924     TIP3     OH2      OT      -0.834000       15.9994           0
     28153 TIP3     1924     TIP3     H1       HT       0.417000       1.00800           0
     28154 TIP3     1924     TIP3     H2       HT       0.417000       1.00800           0
     28155 TIP3     1925     TIP3     OH2      OT      -0.834000       15.9994           0
     28156 TIP3     1925     TIP3     H1       HT       0.417000       1.00800           0
     28157 TIP3     1925     TIP3     H2       HT       0.417000       1.00800           0
     28158 TIP3     1926     TIP3     OH2      OT      -0.834000       15.9994           0
     28159 TIP3     1926     TIP3     H1       HT       0.417000       1.00800           0
     28160 TIP3     1926     TIP3     H2       HT       0.417000       1.00800           0
     28161 TIP3     1927     TIP3     OH2      OT      -0.834000       15.9994           0
     28162 TIP3     1927     TIP3     H1       HT       0.417000       1.00800           0
     28163 TIP3     1927     TIP3     H2       HT       0.417000       1.00800           0
     28164 TIP3     1928     TIP3     OH2      OT      -0.834000       15.9994           0
     28165 TIP3     1928     TIP3     H1       HT       0.417000       1.00800           0
     28166 TIP3     1928     TIP3     H2       HT       0.417000       1.00800           0
     28167 TIP3     1929     TIP3     OH2      OT      -0.834000       15.9994           0
     28168 TIP3     1929     TIP3     H1       HT       0.417000       1.00800           0
     28169 TIP3     1929     TIP3     H2       HT       0.417000       1.00800           0
     28170 TIP3     1930     TIP3     OH2      OT      -0.834000       15.9994           0
     28171 TIP3     1930     TIP3     H1       HT       0.417000       1.00800           0
     28172 TIP3     1930     TIP3     H2       HT       0.417000       1.00800           0
     28173 TIP3     1931     TIP3     OH2      OT      -0.834000       15.9994           0
     28174 TIP3     1931     TIP3     H1       HT       0.417000       1.00800           0
     28175 TIP3     1931     TIP3     H2       HT       0.417000       1.00800           0
     28176 TIP3     1932     TIP3     OH2      OT      -0.834000       15.9994           0
     28177 TIP3     1932     TIP3     H1       HT       0.417000       1.00800           0
     28178 TIP3     1932     TIP3     H2       HT       0.417000       1.00800           0
     28179 TIP3     1933     TIP3     OH2      OT      -0.834000       15.9994           0
     28180 TIP3     1933     TIP3     H1       HT       0.417000       1.00800           0
     28181 TIP3     1933     TIP3     H2       HT       0.417000       1.00800           0
     28182 TIP3     1934     TIP3     OH2      OT      -0.834000       15.9994           0
     28183 TIP3     1934     TIP3     H1       HT       0.417000       1.00800           0
     28184 TIP3     1934     TIP3     H2       HT       0.417000       1.00800           0
     28185 TIP3     1935     TIP3     OH2      OT      -0.834000       15.9994           0
     28186 TIP3     1935     TIP3     H1       HT       0.417000       1.00800           0
     28187 TIP3     1935     TIP3     H2       HT       0.417000       1.00800           0
     28188 TIP3     1936     TIP3     OH2      OT      -0.834000       15.9994           0
     28189 TIP3     1936     TIP3     H1       HT       0.417000       1.00800           0
     28190 TIP3     1936     TIP3     H2       HT       0.417000       1.00800           0
     28191 TIP3     1937     TIP3     OH2      OT      -0.834000       15.9994           0
     28192 TIP3     1937     TIP3     H1       HT       0.417000       1.00800           0
     28193 TIP3     1937     TIP3     H2       HT       0.417000       1.00800           0
     28194 TIP3     1938     TIP3     OH2      OT      -0.834000       15.9994           0
     28195 TIP3     1938     TIP3     H1       HT       0.417000       1.00800           0
     28196 TIP3     1938     TIP3     H2       HT       0.417000       1.00800           0
     28197 TIP3     1939     TIP3     OH2      OT      -0.834000       15.9994           0
     28198 TIP3     1939     TIP3     H1       HT       0.417000       1.00800           0
     28199 TIP3     1939     TIP3     H2       HT       0.417000       1.00800           0
     28200 TIP3     1940     TIP3     OH2      OT      -0.834000       15.9994           0
     28201 TIP3     1940     TIP3     H1       HT       0.417000       1.00800           0
     28202 TIP3     1940     TIP3     H2       HT       0.417000       1.00800           0
     28203 TIP3     1941     TIP3     OH2      OT      -0.834000       15.9994           0
     28204 TIP3     1941     TIP3     H1       HT       0.417000       1.00800           0
     28205 TIP3     1941     TIP3     H2       HT       0.417000       1.00800           0
     28206 TIP3     1942     TIP3     OH2      OT      -0.834000       15.9994           0
     28207 TIP3     1942     TIP3     H1       HT       0.417000       1.00800           0
     28208 TIP3     1942     TIP3     H2       HT       0.417000       1.00800           0
     28209 TIP3     1943     TIP3     OH2      OT      -0.834000       15.9994           0
     28210 TIP3     1943     TIP3     H1       HT       0.417000       1.00800           0
     28211 TIP3     1943     TIP3     H2       HT       0.417000       1.00800           0
     28212 TIP3     1944     TIP3     OH2      OT      -0.834000       15.9994           0
     28213 TIP3     1944     TIP3     H1       HT       0.417000       1.00800           0
     28214 TIP3     1944     TIP3     H2       HT       0.417000       1.00800           0
     28215 TIP3     1945     TIP3     OH2      OT      -0.834000       15.9994           0
     28216 TIP3     1945     TIP3     H1       HT       0.417000       1.00800           0
     28217 TIP3     1945     TIP3     H2       HT       0.417000       1.00800           0
     28218 TIP3     1946     TIP3     OH2      OT      -0.834000       15.9994           0
     28219 TIP3     1946     TIP3     H1       HT       0.417000       1.00800           0
     28220 TIP3     1946     TIP3     H2       HT       0.417000       1.00800           0
     28221 TIP3     1947     TIP3     OH2      OT      -0.834000       15.9994           0
     28222 TIP3     1947     TIP3     H1       HT       0.417000       1.00800           0
     28223 TIP3     1947     TIP3     H2       HT       0.417000       1.00800           0
     28224 TIP3     1948     TIP3     OH2      OT      -0.834000       15.9994           0
     28225 TIP3     1948     TIP3     H1       HT       0.417000       1.00800           0
     28226 TIP3     1948     TIP3     H2       HT       0.417000       1.00800           0
     28227 TIP3     1949     TIP3     OH2      OT      -0.834000       15.9994           0
     28228 TIP3     1949     TIP3     H1       HT       0.417000       1.00800           0
     28229 TIP3     1949     TIP3     H2       HT       0.417000       1.00800           0
     28230 TIP3     1950     TIP3     OH2      OT      -0.834000       15.9994           0
     28231 TIP3     1950     TIP3     H1       HT       0.417000       1.00800           0
     28232 TIP3     1950     TIP3     H2       HT       0.417000       1.00800           0
     28233 TIP3     1951     TIP3     OH2      OT      -0.834000       15.9994           0
     28234 TIP3     1951     TIP3     H1       HT       0.417000       1.00800           0
     28235 TIP3     1951     TIP3     H2       HT       0.417000       1.00800           0
     28236 TIP3     1952     TIP3     OH2      OT      -0.834000       15.9994           0
     28237 TIP3     1952     TIP3     H1       HT       0.417000       1.00800           0
     28238 TIP3     1952     TIP3     H2       HT       0.417000       1.00800           0
     28239 TIP3     1953     TIP3     OH2      OT      -0.834000       15.9994           0
     28240 TIP3     1953     TIP3     H1       HT       0.417000       1.00800           0
     28241 TIP3     1953     TIP3     H2       HT       0.417000       1.00800           0
     28242 TIP3     1954     TIP3     OH2      OT      -0.834000       15.9994           0
     28243 TIP3     1954     TIP3     H1       HT       0.417000       1.00800           0
     28244 TIP3     1954     TIP3     H2       HT       0.417000       1.00800           0
     28245 TIP3     1955     TIP3     OH2      OT      -0.834000       15.9994           0
     28246 TIP3     1955     TIP3     H1       HT       0.417000       1.00800           0
     28247 TIP3     1955     TIP3     H2       HT       0.417000       1.00800           0
     28248 TIP3     1956     TIP3     OH2      OT      -0.834000       15.9994           0
     28249 TIP3     1956     TIP3     H1       HT       0.417000       1.00800           0
     28250 TIP3     1956     TIP3     H2       HT       0.417000       1.00800           0
     28251 TIP3     1957     TIP3     OH2      OT      -0.834000       15.9994           0
     28252 TIP3     1957     TIP3     H1       HT       0.417000       1.00800           0
     28253 TIP3     1957     TIP3     H2       HT       0.417000       1.00800           0
     28254 TIP3     1958     TIP3     OH2      OT      -0.834000       15.9994           0
     28255 TIP3     1958     TIP3     H1       HT       0.417000       1.00800           0
     28256 TIP3     1958     TIP3     H2       HT       0.417000       1.00800           0
     28257 TIP3     1959     TIP3     OH2      OT      -0.834000       15.9994           0
     28258 TIP3     1959     TIP3     H1       HT       0.417000       1.00800           0
     28259 TIP3     1959     TIP3     H2       HT       0.417000       1.00800           0
     28260 TIP3     1960     TIP3     OH2      OT      -0.834000       15.9994           0
     28261 TIP3     1960     TIP3     H1       HT       0.417000       1.00800           0
     28262 TIP3     1960     TIP3     H2       HT       0.417000       1.00800           0
     28263 TIP3     1961     TIP3     OH2      OT      -0.834000       15.9994           0
     28264 TIP3     1961     TIP3     H1       HT       0.417000       1.00800           0
     28265 TIP3     1961     TIP3     H2       HT       0.417000       1.00800           0
     28266 TIP3     1962     TIP3     OH2      OT      -0.834000       15.9994           0
     28267 TIP3     1962     TIP3     H1       HT       0.417000       1.00800           0
     28268 TIP3     1962     TIP3     H2       HT       0.417000       1.00800           0
     28269 TIP3     1963     TIP3     OH2      OT      -0.834000       15.9994           0
     28270 TIP3     1963     TIP3     H1       HT       0.417000       1.00800           0
     28271 TIP3     1963     TIP3     H2       HT       0.417000       1.00800           0
     28272 TIP3     1964     TIP3     OH2      OT      -0.834000       15.9994           0
     28273 TIP3     1964     TIP3     H1       HT       0.417000       1.00800           0
     28274 TIP3     1964     TIP3     H2       HT       0.417000       1.00800           0
     28275 TIP3     1965     TIP3     OH2      OT      -0.834000       15.9994           0
     28276 TIP3     1965     TIP3     H1       HT       0.417000       1.00800           0
     28277 TIP3     1965     TIP3     H2       HT       0.417000       1.00800           0
     28278 TIP3     1966     TIP3     OH2      OT      -0.834000       15.9994           0
     28279 TIP3     1966     TIP3     H1       HT       0.417000       1.00800           0
     28280 TIP3     1966     TIP3     H2       HT       0.417000       1.00800           0
     28281 TIP3     1967     TIP3     OH2      OT      -0.834000       15.9994           0
     28282 TIP3     1967     TIP3     H1       HT       0.417000       1.00800           0
     28283 TIP3     1967     TIP3     H2       HT       0.417000       1.00800           0
     28284 TIP3     1968     TIP3     OH2      OT      -0.834000       15.9994           0
     28285 TIP3     1968     TIP3     H1       HT       0.417000       1.00800           0
     28286 TIP3     1968     TIP3     H2       HT       0.417000       1.00800           0
     28287 TIP3     1969     TIP3     OH2      OT      -0.834000       15.9994           0
     28288 TIP3     1969     TIP3     H1       HT       0.417000       1.00800           0
     28289 TIP3     1969     TIP3     H2       HT       0.417000       1.00800           0
     28290 TIP3     1970     TIP3     OH2      OT      -0.834000       15.9994           0
     28291 TIP3     1970     TIP3     H1       HT       0.417000       1.00800           0
     28292 TIP3     1970     TIP3     H2       HT       0.417000       1.00800           0
     28293 TIP3     1971     TIP3     OH2      OT      -0.834000       15.9994           0
     28294 TIP3     1971     TIP3     H1       HT       0.417000       1.00800           0
     28295 TIP3     1971     TIP3     H2       HT       0.417000       1.00800           0
     28296 TIP3     1972     TIP3     OH2      OT      -0.834000       15.9994           0
     28297 TIP3     1972     TIP3     H1       HT       0.417000       1.00800           0
     28298 TIP3     1972     TIP3     H2       HT       0.417000       1.00800           0
     28299 TIP3     1973     TIP3     OH2      OT      -0.834000       15.9994           0
     28300 TIP3     1973     TIP3     H1       HT       0.417000       1.00800           0
     28301 TIP3     1973     TIP3     H2       HT       0.417000       1.00800           0
     28302 TIP3     1974     TIP3     OH2      OT      -0.834000       15.9994           0
     28303 TIP3     1974     TIP3     H1       HT       0.417000       1.00800           0
     28304 TIP3     1974     TIP3     H2       HT       0.417000       1.00800           0
     28305 TIP3     1975     TIP3     OH2      OT      -0.834000       15.9994           0
     28306 TIP3     1975     TIP3     H1       HT       0.417000       1.00800           0
     28307 TIP3     1975     TIP3     H2       HT       0.417000       1.00800           0
     28308 TIP3     1976     TIP3     OH2      OT      -0.834000       15.9994           0
     28309 TIP3     1976     TIP3     H1       HT       0.417000       1.00800           0
     28310 TIP3     1976     TIP3     H2       HT       0.417000       1.00800           0
     28311 TIP3     1977     TIP3     OH2      OT      -0.834000       15.9994           0
     28312 TIP3     1977     TIP3     H1       HT       0.417000       1.00800           0
     28313 TIP3     1977     TIP3     H2       HT       0.417000       1.00800           0
     28314 TIP3     1978     TIP3     OH2      OT      -0.834000       15.9994           0
     28315 TIP3     1978     TIP3     H1       HT       0.417000       1.00800           0
     28316 TIP3     1978     TIP3     H2       HT       0.417000       1.00800           0
     28317 TIP3     1979     TIP3     OH2      OT      -0.834000       15.9994           0
     28318 TIP3     1979     TIP3     H1       HT       0.417000       1.00800           0
     28319 TIP3     1979     TIP3     H2       HT       0.417000       1.00800           0
     28320 TIP3     1980     TIP3     OH2      OT      -0.834000       15.9994           0
     28321 TIP3     1980     TIP3     H1       HT       0.417000       1.00800           0
     28322 TIP3     1980     TIP3     H2       HT       0.417000       1.00800           0
     28323 TIP3     1981     TIP3     OH2      OT      -0.834000       15.9994           0
     28324 TIP3     1981     TIP3     H1       HT       0.417000       1.00800           0
     28325 TIP3     1981     TIP3     H2       HT       0.417000       1.00800           0
     28326 TIP3     1982     TIP3     OH2      OT      -0.834000       15.9994           0
     28327 TIP3     1982     TIP3     H1       HT       0.417000       1.00800           0
     28328 TIP3     1982     TIP3     H2       HT       0.417000       1.00800           0
     28329 TIP3     1983     TIP3     OH2      OT      -0.834000       15.9994           0
     28330 TIP3     1983     TIP3     H1       HT       0.417000       1.00800           0
     28331 TIP3     1983     TIP3     H2       HT       0.417000       1.00800           0
     28332 TIP3     1984     TIP3     OH2      OT      -0.834000       15.9994           0
     28333 TIP3     1984     TIP3     H1       HT       0.417000       1.00800           0
     28334 TIP3     1984     TIP3     H2       HT       0.417000       1.00800           0
     28335 TIP3     1985     TIP3     OH2      OT      -0.834000       15.9994           0
     28336 TIP3     1985     TIP3     H1       HT       0.417000       1.00800           0
     28337 TIP3     1985     TIP3     H2       HT       0.417000       1.00800           0
     28338 TIP3     1986     TIP3     OH2      OT      -0.834000       15.9994           0
     28339 TIP3     1986     TIP3     H1       HT       0.417000       1.00800           0
     28340 TIP3     1986     TIP3     H2       HT       0.417000       1.00800           0
     28341 TIP3     1987     TIP3     OH2      OT      -0.834000       15.9994           0
     28342 TIP3     1987     TIP3     H1       HT       0.417000       1.00800           0
     28343 TIP3     1987     TIP3     H2       HT       0.417000       1.00800           0
     28344 TIP3     1988     TIP3     OH2      OT      -0.834000       15.9994           0
     28345 TIP3     1988     TIP3     H1       HT       0.417000       1.00800           0
     28346 TIP3     1988     TIP3     H2       HT       0.417000       1.00800           0
     28347 TIP3     1989     TIP3     OH2      OT      -0.834000       15.9994           0
     28348 TIP3     1989     TIP3     H1       HT       0.417000       1.00800           0
     28349 TIP3     1989     TIP3     H2       HT       0.417000       1.00800           0
     28350 TIP3     1990     TIP3     OH2      OT      -0.834000       15.9994           0
     28351 TIP3     1990     TIP3     H1       HT       0.417000       1.00800           0
     28352 TIP3     1990     TIP3     H2       HT       0.417000       1.00800           0
     28353 TIP3     1991     TIP3     OH2      OT      -0.834000       15.9994           0
     28354 TIP3     1991     TIP3     H1       HT       0.417000       1.00800           0
     28355 TIP3     1991     TIP3     H2       HT       0.417000       1.00800           0
     28356 TIP3     1992     TIP3     OH2      OT      -0.834000       15.9994           0
     28357 TIP3     1992     TIP3     H1       HT       0.417000       1.00800           0
     28358 TIP3     1992     TIP3     H2       HT       0.417000       1.00800           0
     28359 TIP3     1993     TIP3     OH2      OT      -0.834000       15.9994           0
     28360 TIP3     1993     TIP3     H1       HT       0.417000       1.00800           0
     28361 TIP3     1993     TIP3     H2       HT       0.417000       1.00800           0
     28362 TIP3     1994     TIP3     OH2      OT      -0.834000       15.9994           0
     28363 TIP3     1994     TIP3     H1       HT       0.417000       1.00800           0
     28364 TIP3     1994     TIP3     H2       HT       0.417000       1.00800           0
     28365 TIP3     1995     TIP3     OH2      OT      -0.834000       15.9994           0
     28366 TIP3     1995     TIP3     H1       HT       0.417000       1.00800           0
     28367 TIP3     1995     TIP3     H2       HT       0.417000       1.00800           0
     28368 TIP3     1996     TIP3     OH2      OT      -0.834000       15.9994           0
     28369 TIP3     1996     TIP3     H1       HT       0.417000       1.00800           0
     28370 TIP3     1996     TIP3     H2       HT       0.417000       1.00800           0
     28371 TIP3     1997     TIP3     OH2      OT      -0.834000       15.9994           0
     28372 TIP3     1997     TIP3     H1       HT       0.417000       1.00800           0
     28373 TIP3     1997     TIP3     H2       HT       0.417000       1.00800           0
     28374 TIP3     1998     TIP3     OH2      OT      -0.834000       15.9994           0
     28375 TIP3     1998     TIP3     H1       HT       0.417000       1.00800           0
     28376 TIP3     1998     TIP3     H2       HT       0.417000       1.00800           0
     28377 TIP3     1999     TIP3     OH2      OT      -0.834000       15.9994           0
     28378 TIP3     1999     TIP3     H1       HT       0.417000       1.00800           0
     28379 TIP3     1999     TIP3     H2       HT       0.417000       1.00800           0
     28380 TIP3     2000     TIP3     OH2      OT      -0.834000       15.9994           0
     28381 TIP3     2000     TIP3     H1       HT       0.417000       1.00800           0
     28382 TIP3     2000     TIP3     H2       HT       0.417000       1.00800           0
     28383 TIP3     2001     TIP3     OH2      OT      -0.834000       15.9994           0
     28384 TIP3     2001     TIP3     H1       HT       0.417000       1.00800           0
     28385 TIP3     2001     TIP3     H2       HT       0.417000       1.00800           0
     28386 TIP3     2002     TIP3     OH2      OT      -0.834000       15.9994           0
     28387 TIP3     2002     TIP3     H1       HT       0.417000       1.00800           0
     28388 TIP3     2002     TIP3     H2       HT       0.417000       1.00800           0
     28389 TIP3     2003     TIP3     OH2      OT      -0.834000       15.9994           0
     28390 TIP3     2003     TIP3     H1       HT       0.417000       1.00800           0
     28391 TIP3     2003     TIP3     H2       HT       0.417000       1.00800           0
     28392 TIP3     2004     TIP3     OH2      OT      -0.834000       15.9994           0
     28393 TIP3     2004     TIP3     H1       HT       0.417000       1.00800           0
     28394 TIP3     2004     TIP3     H2       HT       0.417000       1.00800           0
     28395 TIP3     2005     TIP3     OH2      OT      -0.834000       15.9994           0
     28396 TIP3     2005     TIP3     H1       HT       0.417000       1.00800           0
     28397 TIP3     2005     TIP3     H2       HT       0.417000       1.00800           0
     28398 TIP3     2006     TIP3     OH2      OT      -0.834000       15.9994           0
     28399 TIP3     2006     TIP3     H1       HT       0.417000       1.00800           0
     28400 TIP3     2006     TIP3     H2       HT       0.417000       1.00800           0
     28401 TIP3     2007     TIP3     OH2      OT      -0.834000       15.9994           0
     28402 TIP3     2007     TIP3     H1       HT       0.417000       1.00800           0
     28403 TIP3     2007     TIP3     H2       HT       0.417000       1.00800           0
     28404 TIP3     2008     TIP3     OH2      OT      -0.834000       15.9994           0
     28405 TIP3     2008     TIP3     H1       HT       0.417000       1.00800           0
     28406 TIP3     2008     TIP3     H2       HT       0.417000       1.00800           0
     28407 TIP3     2009     TIP3     OH2      OT      -0.834000       15.9994           0
     28408 TIP3     2009     TIP3     H1       HT       0.417000       1.00800           0
     28409 TIP3     2009     TIP3     H2       HT       0.417000       1.00800           0
     28410 TIP3     2010     TIP3     OH2      OT      -0.834000       15.9994           0
     28411 TIP3     2010     TIP3     H1       HT       0.417000       1.00800           0
     28412 TIP3     2010     TIP3     H2       HT       0.417000       1.00800           0
     28413 TIP3     2011     TIP3     OH2      OT      -0.834000       15.9994           0
     28414 TIP3     2011     TIP3     H1       HT       0.417000       1.00800           0
     28415 TIP3     2011     TIP3     H2       HT       0.417000       1.00800           0
     28416 TIP3     2012     TIP3     OH2      OT      -0.834000       15.9994           0
     28417 TIP3     2012     TIP3     H1       HT       0.417000       1.00800           0
     28418 TIP3     2012     TIP3     H2       HT       0.417000       1.00800           0
     28419 TIP3     2013     TIP3     OH2      OT      -0.834000       15.9994           0
     28420 TIP3     2013     TIP3     H1       HT       0.417000       1.00800           0
     28421 TIP3     2013     TIP3     H2       HT       0.417000       1.00800           0
     28422 TIP3     2014     TIP3     OH2      OT      -0.834000       15.9994           0
     28423 TIP3     2014     TIP3     H1       HT       0.417000       1.00800           0
     28424 TIP3     2014     TIP3     H2       HT       0.417000       1.00800           0
     28425 TIP3     2015     TIP3     OH2      OT      -0.834000       15.9994           0
     28426 TIP3     2015     TIP3     H1       HT       0.417000       1.00800           0
     28427 TIP3     2015     TIP3     H2       HT       0.417000       1.00800           0
     28428 TIP3     2016     TIP3     OH2      OT      -0.834000       15.9994           0
     28429 TIP3     2016     TIP3     H1       HT       0.417000       1.00800           0
     28430 TIP3     2016     TIP3     H2       HT       0.417000       1.00800           0
     28431 TIP3     2017     TIP3     OH2      OT      -0.834000       15.9994           0
     28432 TIP3     2017     TIP3     H1       HT       0.417000       1.00800           0
     28433 TIP3     2017     TIP3     H2       HT       0.417000       1.00800           0
     28434 TIP3     2018     TIP3     OH2      OT      -0.834000       15.9994           0
     28435 TIP3     2018     TIP3     H1       HT       0.417000       1.00800           0
     28436 TIP3     2018     TIP3     H2       HT       0.417000       1.00800           0
     28437 TIP3     2019     TIP3     OH2      OT      -0.834000       15.9994           0
     28438 TIP3     2019     TIP3     H1       HT       0.417000       1.00800           0
     28439 TIP3     2019     TIP3     H2       HT       0.417000       1.00800           0
     28440 TIP3     2020     TIP3     OH2      OT      -0.834000       15.9994           0
     28441 TIP3     2020     TIP3     H1       HT       0.417000       1.00800           0
     28442 TIP3     2020     TIP3     H2       HT       0.417000       1.00800           0
     28443 TIP3     2021     TIP3     OH2      OT      -0.834000       15.9994           0
     28444 TIP3     2021     TIP3     H1       HT       0.417000       1.00800           0
     28445 TIP3     2021     TIP3     H2       HT       0.417000       1.00800           0
     28446 TIP3     2022     TIP3     OH2      OT      -0.834000       15.9994           0
     28447 TIP3     2022     TIP3     H1       HT       0.417000       1.00800           0
     28448 TIP3     2022     TIP3     H2       HT       0.417000       1.00800           0
     28449 TIP3     2023     TIP3     OH2      OT      -0.834000       15.9994           0
     28450 TIP3     2023     TIP3     H1       HT       0.417000       1.00800           0
     28451 TIP3     2023     TIP3     H2       HT       0.417000       1.00800           0
     28452 TIP3     2024     TIP3     OH2      OT      -0.834000       15.9994           0
     28453 TIP3     2024     TIP3     H1       HT       0.417000       1.00800           0
     28454 TIP3     2024     TIP3     H2       HT       0.417000       1.00800           0
     28455 TIP3     2025     TIP3     OH2      OT      -0.834000       15.9994           0
     28456 TIP3     2025     TIP3     H1       HT       0.417000       1.00800           0
     28457 TIP3     2025     TIP3     H2       HT       0.417000       1.00800           0
     28458 TIP3     2026     TIP3     OH2      OT      -0.834000       15.9994           0
     28459 TIP3     2026     TIP3     H1       HT       0.417000       1.00800           0
     28460 TIP3     2026     TIP3     H2       HT       0.417000       1.00800           0
     28461 TIP3     2027     TIP3     OH2      OT      -0.834000       15.9994           0
     28462 TIP3     2027     TIP3     H1       HT       0.417000       1.00800           0
     28463 TIP3     2027     TIP3     H2       HT       0.417000       1.00800           0
     28464 TIP3     2028     TIP3     OH2      OT      -0.834000       15.9994           0
     28465 TIP3     2028     TIP3     H1       HT       0.417000       1.00800           0
     28466 TIP3     2028     TIP3     H2       HT       0.417000       1.00800           0
     28467 TIP3     2029     TIP3     OH2      OT      -0.834000       15.9994           0
     28468 TIP3     2029     TIP3     H1       HT       0.417000       1.00800           0
     28469 TIP3     2029     TIP3     H2       HT       0.417000       1.00800           0
     28470 TIP3     2030     TIP3     OH2      OT      -0.834000       15.9994           0
     28471 TIP3     2030     TIP3     H1       HT       0.417000       1.00800           0
     28472 TIP3     2030     TIP3     H2       HT       0.417000       1.00800           0
     28473 TIP3     2031     TIP3     OH2      OT      -0.834000       15.9994           0
     28474 TIP3     2031     TIP3     H1       HT       0.417000       1.00800           0
     28475 TIP3     2031     TIP3     H2       HT       0.417000       1.00800           0
     28476 TIP3     2032     TIP3     OH2      OT      -0.834000       15.9994           0
     28477 TIP3     2032     TIP3     H1       HT       0.417000       1.00800           0
     28478 TIP3     2032     TIP3     H2       HT       0.417000       1.00800           0
     28479 TIP3     2033     TIP3     OH2      OT      -0.834000       15.9994           0
     28480 TIP3     2033     TIP3     H1       HT       0.417000       1.00800           0
     28481 TIP3     2033     TIP3     H2       HT       0.417000       1.00800           0
     28482 TIP3     2034     TIP3     OH2      OT      -0.834000       15.9994           0
     28483 TIP3     2034     TIP3     H1       HT       0.417000       1.00800           0
     28484 TIP3     2034     TIP3     H2       HT       0.417000       1.00800           0
     28485 TIP3     2035     TIP3     OH2      OT      -0.834000       15.9994           0
     28486 TIP3     2035     TIP3     H1       HT       0.417000       1.00800           0
     28487 TIP3     2035     TIP3     H2       HT       0.417000       1.00800           0
     28488 TIP3     2036     TIP3     OH2      OT      -0.834000       15.9994           0
     28489 TIP3     2036     TIP3     H1       HT       0.417000       1.00800           0
     28490 TIP3     2036     TIP3     H2       HT       0.417000       1.00800           0
     28491 TIP3     2037     TIP3     OH2      OT      -0.834000       15.9994           0
     28492 TIP3     2037     TIP3     H1       HT       0.417000       1.00800           0
     28493 TIP3     2037     TIP3     H2       HT       0.417000       1.00800           0
     28494 TIP3     2038     TIP3     OH2      OT      -0.834000       15.9994           0
     28495 TIP3     2038     TIP3     H1       HT       0.417000       1.00800           0
     28496 TIP3     2038     TIP3     H2       HT       0.417000       1.00800           0
     28497 TIP3     2039     TIP3     OH2      OT      -0.834000       15.9994           0
     28498 TIP3     2039     TIP3     H1       HT       0.417000       1.00800           0
     28499 TIP3     2039     TIP3     H2       HT       0.417000       1.00800           0
     28500 TIP3     2040     TIP3     OH2      OT      -0.834000       15.9994           0
     28501 TIP3     2040     TIP3     H1       HT       0.417000       1.00800           0
     28502 TIP3     2040     TIP3     H2       HT       0.417000       1.00800           0
     28503 TIP3     2041     TIP3     OH2      OT      -0.834000       15.9994           0
     28504 TIP3     2041     TIP3     H1       HT       0.417000       1.00800           0
     28505 TIP3     2041     TIP3     H2       HT       0.417000       1.00800           0
     28506 TIP3     2042     TIP3     OH2      OT      -0.834000       15.9994           0
     28507 TIP3     2042     TIP3     H1       HT       0.417000       1.00800           0
     28508 TIP3     2042     TIP3     H2       HT       0.417000       1.00800           0
     28509 TIP3     2043     TIP3     OH2      OT      -0.834000       15.9994           0
     28510 TIP3     2043     TIP3     H1       HT       0.417000       1.00800           0
     28511 TIP3     2043     TIP3     H2       HT       0.417000       1.00800           0
     28512 TIP3     2044     TIP3     OH2      OT      -0.834000       15.9994           0
     28513 TIP3     2044     TIP3     H1       HT       0.417000       1.00800           0
     28514 TIP3     2044     TIP3     H2       HT       0.417000       1.00800           0
     28515 TIP3     2045     TIP3     OH2      OT      -0.834000       15.9994           0
     28516 TIP3     2045     TIP3     H1       HT       0.417000       1.00800           0
     28517 TIP3     2045     TIP3     H2       HT       0.417000       1.00800           0
     28518 TIP3     2046     TIP3     OH2      OT      -0.834000       15.9994           0
     28519 TIP3     2046     TIP3     H1       HT       0.417000       1.00800           0
     28520 TIP3     2046     TIP3     H2       HT       0.417000       1.00800           0
     28521 TIP3     2047     TIP3     OH2      OT      -0.834000       15.9994           0
     28522 TIP3     2047     TIP3     H1       HT       0.417000       1.00800           0
     28523 TIP3     2047     TIP3     H2       HT       0.417000       1.00800           0
     28524 TIP3     2048     TIP3     OH2      OT      -0.834000       15.9994           0
     28525 TIP3     2048     TIP3     H1       HT       0.417000       1.00800           0
     28526 TIP3     2048     TIP3     H2       HT       0.417000       1.00800           0
     28527 TIP3     2049     TIP3     OH2      OT      -0.834000       15.9994           0
     28528 TIP3     2049     TIP3     H1       HT       0.417000       1.00800           0
     28529 TIP3     2049     TIP3     H2       HT       0.417000       1.00800           0
     28530 TIP3     2050     TIP3     OH2      OT      -0.834000       15.9994           0
     28531 TIP3     2050     TIP3     H1       HT       0.417000       1.00800           0
     28532 TIP3     2050     TIP3     H2       HT       0.417000       1.00800           0
     28533 TIP3     2051     TIP3     OH2      OT      -0.834000       15.9994           0
     28534 TIP3     2051     TIP3     H1       HT       0.417000       1.00800           0
     28535 TIP3     2051     TIP3     H2       HT       0.417000       1.00800           0
     28536 TIP3     2052     TIP3     OH2      OT      -0.834000       15.9994           0
     28537 TIP3     2052     TIP3     H1       HT       0.417000       1.00800           0
     28538 TIP3     2052     TIP3     H2       HT       0.417000       1.00800           0
     28539 TIP3     2053     TIP3     OH2      OT      -0.834000       15.9994           0
     28540 TIP3     2053     TIP3     H1       HT       0.417000       1.00800           0
     28541 TIP3     2053     TIP3     H2       HT       0.417000       1.00800           0
     28542 TIP3     2054     TIP3     OH2      OT      -0.834000       15.9994           0
     28543 TIP3     2054     TIP3     H1       HT       0.417000       1.00800           0
     28544 TIP3     2054     TIP3     H2       HT       0.417000       1.00800           0
     28545 TIP3     2055     TIP3     OH2      OT      -0.834000       15.9994           0
     28546 TIP3     2055     TIP3     H1       HT       0.417000       1.00800           0
     28547 TIP3     2055     TIP3     H2       HT       0.417000       1.00800           0
     28548 TIP3     2056     TIP3     OH2      OT      -0.834000       15.9994           0
     28549 TIP3     2056     TIP3     H1       HT       0.417000       1.00800           0
     28550 TIP3     2056     TIP3     H2       HT       0.417000       1.00800           0
     28551 TIP3     2057     TIP3     OH2      OT      -0.834000       15.9994           0
     28552 TIP3     2057     TIP3     H1       HT       0.417000       1.00800           0
     28553 TIP3     2057     TIP3     H2       HT       0.417000       1.00800           0
     28554 TIP3     2058     TIP3     OH2      OT      -0.834000       15.9994           0
     28555 TIP3     2058     TIP3     H1       HT       0.417000       1.00800           0
     28556 TIP3     2058     TIP3     H2       HT       0.417000       1.00800           0
     28557 TIP3     2059     TIP3     OH2      OT      -0.834000       15.9994           0
     28558 TIP3     2059     TIP3     H1       HT       0.417000       1.00800           0
     28559 TIP3     2059     TIP3     H2       HT       0.417000       1.00800           0
     28560 TIP3     2060     TIP3     OH2      OT      -0.834000       15.9994           0
     28561 TIP3     2060     TIP3     H1       HT       0.417000       1.00800           0
     28562 TIP3     2060     TIP3     H2       HT       0.417000       1.00800           0
     28563 TIP3     2061     TIP3     OH2      OT      -0.834000       15.9994           0
     28564 TIP3     2061     TIP3     H1       HT       0.417000       1.00800           0
     28565 TIP3     2061     TIP3     H2       HT       0.417000       1.00800           0
     28566 TIP3     2062     TIP3     OH2      OT      -0.834000       15.9994           0
     28567 TIP3     2062     TIP3     H1       HT       0.417000       1.00800           0
     28568 TIP3     2062     TIP3     H2       HT       0.417000       1.00800           0
     28569 TIP3     2063     TIP3     OH2      OT      -0.834000       15.9994           0
     28570 TIP3     2063     TIP3     H1       HT       0.417000       1.00800           0
     28571 TIP3     2063     TIP3     H2       HT       0.417000       1.00800           0
     28572 TIP3     2064     TIP3     OH2      OT      -0.834000       15.9994           0
     28573 TIP3     2064     TIP3     H1       HT       0.417000       1.00800           0
     28574 TIP3     2064     TIP3     H2       HT       0.417000       1.00800           0
     28575 TIP3     2065     TIP3     OH2      OT      -0.834000       15.9994           0
     28576 TIP3     2065     TIP3     H1       HT       0.417000       1.00800           0
     28577 TIP3     2065     TIP3     H2       HT       0.417000       1.00800           0
     28578 TIP3     2066     TIP3     OH2      OT      -0.834000       15.9994           0
     28579 TIP3     2066     TIP3     H1       HT       0.417000       1.00800           0
     28580 TIP3     2066     TIP3     H2       HT       0.417000       1.00800           0
     28581 TIP3     2067     TIP3     OH2      OT      -0.834000       15.9994           0
     28582 TIP3     2067     TIP3     H1       HT       0.417000       1.00800           0
     28583 TIP3     2067     TIP3     H2       HT       0.417000       1.00800           0
     28584 TIP3     2068     TIP3     OH2      OT      -0.834000       15.9994           0
     28585 TIP3     2068     TIP3     H1       HT       0.417000       1.00800           0
     28586 TIP3     2068     TIP3     H2       HT       0.417000       1.00800           0
     28587 TIP3     2069     TIP3     OH2      OT      -0.834000       15.9994           0
     28588 TIP3     2069     TIP3     H1       HT       0.417000       1.00800           0
     28589 TIP3     2069     TIP3     H2       HT       0.417000       1.00800           0
     28590 TIP3     2070     TIP3     OH2      OT      -0.834000       15.9994           0
     28591 TIP3     2070     TIP3     H1       HT       0.417000       1.00800           0
     28592 TIP3     2070     TIP3     H2       HT       0.417000       1.00800           0
     28593 TIP3     2071     TIP3     OH2      OT      -0.834000       15.9994           0
     28594 TIP3     2071     TIP3     H1       HT       0.417000       1.00800           0
     28595 TIP3     2071     TIP3     H2       HT       0.417000       1.00800           0
     28596 TIP3     2072     TIP3     OH2      OT      -0.834000       15.9994           0
     28597 TIP3     2072     TIP3     H1       HT       0.417000       1.00800           0
     28598 TIP3     2072     TIP3     H2       HT       0.417000       1.00800           0
     28599 TIP3     2073     TIP3     OH2      OT      -0.834000       15.9994           0
     28600 TIP3     2073     TIP3     H1       HT       0.417000       1.00800           0
     28601 TIP3     2073     TIP3     H2       HT       0.417000       1.00800           0
     28602 TIP3     2074     TIP3     OH2      OT      -0.834000       15.9994           0
     28603 TIP3     2074     TIP3     H1       HT       0.417000       1.00800           0
     28604 TIP3     2074     TIP3     H2       HT       0.417000       1.00800           0
     28605 TIP3     2075     TIP3     OH2      OT      -0.834000       15.9994           0
     28606 TIP3     2075     TIP3     H1       HT       0.417000       1.00800           0
     28607 TIP3     2075     TIP3     H2       HT       0.417000       1.00800           0
     28608 TIP3     2076     TIP3     OH2      OT      -0.834000       15.9994           0
     28609 TIP3     2076     TIP3     H1       HT       0.417000       1.00800           0
     28610 TIP3     2076     TIP3     H2       HT       0.417000       1.00800           0
     28611 TIP3     2077     TIP3     OH2      OT      -0.834000       15.9994           0
     28612 TIP3     2077     TIP3     H1       HT       0.417000       1.00800           0
     28613 TIP3     2077     TIP3     H2       HT       0.417000       1.00800           0
     28614 TIP3     2078     TIP3     OH2      OT      -0.834000       15.9994           0
     28615 TIP3     2078     TIP3     H1       HT       0.417000       1.00800           0
     28616 TIP3     2078     TIP3     H2       HT       0.417000       1.00800           0
     28617 TIP3     2079     TIP3     OH2      OT      -0.834000       15.9994           0
     28618 TIP3     2079     TIP3     H1       HT       0.417000       1.00800           0
     28619 TIP3     2079     TIP3     H2       HT       0.417000       1.00800           0
     28620 TIP3     2080     TIP3     OH2      OT      -0.834000       15.9994           0
     28621 TIP3     2080     TIP3     H1       HT       0.417000       1.00800           0
     28622 TIP3     2080     TIP3     H2       HT       0.417000       1.00800           0
     28623 TIP3     2081     TIP3     OH2      OT      -0.834000       15.9994           0
     28624 TIP3     2081     TIP3     H1       HT       0.417000       1.00800           0
     28625 TIP3     2081     TIP3     H2       HT       0.417000       1.00800           0
     28626 TIP3     2082     TIP3     OH2      OT      -0.834000       15.9994           0
     28627 TIP3     2082     TIP3     H1       HT       0.417000       1.00800           0
     28628 TIP3     2082     TIP3     H2       HT       0.417000       1.00800           0
     28629 TIP3     2083     TIP3     OH2      OT      -0.834000       15.9994           0
     28630 TIP3     2083     TIP3     H1       HT       0.417000       1.00800           0
     28631 TIP3     2083     TIP3     H2       HT       0.417000       1.00800           0
     28632 TIP3     2084     TIP3     OH2      OT      -0.834000       15.9994           0
     28633 TIP3     2084     TIP3     H1       HT       0.417000       1.00800           0
     28634 TIP3     2084     TIP3     H2       HT       0.417000       1.00800           0
     28635 TIP3     2085     TIP3     OH2      OT      -0.834000       15.9994           0
     28636 TIP3     2085     TIP3     H1       HT       0.417000       1.00800           0
     28637 TIP3     2085     TIP3     H2       HT       0.417000       1.00800           0
     28638 TIP3     2086     TIP3     OH2      OT      -0.834000       15.9994           0
     28639 TIP3     2086     TIP3     H1       HT       0.417000       1.00800           0
     28640 TIP3     2086     TIP3     H2       HT       0.417000       1.00800           0
     28641 TIP3     2087     TIP3     OH2      OT      -0.834000       15.9994           0
     28642 TIP3     2087     TIP3     H1       HT       0.417000       1.00800           0
     28643 TIP3     2087     TIP3     H2       HT       0.417000       1.00800           0
     28644 TIP3     2088     TIP3     OH2      OT      -0.834000       15.9994           0
     28645 TIP3     2088     TIP3     H1       HT       0.417000       1.00800           0
     28646 TIP3     2088     TIP3     H2       HT       0.417000       1.00800           0
     28647 TIP3     2089     TIP3     OH2      OT      -0.834000       15.9994           0
     28648 TIP3     2089     TIP3     H1       HT       0.417000       1.00800           0
     28649 TIP3     2089     TIP3     H2       HT       0.417000       1.00800           0
     28650 TIP3     2090     TIP3     OH2      OT      -0.834000       15.9994           0
     28651 TIP3     2090     TIP3     H1       HT       0.417000       1.00800           0
     28652 TIP3     2090     TIP3     H2       HT       0.417000       1.00800           0
     28653 TIP3     2091     TIP3     OH2      OT      -0.834000       15.9994           0
     28654 TIP3     2091     TIP3     H1       HT       0.417000       1.00800           0
     28655 TIP3     2091     TIP3     H2       HT       0.417000       1.00800           0
     28656 TIP3     2092     TIP3     OH2      OT      -0.834000       15.9994           0
     28657 TIP3     2092     TIP3     H1       HT       0.417000       1.00800           0
     28658 TIP3     2092     TIP3     H2       HT       0.417000       1.00800           0
     28659 TIP3     2093     TIP3     OH2      OT      -0.834000       15.9994           0
     28660 TIP3     2093     TIP3     H1       HT       0.417000       1.00800           0
     28661 TIP3     2093     TIP3     H2       HT       0.417000       1.00800           0
     28662 TIP3     2094     TIP3     OH2      OT      -0.834000       15.9994           0
     28663 TIP3     2094     TIP3     H1       HT       0.417000       1.00800           0
     28664 TIP3     2094     TIP3     H2       HT       0.417000       1.00800           0
     28665 TIP3     2095     TIP3     OH2      OT      -0.834000       15.9994           0
     28666 TIP3     2095     TIP3     H1       HT       0.417000       1.00800           0
     28667 TIP3     2095     TIP3     H2       HT       0.417000       1.00800           0
     28668 TIP3     2096     TIP3     OH2      OT      -0.834000       15.9994           0
     28669 TIP3     2096     TIP3     H1       HT       0.417000       1.00800           0
     28670 TIP3     2096     TIP3     H2       HT       0.417000       1.00800           0
     28671 TIP3     2097     TIP3     OH2      OT      -0.834000       15.9994           0
     28672 TIP3     2097     TIP3     H1       HT       0.417000       1.00800           0
     28673 TIP3     2097     TIP3     H2       HT       0.417000       1.00800           0
     28674 TIP3     2098     TIP3     OH2      OT      -0.834000       15.9994           0
     28675 TIP3     2098     TIP3     H1       HT       0.417000       1.00800           0
     28676 TIP3     2098     TIP3     H2       HT       0.417000       1.00800           0
     28677 TIP3     2099     TIP3     OH2      OT      -0.834000       15.9994           0
     28678 TIP3     2099     TIP3     H1       HT       0.417000       1.00800           0
     28679 TIP3     2099     TIP3     H2       HT       0.417000       1.00800           0
     28680 TIP3     2100     TIP3     OH2      OT      -0.834000       15.9994           0
     28681 TIP3     2100     TIP3     H1       HT       0.417000       1.00800           0
     28682 TIP3     2100     TIP3     H2       HT       0.417000       1.00800           0
     28683 TIP3     2101     TIP3     OH2      OT      -0.834000       15.9994           0
     28684 TIP3     2101     TIP3     H1       HT       0.417000       1.00800           0
     28685 TIP3     2101     TIP3     H2       HT       0.417000       1.00800           0
     28686 TIP3     2102     TIP3     OH2      OT      -0.834000       15.9994           0
     28687 TIP3     2102     TIP3     H1       HT       0.417000       1.00800           0
     28688 TIP3     2102     TIP3     H2       HT       0.417000       1.00800           0
     28689 TIP3     2103     TIP3     OH2      OT      -0.834000       15.9994           0
     28690 TIP3     2103     TIP3     H1       HT       0.417000       1.00800           0
     28691 TIP3     2103     TIP3     H2       HT       0.417000       1.00800           0
     28692 TIP3     2104     TIP3     OH2      OT      -0.834000       15.9994           0
     28693 TIP3     2104     TIP3     H1       HT       0.417000       1.00800           0
     28694 TIP3     2104     TIP3     H2       HT       0.417000       1.00800           0
     28695 TIP3     2105     TIP3     OH2      OT      -0.834000       15.9994           0
     28696 TIP3     2105     TIP3     H1       HT       0.417000       1.00800           0
     28697 TIP3     2105     TIP3     H2       HT       0.417000       1.00800           0
     28698 TIP3     2106     TIP3     OH2      OT      -0.834000       15.9994           0
     28699 TIP3     2106     TIP3     H1       HT       0.417000       1.00800           0
     28700 TIP3     2106     TIP3     H2       HT       0.417000       1.00800           0
     28701 TIP3     2107     TIP3     OH2      OT      -0.834000       15.9994           0
     28702 TIP3     2107     TIP3     H1       HT       0.417000       1.00800           0
     28703 TIP3     2107     TIP3     H2       HT       0.417000       1.00800           0
     28704 TIP3     2108     TIP3     OH2      OT      -0.834000       15.9994           0
     28705 TIP3     2108     TIP3     H1       HT       0.417000       1.00800           0
     28706 TIP3     2108     TIP3     H2       HT       0.417000       1.00800           0
     28707 TIP3     2109     TIP3     OH2      OT      -0.834000       15.9994           0
     28708 TIP3     2109     TIP3     H1       HT       0.417000       1.00800           0
     28709 TIP3     2109     TIP3     H2       HT       0.417000       1.00800           0
     28710 TIP3     2110     TIP3     OH2      OT      -0.834000       15.9994           0
     28711 TIP3     2110     TIP3     H1       HT       0.417000       1.00800           0
     28712 TIP3     2110     TIP3     H2       HT       0.417000       1.00800           0
     28713 TIP3     2111     TIP3     OH2      OT      -0.834000       15.9994           0
     28714 TIP3     2111     TIP3     H1       HT       0.417000       1.00800           0
     28715 TIP3     2111     TIP3     H2       HT       0.417000       1.00800           0
     28716 TIP3     2112     TIP3     OH2      OT      -0.834000       15.9994           0
     28717 TIP3     2112     TIP3     H1       HT       0.417000       1.00800           0
     28718 TIP3     2112     TIP3     H2       HT       0.417000       1.00800           0
     28719 TIP3     2113     TIP3     OH2      OT      -0.834000       15.9994           0
     28720 TIP3     2113     TIP3     H1       HT       0.417000       1.00800           0
     28721 TIP3     2113     TIP3     H2       HT       0.417000       1.00800           0
     28722 TIP3     2114     TIP3     OH2      OT      -0.834000       15.9994           0
     28723 TIP3     2114     TIP3     H1       HT       0.417000       1.00800           0
     28724 TIP3     2114     TIP3     H2       HT       0.417000       1.00800           0
     28725 TIP3     2115     TIP3     OH2      OT      -0.834000       15.9994           0
     28726 TIP3     2115     TIP3     H1       HT       0.417000       1.00800           0
     28727 TIP3     2115     TIP3     H2       HT       0.417000       1.00800           0
     28728 TIP3     2116     TIP3     OH2      OT      -0.834000       15.9994           0
     28729 TIP3     2116     TIP3     H1       HT       0.417000       1.00800           0
     28730 TIP3     2116     TIP3     H2       HT       0.417000       1.00800           0
     28731 TIP3     2117     TIP3     OH2      OT      -0.834000       15.9994           0
     28732 TIP3     2117     TIP3     H1       HT       0.417000       1.00800           0
     28733 TIP3     2117     TIP3     H2       HT       0.417000       1.00800           0
     28734 TIP3     2118     TIP3     OH2      OT      -0.834000       15.9994           0
     28735 TIP3     2118     TIP3     H1       HT       0.417000       1.00800           0
     28736 TIP3     2118     TIP3     H2       HT       0.417000       1.00800           0
     28737 TIP3     2119     TIP3     OH2      OT      -0.834000       15.9994           0
     28738 TIP3     2119     TIP3     H1       HT       0.417000       1.00800           0
     28739 TIP3     2119     TIP3     H2       HT       0.417000       1.00800           0
     28740 TIP3     2120     TIP3     OH2      OT      -0.834000       15.9994           0
     28741 TIP3     2120     TIP3     H1       HT       0.417000       1.00800           0
     28742 TIP3     2120     TIP3     H2       HT       0.417000       1.00800           0
     28743 TIP3     2121     TIP3     OH2      OT      -0.834000       15.9994           0
     28744 TIP3     2121     TIP3     H1       HT       0.417000       1.00800           0
     28745 TIP3     2121     TIP3     H2       HT       0.417000       1.00800           0
     28746 TIP3     2122     TIP3     OH2      OT      -0.834000       15.9994           0
     28747 TIP3     2122     TIP3     H1       HT       0.417000       1.00800           0
     28748 TIP3     2122     TIP3     H2       HT       0.417000       1.00800           0
     28749 TIP3     2123     TIP3     OH2      OT      -0.834000       15.9994           0
     28750 TIP3     2123     TIP3     H1       HT       0.417000       1.00800           0
     28751 TIP3     2123     TIP3     H2       HT       0.417000       1.00800           0
     28752 TIP3     2124     TIP3     OH2      OT      -0.834000       15.9994           0
     28753 TIP3     2124     TIP3     H1       HT       0.417000       1.00800           0
     28754 TIP3     2124     TIP3     H2       HT       0.417000       1.00800           0
     28755 TIP3     2125     TIP3     OH2      OT      -0.834000       15.9994           0
     28756 TIP3     2125     TIP3     H1       HT       0.417000       1.00800           0
     28757 TIP3     2125     TIP3     H2       HT       0.417000       1.00800           0
     28758 TIP3     2126     TIP3     OH2      OT      -0.834000       15.9994           0
     28759 TIP3     2126     TIP3     H1       HT       0.417000       1.00800           0
     28760 TIP3     2126     TIP3     H2       HT       0.417000       1.00800           0
     28761 TIP3     2127     TIP3     OH2      OT      -0.834000       15.9994           0
     28762 TIP3     2127     TIP3     H1       HT       0.417000       1.00800           0
     28763 TIP3     2127     TIP3     H2       HT       0.417000       1.00800           0
     28764 TIP3     2128     TIP3     OH2      OT      -0.834000       15.9994           0
     28765 TIP3     2128     TIP3     H1       HT       0.417000       1.00800           0
     28766 TIP3     2128     TIP3     H2       HT       0.417000       1.00800           0
     28767 TIP3     2129     TIP3     OH2      OT      -0.834000       15.9994           0
     28768 TIP3     2129     TIP3     H1       HT       0.417000       1.00800           0
     28769 TIP3     2129     TIP3     H2       HT       0.417000       1.00800           0
     28770 TIP3     2130     TIP3     OH2      OT      -0.834000       15.9994           0
     28771 TIP3     2130     TIP3     H1       HT       0.417000       1.00800           0
     28772 TIP3     2130     TIP3     H2       HT       0.417000       1.00800           0
     28773 TIP3     2131     TIP3     OH2      OT      -0.834000       15.9994           0
     28774 TIP3     2131     TIP3     H1       HT       0.417000       1.00800           0
     28775 TIP3     2131     TIP3     H2       HT       0.417000       1.00800           0
     28776 TIP3     2132     TIP3     OH2      OT      -0.834000       15.9994           0
     28777 TIP3     2132     TIP3     H1       HT       0.417000       1.00800           0
     28778 TIP3     2132     TIP3     H2       HT       0.417000       1.00800           0
     28779 TIP3     2133     TIP3     OH2      OT      -0.834000       15.9994           0
     28780 TIP3     2133     TIP3     H1       HT       0.417000       1.00800           0
     28781 TIP3     2133     TIP3     H2       HT       0.417000       1.00800           0
     28782 TIP3     2134     TIP3     OH2      OT      -0.834000       15.9994           0
     28783 TIP3     2134     TIP3     H1       HT       0.417000       1.00800           0
     28784 TIP3     2134     TIP3     H2       HT       0.417000       1.00800           0
     28785 TIP3     2135     TIP3     OH2      OT      -0.834000       15.9994           0
     28786 TIP3     2135     TIP3     H1       HT       0.417000       1.00800           0
     28787 TIP3     2135     TIP3     H2       HT       0.417000       1.00800           0
     28788 TIP3     2136     TIP3     OH2      OT      -0.834000       15.9994           0
     28789 TIP3     2136     TIP3     H1       HT       0.417000       1.00800           0
     28790 TIP3     2136     TIP3     H2       HT       0.417000       1.00800           0
     28791 TIP3     2137     TIP3     OH2      OT      -0.834000       15.9994           0
     28792 TIP3     2137     TIP3     H1       HT       0.417000       1.00800           0
     28793 TIP3     2137     TIP3     H2       HT       0.417000       1.00800           0
     28794 TIP3     2138     TIP3     OH2      OT      -0.834000       15.9994           0
     28795 TIP3     2138     TIP3     H1       HT       0.417000       1.00800           0
     28796 TIP3     2138     TIP3     H2       HT       0.417000       1.00800           0
     28797 TIP3     2139     TIP3     OH2      OT      -0.834000       15.9994           0
     28798 TIP3     2139     TIP3     H1       HT       0.417000       1.00800           0
     28799 TIP3     2139     TIP3     H2       HT       0.417000       1.00800           0
     28800 TIP3     2140     TIP3     OH2      OT      -0.834000       15.9994           0
     28801 TIP3     2140     TIP3     H1       HT       0.417000       1.00800           0
     28802 TIP3     2140     TIP3     H2       HT       0.417000       1.00800           0
     28803 TIP3     2141     TIP3     OH2      OT      -0.834000       15.9994           0
     28804 TIP3     2141     TIP3     H1       HT       0.417000       1.00800           0
     28805 TIP3     2141     TIP3     H2       HT       0.417000       1.00800           0
     28806 TIP3     2142     TIP3     OH2      OT      -0.834000       15.9994           0
     28807 TIP3     2142     TIP3     H1       HT       0.417000       1.00800           0
     28808 TIP3     2142     TIP3     H2       HT       0.417000       1.00800           0
     28809 TIP3     2143     TIP3     OH2      OT      -0.834000       15.9994           0
     28810 TIP3     2143     TIP3     H1       HT       0.417000       1.00800           0
     28811 TIP3     2143     TIP3     H2       HT       0.417000       1.00800           0
     28812 TIP3     2144     TIP3     OH2      OT      -0.834000       15.9994           0
     28813 TIP3     2144     TIP3     H1       HT       0.417000       1.00800           0
     28814 TIP3     2144     TIP3     H2       HT       0.417000       1.00800           0
     28815 TIP3     2145     TIP3     OH2      OT      -0.834000       15.9994           0
     28816 TIP3     2145     TIP3     H1       HT       0.417000       1.00800           0
     28817 TIP3     2145     TIP3     H2       HT       0.417000       1.00800           0
     28818 TIP3     2146     TIP3     OH2      OT      -0.834000       15.9994           0
     28819 TIP3     2146     TIP3     H1       HT       0.417000       1.00800           0
     28820 TIP3     2146     TIP3     H2       HT       0.417000       1.00800           0
     28821 TIP3     2147     TIP3     OH2      OT      -0.834000       15.9994           0
     28822 TIP3     2147     TIP3     H1       HT       0.417000       1.00800           0
     28823 TIP3     2147     TIP3     H2       HT       0.417000       1.00800           0
     28824 TIP3     2148     TIP3     OH2      OT      -0.834000       15.9994           0
     28825 TIP3     2148     TIP3     H1       HT       0.417000       1.00800           0
     28826 TIP3     2148     TIP3     H2       HT       0.417000       1.00800           0
     28827 TIP3     2149     TIP3     OH2      OT      -0.834000       15.9994           0
     28828 TIP3     2149     TIP3     H1       HT       0.417000       1.00800           0
     28829 TIP3     2149     TIP3     H2       HT       0.417000       1.00800           0
     28830 TIP3     2150     TIP3     OH2      OT      -0.834000       15.9994           0
     28831 TIP3     2150     TIP3     H1       HT       0.417000       1.00800           0
     28832 TIP3     2150     TIP3     H2       HT       0.417000       1.00800           0
     28833 TIP3     2151     TIP3     OH2      OT      -0.834000       15.9994           0
     28834 TIP3     2151     TIP3     H1       HT       0.417000       1.00800           0
     28835 TIP3     2151     TIP3     H2       HT       0.417000       1.00800           0
     28836 TIP3     2152     TIP3     OH2      OT      -0.834000       15.9994           0
     28837 TIP3     2152     TIP3     H1       HT       0.417000       1.00800           0
     28838 TIP3     2152     TIP3     H2       HT       0.417000       1.00800           0
     28839 TIP3     2153     TIP3     OH2      OT      -0.834000       15.9994           0
     28840 TIP3     2153     TIP3     H1       HT       0.417000       1.00800           0
     28841 TIP3     2153     TIP3     H2       HT       0.417000       1.00800           0
     28842 TIP3     2154     TIP3     OH2      OT      -0.834000       15.9994           0
     28843 TIP3     2154     TIP3     H1       HT       0.417000       1.00800           0
     28844 TIP3     2154     TIP3     H2       HT       0.417000       1.00800           0
     28845 TIP3     2155     TIP3     OH2      OT      -0.834000       15.9994           0
     28846 TIP3     2155     TIP3     H1       HT       0.417000       1.00800           0
     28847 TIP3     2155     TIP3     H2       HT       0.417000       1.00800           0
     28848 TIP3     2156     TIP3     OH2      OT      -0.834000       15.9994           0
     28849 TIP3     2156     TIP3     H1       HT       0.417000       1.00800           0
     28850 TIP3     2156     TIP3     H2       HT       0.417000       1.00800           0
     28851 TIP3     2157     TIP3     OH2      OT      -0.834000       15.9994           0
     28852 TIP3     2157     TIP3     H1       HT       0.417000       1.00800           0
     28853 TIP3     2157     TIP3     H2       HT       0.417000       1.00800           0
     28854 TIP3     2158     TIP3     OH2      OT      -0.834000       15.9994           0
     28855 TIP3     2158     TIP3     H1       HT       0.417000       1.00800           0
     28856 TIP3     2158     TIP3     H2       HT       0.417000       1.00800           0
     28857 TIP3     2159     TIP3     OH2      OT      -0.834000       15.9994           0
     28858 TIP3     2159     TIP3     H1       HT       0.417000       1.00800           0
     28859 TIP3     2159     TIP3     H2       HT       0.417000       1.00800           0
     28860 TIP3     2160     TIP3     OH2      OT      -0.834000       15.9994           0
     28861 TIP3     2160     TIP3     H1       HT       0.417000       1.00800           0
     28862 TIP3     2160     TIP3     H2       HT       0.417000       1.00800           0
     28863 TIP3     2161     TIP3     OH2      OT      -0.834000       15.9994           0
     28864 TIP3     2161     TIP3     H1       HT       0.417000       1.00800           0
     28865 TIP3     2161     TIP3     H2       HT       0.417000       1.00800           0
     28866 TIP3     2162     TIP3     OH2      OT      -0.834000       15.9994           0
     28867 TIP3     2162     TIP3     H1       HT       0.417000       1.00800           0
     28868 TIP3     2162     TIP3     H2       HT       0.417000       1.00800           0
     28869 TIP3     2163     TIP3     OH2      OT      -0.834000       15.9994           0
     28870 TIP3     2163     TIP3     H1       HT       0.417000       1.00800           0
     28871 TIP3     2163     TIP3     H2       HT       0.417000       1.00800           0
     28872 TIP3     2164     TIP3     OH2      OT      -0.834000       15.9994           0
     28873 TIP3     2164     TIP3     H1       HT       0.417000       1.00800           0
     28874 TIP3     2164     TIP3     H2       HT       0.417000       1.00800           0
     28875 TIP3     2165     TIP3     OH2      OT      -0.834000       15.9994           0
     28876 TIP3     2165     TIP3     H1       HT       0.417000       1.00800           0
     28877 TIP3     2165     TIP3     H2       HT       0.417000       1.00800           0
     28878 TIP3     2166     TIP3     OH2      OT      -0.834000       15.9994           0
     28879 TIP3     2166     TIP3     H1       HT       0.417000       1.00800           0
     28880 TIP3     2166     TIP3     H2       HT       0.417000       1.00800           0
     28881 TIP3     2167     TIP3     OH2      OT      -0.834000       15.9994           0
     28882 TIP3     2167     TIP3     H1       HT       0.417000       1.00800           0
     28883 TIP3     2167     TIP3     H2       HT       0.417000       1.00800           0
     28884 TIP3     2168     TIP3     OH2      OT      -0.834000       15.9994           0
     28885 TIP3     2168     TIP3     H1       HT       0.417000       1.00800           0
     28886 TIP3     2168     TIP3     H2       HT       0.417000       1.00800           0
     28887 TIP3     2169     TIP3     OH2      OT      -0.834000       15.9994           0
     28888 TIP3     2169     TIP3     H1       HT       0.417000       1.00800           0
     28889 TIP3     2169     TIP3     H2       HT       0.417000       1.00800           0
     28890 TIP3     2170     TIP3     OH2      OT      -0.834000       15.9994           0
     28891 TIP3     2170     TIP3     H1       HT       0.417000       1.00800           0
     28892 TIP3     2170     TIP3     H2       HT       0.417000       1.00800           0
     28893 TIP3     2171     TIP3     OH2      OT      -0.834000       15.9994           0
     28894 TIP3     2171     TIP3     H1       HT       0.417000       1.00800           0
     28895 TIP3     2171     TIP3     H2       HT       0.417000       1.00800           0
     28896 TIP3     2172     TIP3     OH2      OT      -0.834000       15.9994           0
     28897 TIP3     2172     TIP3     H1       HT       0.417000       1.00800           0
     28898 TIP3     2172     TIP3     H2       HT       0.417000       1.00800           0
     28899 TIP3     2173     TIP3     OH2      OT      -0.834000       15.9994           0
     28900 TIP3     2173     TIP3     H1       HT       0.417000       1.00800           0
     28901 TIP3     2173     TIP3     H2       HT       0.417000       1.00800           0
     28902 TIP3     2174     TIP3     OH2      OT      -0.834000       15.9994           0
     28903 TIP3     2174     TIP3     H1       HT       0.417000       1.00800           0
     28904 TIP3     2174     TIP3     H2       HT       0.417000       1.00800           0
     28905 TIP3     2175     TIP3     OH2      OT      -0.834000       15.9994           0
     28906 TIP3     2175     TIP3     H1       HT       0.417000       1.00800           0
     28907 TIP3     2175     TIP3     H2       HT       0.417000       1.00800           0
     28908 TIP3     2176     TIP3     OH2      OT      -0.834000       15.9994           0
     28909 TIP3     2176     TIP3     H1       HT       0.417000       1.00800           0
     28910 TIP3     2176     TIP3     H2       HT       0.417000       1.00800           0
     28911 TIP3     2177     TIP3     OH2      OT      -0.834000       15.9994           0
     28912 TIP3     2177     TIP3     H1       HT       0.417000       1.00800           0
     28913 TIP3     2177     TIP3     H2       HT       0.417000       1.00800           0
     28914 TIP3     2178     TIP3     OH2      OT      -0.834000       15.9994           0
     28915 TIP3     2178     TIP3     H1       HT       0.417000       1.00800           0
     28916 TIP3     2178     TIP3     H2       HT       0.417000       1.00800           0
     28917 TIP3     2179     TIP3     OH2      OT      -0.834000       15.9994           0
     28918 TIP3     2179     TIP3     H1       HT       0.417000       1.00800           0
     28919 TIP3     2179     TIP3     H2       HT       0.417000       1.00800           0
     28920 TIP3     2180     TIP3     OH2      OT      -0.834000       15.9994           0
     28921 TIP3     2180     TIP3     H1       HT       0.417000       1.00800           0
     28922 TIP3     2180     TIP3     H2       HT       0.417000       1.00800           0
     28923 TIP3     2181     TIP3     OH2      OT      -0.834000       15.9994           0
     28924 TIP3     2181     TIP3     H1       HT       0.417000       1.00800           0
     28925 TIP3     2181     TIP3     H2       HT       0.417000       1.00800           0
     28926 TIP3     2182     TIP3     OH2      OT      -0.834000       15.9994           0
     28927 TIP3     2182     TIP3     H1       HT       0.417000       1.00800           0
     28928 TIP3     2182     TIP3     H2       HT       0.417000       1.00800           0
     28929 TIP3     2183     TIP3     OH2      OT      -0.834000       15.9994           0
     28930 TIP3     2183     TIP3     H1       HT       0.417000       1.00800           0
     28931 TIP3     2183     TIP3     H2       HT       0.417000       1.00800           0
     28932 TIP3     2184     TIP3     OH2      OT      -0.834000       15.9994           0
     28933 TIP3     2184     TIP3     H1       HT       0.417000       1.00800           0
     28934 TIP3     2184     TIP3     H2       HT       0.417000       1.00800           0
     28935 TIP3     2185     TIP3     OH2      OT      -0.834000       15.9994           0
     28936 TIP3     2185     TIP3     H1       HT       0.417000       1.00800           0
     28937 TIP3     2185     TIP3     H2       HT       0.417000       1.00800           0
     28938 TIP3     2186     TIP3     OH2      OT      -0.834000       15.9994           0
     28939 TIP3     2186     TIP3     H1       HT       0.417000       1.00800           0
     28940 TIP3     2186     TIP3     H2       HT       0.417000       1.00800           0
     28941 TIP3     2187     TIP3     OH2      OT      -0.834000       15.9994           0
     28942 TIP3     2187     TIP3     H1       HT       0.417000       1.00800           0
     28943 TIP3     2187     TIP3     H2       HT       0.417000       1.00800           0
     28944 TIP3     2188     TIP3     OH2      OT      -0.834000       15.9994           0
     28945 TIP3     2188     TIP3     H1       HT       0.417000       1.00800           0
     28946 TIP3     2188     TIP3     H2       HT       0.417000       1.00800           0
     28947 TIP3     2189     TIP3     OH2      OT      -0.834000       15.9994           0
     28948 TIP3     2189     TIP3     H1       HT       0.417000       1.00800           0
     28949 TIP3     2189     TIP3     H2       HT       0.417000       1.00800           0
     28950 TIP3     2190     TIP3     OH2      OT      -0.834000       15.9994           0
     28951 TIP3     2190     TIP3     H1       HT       0.417000       1.00800           0
     28952 TIP3     2190     TIP3     H2       HT       0.417000       1.00800           0
     28953 TIP3     2191     TIP3     OH2      OT      -0.834000       15.9994           0
     28954 TIP3     2191     TIP3     H1       HT       0.417000       1.00800           0
     28955 TIP3     2191     TIP3     H2       HT       0.417000       1.00800           0
     28956 TIP3     2192     TIP3     OH2      OT      -0.834000       15.9994           0
     28957 TIP3     2192     TIP3     H1       HT       0.417000       1.00800           0
     28958 TIP3     2192     TIP3     H2       HT       0.417000       1.00800           0
     28959 TIP3     2193     TIP3     OH2      OT      -0.834000       15.9994           0
     28960 TIP3     2193     TIP3     H1       HT       0.417000       1.00800           0
     28961 TIP3     2193     TIP3     H2       HT       0.417000       1.00800           0
     28962 TIP3     2194     TIP3     OH2      OT      -0.834000       15.9994           0
     28963 TIP3     2194     TIP3     H1       HT       0.417000       1.00800           0
     28964 TIP3     2194     TIP3     H2       HT       0.417000       1.00800           0
     28965 TIP3     2195     TIP3     OH2      OT      -0.834000       15.9994           0
     28966 TIP3     2195     TIP3     H1       HT       0.417000       1.00800           0
     28967 TIP3     2195     TIP3     H2       HT       0.417000       1.00800           0
     28968 TIP3     2196     TIP3     OH2      OT      -0.834000       15.9994           0
     28969 TIP3     2196     TIP3     H1       HT       0.417000       1.00800           0
     28970 TIP3     2196     TIP3     H2       HT       0.417000       1.00800           0
     28971 TIP3     2197     TIP3     OH2      OT      -0.834000       15.9994           0
     28972 TIP3     2197     TIP3     H1       HT       0.417000       1.00800           0
     28973 TIP3     2197     TIP3     H2       HT       0.417000       1.00800           0
     28974 TIP3     2198     TIP3     OH2      OT      -0.834000       15.9994           0
     28975 TIP3     2198     TIP3     H1       HT       0.417000       1.00800           0
     28976 TIP3     2198     TIP3     H2       HT       0.417000       1.00800           0
     28977 TIP3     2199     TIP3     OH2      OT      -0.834000       15.9994           0
     28978 TIP3     2199     TIP3     H1       HT       0.417000       1.00800           0
     28979 TIP3     2199     TIP3     H2       HT       0.417000       1.00800           0
     28980 TIP3     2200     TIP3     OH2      OT      -0.834000       15.9994           0
     28981 TIP3     2200     TIP3     H1       HT       0.417000       1.00800           0
     28982 TIP3     2200     TIP3     H2       HT       0.417000       1.00800           0
     28983 TIP3     2201     TIP3     OH2      OT      -0.834000       15.9994           0
     28984 TIP3     2201     TIP3     H1       HT       0.417000       1.00800           0
     28985 TIP3     2201     TIP3     H2       HT       0.417000       1.00800           0
     28986 TIP3     2202     TIP3     OH2      OT      -0.834000       15.9994           0
     28987 TIP3     2202     TIP3     H1       HT       0.417000       1.00800           0
     28988 TIP3     2202     TIP3     H2       HT       0.417000       1.00800           0
     28989 TIP3     2203     TIP3     OH2      OT      -0.834000       15.9994           0
     28990 TIP3     2203     TIP3     H1       HT       0.417000       1.00800           0
     28991 TIP3     2203     TIP3     H2       HT       0.417000       1.00800           0
     28992 TIP3     2204     TIP3     OH2      OT      -0.834000       15.9994           0
     28993 TIP3     2204     TIP3     H1       HT       0.417000       1.00800           0
     28994 TIP3     2204     TIP3     H2       HT       0.417000       1.00800           0
     28995 TIP3     2205     TIP3     OH2      OT      -0.834000       15.9994           0
     28996 TIP3     2205     TIP3     H1       HT       0.417000       1.00800           0
     28997 TIP3     2205     TIP3     H2       HT       0.417000       1.00800           0
     28998 TIP3     2206     TIP3     OH2      OT      -0.834000       15.9994           0
     28999 TIP3     2206     TIP3     H1       HT       0.417000       1.00800           0
     29000 TIP3     2206     TIP3     H2       HT       0.417000       1.00800           0
     29001 TIP3     2207     TIP3     OH2      OT      -0.834000       15.9994           0
     29002 TIP3     2207     TIP3     H1       HT       0.417000       1.00800           0
     29003 TIP3     2207     TIP3     H2       HT       0.417000       1.00800           0
     29004 TIP3     2208     TIP3     OH2      OT      -0.834000       15.9994           0
     29005 TIP3     2208     TIP3     H1       HT       0.417000       1.00800           0
     29006 TIP3     2208     TIP3     H2       HT       0.417000       1.00800           0
     29007 TIP3     2209     TIP3     OH2      OT      -0.834000       15.9994           0
     29008 TIP3     2209     TIP3     H1       HT       0.417000       1.00800           0
     29009 TIP3     2209     TIP3     H2       HT       0.417000       1.00800           0
     29010 TIP3     2210     TIP3     OH2      OT      -0.834000       15.9994           0
     29011 TIP3     2210     TIP3     H1       HT       0.417000       1.00800           0
     29012 TIP3     2210     TIP3     H2       HT       0.417000       1.00800           0
     29013 TIP3     2211     TIP3     OH2      OT      -0.834000       15.9994           0
     29014 TIP3     2211     TIP3     H1       HT       0.417000       1.00800           0
     29015 TIP3     2211     TIP3     H2       HT       0.417000       1.00800           0
     29016 TIP3     2212     TIP3     OH2      OT      -0.834000       15.9994           0
     29017 TIP3     2212     TIP3     H1       HT       0.417000       1.00800           0
     29018 TIP3     2212     TIP3     H2       HT       0.417000       1.00800           0
     29019 TIP3     2213     TIP3     OH2      OT      -0.834000       15.9994           0
     29020 TIP3     2213     TIP3     H1       HT       0.417000       1.00800           0
     29021 TIP3     2213     TIP3     H2       HT       0.417000       1.00800           0
     29022 TIP3     2214     TIP3     OH2      OT      -0.834000       15.9994           0
     29023 TIP3     2214     TIP3     H1       HT       0.417000       1.00800           0
     29024 TIP3     2214     TIP3     H2       HT       0.417000       1.00800           0
     29025 TIP3     2215     TIP3     OH2      OT      -0.834000       15.9994           0
     29026 TIP3     2215     TIP3     H1       HT       0.417000       1.00800           0
     29027 TIP3     2215     TIP3     H2       HT       0.417000       1.00800           0
     29028 TIP3     2216     TIP3     OH2      OT      -0.834000       15.9994           0
     29029 TIP3     2216     TIP3     H1       HT       0.417000       1.00800           0
     29030 TIP3     2216     TIP3     H2       HT       0.417000       1.00800           0
     29031 TIP3     2217     TIP3     OH2      OT      -0.834000       15.9994           0
     29032 TIP3     2217     TIP3     H1       HT       0.417000       1.00800           0
     29033 TIP3     2217     TIP3     H2       HT       0.417000       1.00800           0
     29034 TIP3     2218     TIP3     OH2      OT      -0.834000       15.9994           0
     29035 TIP3     2218     TIP3     H1       HT       0.417000       1.00800           0
     29036 TIP3     2218     TIP3     H2       HT       0.417000       1.00800           0
     29037 TIP3     2219     TIP3     OH2      OT      -0.834000       15.9994           0
     29038 TIP3     2219     TIP3     H1       HT       0.417000       1.00800           0
     29039 TIP3     2219     TIP3     H2       HT       0.417000       1.00800           0
     29040 TIP3     2220     TIP3     OH2      OT      -0.834000       15.9994           0
     29041 TIP3     2220     TIP3     H1       HT       0.417000       1.00800           0
     29042 TIP3     2220     TIP3     H2       HT       0.417000       1.00800           0
     29043 TIP3     2221     TIP3     OH2      OT      -0.834000       15.9994           0
     29044 TIP3     2221     TIP3     H1       HT       0.417000       1.00800           0
     29045 TIP3     2221     TIP3     H2       HT       0.417000       1.00800           0
     29046 TIP3     2222     TIP3     OH2      OT      -0.834000       15.9994           0
     29047 TIP3     2222     TIP3     H1       HT       0.417000       1.00800           0
     29048 TIP3     2222     TIP3     H2       HT       0.417000       1.00800           0
     29049 TIP3     2223     TIP3     OH2      OT      -0.834000       15.9994           0
     29050 TIP3     2223     TIP3     H1       HT       0.417000       1.00800           0
     29051 TIP3     2223     TIP3     H2       HT       0.417000       1.00800           0
     29052 TIP3     2224     TIP3     OH2      OT      -0.834000       15.9994           0
     29053 TIP3     2224     TIP3     H1       HT       0.417000       1.00800           0
     29054 TIP3     2224     TIP3     H2       HT       0.417000       1.00800           0
     29055 TIP3     2225     TIP3     OH2      OT      -0.834000       15.9994           0
     29056 TIP3     2225     TIP3     H1       HT       0.417000       1.00800           0
     29057 TIP3     2225     TIP3     H2       HT       0.417000       1.00800           0
     29058 TIP3     2226     TIP3     OH2      OT      -0.834000       15.9994           0
     29059 TIP3     2226     TIP3     H1       HT       0.417000       1.00800           0
     29060 TIP3     2226     TIP3     H2       HT       0.417000       1.00800           0
     29061 TIP3     2227     TIP3     OH2      OT      -0.834000       15.9994           0
     29062 TIP3     2227     TIP3     H1       HT       0.417000       1.00800           0
     29063 TIP3     2227     TIP3     H2       HT       0.417000       1.00800           0
     29064 TIP3     2228     TIP3     OH2      OT      -0.834000       15.9994           0
     29065 TIP3     2228     TIP3     H1       HT       0.417000       1.00800           0
     29066 TIP3     2228     TIP3     H2       HT       0.417000       1.00800           0
     29067 TIP3     2229     TIP3     OH2      OT      -0.834000       15.9994           0
     29068 TIP3     2229     TIP3     H1       HT       0.417000       1.00800           0
     29069 TIP3     2229     TIP3     H2       HT       0.417000       1.00800           0
     29070 TIP3     2230     TIP3     OH2      OT      -0.834000       15.9994           0
     29071 TIP3     2230     TIP3     H1       HT       0.417000       1.00800           0
     29072 TIP3     2230     TIP3     H2       HT       0.417000       1.00800           0
     29073 TIP3     2231     TIP3     OH2      OT      -0.834000       15.9994           0
     29074 TIP3     2231     TIP3     H1       HT       0.417000       1.00800           0
     29075 TIP3     2231     TIP3     H2       HT       0.417000       1.00800           0
     29076 TIP3     2232     TIP3     OH2      OT      -0.834000       15.9994           0
     29077 TIP3     2232     TIP3     H1       HT       0.417000       1.00800           0
     29078 TIP3     2232     TIP3     H2       HT       0.417000       1.00800           0
     29079 TIP3     2233     TIP3     OH2      OT      -0.834000       15.9994           0
     29080 TIP3     2233     TIP3     H1       HT       0.417000       1.00800           0
     29081 TIP3     2233     TIP3     H2       HT       0.417000       1.00800           0
     29082 TIP3     2234     TIP3     OH2      OT      -0.834000       15.9994           0
     29083 TIP3     2234     TIP3     H1       HT       0.417000       1.00800           0
     29084 TIP3     2234     TIP3     H2       HT       0.417000       1.00800           0
     29085 TIP3     2235     TIP3     OH2      OT      -0.834000       15.9994           0
     29086 TIP3     2235     TIP3     H1       HT       0.417000       1.00800           0
     29087 TIP3     2235     TIP3     H2       HT       0.417000       1.00800           0
     29088 TIP3     2236     TIP3     OH2      OT      -0.834000       15.9994           0
     29089 TIP3     2236     TIP3     H1       HT       0.417000       1.00800           0
     29090 TIP3     2236     TIP3     H2       HT       0.417000       1.00800           0
     29091 TIP3     2237     TIP3     OH2      OT      -0.834000       15.9994           0
     29092 TIP3     2237     TIP3     H1       HT       0.417000       1.00800           0
     29093 TIP3     2237     TIP3     H2       HT       0.417000       1.00800           0
     29094 TIP3     2238     TIP3     OH2      OT      -0.834000       15.9994           0
     29095 TIP3     2238     TIP3     H1       HT       0.417000       1.00800           0
     29096 TIP3     2238     TIP3     H2       HT       0.417000       1.00800           0
     29097 TIP3     2239     TIP3     OH2      OT      -0.834000       15.9994           0
     29098 TIP3     2239     TIP3     H1       HT       0.417000       1.00800           0
     29099 TIP3     2239     TIP3     H2       HT       0.417000       1.00800           0
     29100 TIP3     2240     TIP3     OH2      OT      -0.834000       15.9994           0
     29101 TIP3     2240     TIP3     H1       HT       0.417000       1.00800           0
     29102 TIP3     2240     TIP3     H2       HT       0.417000       1.00800           0
     29103 TIP3     2241     TIP3     OH2      OT      -0.834000       15.9994           0
     29104 TIP3     2241     TIP3     H1       HT       0.417000       1.00800           0
     29105 TIP3     2241     TIP3     H2       HT       0.417000       1.00800           0
     29106 TIP3     2242     TIP3     OH2      OT      -0.834000       15.9994           0
     29107 TIP3     2242     TIP3     H1       HT       0.417000       1.00800           0
     29108 TIP3     2242     TIP3     H2       HT       0.417000       1.00800           0
     29109 TIP3     2243     TIP3     OH2      OT      -0.834000       15.9994           0
     29110 TIP3     2243     TIP3     H1       HT       0.417000       1.00800           0
     29111 TIP3     2243     TIP3     H2       HT       0.417000       1.00800           0
     29112 TIP3     2244     TIP3     OH2      OT      -0.834000       15.9994           0
     29113 TIP3     2244     TIP3     H1       HT       0.417000       1.00800           0
     29114 TIP3     2244     TIP3     H2       HT       0.417000       1.00800           0
     29115 TIP3     2245     TIP3     OH2      OT      -0.834000       15.9994           0
     29116 TIP3     2245     TIP3     H1       HT       0.417000       1.00800           0
     29117 TIP3     2245     TIP3     H2       HT       0.417000       1.00800           0
     29118 TIP3     2246     TIP3     OH2      OT      -0.834000       15.9994           0
     29119 TIP3     2246     TIP3     H1       HT       0.417000       1.00800           0
     29120 TIP3     2246     TIP3     H2       HT       0.417000       1.00800           0
     29121 TIP3     2247     TIP3     OH2      OT      -0.834000       15.9994           0
     29122 TIP3     2247     TIP3     H1       HT       0.417000       1.00800           0
     29123 TIP3     2247     TIP3     H2       HT       0.417000       1.00800           0
     29124 TIP3     2248     TIP3     OH2      OT      -0.834000       15.9994           0
     29125 TIP3     2248     TIP3     H1       HT       0.417000       1.00800           0
     29126 TIP3     2248     TIP3     H2       HT       0.417000       1.00800           0
     29127 TIP3     2249     TIP3     OH2      OT      -0.834000       15.9994           0
     29128 TIP3     2249     TIP3     H1       HT       0.417000       1.00800           0
     29129 TIP3     2249     TIP3     H2       HT       0.417000       1.00800           0
     29130 TIP3     2250     TIP3     OH2      OT      -0.834000       15.9994           0
     29131 TIP3     2250     TIP3     H1       HT       0.417000       1.00800           0
     29132 TIP3     2250     TIP3     H2       HT       0.417000       1.00800           0
     29133 TIP3     2251     TIP3     OH2      OT      -0.834000       15.9994           0
     29134 TIP3     2251     TIP3     H1       HT       0.417000       1.00800           0
     29135 TIP3     2251     TIP3     H2       HT       0.417000       1.00800           0
     29136 TIP3     2252     TIP3     OH2      OT      -0.834000       15.9994           0
     29137 TIP3     2252     TIP3     H1       HT       0.417000       1.00800           0
     29138 TIP3     2252     TIP3     H2       HT       0.417000       1.00800           0
     29139 TIP3     2253     TIP3     OH2      OT      -0.834000       15.9994           0
     29140 TIP3     2253     TIP3     H1       HT       0.417000       1.00800           0
     29141 TIP3     2253     TIP3     H2       HT       0.417000       1.00800           0
     29142 TIP3     2254     TIP3     OH2      OT      -0.834000       15.9994           0
     29143 TIP3     2254     TIP3     H1       HT       0.417000       1.00800           0
     29144 TIP3     2254     TIP3     H2       HT       0.417000       1.00800           0
     29145 TIP3     2255     TIP3     OH2      OT      -0.834000       15.9994           0
     29146 TIP3     2255     TIP3     H1       HT       0.417000       1.00800           0
     29147 TIP3     2255     TIP3     H2       HT       0.417000       1.00800           0
     29148 TIP3     2256     TIP3     OH2      OT      -0.834000       15.9994           0
     29149 TIP3     2256     TIP3     H1       HT       0.417000       1.00800           0
     29150 TIP3     2256     TIP3     H2       HT       0.417000       1.00800           0
     29151 TIP3     2257     TIP3     OH2      OT      -0.834000       15.9994           0
     29152 TIP3     2257     TIP3     H1       HT       0.417000       1.00800           0
     29153 TIP3     2257     TIP3     H2       HT       0.417000       1.00800           0
     29154 TIP3     2258     TIP3     OH2      OT      -0.834000       15.9994           0
     29155 TIP3     2258     TIP3     H1       HT       0.417000       1.00800           0
     29156 TIP3     2258     TIP3     H2       HT       0.417000       1.00800           0
     29157 TIP3     2259     TIP3     OH2      OT      -0.834000       15.9994           0
     29158 TIP3     2259     TIP3     H1       HT       0.417000       1.00800           0
     29159 TIP3     2259     TIP3     H2       HT       0.417000       1.00800           0
     29160 TIP3     2260     TIP3     OH2      OT      -0.834000       15.9994           0
     29161 TIP3     2260     TIP3     H1       HT       0.417000       1.00800           0
     29162 TIP3     2260     TIP3     H2       HT       0.417000       1.00800           0
     29163 TIP3     2261     TIP3     OH2      OT      -0.834000       15.9994           0
     29164 TIP3     2261     TIP3     H1       HT       0.417000       1.00800           0
     29165 TIP3     2261     TIP3     H2       HT       0.417000       1.00800           0
     29166 TIP3     2262     TIP3     OH2      OT      -0.834000       15.9994           0
     29167 TIP3     2262     TIP3     H1       HT       0.417000       1.00800           0
     29168 TIP3     2262     TIP3     H2       HT       0.417000       1.00800           0
     29169 TIP3     2263     TIP3     OH2      OT      -0.834000       15.9994           0
     29170 TIP3     2263     TIP3     H1       HT       0.417000       1.00800           0
     29171 TIP3     2263     TIP3     H2       HT       0.417000       1.00800           0
     29172 TIP3     2264     TIP3     OH2      OT      -0.834000       15.9994           0
     29173 TIP3     2264     TIP3     H1       HT       0.417000       1.00800           0
     29174 TIP3     2264     TIP3     H2       HT       0.417000       1.00800           0
     29175 TIP3     2265     TIP3     OH2      OT      -0.834000       15.9994           0
     29176 TIP3     2265     TIP3     H1       HT       0.417000       1.00800           0
     29177 TIP3     2265     TIP3     H2       HT       0.417000       1.00800           0
     29178 TIP3     2266     TIP3     OH2      OT      -0.834000       15.9994           0
     29179 TIP3     2266     TIP3     H1       HT       0.417000       1.00800           0
     29180 TIP3     2266     TIP3     H2       HT       0.417000       1.00800           0
     29181 TIP3     2267     TIP3     OH2      OT      -0.834000       15.9994           0
     29182 TIP3     2267     TIP3     H1       HT       0.417000       1.00800           0
     29183 TIP3     2267     TIP3     H2       HT       0.417000       1.00800           0
     29184 TIP3     2268     TIP3     OH2      OT      -0.834000       15.9994           0
     29185 TIP3     2268     TIP3     H1       HT       0.417000       1.00800           0
     29186 TIP3     2268     TIP3     H2       HT       0.417000       1.00800           0
     29187 TIP3     2269     TIP3     OH2      OT      -0.834000       15.9994           0
     29188 TIP3     2269     TIP3     H1       HT       0.417000       1.00800           0
     29189 TIP3     2269     TIP3     H2       HT       0.417000       1.00800           0
     29190 TIP3     2270     TIP3     OH2      OT      -0.834000       15.9994           0
     29191 TIP3     2270     TIP3     H1       HT       0.417000       1.00800           0
     29192 TIP3     2270     TIP3     H2       HT       0.417000       1.00800           0
     29193 TIP3     2271     TIP3     OH2      OT      -0.834000       15.9994           0
     29194 TIP3     2271     TIP3     H1       HT       0.417000       1.00800           0
     29195 TIP3     2271     TIP3     H2       HT       0.417000       1.00800           0
     29196 TIP3     2272     TIP3     OH2      OT      -0.834000       15.9994           0
     29197 TIP3     2272     TIP3     H1       HT       0.417000       1.00800           0
     29198 TIP3     2272     TIP3     H2       HT       0.417000       1.00800           0
     29199 TIP3     2273     TIP3     OH2      OT      -0.834000       15.9994           0
     29200 TIP3     2273     TIP3     H1       HT       0.417000       1.00800           0
     29201 TIP3     2273     TIP3     H2       HT       0.417000       1.00800           0
     29202 TIP3     2274     TIP3     OH2      OT      -0.834000       15.9994           0
     29203 TIP3     2274     TIP3     H1       HT       0.417000       1.00800           0
     29204 TIP3     2274     TIP3     H2       HT       0.417000       1.00800           0
     29205 TIP3     2275     TIP3     OH2      OT      -0.834000       15.9994           0
     29206 TIP3     2275     TIP3     H1       HT       0.417000       1.00800           0
     29207 TIP3     2275     TIP3     H2       HT       0.417000       1.00800           0
     29208 TIP3     2276     TIP3     OH2      OT      -0.834000       15.9994           0
     29209 TIP3     2276     TIP3     H1       HT       0.417000       1.00800           0
     29210 TIP3     2276     TIP3     H2       HT       0.417000       1.00800           0
     29211 TIP3     2277     TIP3     OH2      OT      -0.834000       15.9994           0
     29212 TIP3     2277     TIP3     H1       HT       0.417000       1.00800           0
     29213 TIP3     2277     TIP3     H2       HT       0.417000       1.00800           0
     29214 TIP3     2278     TIP3     OH2      OT      -0.834000       15.9994           0
     29215 TIP3     2278     TIP3     H1       HT       0.417000       1.00800           0
     29216 TIP3     2278     TIP3     H2       HT       0.417000       1.00800           0
     29217 TIP3     2279     TIP3     OH2      OT      -0.834000       15.9994           0
     29218 TIP3     2279     TIP3     H1       HT       0.417000       1.00800           0
     29219 TIP3     2279     TIP3     H2       HT       0.417000       1.00800           0
     29220 TIP3     2280     TIP3     OH2      OT      -0.834000       15.9994           0
     29221 TIP3     2280     TIP3     H1       HT       0.417000       1.00800           0
     29222 TIP3     2280     TIP3     H2       HT       0.417000       1.00800           0
     29223 TIP3     2281     TIP3     OH2      OT      -0.834000       15.9994           0
     29224 TIP3     2281     TIP3     H1       HT       0.417000       1.00800           0
     29225 TIP3     2281     TIP3     H2       HT       0.417000       1.00800           0
     29226 TIP3     2282     TIP3     OH2      OT      -0.834000       15.9994           0
     29227 TIP3     2282     TIP3     H1       HT       0.417000       1.00800           0
     29228 TIP3     2282     TIP3     H2       HT       0.417000       1.00800           0
     29229 TIP3     2283     TIP3     OH2      OT      -0.834000       15.9994           0
     29230 TIP3     2283     TIP3     H1       HT       0.417000       1.00800           0
     29231 TIP3     2283     TIP3     H2       HT       0.417000       1.00800           0
     29232 TIP3     2284     TIP3     OH2      OT      -0.834000       15.9994           0
     29233 TIP3     2284     TIP3     H1       HT       0.417000       1.00800           0
     29234 TIP3     2284     TIP3     H2       HT       0.417000       1.00800           0
     29235 TIP3     2285     TIP3     OH2      OT      -0.834000       15.9994           0
     29236 TIP3     2285     TIP3     H1       HT       0.417000       1.00800           0
     29237 TIP3     2285     TIP3     H2       HT       0.417000       1.00800           0
     29238 TIP3     2286     TIP3     OH2      OT      -0.834000       15.9994           0
     29239 TIP3     2286     TIP3     H1       HT       0.417000       1.00800           0
     29240 TIP3     2286     TIP3     H2       HT       0.417000       1.00800           0
     29241 TIP3     2287     TIP3     OH2      OT      -0.834000       15.9994           0
     29242 TIP3     2287     TIP3     H1       HT       0.417000       1.00800           0
     29243 TIP3     2287     TIP3     H2       HT       0.417000       1.00800           0
     29244 TIP3     2288     TIP3     OH2      OT      -0.834000       15.9994           0
     29245 TIP3     2288     TIP3     H1       HT       0.417000       1.00800           0
     29246 TIP3     2288     TIP3     H2       HT       0.417000       1.00800           0
     29247 TIP3     2289     TIP3     OH2      OT      -0.834000       15.9994           0
     29248 TIP3     2289     TIP3     H1       HT       0.417000       1.00800           0
     29249 TIP3     2289     TIP3     H2       HT       0.417000       1.00800           0
     29250 TIP3     2290     TIP3     OH2      OT      -0.834000       15.9994           0
     29251 TIP3     2290     TIP3     H1       HT       0.417000       1.00800           0
     29252 TIP3     2290     TIP3     H2       HT       0.417000       1.00800           0
     29253 TIP3     2291     TIP3     OH2      OT      -0.834000       15.9994           0
     29254 TIP3     2291     TIP3     H1       HT       0.417000       1.00800           0
     29255 TIP3     2291     TIP3     H2       HT       0.417000       1.00800           0
     29256 TIP3     2292     TIP3     OH2      OT      -0.834000       15.9994           0
     29257 TIP3     2292     TIP3     H1       HT       0.417000       1.00800           0
     29258 TIP3     2292     TIP3     H2       HT       0.417000       1.00800           0
     29259 TIP3     2293     TIP3     OH2      OT      -0.834000       15.9994           0
     29260 TIP3     2293     TIP3     H1       HT       0.417000       1.00800           0
     29261 TIP3     2293     TIP3     H2       HT       0.417000       1.00800           0
     29262 TIP3     2294     TIP3     OH2      OT      -0.834000       15.9994           0
     29263 TIP3     2294     TIP3     H1       HT       0.417000       1.00800           0
     29264 TIP3     2294     TIP3     H2       HT       0.417000       1.00800           0
     29265 TIP3     2295     TIP3     OH2      OT      -0.834000       15.9994           0
     29266 TIP3     2295     TIP3     H1       HT       0.417000       1.00800           0
     29267 TIP3     2295     TIP3     H2       HT       0.417000       1.00800           0
     29268 TIP3     2296     TIP3     OH2      OT      -0.834000       15.9994           0
     29269 TIP3     2296     TIP3     H1       HT       0.417000       1.00800           0
     29270 TIP3     2296     TIP3     H2       HT       0.417000       1.00800           0
     29271 TIP3     2297     TIP3     OH2      OT      -0.834000       15.9994           0
     29272 TIP3     2297     TIP3     H1       HT       0.417000       1.00800           0
     29273 TIP3     2297     TIP3     H2       HT       0.417000       1.00800           0
     29274 TIP3     2298     TIP3     OH2      OT      -0.834000       15.9994           0
     29275 TIP3     2298     TIP3     H1       HT       0.417000       1.00800           0
     29276 TIP3     2298     TIP3     H2       HT       0.417000       1.00800           0
     29277 TIP3     2299     TIP3     OH2      OT      -0.834000       15.9994           0
     29278 TIP3     2299     TIP3     H1       HT       0.417000       1.00800           0
     29279 TIP3     2299     TIP3     H2       HT       0.417000       1.00800           0
     29280 TIP3     2300     TIP3     OH2      OT      -0.834000       15.9994           0
     29281 TIP3     2300     TIP3     H1       HT       0.417000       1.00800           0
     29282 TIP3     2300     TIP3     H2       HT       0.417000       1.00800           0
     29283 TIP3     2301     TIP3     OH2      OT      -0.834000       15.9994           0
     29284 TIP3     2301     TIP3     H1       HT       0.417000       1.00800           0
     29285 TIP3     2301     TIP3     H2       HT       0.417000       1.00800           0
     29286 TIP3     2302     TIP3     OH2      OT      -0.834000       15.9994           0
     29287 TIP3     2302     TIP3     H1       HT       0.417000       1.00800           0
     29288 TIP3     2302     TIP3     H2       HT       0.417000       1.00800           0
     29289 TIP3     2303     TIP3     OH2      OT      -0.834000       15.9994           0
     29290 TIP3     2303     TIP3     H1       HT       0.417000       1.00800           0
     29291 TIP3     2303     TIP3     H2       HT       0.417000       1.00800           0
     29292 TIP3     2304     TIP3     OH2      OT      -0.834000       15.9994           0
     29293 TIP3     2304     TIP3     H1       HT       0.417000       1.00800           0
     29294 TIP3     2304     TIP3     H2       HT       0.417000       1.00800           0
     29295 TIP3     2305     TIP3     OH2      OT      -0.834000       15.9994           0
     29296 TIP3     2305     TIP3     H1       HT       0.417000       1.00800           0
     29297 TIP3     2305     TIP3     H2       HT       0.417000       1.00800           0
     29298 TIP3     2306     TIP3     OH2      OT      -0.834000       15.9994           0
     29299 TIP3     2306     TIP3     H1       HT       0.417000       1.00800           0
     29300 TIP3     2306     TIP3     H2       HT       0.417000       1.00800           0
     29301 TIP3     2307     TIP3     OH2      OT      -0.834000       15.9994           0
     29302 TIP3     2307     TIP3     H1       HT       0.417000       1.00800           0
     29303 TIP3     2307     TIP3     H2       HT       0.417000       1.00800           0
     29304 TIP3     2308     TIP3     OH2      OT      -0.834000       15.9994           0
     29305 TIP3     2308     TIP3     H1       HT       0.417000       1.00800           0
     29306 TIP3     2308     TIP3     H2       HT       0.417000       1.00800           0
     29307 TIP3     2309     TIP3     OH2      OT      -0.834000       15.9994           0
     29308 TIP3     2309     TIP3     H1       HT       0.417000       1.00800           0
     29309 TIP3     2309     TIP3     H2       HT       0.417000       1.00800           0
     29310 TIP3     2310     TIP3     OH2      OT      -0.834000       15.9994           0
     29311 TIP3     2310     TIP3     H1       HT       0.417000       1.00800           0
     29312 TIP3     2310     TIP3     H2       HT       0.417000       1.00800           0
     29313 TIP3     2311     TIP3     OH2      OT      -0.834000       15.9994           0
     29314 TIP3     2311     TIP3     H1       HT       0.417000       1.00800           0
     29315 TIP3     2311     TIP3     H2       HT       0.417000       1.00800           0
     29316 TIP3     2312     TIP3     OH2      OT      -0.834000       15.9994           0
     29317 TIP3     2312     TIP3     H1       HT       0.417000       1.00800           0
     29318 TIP3     2312     TIP3     H2       HT       0.417000       1.00800           0
     29319 TIP3     2313     TIP3     OH2      OT      -0.834000       15.9994           0
     29320 TIP3     2313     TIP3     H1       HT       0.417000       1.00800           0
     29321 TIP3     2313     TIP3     H2       HT       0.417000       1.00800           0
     29322 TIP3     2314     TIP3     OH2      OT      -0.834000       15.9994           0
     29323 TIP3     2314     TIP3     H1       HT       0.417000       1.00800           0
     29324 TIP3     2314     TIP3     H2       HT       0.417000       1.00800           0
     29325 TIP3     2315     TIP3     OH2      OT      -0.834000       15.9994           0
     29326 TIP3     2315     TIP3     H1       HT       0.417000       1.00800           0
     29327 TIP3     2315     TIP3     H2       HT       0.417000       1.00800           0
     29328 TIP3     2316     TIP3     OH2      OT      -0.834000       15.9994           0
     29329 TIP3     2316     TIP3     H1       HT       0.417000       1.00800           0
     29330 TIP3     2316     TIP3     H2       HT       0.417000       1.00800           0
     29331 TIP3     2317     TIP3     OH2      OT      -0.834000       15.9994           0
     29332 TIP3     2317     TIP3     H1       HT       0.417000       1.00800           0
     29333 TIP3     2317     TIP3     H2       HT       0.417000       1.00800           0
     29334 TIP3     2318     TIP3     OH2      OT      -0.834000       15.9994           0
     29335 TIP3     2318     TIP3     H1       HT       0.417000       1.00800           0
     29336 TIP3     2318     TIP3     H2       HT       0.417000       1.00800           0
     29337 TIP3     2319     TIP3     OH2      OT      -0.834000       15.9994           0
     29338 TIP3     2319     TIP3     H1       HT       0.417000       1.00800           0
     29339 TIP3     2319     TIP3     H2       HT       0.417000       1.00800           0
     29340 TIP3     2320     TIP3     OH2      OT      -0.834000       15.9994           0
     29341 TIP3     2320     TIP3     H1       HT       0.417000       1.00800           0
     29342 TIP3     2320     TIP3     H2       HT       0.417000       1.00800           0
     29343 TIP3     2321     TIP3     OH2      OT      -0.834000       15.9994           0
     29344 TIP3     2321     TIP3     H1       HT       0.417000       1.00800           0
     29345 TIP3     2321     TIP3     H2       HT       0.417000       1.00800           0
     29346 TIP3     2322     TIP3     OH2      OT      -0.834000       15.9994           0
     29347 TIP3     2322     TIP3     H1       HT       0.417000       1.00800           0
     29348 TIP3     2322     TIP3     H2       HT       0.417000       1.00800           0
     29349 TIP3     2323     TIP3     OH2      OT      -0.834000       15.9994           0
     29350 TIP3     2323     TIP3     H1       HT       0.417000       1.00800           0
     29351 TIP3     2323     TIP3     H2       HT       0.417000       1.00800           0
     29352 TIP3     2324     TIP3     OH2      OT      -0.834000       15.9994           0
     29353 TIP3     2324     TIP3     H1       HT       0.417000       1.00800           0
     29354 TIP3     2324     TIP3     H2       HT       0.417000       1.00800           0
     29355 TIP3     2325     TIP3     OH2      OT      -0.834000       15.9994           0
     29356 TIP3     2325     TIP3     H1       HT       0.417000       1.00800           0
     29357 TIP3     2325     TIP3     H2       HT       0.417000       1.00800           0
     29358 TIP3     2326     TIP3     OH2      OT      -0.834000       15.9994           0
     29359 TIP3     2326     TIP3     H1       HT       0.417000       1.00800           0
     29360 TIP3     2326     TIP3     H2       HT       0.417000       1.00800           0
     29361 TIP3     2327     TIP3     OH2      OT      -0.834000       15.9994           0
     29362 TIP3     2327     TIP3     H1       HT       0.417000       1.00800           0
     29363 TIP3     2327     TIP3     H2       HT       0.417000       1.00800           0
     29364 TIP3     2328     TIP3     OH2      OT      -0.834000       15.9994           0
     29365 TIP3     2328     TIP3     H1       HT       0.417000       1.00800           0
     29366 TIP3     2328     TIP3     H2       HT       0.417000       1.00800           0
     29367 TIP3     2329     TIP3     OH2      OT      -0.834000       15.9994           0
     29368 TIP3     2329     TIP3     H1       HT       0.417000       1.00800           0
     29369 TIP3     2329     TIP3     H2       HT       0.417000       1.00800           0
     29370 TIP3     2330     TIP3     OH2      OT      -0.834000       15.9994           0
     29371 TIP3     2330     TIP3     H1       HT       0.417000       1.00800           0
     29372 TIP3     2330     TIP3     H2       HT       0.417000       1.00800           0
     29373 TIP3     2331     TIP3     OH2      OT      -0.834000       15.9994           0
     29374 TIP3     2331     TIP3     H1       HT       0.417000       1.00800           0
     29375 TIP3     2331     TIP3     H2       HT       0.417000       1.00800           0
     29376 TIP3     2332     TIP3     OH2      OT      -0.834000       15.9994           0
     29377 TIP3     2332     TIP3     H1       HT       0.417000       1.00800           0
     29378 TIP3     2332     TIP3     H2       HT       0.417000       1.00800           0
     29379 TIP3     2333     TIP3     OH2      OT      -0.834000       15.9994           0
     29380 TIP3     2333     TIP3     H1       HT       0.417000       1.00800           0
     29381 TIP3     2333     TIP3     H2       HT       0.417000       1.00800           0
     29382 TIP3     2334     TIP3     OH2      OT      -0.834000       15.9994           0
     29383 TIP3     2334     TIP3     H1       HT       0.417000       1.00800           0
     29384 TIP3     2334     TIP3     H2       HT       0.417000       1.00800           0
     29385 TIP3     2335     TIP3     OH2      OT      -0.834000       15.9994           0
     29386 TIP3     2335     TIP3     H1       HT       0.417000       1.00800           0
     29387 TIP3     2335     TIP3     H2       HT       0.417000       1.00800           0
     29388 TIP3     2336     TIP3     OH2      OT      -0.834000       15.9994           0
     29389 TIP3     2336     TIP3     H1       HT       0.417000       1.00800           0
     29390 TIP3     2336     TIP3     H2       HT       0.417000       1.00800           0
     29391 TIP3     2337     TIP3     OH2      OT      -0.834000       15.9994           0
     29392 TIP3     2337     TIP3     H1       HT       0.417000       1.00800           0
     29393 TIP3     2337     TIP3     H2       HT       0.417000       1.00800           0
     29394 TIP3     2338     TIP3     OH2      OT      -0.834000       15.9994           0
     29395 TIP3     2338     TIP3     H1       HT       0.417000       1.00800           0
     29396 TIP3     2338     TIP3     H2       HT       0.417000       1.00800           0
     29397 TIP3     2339     TIP3     OH2      OT      -0.834000       15.9994           0
     29398 TIP3     2339     TIP3     H1       HT       0.417000       1.00800           0
     29399 TIP3     2339     TIP3     H2       HT       0.417000       1.00800           0
     29400 TIP3     2340     TIP3     OH2      OT      -0.834000       15.9994           0
     29401 TIP3     2340     TIP3     H1       HT       0.417000       1.00800           0
     29402 TIP3     2340     TIP3     H2       HT       0.417000       1.00800           0
     29403 TIP3     2341     TIP3     OH2      OT      -0.834000       15.9994           0
     29404 TIP3     2341     TIP3     H1       HT       0.417000       1.00800           0
     29405 TIP3     2341     TIP3     H2       HT       0.417000       1.00800           0
     29406 TIP3     2342     TIP3     OH2      OT      -0.834000       15.9994           0
     29407 TIP3     2342     TIP3     H1       HT       0.417000       1.00800           0
     29408 TIP3     2342     TIP3     H2       HT       0.417000       1.00800           0
     29409 TIP3     2343     TIP3     OH2      OT      -0.834000       15.9994           0
     29410 TIP3     2343     TIP3     H1       HT       0.417000       1.00800           0
     29411 TIP3     2343     TIP3     H2       HT       0.417000       1.00800           0
     29412 TIP3     2344     TIP3     OH2      OT      -0.834000       15.9994           0
     29413 TIP3     2344     TIP3     H1       HT       0.417000       1.00800           0
     29414 TIP3     2344     TIP3     H2       HT       0.417000       1.00800           0
     29415 TIP3     2345     TIP3     OH2      OT      -0.834000       15.9994           0
     29416 TIP3     2345     TIP3     H1       HT       0.417000       1.00800           0
     29417 TIP3     2345     TIP3     H2       HT       0.417000       1.00800           0
     29418 TIP3     2346     TIP3     OH2      OT      -0.834000       15.9994           0
     29419 TIP3     2346     TIP3     H1       HT       0.417000       1.00800           0
     29420 TIP3     2346     TIP3     H2       HT       0.417000       1.00800           0
     29421 TIP3     2347     TIP3     OH2      OT      -0.834000       15.9994           0
     29422 TIP3     2347     TIP3     H1       HT       0.417000       1.00800           0
     29423 TIP3     2347     TIP3     H2       HT       0.417000       1.00800           0
     29424 TIP3     2348     TIP3     OH2      OT      -0.834000       15.9994           0
     29425 TIP3     2348     TIP3     H1       HT       0.417000       1.00800           0
     29426 TIP3     2348     TIP3     H2       HT       0.417000       1.00800           0
     29427 TIP3     2349     TIP3     OH2      OT      -0.834000       15.9994           0
     29428 TIP3     2349     TIP3     H1       HT       0.417000       1.00800           0
     29429 TIP3     2349     TIP3     H2       HT       0.417000       1.00800           0
     29430 TIP3     2350     TIP3     OH2      OT      -0.834000       15.9994           0
     29431 TIP3     2350     TIP3     H1       HT       0.417000       1.00800           0
     29432 TIP3     2350     TIP3     H2       HT       0.417000       1.00800           0
     29433 TIP3     2351     TIP3     OH2      OT      -0.834000       15.9994           0
     29434 TIP3     2351     TIP3     H1       HT       0.417000       1.00800           0
     29435 TIP3     2351     TIP3     H2       HT       0.417000       1.00800           0
     29436 TIP3     2352     TIP3     OH2      OT      -0.834000       15.9994           0
     29437 TIP3     2352     TIP3     H1       HT       0.417000       1.00800           0
     29438 TIP3     2352     TIP3     H2       HT       0.417000       1.00800           0
     29439 TIP3     2353     TIP3     OH2      OT      -0.834000       15.9994           0
     29440 TIP3     2353     TIP3     H1       HT       0.417000       1.00800           0
     29441 TIP3     2353     TIP3     H2       HT       0.417000       1.00800           0
     29442 TIP3     2354     TIP3     OH2      OT      -0.834000       15.9994           0
     29443 TIP3     2354     TIP3     H1       HT       0.417000       1.00800           0
     29444 TIP3     2354     TIP3     H2       HT       0.417000       1.00800           0
     29445 TIP3     2355     TIP3     OH2      OT      -0.834000       15.9994           0
     29446 TIP3     2355     TIP3     H1       HT       0.417000       1.00800           0
     29447 TIP3     2355     TIP3     H2       HT       0.417000       1.00800           0
     29448 TIP3     2356     TIP3     OH2      OT      -0.834000       15.9994           0
     29449 TIP3     2356     TIP3     H1       HT       0.417000       1.00800           0
     29450 TIP3     2356     TIP3     H2       HT       0.417000       1.00800           0
     29451 TIP3     2357     TIP3     OH2      OT      -0.834000       15.9994           0
     29452 TIP3     2357     TIP3     H1       HT       0.417000       1.00800           0
     29453 TIP3     2357     TIP3     H2       HT       0.417000       1.00800           0
     29454 TIP3     2358     TIP3     OH2      OT      -0.834000       15.9994           0
     29455 TIP3     2358     TIP3     H1       HT       0.417000       1.00800           0
     29456 TIP3     2358     TIP3     H2       HT       0.417000       1.00800           0
     29457 TIP3     2359     TIP3     OH2      OT      -0.834000       15.9994           0
     29458 TIP3     2359     TIP3     H1       HT       0.417000       1.00800           0
     29459 TIP3     2359     TIP3     H2       HT       0.417000       1.00800           0
     29460 TIP3     2360     TIP3     OH2      OT      -0.834000       15.9994           0
     29461 TIP3     2360     TIP3     H1       HT       0.417000       1.00800           0
     29462 TIP3     2360     TIP3     H2       HT       0.417000       1.00800           0
     29463 TIP3     2361     TIP3     OH2      OT      -0.834000       15.9994           0
     29464 TIP3     2361     TIP3     H1       HT       0.417000       1.00800           0
     29465 TIP3     2361     TIP3     H2       HT       0.417000       1.00800           0
     29466 TIP3     2362     TIP3     OH2      OT      -0.834000       15.9994           0
     29467 TIP3     2362     TIP3     H1       HT       0.417000       1.00800           0
     29468 TIP3     2362     TIP3     H2       HT       0.417000       1.00800           0
     29469 TIP3     2363     TIP3     OH2      OT      -0.834000       15.9994           0
     29470 TIP3     2363     TIP3     H1       HT       0.417000       1.00800           0
     29471 TIP3     2363     TIP3     H2       HT       0.417000       1.00800           0
     29472 TIP3     2364     TIP3     OH2      OT      -0.834000       15.9994           0
     29473 TIP3     2364     TIP3     H1       HT       0.417000       1.00800           0
     29474 TIP3     2364     TIP3     H2       HT       0.417000       1.00800           0
     29475 TIP3     2365     TIP3     OH2      OT      -0.834000       15.9994           0
     29476 TIP3     2365     TIP3     H1       HT       0.417000       1.00800           0
     29477 TIP3     2365     TIP3     H2       HT       0.417000       1.00800           0
     29478 TIP3     2366     TIP3     OH2      OT      -0.834000       15.9994           0
     29479 TIP3     2366     TIP3     H1       HT       0.417000       1.00800           0
     29480 TIP3     2366     TIP3     H2       HT       0.417000       1.00800           0
     29481 TIP3     2367     TIP3     OH2      OT      -0.834000       15.9994           0
     29482 TIP3     2367     TIP3     H1       HT       0.417000       1.00800           0
     29483 TIP3     2367     TIP3     H2       HT       0.417000       1.00800           0
     29484 TIP3     2368     TIP3     OH2      OT      -0.834000       15.9994           0
     29485 TIP3     2368     TIP3     H1       HT       0.417000       1.00800           0
     29486 TIP3     2368     TIP3     H2       HT       0.417000       1.00800           0
     29487 TIP3     2369     TIP3     OH2      OT      -0.834000       15.9994           0
     29488 TIP3     2369     TIP3     H1       HT       0.417000       1.00800           0
     29489 TIP3     2369     TIP3     H2       HT       0.417000       1.00800           0
     29490 TIP3     2370     TIP3     OH2      OT      -0.834000       15.9994           0
     29491 TIP3     2370     TIP3     H1       HT       0.417000       1.00800           0
     29492 TIP3     2370     TIP3     H2       HT       0.417000       1.00800           0
     29493 TIP3     2371     TIP3     OH2      OT      -0.834000       15.9994           0
     29494 TIP3     2371     TIP3     H1       HT       0.417000       1.00800           0
     29495 TIP3     2371     TIP3     H2       HT       0.417000       1.00800           0
     29496 TIP3     2372     TIP3     OH2      OT      -0.834000       15.9994           0
     29497 TIP3     2372     TIP3     H1       HT       0.417000       1.00800           0
     29498 TIP3     2372     TIP3     H2       HT       0.417000       1.00800           0
     29499 TIP3     2373     TIP3     OH2      OT      -0.834000       15.9994           0
     29500 TIP3     2373     TIP3     H1       HT       0.417000       1.00800           0
     29501 TIP3     2373     TIP3     H2       HT       0.417000       1.00800           0
     29502 TIP3     2374     TIP3     OH2      OT      -0.834000       15.9994           0
     29503 TIP3     2374     TIP3     H1       HT       0.417000       1.00800           0
     29504 TIP3     2374     TIP3     H2       HT       0.417000       1.00800           0
     29505 TIP3     2375     TIP3     OH2      OT      -0.834000       15.9994           0
     29506 TIP3     2375     TIP3     H1       HT       0.417000       1.00800           0
     29507 TIP3     2375     TIP3     H2       HT       0.417000       1.00800           0
     29508 TIP3     2376     TIP3     OH2      OT      -0.834000       15.9994           0
     29509 TIP3     2376     TIP3     H1       HT       0.417000       1.00800           0
     29510 TIP3     2376     TIP3     H2       HT       0.417000       1.00800           0
     29511 TIP3     2377     TIP3     OH2      OT      -0.834000       15.9994           0
     29512 TIP3     2377     TIP3     H1       HT       0.417000       1.00800           0
     29513 TIP3     2377     TIP3     H2       HT       0.417000       1.00800           0
     29514 TIP3     2378     TIP3     OH2      OT      -0.834000       15.9994           0
     29515 TIP3     2378     TIP3     H1       HT       0.417000       1.00800           0
     29516 TIP3     2378     TIP3     H2       HT       0.417000       1.00800           0
     29517 TIP3     2379     TIP3     OH2      OT      -0.834000       15.9994           0
     29518 TIP3     2379     TIP3     H1       HT       0.417000       1.00800           0
     29519 TIP3     2379     TIP3     H2       HT       0.417000       1.00800           0
     29520 TIP3     2380     TIP3     OH2      OT      -0.834000       15.9994           0
     29521 TIP3     2380     TIP3     H1       HT       0.417000       1.00800           0
     29522 TIP3     2380     TIP3     H2       HT       0.417000       1.00800           0
     29523 TIP3     2381     TIP3     OH2      OT      -0.834000       15.9994           0
     29524 TIP3     2381     TIP3     H1       HT       0.417000       1.00800           0
     29525 TIP3     2381     TIP3     H2       HT       0.417000       1.00800           0
     29526 TIP3     2382     TIP3     OH2      OT      -0.834000       15.9994           0
     29527 TIP3     2382     TIP3     H1       HT       0.417000       1.00800           0
     29528 TIP3     2382     TIP3     H2       HT       0.417000       1.00800           0
     29529 TIP3     2383     TIP3     OH2      OT      -0.834000       15.9994           0
     29530 TIP3     2383     TIP3     H1       HT       0.417000       1.00800           0
     29531 TIP3     2383     TIP3     H2       HT       0.417000       1.00800           0
     29532 TIP3     2384     TIP3     OH2      OT      -0.834000       15.9994           0
     29533 TIP3     2384     TIP3     H1       HT       0.417000       1.00800           0
     29534 TIP3     2384     TIP3     H2       HT       0.417000       1.00800           0
     29535 TIP3     2385     TIP3     OH2      OT      -0.834000       15.9994           0
     29536 TIP3     2385     TIP3     H1       HT       0.417000       1.00800           0
     29537 TIP3     2385     TIP3     H2       HT       0.417000       1.00800           0
     29538 TIP3     2386     TIP3     OH2      OT      -0.834000       15.9994           0
     29539 TIP3     2386     TIP3     H1       HT       0.417000       1.00800           0
     29540 TIP3     2386     TIP3     H2       HT       0.417000       1.00800           0
     29541 TIP3     2387     TIP3     OH2      OT      -0.834000       15.9994           0
     29542 TIP3     2387     TIP3     H1       HT       0.417000       1.00800           0
     29543 TIP3     2387     TIP3     H2       HT       0.417000       1.00800           0
     29544 TIP3     2388     TIP3     OH2      OT      -0.834000       15.9994           0
     29545 TIP3     2388     TIP3     H1       HT       0.417000       1.00800           0
     29546 TIP3     2388     TIP3     H2       HT       0.417000       1.00800           0
     29547 TIP3     2389     TIP3     OH2      OT      -0.834000       15.9994           0
     29548 TIP3     2389     TIP3     H1       HT       0.417000       1.00800           0
     29549 TIP3     2389     TIP3     H2       HT       0.417000       1.00800           0
     29550 TIP3     2390     TIP3     OH2      OT      -0.834000       15.9994           0
     29551 TIP3     2390     TIP3     H1       HT       0.417000       1.00800           0
     29552 TIP3     2390     TIP3     H2       HT       0.417000       1.00800           0
     29553 TIP3     2391     TIP3     OH2      OT      -0.834000       15.9994           0
     29554 TIP3     2391     TIP3     H1       HT       0.417000       1.00800           0
     29555 TIP3     2391     TIP3     H2       HT       0.417000       1.00800           0
     29556 TIP3     2392     TIP3     OH2      OT      -0.834000       15.9994           0
     29557 TIP3     2392     TIP3     H1       HT       0.417000       1.00800           0
     29558 TIP3     2392     TIP3     H2       HT       0.417000       1.00800           0
     29559 TIP3     2393     TIP3     OH2      OT      -0.834000       15.9994           0
     29560 TIP3     2393     TIP3     H1       HT       0.417000       1.00800           0
     29561 TIP3     2393     TIP3     H2       HT       0.417000       1.00800           0
     29562 TIP3     2394     TIP3     OH2      OT      -0.834000       15.9994           0
     29563 TIP3     2394     TIP3     H1       HT       0.417000       1.00800           0
     29564 TIP3     2394     TIP3     H2       HT       0.417000       1.00800           0
     29565 TIP3     2395     TIP3     OH2      OT      -0.834000       15.9994           0
     29566 TIP3     2395     TIP3     H1       HT       0.417000       1.00800           0
     29567 TIP3     2395     TIP3     H2       HT       0.417000       1.00800           0
     29568 TIP3     2396     TIP3     OH2      OT      -0.834000       15.9994           0
     29569 TIP3     2396     TIP3     H1       HT       0.417000       1.00800           0
     29570 TIP3     2396     TIP3     H2       HT       0.417000       1.00800           0
     29571 TIP3     2397     TIP3     OH2      OT      -0.834000       15.9994           0
     29572 TIP3     2397     TIP3     H1       HT       0.417000       1.00800           0
     29573 TIP3     2397     TIP3     H2       HT       0.417000       1.00800           0
     29574 TIP3     2398     TIP3     OH2      OT      -0.834000       15.9994           0
     29575 TIP3     2398     TIP3     H1       HT       0.417000       1.00800           0
     29576 TIP3     2398     TIP3     H2       HT       0.417000       1.00800           0
     29577 TIP3     2399     TIP3     OH2      OT      -0.834000       15.9994           0
     29578 TIP3     2399     TIP3     H1       HT       0.417000       1.00800           0
     29579 TIP3     2399     TIP3     H2       HT       0.417000       1.00800           0
     29580 TIP3     2400     TIP3     OH2      OT      -0.834000       15.9994           0
     29581 TIP3     2400     TIP3     H1       HT       0.417000       1.00800           0
     29582 TIP3     2400     TIP3     H2       HT       0.417000       1.00800           0
     29583 TIP3     2401     TIP3     OH2      OT      -0.834000       15.9994           0
     29584 TIP3     2401     TIP3     H1       HT       0.417000       1.00800           0
     29585 TIP3     2401     TIP3     H2       HT       0.417000       1.00800           0
     29586 TIP3     2402     TIP3     OH2      OT      -0.834000       15.9994           0
     29587 TIP3     2402     TIP3     H1       HT       0.417000       1.00800           0
     29588 TIP3     2402     TIP3     H2       HT       0.417000       1.00800           0
     29589 TIP3     2403     TIP3     OH2      OT      -0.834000       15.9994           0
     29590 TIP3     2403     TIP3     H1       HT       0.417000       1.00800           0
     29591 TIP3     2403     TIP3     H2       HT       0.417000       1.00800           0
     29592 TIP3     2404     TIP3     OH2      OT      -0.834000       15.9994           0
     29593 TIP3     2404     TIP3     H1       HT       0.417000       1.00800           0
     29594 TIP3     2404     TIP3     H2       HT       0.417000       1.00800           0
     29595 TIP3     2405     TIP3     OH2      OT      -0.834000       15.9994           0
     29596 TIP3     2405     TIP3     H1       HT       0.417000       1.00800           0
     29597 TIP3     2405     TIP3     H2       HT       0.417000       1.00800           0
     29598 TIP3     2406     TIP3     OH2      OT      -0.834000       15.9994           0
     29599 TIP3     2406     TIP3     H1       HT       0.417000       1.00800           0
     29600 TIP3     2406     TIP3     H2       HT       0.417000       1.00800           0
     29601 TIP3     2407     TIP3     OH2      OT      -0.834000       15.9994           0
     29602 TIP3     2407     TIP3     H1       HT       0.417000       1.00800           0
     29603 TIP3     2407     TIP3     H2       HT       0.417000       1.00800           0
     29604 TIP3     2408     TIP3     OH2      OT      -0.834000       15.9994           0
     29605 TIP3     2408     TIP3     H1       HT       0.417000       1.00800           0
     29606 TIP3     2408     TIP3     H2       HT       0.417000       1.00800           0
     29607 TIP3     2409     TIP3     OH2      OT      -0.834000       15.9994           0
     29608 TIP3     2409     TIP3     H1       HT       0.417000       1.00800           0
     29609 TIP3     2409     TIP3     H2       HT       0.417000       1.00800           0
     29610 TIP3     2410     TIP3     OH2      OT      -0.834000       15.9994           0
     29611 TIP3     2410     TIP3     H1       HT       0.417000       1.00800           0
     29612 TIP3     2410     TIP3     H2       HT       0.417000       1.00800           0
     29613 TIP3     2411     TIP3     OH2      OT      -0.834000       15.9994           0
     29614 TIP3     2411     TIP3     H1       HT       0.417000       1.00800           0
     29615 TIP3     2411     TIP3     H2       HT       0.417000       1.00800           0
     29616 TIP3     2412     TIP3     OH2      OT      -0.834000       15.9994           0
     29617 TIP3     2412     TIP3     H1       HT       0.417000       1.00800           0
     29618 TIP3     2412     TIP3     H2       HT       0.417000       1.00800           0
     29619 TIP3     2413     TIP3     OH2      OT      -0.834000       15.9994           0
     29620 TIP3     2413     TIP3     H1       HT       0.417000       1.00800           0
     29621 TIP3     2413     TIP3     H2       HT       0.417000       1.00800           0
     29622 TIP3     2414     TIP3     OH2      OT      -0.834000       15.9994           0
     29623 TIP3     2414     TIP3     H1       HT       0.417000       1.00800           0
     29624 TIP3     2414     TIP3     H2       HT       0.417000       1.00800           0
     29625 TIP3     2415     TIP3     OH2      OT      -0.834000       15.9994           0
     29626 TIP3     2415     TIP3     H1       HT       0.417000       1.00800           0
     29627 TIP3     2415     TIP3     H2       HT       0.417000       1.00800           0
     29628 TIP3     2416     TIP3     OH2      OT      -0.834000       15.9994           0
     29629 TIP3     2416     TIP3     H1       HT       0.417000       1.00800           0
     29630 TIP3     2416     TIP3     H2       HT       0.417000       1.00800           0
     29631 TIP3     2417     TIP3     OH2      OT      -0.834000       15.9994           0
     29632 TIP3     2417     TIP3     H1       HT       0.417000       1.00800           0
     29633 TIP3     2417     TIP3     H2       HT       0.417000       1.00800           0
     29634 TIP3     2418     TIP3     OH2      OT      -0.834000       15.9994           0
     29635 TIP3     2418     TIP3     H1       HT       0.417000       1.00800           0
     29636 TIP3     2418     TIP3     H2       HT       0.417000       1.00800           0
     29637 TIP3     2419     TIP3     OH2      OT      -0.834000       15.9994           0
     29638 TIP3     2419     TIP3     H1       HT       0.417000       1.00800           0
     29639 TIP3     2419     TIP3     H2       HT       0.417000       1.00800           0
     29640 TIP3     2420     TIP3     OH2      OT      -0.834000       15.9994           0
     29641 TIP3     2420     TIP3     H1       HT       0.417000       1.00800           0
     29642 TIP3     2420     TIP3     H2       HT       0.417000       1.00800           0
     29643 TIP3     2421     TIP3     OH2      OT      -0.834000       15.9994           0
     29644 TIP3     2421     TIP3     H1       HT       0.417000       1.00800           0
     29645 TIP3     2421     TIP3     H2       HT       0.417000       1.00800           0
     29646 TIP3     2422     TIP3     OH2      OT      -0.834000       15.9994           0
     29647 TIP3     2422     TIP3     H1       HT       0.417000       1.00800           0
     29648 TIP3     2422     TIP3     H2       HT       0.417000       1.00800           0
     29649 TIP3     2423     TIP3     OH2      OT      -0.834000       15.9994           0
     29650 TIP3     2423     TIP3     H1       HT       0.417000       1.00800           0
     29651 TIP3     2423     TIP3     H2       HT       0.417000       1.00800           0
     29652 TIP3     2424     TIP3     OH2      OT      -0.834000       15.9994           0
     29653 TIP3     2424     TIP3     H1       HT       0.417000       1.00800           0
     29654 TIP3     2424     TIP3     H2       HT       0.417000       1.00800           0
     29655 TIP3     2425     TIP3     OH2      OT      -0.834000       15.9994           0
     29656 TIP3     2425     TIP3     H1       HT       0.417000       1.00800           0
     29657 TIP3     2425     TIP3     H2       HT       0.417000       1.00800           0
     29658 TIP3     2426     TIP3     OH2      OT      -0.834000       15.9994           0
     29659 TIP3     2426     TIP3     H1       HT       0.417000       1.00800           0
     29660 TIP3     2426     TIP3     H2       HT       0.417000       1.00800           0
     29661 TIP3     2427     TIP3     OH2      OT      -0.834000       15.9994           0
     29662 TIP3     2427     TIP3     H1       HT       0.417000       1.00800           0
     29663 TIP3     2427     TIP3     H2       HT       0.417000       1.00800           0
     29664 TIP3     2428     TIP3     OH2      OT      -0.834000       15.9994           0
     29665 TIP3     2428     TIP3     H1       HT       0.417000       1.00800           0
     29666 TIP3     2428     TIP3     H2       HT       0.417000       1.00800           0
     29667 TIP3     2429     TIP3     OH2      OT      -0.834000       15.9994           0
     29668 TIP3     2429     TIP3     H1       HT       0.417000       1.00800           0
     29669 TIP3     2429     TIP3     H2       HT       0.417000       1.00800           0
     29670 TIP3     2430     TIP3     OH2      OT      -0.834000       15.9994           0
     29671 TIP3     2430     TIP3     H1       HT       0.417000       1.00800           0
     29672 TIP3     2430     TIP3     H2       HT       0.417000       1.00800           0
     29673 TIP3     2431     TIP3     OH2      OT      -0.834000       15.9994           0
     29674 TIP3     2431     TIP3     H1       HT       0.417000       1.00800           0
     29675 TIP3     2431     TIP3     H2       HT       0.417000       1.00800           0
     29676 TIP3     2432     TIP3     OH2      OT      -0.834000       15.9994           0
     29677 TIP3     2432     TIP3     H1       HT       0.417000       1.00800           0
     29678 TIP3     2432     TIP3     H2       HT       0.417000       1.00800           0
     29679 TIP3     2433     TIP3     OH2      OT      -0.834000       15.9994           0
     29680 TIP3     2433     TIP3     H1       HT       0.417000       1.00800           0
     29681 TIP3     2433     TIP3     H2       HT       0.417000       1.00800           0
     29682 TIP3     2434     TIP3     OH2      OT      -0.834000       15.9994           0
     29683 TIP3     2434     TIP3     H1       HT       0.417000       1.00800           0
     29684 TIP3     2434     TIP3     H2       HT       0.417000       1.00800           0
     29685 TIP3     2435     TIP3     OH2      OT      -0.834000       15.9994           0
     29686 TIP3     2435     TIP3     H1       HT       0.417000       1.00800           0
     29687 TIP3     2435     TIP3     H2       HT       0.417000       1.00800           0
     29688 TIP3     2436     TIP3     OH2      OT      -0.834000       15.9994           0
     29689 TIP3     2436     TIP3     H1       HT       0.417000       1.00800           0
     29690 TIP3     2436     TIP3     H2       HT       0.417000       1.00800           0
     29691 TIP3     2437     TIP3     OH2      OT      -0.834000       15.9994           0
     29692 TIP3     2437     TIP3     H1       HT       0.417000       1.00800           0
     29693 TIP3     2437     TIP3     H2       HT       0.417000       1.00800           0
     29694 TIP3     2438     TIP3     OH2      OT      -0.834000       15.9994           0
     29695 TIP3     2438     TIP3     H1       HT       0.417000       1.00800           0
     29696 TIP3     2438     TIP3     H2       HT       0.417000       1.00800           0
     29697 TIP3     2439     TIP3     OH2      OT      -0.834000       15.9994           0
     29698 TIP3     2439     TIP3     H1       HT       0.417000       1.00800           0
     29699 TIP3     2439     TIP3     H2       HT       0.417000       1.00800           0
     29700 TIP3     2440     TIP3     OH2      OT      -0.834000       15.9994           0
     29701 TIP3     2440     TIP3     H1       HT       0.417000       1.00800           0
     29702 TIP3     2440     TIP3     H2       HT       0.417000       1.00800           0
     29703 TIP3     2441     TIP3     OH2      OT      -0.834000       15.9994           0
     29704 TIP3     2441     TIP3     H1       HT       0.417000       1.00800           0
     29705 TIP3     2441     TIP3     H2       HT       0.417000       1.00800           0
     29706 TIP3     2442     TIP3     OH2      OT      -0.834000       15.9994           0
     29707 TIP3     2442     TIP3     H1       HT       0.417000       1.00800           0
     29708 TIP3     2442     TIP3     H2       HT       0.417000       1.00800           0
     29709 TIP3     2443     TIP3     OH2      OT      -0.834000       15.9994           0
     29710 TIP3     2443     TIP3     H1       HT       0.417000       1.00800           0
     29711 TIP3     2443     TIP3     H2       HT       0.417000       1.00800           0
     29712 TIP3     2444     TIP3     OH2      OT      -0.834000       15.9994           0
     29713 TIP3     2444     TIP3     H1       HT       0.417000       1.00800           0
     29714 TIP3     2444     TIP3     H2       HT       0.417000       1.00800           0
     29715 TIP3     2445     TIP3     OH2      OT      -0.834000       15.9994           0
     29716 TIP3     2445     TIP3     H1       HT       0.417000       1.00800           0
     29717 TIP3     2445     TIP3     H2       HT       0.417000       1.00800           0
     29718 TIP3     2446     TIP3     OH2      OT      -0.834000       15.9994           0
     29719 TIP3     2446     TIP3     H1       HT       0.417000       1.00800           0
     29720 TIP3     2446     TIP3     H2       HT       0.417000       1.00800           0
     29721 TIP3     2447     TIP3     OH2      OT      -0.834000       15.9994           0
     29722 TIP3     2447     TIP3     H1       HT       0.417000       1.00800           0
     29723 TIP3     2447     TIP3     H2       HT       0.417000       1.00800           0
     29724 TIP3     2448     TIP3     OH2      OT      -0.834000       15.9994           0
     29725 TIP3     2448     TIP3     H1       HT       0.417000       1.00800           0
     29726 TIP3     2448     TIP3     H2       HT       0.417000       1.00800           0
     29727 TIP3     2449     TIP3     OH2      OT      -0.834000       15.9994           0
     29728 TIP3     2449     TIP3     H1       HT       0.417000       1.00800           0
     29729 TIP3     2449     TIP3     H2       HT       0.417000       1.00800           0
     29730 TIP3     2450     TIP3     OH2      OT      -0.834000       15.9994           0
     29731 TIP3     2450     TIP3     H1       HT       0.417000       1.00800           0
     29732 TIP3     2450     TIP3     H2       HT       0.417000       1.00800           0
     29733 TIP3     2451     TIP3     OH2      OT      -0.834000       15.9994           0
     29734 TIP3     2451     TIP3     H1       HT       0.417000       1.00800           0
     29735 TIP3     2451     TIP3     H2       HT       0.417000       1.00800           0
     29736 TIP3     2452     TIP3     OH2      OT      -0.834000       15.9994           0
     29737 TIP3     2452     TIP3     H1       HT       0.417000       1.00800           0
     29738 TIP3     2452     TIP3     H2       HT       0.417000       1.00800           0
     29739 TIP3     2453     TIP3     OH2      OT      -0.834000       15.9994           0
     29740 TIP3     2453     TIP3     H1       HT       0.417000       1.00800           0
     29741 TIP3     2453     TIP3     H2       HT       0.417000       1.00800           0
     29742 TIP3     2454     TIP3     OH2      OT      -0.834000       15.9994           0
     29743 TIP3     2454     TIP3     H1       HT       0.417000       1.00800           0
     29744 TIP3     2454     TIP3     H2       HT       0.417000       1.00800           0
     29745 TIP3     2455     TIP3     OH2      OT      -0.834000       15.9994           0
     29746 TIP3     2455     TIP3     H1       HT       0.417000       1.00800           0
     29747 TIP3     2455     TIP3     H2       HT       0.417000       1.00800           0
     29748 TIP3     2456     TIP3     OH2      OT      -0.834000       15.9994           0
     29749 TIP3     2456     TIP3     H1       HT       0.417000       1.00800           0
     29750 TIP3     2456     TIP3     H2       HT       0.417000       1.00800           0
     29751 TIP3     2457     TIP3     OH2      OT      -0.834000       15.9994           0
     29752 TIP3     2457     TIP3     H1       HT       0.417000       1.00800           0
     29753 TIP3     2457     TIP3     H2       HT       0.417000       1.00800           0
     29754 TIP3     2458     TIP3     OH2      OT      -0.834000       15.9994           0
     29755 TIP3     2458     TIP3     H1       HT       0.417000       1.00800           0
     29756 TIP3     2458     TIP3     H2       HT       0.417000       1.00800           0
     29757 TIP3     2459     TIP3     OH2      OT      -0.834000       15.9994           0
     29758 TIP3     2459     TIP3     H1       HT       0.417000       1.00800           0
     29759 TIP3     2459     TIP3     H2       HT       0.417000       1.00800           0
     29760 TIP3     2460     TIP3     OH2      OT      -0.834000       15.9994           0
     29761 TIP3     2460     TIP3     H1       HT       0.417000       1.00800           0
     29762 TIP3     2460     TIP3     H2       HT       0.417000       1.00800           0
     29763 TIP3     2461     TIP3     OH2      OT      -0.834000       15.9994           0
     29764 TIP3     2461     TIP3     H1       HT       0.417000       1.00800           0
     29765 TIP3     2461     TIP3     H2       HT       0.417000       1.00800           0
     29766 TIP3     2462     TIP3     OH2      OT      -0.834000       15.9994           0
     29767 TIP3     2462     TIP3     H1       HT       0.417000       1.00800           0
     29768 TIP3     2462     TIP3     H2       HT       0.417000       1.00800           0
     29769 TIP3     2463     TIP3     OH2      OT      -0.834000       15.9994           0
     29770 TIP3     2463     TIP3     H1       HT       0.417000       1.00800           0
     29771 TIP3     2463     TIP3     H2       HT       0.417000       1.00800           0
     29772 TIP3     2464     TIP3     OH2      OT      -0.834000       15.9994           0
     29773 TIP3     2464     TIP3     H1       HT       0.417000       1.00800           0
     29774 TIP3     2464     TIP3     H2       HT       0.417000       1.00800           0
     29775 TIP3     2465     TIP3     OH2      OT      -0.834000       15.9994           0
     29776 TIP3     2465     TIP3     H1       HT       0.417000       1.00800           0
     29777 TIP3     2465     TIP3     H2       HT       0.417000       1.00800           0
     29778 TIP3     2466     TIP3     OH2      OT      -0.834000       15.9994           0
     29779 TIP3     2466     TIP3     H1       HT       0.417000       1.00800           0
     29780 TIP3     2466     TIP3     H2       HT       0.417000       1.00800           0
     29781 TIP3     2467     TIP3     OH2      OT      -0.834000       15.9994           0
     29782 TIP3     2467     TIP3     H1       HT       0.417000       1.00800           0
     29783 TIP3     2467     TIP3     H2       HT       0.417000       1.00800           0
     29784 TIP3     2468     TIP3     OH2      OT      -0.834000       15.9994           0
     29785 TIP3     2468     TIP3     H1       HT       0.417000       1.00800           0
     29786 TIP3     2468     TIP3     H2       HT       0.417000       1.00800           0
     29787 TIP3     2469     TIP3     OH2      OT      -0.834000       15.9994           0
     29788 TIP3     2469     TIP3     H1       HT       0.417000       1.00800           0
     29789 TIP3     2469     TIP3     H2       HT       0.417000       1.00800           0
     29790 TIP3     2470     TIP3     OH2      OT      -0.834000       15.9994           0
     29791 TIP3     2470     TIP3     H1       HT       0.417000       1.00800           0
     29792 TIP3     2470     TIP3     H2       HT       0.417000       1.00800           0
     29793 TIP3     2471     TIP3     OH2      OT      -0.834000       15.9994           0
     29794 TIP3     2471     TIP3     H1       HT       0.417000       1.00800           0
     29795 TIP3     2471     TIP3     H2       HT       0.417000       1.00800           0
     29796 TIP3     2472     TIP3     OH2      OT      -0.834000       15.9994           0
     29797 TIP3     2472     TIP3     H1       HT       0.417000       1.00800           0
     29798 TIP3     2472     TIP3     H2       HT       0.417000       1.00800           0
     29799 TIP3     2473     TIP3     OH2      OT      -0.834000       15.9994           0
     29800 TIP3     2473     TIP3     H1       HT       0.417000       1.00800           0
     29801 TIP3     2473     TIP3     H2       HT       0.417000       1.00800           0
     29802 TIP3     2474     TIP3     OH2      OT      -0.834000       15.9994           0
     29803 TIP3     2474     TIP3     H1       HT       0.417000       1.00800           0
     29804 TIP3     2474     TIP3     H2       HT       0.417000       1.00800           0
     29805 TIP3     2475     TIP3     OH2      OT      -0.834000       15.9994           0
     29806 TIP3     2475     TIP3     H1       HT       0.417000       1.00800           0
     29807 TIP3     2475     TIP3     H2       HT       0.417000       1.00800           0
     29808 TIP3     2476     TIP3     OH2      OT      -0.834000       15.9994           0
     29809 TIP3     2476     TIP3     H1       HT       0.417000       1.00800           0
     29810 TIP3     2476     TIP3     H2       HT       0.417000       1.00800           0
     29811 TIP3     2477     TIP3     OH2      OT      -0.834000       15.9994           0
     29812 TIP3     2477     TIP3     H1       HT       0.417000       1.00800           0
     29813 TIP3     2477     TIP3     H2       HT       0.417000       1.00800           0
     29814 TIP3     2478     TIP3     OH2      OT      -0.834000       15.9994           0
     29815 TIP3     2478     TIP3     H1       HT       0.417000       1.00800           0
     29816 TIP3     2478     TIP3     H2       HT       0.417000       1.00800           0
     29817 TIP3     2479     TIP3     OH2      OT      -0.834000       15.9994           0
     29818 TIP3     2479     TIP3     H1       HT       0.417000       1.00800           0
     29819 TIP3     2479     TIP3     H2       HT       0.417000       1.00800           0
     29820 TIP3     2480     TIP3     OH2      OT      -0.834000       15.9994           0
     29821 TIP3     2480     TIP3     H1       HT       0.417000       1.00800           0
     29822 TIP3     2480     TIP3     H2       HT       0.417000       1.00800           0
     29823 TIP3     2481     TIP3     OH2      OT      -0.834000       15.9994           0
     29824 TIP3     2481     TIP3     H1       HT       0.417000       1.00800           0
     29825 TIP3     2481     TIP3     H2       HT       0.417000       1.00800           0
     29826 TIP3     2482     TIP3     OH2      OT      -0.834000       15.9994           0
     29827 TIP3     2482     TIP3     H1       HT       0.417000       1.00800           0
     29828 TIP3     2482     TIP3     H2       HT       0.417000       1.00800           0
     29829 TIP3     2483     TIP3     OH2      OT      -0.834000       15.9994           0
     29830 TIP3     2483     TIP3     H1       HT       0.417000       1.00800           0
     29831 TIP3     2483     TIP3     H2       HT       0.417000       1.00800           0
     29832 TIP3     2484     TIP3     OH2      OT      -0.834000       15.9994           0
     29833 TIP3     2484     TIP3     H1       HT       0.417000       1.00800           0
     29834 TIP3     2484     TIP3     H2       HT       0.417000       1.00800           0
     29835 TIP3     2485     TIP3     OH2      OT      -0.834000       15.9994           0
     29836 TIP3     2485     TIP3     H1       HT       0.417000       1.00800           0
     29837 TIP3     2485     TIP3     H2       HT       0.417000       1.00800           0
     29838 TIP3     2486     TIP3     OH2      OT      -0.834000       15.9994           0
     29839 TIP3     2486     TIP3     H1       HT       0.417000       1.00800           0
     29840 TIP3     2486     TIP3     H2       HT       0.417000       1.00800           0
     29841 TIP3     2487     TIP3     OH2      OT      -0.834000       15.9994           0
     29842 TIP3     2487     TIP3     H1       HT       0.417000       1.00800           0
     29843 TIP3     2487     TIP3     H2       HT       0.417000       1.00800           0
     29844 TIP3     2488     TIP3     OH2      OT      -0.834000       15.9994           0
     29845 TIP3     2488     TIP3     H1       HT       0.417000       1.00800           0
     29846 TIP3     2488     TIP3     H2       HT       0.417000       1.00800           0
     29847 TIP3     2489     TIP3     OH2      OT      -0.834000       15.9994           0
     29848 TIP3     2489     TIP3     H1       HT       0.417000       1.00800           0
     29849 TIP3     2489     TIP3     H2       HT       0.417000       1.00800           0
     29850 TIP3     2490     TIP3     OH2      OT      -0.834000       15.9994           0
     29851 TIP3     2490     TIP3     H1       HT       0.417000       1.00800           0
     29852 TIP3     2490     TIP3     H2       HT       0.417000       1.00800           0
     29853 TIP3     2491     TIP3     OH2      OT      -0.834000       15.9994           0
     29854 TIP3     2491     TIP3     H1       HT       0.417000       1.00800           0
     29855 TIP3     2491     TIP3     H2       HT       0.417000       1.00800           0
     29856 TIP3     2492     TIP3     OH2      OT      -0.834000       15.9994           0
     29857 TIP3     2492     TIP3     H1       HT       0.417000       1.00800           0
     29858 TIP3     2492     TIP3     H2       HT       0.417000       1.00800           0
     29859 TIP3     2493     TIP3     OH2      OT      -0.834000       15.9994           0
     29860 TIP3     2493     TIP3     H1       HT       0.417000       1.00800           0
     29861 TIP3     2493     TIP3     H2       HT       0.417000       1.00800           0
     29862 TIP3     2494     TIP3     OH2      OT      -0.834000       15.9994           0
     29863 TIP3     2494     TIP3     H1       HT       0.417000       1.00800           0
     29864 TIP3     2494     TIP3     H2       HT       0.417000       1.00800           0
     29865 TIP3     2495     TIP3     OH2      OT      -0.834000       15.9994           0
     29866 TIP3     2495     TIP3     H1       HT       0.417000       1.00800           0
     29867 TIP3     2495     TIP3     H2       HT       0.417000       1.00800           0
     29868 TIP3     2496     TIP3     OH2      OT      -0.834000       15.9994           0
     29869 TIP3     2496     TIP3     H1       HT       0.417000       1.00800           0
     29870 TIP3     2496     TIP3     H2       HT       0.417000       1.00800           0
     29871 TIP3     2497     TIP3     OH2      OT      -0.834000       15.9994           0
     29872 TIP3     2497     TIP3     H1       HT       0.417000       1.00800           0
     29873 TIP3     2497     TIP3     H2       HT       0.417000       1.00800           0
     29874 TIP3     2498     TIP3     OH2      OT      -0.834000       15.9994           0
     29875 TIP3     2498     TIP3     H1       HT       0.417000       1.00800           0
     29876 TIP3     2498     TIP3     H2       HT       0.417000       1.00800           0
     29877 TIP3     2499     TIP3     OH2      OT      -0.834000       15.9994           0
     29878 TIP3     2499     TIP3     H1       HT       0.417000       1.00800           0
     29879 TIP3     2499     TIP3     H2       HT       0.417000       1.00800           0
     29880 TIP3     2500     TIP3     OH2      OT      -0.834000       15.9994           0
     29881 TIP3     2500     TIP3     H1       HT       0.417000       1.00800           0
     29882 TIP3     2500     TIP3     H2       HT       0.417000       1.00800           0
     29883 TIP3     2501     TIP3     OH2      OT      -0.834000       15.9994           0
     29884 TIP3     2501     TIP3     H1       HT       0.417000       1.00800           0
     29885 TIP3     2501     TIP3     H2       HT       0.417000       1.00800           0
     29886 TIP3     2502     TIP3     OH2      OT      -0.834000       15.9994           0
     29887 TIP3     2502     TIP3     H1       HT       0.417000       1.00800           0
     29888 TIP3     2502     TIP3     H2       HT       0.417000       1.00800           0
     29889 TIP3     2503     TIP3     OH2      OT      -0.834000       15.9994           0
     29890 TIP3     2503     TIP3     H1       HT       0.417000       1.00800           0
     29891 TIP3     2503     TIP3     H2       HT       0.417000       1.00800           0
     29892 TIP3     2504     TIP3     OH2      OT      -0.834000       15.9994           0
     29893 TIP3     2504     TIP3     H1       HT       0.417000       1.00800           0
     29894 TIP3     2504     TIP3     H2       HT       0.417000       1.00800           0
     29895 TIP3     2505     TIP3     OH2      OT      -0.834000       15.9994           0
     29896 TIP3     2505     TIP3     H1       HT       0.417000       1.00800           0
     29897 TIP3     2505     TIP3     H2       HT       0.417000       1.00800           0
     29898 TIP3     2506     TIP3     OH2      OT      -0.834000       15.9994           0
     29899 TIP3     2506     TIP3     H1       HT       0.417000       1.00800           0
     29900 TIP3     2506     TIP3     H2       HT       0.417000       1.00800           0
     29901 TIP3     2507     TIP3     OH2      OT      -0.834000       15.9994           0
     29902 TIP3     2507     TIP3     H1       HT       0.417000       1.00800           0
     29903 TIP3     2507     TIP3     H2       HT       0.417000       1.00800           0
     29904 TIP3     2508     TIP3     OH2      OT      -0.834000       15.9994           0
     29905 TIP3     2508     TIP3     H1       HT       0.417000       1.00800           0
     29906 TIP3     2508     TIP3     H2       HT       0.417000       1.00800           0
     29907 TIP3     2509     TIP3     OH2      OT      -0.834000       15.9994           0
     29908 TIP3     2509     TIP3     H1       HT       0.417000       1.00800           0
     29909 TIP3     2509     TIP3     H2       HT       0.417000       1.00800           0
     29910 TIP3     2510     TIP3     OH2      OT      -0.834000       15.9994           0
     29911 TIP3     2510     TIP3     H1       HT       0.417000       1.00800           0
     29912 TIP3     2510     TIP3     H2       HT       0.417000       1.00800           0
     29913 TIP3     2511     TIP3     OH2      OT      -0.834000       15.9994           0
     29914 TIP3     2511     TIP3     H1       HT       0.417000       1.00800           0
     29915 TIP3     2511     TIP3     H2       HT       0.417000       1.00800           0
     29916 TIP3     2512     TIP3     OH2      OT      -0.834000       15.9994           0
     29917 TIP3     2512     TIP3     H1       HT       0.417000       1.00800           0
     29918 TIP3     2512     TIP3     H2       HT       0.417000       1.00800           0
     29919 TIP3     2513     TIP3     OH2      OT      -0.834000       15.9994           0
     29920 TIP3     2513     TIP3     H1       HT       0.417000       1.00800           0
     29921 TIP3     2513     TIP3     H2       HT       0.417000       1.00800           0
     29922 TIP3     2514     TIP3     OH2      OT      -0.834000       15.9994           0
     29923 TIP3     2514     TIP3     H1       HT       0.417000       1.00800           0
     29924 TIP3     2514     TIP3     H2       HT       0.417000       1.00800           0
     29925 TIP3     2515     TIP3     OH2      OT      -0.834000       15.9994           0
     29926 TIP3     2515     TIP3     H1       HT       0.417000       1.00800           0
     29927 TIP3     2515     TIP3     H2       HT       0.417000       1.00800           0
     29928 TIP3     2516     TIP3     OH2      OT      -0.834000       15.9994           0
     29929 TIP3     2516     TIP3     H1       HT       0.417000       1.00800           0
     29930 TIP3     2516     TIP3     H2       HT       0.417000       1.00800           0
     29931 TIP3     2517     TIP3     OH2      OT      -0.834000       15.9994           0
     29932 TIP3     2517     TIP3     H1       HT       0.417000       1.00800           0
     29933 TIP3     2517     TIP3     H2       HT       0.417000       1.00800           0
     29934 TIP3     2518     TIP3     OH2      OT      -0.834000       15.9994           0
     29935 TIP3     2518     TIP3     H1       HT       0.417000       1.00800           0
     29936 TIP3     2518     TIP3     H2       HT       0.417000       1.00800           0
     29937 TIP3     2519     TIP3     OH2      OT      -0.834000       15.9994           0
     29938 TIP3     2519     TIP3     H1       HT       0.417000       1.00800           0
     29939 TIP3     2519     TIP3     H2       HT       0.417000       1.00800           0
     29940 TIP3     2520     TIP3     OH2      OT      -0.834000       15.9994           0
     29941 TIP3     2520     TIP3     H1       HT       0.417000       1.00800           0
     29942 TIP3     2520     TIP3     H2       HT       0.417000       1.00800           0
     29943 TIP3     2521     TIP3     OH2      OT      -0.834000       15.9994           0
     29944 TIP3     2521     TIP3     H1       HT       0.417000       1.00800           0
     29945 TIP3     2521     TIP3     H2       HT       0.417000       1.00800           0
     29946 TIP3     2522     TIP3     OH2      OT      -0.834000       15.9994           0
     29947 TIP3     2522     TIP3     H1       HT       0.417000       1.00800           0
     29948 TIP3     2522     TIP3     H2       HT       0.417000       1.00800           0
     29949 TIP3     2523     TIP3     OH2      OT      -0.834000       15.9994           0
     29950 TIP3     2523     TIP3     H1       HT       0.417000       1.00800           0
     29951 TIP3     2523     TIP3     H2       HT       0.417000       1.00800           0
     29952 TIP3     2524     TIP3     OH2      OT      -0.834000       15.9994           0
     29953 TIP3     2524     TIP3     H1       HT       0.417000       1.00800           0
     29954 TIP3     2524     TIP3     H2       HT       0.417000       1.00800           0
     29955 TIP3     2525     TIP3     OH2      OT      -0.834000       15.9994           0
     29956 TIP3     2525     TIP3     H1       HT       0.417000       1.00800           0
     29957 TIP3     2525     TIP3     H2       HT       0.417000       1.00800           0
     29958 TIP3     2526     TIP3     OH2      OT      -0.834000       15.9994           0
     29959 TIP3     2526     TIP3     H1       HT       0.417000       1.00800           0
     29960 TIP3     2526     TIP3     H2       HT       0.417000       1.00800           0
     29961 TIP3     2527     TIP3     OH2      OT      -0.834000       15.9994           0
     29962 TIP3     2527     TIP3     H1       HT       0.417000       1.00800           0
     29963 TIP3     2527     TIP3     H2       HT       0.417000       1.00800           0
     29964 TIP3     2528     TIP3     OH2      OT      -0.834000       15.9994           0
     29965 TIP3     2528     TIP3     H1       HT       0.417000       1.00800           0
     29966 TIP3     2528     TIP3     H2       HT       0.417000       1.00800           0
     29967 TIP3     2529     TIP3     OH2      OT      -0.834000       15.9994           0
     29968 TIP3     2529     TIP3     H1       HT       0.417000       1.00800           0
     29969 TIP3     2529     TIP3     H2       HT       0.417000       1.00800           0
     29970 TIP3     2530     TIP3     OH2      OT      -0.834000       15.9994           0
     29971 TIP3     2530     TIP3     H1       HT       0.417000       1.00800           0
     29972 TIP3     2530     TIP3     H2       HT       0.417000       1.00800           0
     29973 TIP3     2531     TIP3     OH2      OT      -0.834000       15.9994           0
     29974 TIP3     2531     TIP3     H1       HT       0.417000       1.00800           0
     29975 TIP3     2531     TIP3     H2       HT       0.417000       1.00800           0
     29976 TIP3     2532     TIP3     OH2      OT      -0.834000       15.9994           0
     29977 TIP3     2532     TIP3     H1       HT       0.417000       1.00800           0
     29978 TIP3     2532     TIP3     H2       HT       0.417000       1.00800           0
     29979 TIP3     2533     TIP3     OH2      OT      -0.834000       15.9994           0
     29980 TIP3     2533     TIP3     H1       HT       0.417000       1.00800           0
     29981 TIP3     2533     TIP3     H2       HT       0.417000       1.00800           0
     29982 TIP3     2534     TIP3     OH2      OT      -0.834000       15.9994           0
     29983 TIP3     2534     TIP3     H1       HT       0.417000       1.00800           0
     29984 TIP3     2534     TIP3     H2       HT       0.417000       1.00800           0
     29985 TIP3     2535     TIP3     OH2      OT      -0.834000       15.9994           0
     29986 TIP3     2535     TIP3     H1       HT       0.417000       1.00800           0
     29987 TIP3     2535     TIP3     H2       HT       0.417000       1.00800           0
     29988 TIP3     2536     TIP3     OH2      OT      -0.834000       15.9994           0
     29989 TIP3     2536     TIP3     H1       HT       0.417000       1.00800           0
     29990 TIP3     2536     TIP3     H2       HT       0.417000       1.00800           0
     29991 TIP3     2537     TIP3     OH2      OT      -0.834000       15.9994           0
     29992 TIP3     2537     TIP3     H1       HT       0.417000       1.00800           0
     29993 TIP3     2537     TIP3     H2       HT       0.417000       1.00800           0
     29994 TIP3     2538     TIP3     OH2      OT      -0.834000       15.9994           0
     29995 TIP3     2538     TIP3     H1       HT       0.417000       1.00800           0
     29996 TIP3     2538     TIP3     H2       HT       0.417000       1.00800           0
     29997 TIP3     2539     TIP3     OH2      OT      -0.834000       15.9994           0
     29998 TIP3     2539     TIP3     H1       HT       0.417000       1.00800           0
     29999 TIP3     2539     TIP3     H2       HT       0.417000       1.00800           0
     30000 TIP3     2540     TIP3     OH2      OT      -0.834000       15.9994           0
     30001 TIP3     2540     TIP3     H1       HT       0.417000       1.00800           0
     30002 TIP3     2540     TIP3     H2       HT       0.417000       1.00800           0
     30003 TIP3     2541     TIP3     OH2      OT      -0.834000       15.9994           0
     30004 TIP3     2541     TIP3     H1       HT       0.417000       1.00800           0
     30005 TIP3     2541     TIP3     H2       HT       0.417000       1.00800           0
     30006 TIP3     2542     TIP3     OH2      OT      -0.834000       15.9994           0
     30007 TIP3     2542     TIP3     H1       HT       0.417000       1.00800           0
     30008 TIP3     2542     TIP3     H2       HT       0.417000       1.00800           0
     30009 TIP3     2543     TIP3     OH2      OT      -0.834000       15.9994           0
     30010 TIP3     2543     TIP3     H1       HT       0.417000       1.00800           0
     30011 TIP3     2543     TIP3     H2       HT       0.417000       1.00800           0
     30012 TIP3     2544     TIP3     OH2      OT      -0.834000       15.9994           0
     30013 TIP3     2544     TIP3     H1       HT       0.417000       1.00800           0
     30014 TIP3     2544     TIP3     H2       HT       0.417000       1.00800           0
     30015 TIP3     2545     TIP3     OH2      OT      -0.834000       15.9994           0
     30016 TIP3     2545     TIP3     H1       HT       0.417000       1.00800           0
     30017 TIP3     2545     TIP3     H2       HT       0.417000       1.00800           0
     30018 TIP3     2546     TIP3     OH2      OT      -0.834000       15.9994           0
     30019 TIP3     2546     TIP3     H1       HT       0.417000       1.00800           0
     30020 TIP3     2546     TIP3     H2       HT       0.417000       1.00800           0
     30021 TIP3     2547     TIP3     OH2      OT      -0.834000       15.9994           0
     30022 TIP3     2547     TIP3     H1       HT       0.417000       1.00800           0
     30023 TIP3     2547     TIP3     H2       HT       0.417000       1.00800           0
     30024 TIP3     2548     TIP3     OH2      OT      -0.834000       15.9994           0
     30025 TIP3     2548     TIP3     H1       HT       0.417000       1.00800           0
     30026 TIP3     2548     TIP3     H2       HT       0.417000       1.00800           0
     30027 TIP3     2549     TIP3     OH2      OT      -0.834000       15.9994           0
     30028 TIP3     2549     TIP3     H1       HT       0.417000       1.00800           0
     30029 TIP3     2549     TIP3     H2       HT       0.417000       1.00800           0
     30030 TIP3     2550     TIP3     OH2      OT      -0.834000       15.9994           0
     30031 TIP3     2550     TIP3     H1       HT       0.417000       1.00800           0
     30032 TIP3     2550     TIP3     H2       HT       0.417000       1.00800           0
     30033 TIP3     2551     TIP3     OH2      OT      -0.834000       15.9994           0
     30034 TIP3     2551     TIP3     H1       HT       0.417000       1.00800           0
     30035 TIP3     2551     TIP3     H2       HT       0.417000       1.00800           0
     30036 TIP3     2552     TIP3     OH2      OT      -0.834000       15.9994           0
     30037 TIP3     2552     TIP3     H1       HT       0.417000       1.00800           0
     30038 TIP3     2552     TIP3     H2       HT       0.417000       1.00800           0
     30039 TIP3     2553     TIP3     OH2      OT      -0.834000       15.9994           0
     30040 TIP3     2553     TIP3     H1       HT       0.417000       1.00800           0
     30041 TIP3     2553     TIP3     H2       HT       0.417000       1.00800           0
     30042 TIP3     2554     TIP3     OH2      OT      -0.834000       15.9994           0
     30043 TIP3     2554     TIP3     H1       HT       0.417000       1.00800           0
     30044 TIP3     2554     TIP3     H2       HT       0.417000       1.00800           0
     30045 TIP3     2555     TIP3     OH2      OT      -0.834000       15.9994           0
     30046 TIP3     2555     TIP3     H1       HT       0.417000       1.00800           0
     30047 TIP3     2555     TIP3     H2       HT       0.417000       1.00800           0
     30048 TIP3     2556     TIP3     OH2      OT      -0.834000       15.9994           0
     30049 TIP3     2556     TIP3     H1       HT       0.417000       1.00800           0
     30050 TIP3     2556     TIP3     H2       HT       0.417000       1.00800           0
     30051 TIP3     2557     TIP3     OH2      OT      -0.834000       15.9994           0
     30052 TIP3     2557     TIP3     H1       HT       0.417000       1.00800           0
     30053 TIP3     2557     TIP3     H2       HT       0.417000       1.00800           0
     30054 TIP3     2558     TIP3     OH2      OT      -0.834000       15.9994           0
     30055 TIP3     2558     TIP3     H1       HT       0.417000       1.00800           0
     30056 TIP3     2558     TIP3     H2       HT       0.417000       1.00800           0
     30057 TIP3     2559     TIP3     OH2      OT      -0.834000       15.9994           0
     30058 TIP3     2559     TIP3     H1       HT       0.417000       1.00800           0
     30059 TIP3     2559     TIP3     H2       HT       0.417000       1.00800           0
     30060 TIP3     2560     TIP3     OH2      OT      -0.834000       15.9994           0
     30061 TIP3     2560     TIP3     H1       HT       0.417000       1.00800           0
     30062 TIP3     2560     TIP3     H2       HT       0.417000       1.00800           0
     30063 TIP3     2561     TIP3     OH2      OT      -0.834000       15.9994           0
     30064 TIP3     2561     TIP3     H1       HT       0.417000       1.00800           0
     30065 TIP3     2561     TIP3     H2       HT       0.417000       1.00800           0
     30066 TIP3     2562     TIP3     OH2      OT      -0.834000       15.9994           0
     30067 TIP3     2562     TIP3     H1       HT       0.417000       1.00800           0
     30068 TIP3     2562     TIP3     H2       HT       0.417000       1.00800           0
     30069 TIP3     2563     TIP3     OH2      OT      -0.834000       15.9994           0
     30070 TIP3     2563     TIP3     H1       HT       0.417000       1.00800           0
     30071 TIP3     2563     TIP3     H2       HT       0.417000       1.00800           0
     30072 TIP3     2564     TIP3     OH2      OT      -0.834000       15.9994           0
     30073 TIP3     2564     TIP3     H1       HT       0.417000       1.00800           0
     30074 TIP3     2564     TIP3     H2       HT       0.417000       1.00800           0
     30075 TIP3     2565     TIP3     OH2      OT      -0.834000       15.9994           0
     30076 TIP3     2565     TIP3     H1       HT       0.417000       1.00800           0
     30077 TIP3     2565     TIP3     H2       HT       0.417000       1.00800           0
     30078 TIP3     2566     TIP3     OH2      OT      -0.834000       15.9994           0
     30079 TIP3     2566     TIP3     H1       HT       0.417000       1.00800           0
     30080 TIP3     2566     TIP3     H2       HT       0.417000       1.00800           0
     30081 TIP3     2567     TIP3     OH2      OT      -0.834000       15.9994           0
     30082 TIP3     2567     TIP3     H1       HT       0.417000       1.00800           0
     30083 TIP3     2567     TIP3     H2       HT       0.417000       1.00800           0
     30084 TIP3     2568     TIP3     OH2      OT      -0.834000       15.9994           0
     30085 TIP3     2568     TIP3     H1       HT       0.417000       1.00800           0
     30086 TIP3     2568     TIP3     H2       HT       0.417000       1.00800           0
     30087 TIP3     2569     TIP3     OH2      OT      -0.834000       15.9994           0
     30088 TIP3     2569     TIP3     H1       HT       0.417000       1.00800           0
     30089 TIP3     2569     TIP3     H2       HT       0.417000       1.00800           0
     30090 TIP3     2570     TIP3     OH2      OT      -0.834000       15.9994           0
     30091 TIP3     2570     TIP3     H1       HT       0.417000       1.00800           0
     30092 TIP3     2570     TIP3     H2       HT       0.417000       1.00800           0
     30093 TIP3     2571     TIP3     OH2      OT      -0.834000       15.9994           0
     30094 TIP3     2571     TIP3     H1       HT       0.417000       1.00800           0
     30095 TIP3     2571     TIP3     H2       HT       0.417000       1.00800           0
     30096 TIP3     2572     TIP3     OH2      OT      -0.834000       15.9994           0
     30097 TIP3     2572     TIP3     H1       HT       0.417000       1.00800           0
     30098 TIP3     2572     TIP3     H2       HT       0.417000       1.00800           0
     30099 TIP3     2573     TIP3     OH2      OT      -0.834000       15.9994           0
     30100 TIP3     2573     TIP3     H1       HT       0.417000       1.00800           0
     30101 TIP3     2573     TIP3     H2       HT       0.417000       1.00800           0
     30102 TIP3     2574     TIP3     OH2      OT      -0.834000       15.9994           0
     30103 TIP3     2574     TIP3     H1       HT       0.417000       1.00800           0
     30104 TIP3     2574     TIP3     H2       HT       0.417000       1.00800           0
     30105 TIP3     2575     TIP3     OH2      OT      -0.834000       15.9994           0
     30106 TIP3     2575     TIP3     H1       HT       0.417000       1.00800           0
     30107 TIP3     2575     TIP3     H2       HT       0.417000       1.00800           0
     30108 TIP3     2576     TIP3     OH2      OT      -0.834000       15.9994           0
     30109 TIP3     2576     TIP3     H1       HT       0.417000       1.00800           0
     30110 TIP3     2576     TIP3     H2       HT       0.417000       1.00800           0
     30111 TIP3     2577     TIP3     OH2      OT      -0.834000       15.9994           0
     30112 TIP3     2577     TIP3     H1       HT       0.417000       1.00800           0
     30113 TIP3     2577     TIP3     H2       HT       0.417000       1.00800           0
     30114 TIP3     2578     TIP3     OH2      OT      -0.834000       15.9994           0
     30115 TIP3     2578     TIP3     H1       HT       0.417000       1.00800           0
     30116 TIP3     2578     TIP3     H2       HT       0.417000       1.00800           0
     30117 TIP3     2579     TIP3     OH2      OT      -0.834000       15.9994           0
     30118 TIP3     2579     TIP3     H1       HT       0.417000       1.00800           0
     30119 TIP3     2579     TIP3     H2       HT       0.417000       1.00800           0
     30120 TIP3     2580     TIP3     OH2      OT      -0.834000       15.9994           0
     30121 TIP3     2580     TIP3     H1       HT       0.417000       1.00800           0
     30122 TIP3     2580     TIP3     H2       HT       0.417000       1.00800           0
     30123 TIP3     2581     TIP3     OH2      OT      -0.834000       15.9994           0
     30124 TIP3     2581     TIP3     H1       HT       0.417000       1.00800           0
     30125 TIP3     2581     TIP3     H2       HT       0.417000       1.00800           0
     30126 TIP3     2582     TIP3     OH2      OT      -0.834000       15.9994           0
     30127 TIP3     2582     TIP3     H1       HT       0.417000       1.00800           0
     30128 TIP3     2582     TIP3     H2       HT       0.417000       1.00800           0
     30129 TIP3     2583     TIP3     OH2      OT      -0.834000       15.9994           0
     30130 TIP3     2583     TIP3     H1       HT       0.417000       1.00800           0
     30131 TIP3     2583     TIP3     H2       HT       0.417000       1.00800           0
     30132 TIP3     2584     TIP3     OH2      OT      -0.834000       15.9994           0
     30133 TIP3     2584     TIP3     H1       HT       0.417000       1.00800           0
     30134 TIP3     2584     TIP3     H2       HT       0.417000       1.00800           0
     30135 TIP3     2585     TIP3     OH2      OT      -0.834000       15.9994           0
     30136 TIP3     2585     TIP3     H1       HT       0.417000       1.00800           0
     30137 TIP3     2585     TIP3     H2       HT       0.417000       1.00800           0
     30138 TIP3     2586     TIP3     OH2      OT      -0.834000       15.9994           0
     30139 TIP3     2586     TIP3     H1       HT       0.417000       1.00800           0
     30140 TIP3     2586     TIP3     H2       HT       0.417000       1.00800           0
     30141 TIP3     2587     TIP3     OH2      OT      -0.834000       15.9994           0
     30142 TIP3     2587     TIP3     H1       HT       0.417000       1.00800           0
     30143 TIP3     2587     TIP3     H2       HT       0.417000       1.00800           0
     30144 TIP3     2588     TIP3     OH2      OT      -0.834000       15.9994           0
     30145 TIP3     2588     TIP3     H1       HT       0.417000       1.00800           0
     30146 TIP3     2588     TIP3     H2       HT       0.417000       1.00800           0
     30147 TIP3     2589     TIP3     OH2      OT      -0.834000       15.9994           0
     30148 TIP3     2589     TIP3     H1       HT       0.417000       1.00800           0
     30149 TIP3     2589     TIP3     H2       HT       0.417000       1.00800           0
     30150 TIP3     2590     TIP3     OH2      OT      -0.834000       15.9994           0
     30151 TIP3     2590     TIP3     H1       HT       0.417000       1.00800           0
     30152 TIP3     2590     TIP3     H2       HT       0.417000       1.00800           0
     30153 TIP3     2591     TIP3     OH2      OT      -0.834000       15.9994           0
     30154 TIP3     2591     TIP3     H1       HT       0.417000       1.00800           0
     30155 TIP3     2591     TIP3     H2       HT       0.417000       1.00800           0
     30156 TIP3     2592     TIP3     OH2      OT      -0.834000       15.9994           0
     30157 TIP3     2592     TIP3     H1       HT       0.417000       1.00800           0
     30158 TIP3     2592     TIP3     H2       HT       0.417000       1.00800           0
     30159 TIP3     2593     TIP3     OH2      OT      -0.834000       15.9994           0
     30160 TIP3     2593     TIP3     H1       HT       0.417000       1.00800           0
     30161 TIP3     2593     TIP3     H2       HT       0.417000       1.00800           0
     30162 TIP3     2594     TIP3     OH2      OT      -0.834000       15.9994           0
     30163 TIP3     2594     TIP3     H1       HT       0.417000       1.00800           0
     30164 TIP3     2594     TIP3     H2       HT       0.417000       1.00800           0
     30165 TIP3     2595     TIP3     OH2      OT      -0.834000       15.9994           0
     30166 TIP3     2595     TIP3     H1       HT       0.417000       1.00800           0
     30167 TIP3     2595     TIP3     H2       HT       0.417000       1.00800           0
     30168 TIP3     2596     TIP3     OH2      OT      -0.834000       15.9994           0
     30169 TIP3     2596     TIP3     H1       HT       0.417000       1.00800           0
     30170 TIP3     2596     TIP3     H2       HT       0.417000       1.00800           0
     30171 TIP3     2597     TIP3     OH2      OT      -0.834000       15.9994           0
     30172 TIP3     2597     TIP3     H1       HT       0.417000       1.00800           0
     30173 TIP3     2597     TIP3     H2       HT       0.417000       1.00800           0
     30174 TIP3     2598     TIP3     OH2      OT      -0.834000       15.9994           0
     30175 TIP3     2598     TIP3     H1       HT       0.417000       1.00800           0
     30176 TIP3     2598     TIP3     H2       HT       0.417000       1.00800           0
     30177 TIP3     2599     TIP3     OH2      OT      -0.834000       15.9994           0
     30178 TIP3     2599     TIP3     H1       HT       0.417000       1.00800           0
     30179 TIP3     2599     TIP3     H2       HT       0.417000       1.00800           0
     30180 TIP3     2600     TIP3     OH2      OT      -0.834000       15.9994           0
     30181 TIP3     2600     TIP3     H1       HT       0.417000       1.00800           0
     30182 TIP3     2600     TIP3     H2       HT       0.417000       1.00800           0
     30183 TIP3     2601     TIP3     OH2      OT      -0.834000       15.9994           0
     30184 TIP3     2601     TIP3     H1       HT       0.417000       1.00800           0
     30185 TIP3     2601     TIP3     H2       HT       0.417000       1.00800           0
     30186 TIP3     2602     TIP3     OH2      OT      -0.834000       15.9994           0
     30187 TIP3     2602     TIP3     H1       HT       0.417000       1.00800           0
     30188 TIP3     2602     TIP3     H2       HT       0.417000       1.00800           0
     30189 TIP3     2603     TIP3     OH2      OT      -0.834000       15.9994           0
     30190 TIP3     2603     TIP3     H1       HT       0.417000       1.00800           0
     30191 TIP3     2603     TIP3     H2       HT       0.417000       1.00800           0
     30192 TIP3     2604     TIP3     OH2      OT      -0.834000       15.9994           0
     30193 TIP3     2604     TIP3     H1       HT       0.417000       1.00800           0
     30194 TIP3     2604     TIP3     H2       HT       0.417000       1.00800           0
     30195 TIP3     2605     TIP3     OH2      OT      -0.834000       15.9994           0
     30196 TIP3     2605     TIP3     H1       HT       0.417000       1.00800           0
     30197 TIP3     2605     TIP3     H2       HT       0.417000       1.00800           0
     30198 TIP3     2606     TIP3     OH2      OT      -0.834000       15.9994           0
     30199 TIP3     2606     TIP3     H1       HT       0.417000       1.00800           0
     30200 TIP3     2606     TIP3     H2       HT       0.417000       1.00800           0
     30201 TIP3     2607     TIP3     OH2      OT      -0.834000       15.9994           0
     30202 TIP3     2607     TIP3     H1       HT       0.417000       1.00800           0
     30203 TIP3     2607     TIP3     H2       HT       0.417000       1.00800           0
     30204 TIP3     2608     TIP3     OH2      OT      -0.834000       15.9994           0
     30205 TIP3     2608     TIP3     H1       HT       0.417000       1.00800           0
     30206 TIP3     2608     TIP3     H2       HT       0.417000       1.00800           0
     30207 TIP3     2609     TIP3     OH2      OT      -0.834000       15.9994           0
     30208 TIP3     2609     TIP3     H1       HT       0.417000       1.00800           0
     30209 TIP3     2609     TIP3     H2       HT       0.417000       1.00800           0
     30210 TIP3     2610     TIP3     OH2      OT      -0.834000       15.9994           0
     30211 TIP3     2610     TIP3     H1       HT       0.417000       1.00800           0
     30212 TIP3     2610     TIP3     H2       HT       0.417000       1.00800           0
     30213 TIP3     2611     TIP3     OH2      OT      -0.834000       15.9994           0
     30214 TIP3     2611     TIP3     H1       HT       0.417000       1.00800           0
     30215 TIP3     2611     TIP3     H2       HT       0.417000       1.00800           0
     30216 TIP3     2612     TIP3     OH2      OT      -0.834000       15.9994           0
     30217 TIP3     2612     TIP3     H1       HT       0.417000       1.00800           0
     30218 TIP3     2612     TIP3     H2       HT       0.417000       1.00800           0
     30219 TIP3     2613     TIP3     OH2      OT      -0.834000       15.9994           0
     30220 TIP3     2613     TIP3     H1       HT       0.417000       1.00800           0
     30221 TIP3     2613     TIP3     H2       HT       0.417000       1.00800           0
     30222 TIP3     2614     TIP3     OH2      OT      -0.834000       15.9994           0
     30223 TIP3     2614     TIP3     H1       HT       0.417000       1.00800           0
     30224 TIP3     2614     TIP3     H2       HT       0.417000       1.00800           0
     30225 TIP3     2615     TIP3     OH2      OT      -0.834000       15.9994           0
     30226 TIP3     2615     TIP3     H1       HT       0.417000       1.00800           0
     30227 TIP3     2615     TIP3     H2       HT       0.417000       1.00800           0
     30228 TIP3     2616     TIP3     OH2      OT      -0.834000       15.9994           0
     30229 TIP3     2616     TIP3     H1       HT       0.417000       1.00800           0
     30230 TIP3     2616     TIP3     H2       HT       0.417000       1.00800           0
     30231 TIP3     2617     TIP3     OH2      OT      -0.834000       15.9994           0
     30232 TIP3     2617     TIP3     H1       HT       0.417000       1.00800           0
     30233 TIP3     2617     TIP3     H2       HT       0.417000       1.00800           0
     30234 TIP3     2618     TIP3     OH2      OT      -0.834000       15.9994           0
     30235 TIP3     2618     TIP3     H1       HT       0.417000       1.00800           0
     30236 TIP3     2618     TIP3     H2       HT       0.417000       1.00800           0
     30237 TIP3     2619     TIP3     OH2      OT      -0.834000       15.9994           0
     30238 TIP3     2619     TIP3     H1       HT       0.417000       1.00800           0
     30239 TIP3     2619     TIP3     H2       HT       0.417000       1.00800           0
     30240 TIP3     2620     TIP3     OH2      OT      -0.834000       15.9994           0
     30241 TIP3     2620     TIP3     H1       HT       0.417000       1.00800           0
     30242 TIP3     2620     TIP3     H2       HT       0.417000       1.00800           0
     30243 TIP3     2621     TIP3     OH2      OT      -0.834000       15.9994           0
     30244 TIP3     2621     TIP3     H1       HT       0.417000       1.00800           0
     30245 TIP3     2621     TIP3     H2       HT       0.417000       1.00800           0
     30246 TIP3     2622     TIP3     OH2      OT      -0.834000       15.9994           0
     30247 TIP3     2622     TIP3     H1       HT       0.417000       1.00800           0
     30248 TIP3     2622     TIP3     H2       HT       0.417000       1.00800           0
     30249 TIP3     2623     TIP3     OH2      OT      -0.834000       15.9994           0
     30250 TIP3     2623     TIP3     H1       HT       0.417000       1.00800           0
     30251 TIP3     2623     TIP3     H2       HT       0.417000       1.00800           0
     30252 TIP3     2624     TIP3     OH2      OT      -0.834000       15.9994           0
     30253 TIP3     2624     TIP3     H1       HT       0.417000       1.00800           0
     30254 TIP3     2624     TIP3     H2       HT       0.417000       1.00800           0
     30255 TIP3     2625     TIP3     OH2      OT      -0.834000       15.9994           0
     30256 TIP3     2625     TIP3     H1       HT       0.417000       1.00800           0
     30257 TIP3     2625     TIP3     H2       HT       0.417000       1.00800           0
     30258 TIP3     2626     TIP3     OH2      OT      -0.834000       15.9994           0
     30259 TIP3     2626     TIP3     H1       HT       0.417000       1.00800           0
     30260 TIP3     2626     TIP3     H2       HT       0.417000       1.00800           0
     30261 TIP3     2627     TIP3     OH2      OT      -0.834000       15.9994           0
     30262 TIP3     2627     TIP3     H1       HT       0.417000       1.00800           0
     30263 TIP3     2627     TIP3     H2       HT       0.417000       1.00800           0
     30264 TIP3     2628     TIP3     OH2      OT      -0.834000       15.9994           0
     30265 TIP3     2628     TIP3     H1       HT       0.417000       1.00800           0
     30266 TIP3     2628     TIP3     H2       HT       0.417000       1.00800           0
     30267 TIP3     2629     TIP3     OH2      OT      -0.834000       15.9994           0
     30268 TIP3     2629     TIP3     H1       HT       0.417000       1.00800           0
     30269 TIP3     2629     TIP3     H2       HT       0.417000       1.00800           0
     30270 TIP3     2630     TIP3     OH2      OT      -0.834000       15.9994           0
     30271 TIP3     2630     TIP3     H1       HT       0.417000       1.00800           0
     30272 TIP3     2630     TIP3     H2       HT       0.417000       1.00800           0
     30273 TIP3     2631     TIP3     OH2      OT      -0.834000       15.9994           0
     30274 TIP3     2631     TIP3     H1       HT       0.417000       1.00800           0
     30275 TIP3     2631     TIP3     H2       HT       0.417000       1.00800           0
     30276 TIP3     2632     TIP3     OH2      OT      -0.834000       15.9994           0
     30277 TIP3     2632     TIP3     H1       HT       0.417000       1.00800           0
     30278 TIP3     2632     TIP3     H2       HT       0.417000       1.00800           0
     30279 TIP3     2633     TIP3     OH2      OT      -0.834000       15.9994           0
     30280 TIP3     2633     TIP3     H1       HT       0.417000       1.00800           0
     30281 TIP3     2633     TIP3     H2       HT       0.417000       1.00800           0
     30282 TIP3     2634     TIP3     OH2      OT      -0.834000       15.9994           0
     30283 TIP3     2634     TIP3     H1       HT       0.417000       1.00800           0
     30284 TIP3     2634     TIP3     H2       HT       0.417000       1.00800           0
     30285 TIP3     2635     TIP3     OH2      OT      -0.834000       15.9994           0
     30286 TIP3     2635     TIP3     H1       HT       0.417000       1.00800           0
     30287 TIP3     2635     TIP3     H2       HT       0.417000       1.00800           0
     30288 TIP3     2636     TIP3     OH2      OT      -0.834000       15.9994           0
     30289 TIP3     2636     TIP3     H1       HT       0.417000       1.00800           0
     30290 TIP3     2636     TIP3     H2       HT       0.417000       1.00800           0
     30291 TIP3     2637     TIP3     OH2      OT      -0.834000       15.9994           0
     30292 TIP3     2637     TIP3     H1       HT       0.417000       1.00800           0
     30293 TIP3     2637     TIP3     H2       HT       0.417000       1.00800           0
     30294 TIP3     2638     TIP3     OH2      OT      -0.834000       15.9994           0
     30295 TIP3     2638     TIP3     H1       HT       0.417000       1.00800           0
     30296 TIP3     2638     TIP3     H2       HT       0.417000       1.00800           0
     30297 TIP3     2639     TIP3     OH2      OT      -0.834000       15.9994           0
     30298 TIP3     2639     TIP3     H1       HT       0.417000       1.00800           0
     30299 TIP3     2639     TIP3     H2       HT       0.417000       1.00800           0
     30300 TIP3     2640     TIP3     OH2      OT      -0.834000       15.9994           0
     30301 TIP3     2640     TIP3     H1       HT       0.417000       1.00800           0
     30302 TIP3     2640     TIP3     H2       HT       0.417000       1.00800           0
     30303 TIP3     2641     TIP3     OH2      OT      -0.834000       15.9994           0
     30304 TIP3     2641     TIP3     H1       HT       0.417000       1.00800           0
     30305 TIP3     2641     TIP3     H2       HT       0.417000       1.00800           0
     30306 TIP3     2642     TIP3     OH2      OT      -0.834000       15.9994           0
     30307 TIP3     2642     TIP3     H1       HT       0.417000       1.00800           0
     30308 TIP3     2642     TIP3     H2       HT       0.417000       1.00800           0
     30309 TIP3     2643     TIP3     OH2      OT      -0.834000       15.9994           0
     30310 TIP3     2643     TIP3     H1       HT       0.417000       1.00800           0
     30311 TIP3     2643     TIP3     H2       HT       0.417000       1.00800           0
     30312 TIP3     2644     TIP3     OH2      OT      -0.834000       15.9994           0
     30313 TIP3     2644     TIP3     H1       HT       0.417000       1.00800           0
     30314 TIP3     2644     TIP3     H2       HT       0.417000       1.00800           0
     30315 TIP3     2645     TIP3     OH2      OT      -0.834000       15.9994           0
     30316 TIP3     2645     TIP3     H1       HT       0.417000       1.00800           0
     30317 TIP3     2645     TIP3     H2       HT       0.417000       1.00800           0
     30318 TIP3     2646     TIP3     OH2      OT      -0.834000       15.9994           0
     30319 TIP3     2646     TIP3     H1       HT       0.417000       1.00800           0
     30320 TIP3     2646     TIP3     H2       HT       0.417000       1.00800           0
     30321 TIP3     2647     TIP3     OH2      OT      -0.834000       15.9994           0
     30322 TIP3     2647     TIP3     H1       HT       0.417000       1.00800           0
     30323 TIP3     2647     TIP3     H2       HT       0.417000       1.00800           0
     30324 TIP3     2648     TIP3     OH2      OT      -0.834000       15.9994           0
     30325 TIP3     2648     TIP3     H1       HT       0.417000       1.00800           0
     30326 TIP3     2648     TIP3     H2       HT       0.417000       1.00800           0
     30327 TIP3     2649     TIP3     OH2      OT      -0.834000       15.9994           0
     30328 TIP3     2649     TIP3     H1       HT       0.417000       1.00800           0
     30329 TIP3     2649     TIP3     H2       HT       0.417000       1.00800           0
     30330 TIP3     2650     TIP3     OH2      OT      -0.834000       15.9994           0
     30331 TIP3     2650     TIP3     H1       HT       0.417000       1.00800           0
     30332 TIP3     2650     TIP3     H2       HT       0.417000       1.00800           0
     30333 TIP3     2651     TIP3     OH2      OT      -0.834000       15.9994           0
     30334 TIP3     2651     TIP3     H1       HT       0.417000       1.00800           0
     30335 TIP3     2651     TIP3     H2       HT       0.417000       1.00800           0
     30336 TIP3     2652     TIP3     OH2      OT      -0.834000       15.9994           0
     30337 TIP3     2652     TIP3     H1       HT       0.417000       1.00800           0
     30338 TIP3     2652     TIP3     H2       HT       0.417000       1.00800           0
     30339 TIP3     2653     TIP3     OH2      OT      -0.834000       15.9994           0
     30340 TIP3     2653     TIP3     H1       HT       0.417000       1.00800           0
     30341 TIP3     2653     TIP3     H2       HT       0.417000       1.00800           0
     30342 TIP3     2654     TIP3     OH2      OT      -0.834000       15.9994           0
     30343 TIP3     2654     TIP3     H1       HT       0.417000       1.00800           0
     30344 TIP3     2654     TIP3     H2       HT       0.417000       1.00800           0
     30345 TIP3     2655     TIP3     OH2      OT      -0.834000       15.9994           0
     30346 TIP3     2655     TIP3     H1       HT       0.417000       1.00800           0
     30347 TIP3     2655     TIP3     H2       HT       0.417000       1.00800           0
     30348 TIP3     2656     TIP3     OH2      OT      -0.834000       15.9994           0
     30349 TIP3     2656     TIP3     H1       HT       0.417000       1.00800           0
     30350 TIP3     2656     TIP3     H2       HT       0.417000       1.00800           0
     30351 TIP3     2657     TIP3     OH2      OT      -0.834000       15.9994           0
     30352 TIP3     2657     TIP3     H1       HT       0.417000       1.00800           0
     30353 TIP3     2657     TIP3     H2       HT       0.417000       1.00800           0
     30354 TIP3     2658     TIP3     OH2      OT      -0.834000       15.9994           0
     30355 TIP3     2658     TIP3     H1       HT       0.417000       1.00800           0
     30356 TIP3     2658     TIP3     H2       HT       0.417000       1.00800           0
     30357 TIP3     2659     TIP3     OH2      OT      -0.834000       15.9994           0
     30358 TIP3     2659     TIP3     H1       HT       0.417000       1.00800           0
     30359 TIP3     2659     TIP3     H2       HT       0.417000       1.00800           0
     30360 TIP3     2660     TIP3     OH2      OT      -0.834000       15.9994           0
     30361 TIP3     2660     TIP3     H1       HT       0.417000       1.00800           0
     30362 TIP3     2660     TIP3     H2       HT       0.417000       1.00800           0
     30363 TIP3     2661     TIP3     OH2      OT      -0.834000       15.9994           0
     30364 TIP3     2661     TIP3     H1       HT       0.417000       1.00800           0
     30365 TIP3     2661     TIP3     H2       HT       0.417000       1.00800           0
     30366 TIP3     2662     TIP3     OH2      OT      -0.834000       15.9994           0
     30367 TIP3     2662     TIP3     H1       HT       0.417000       1.00800           0
     30368 TIP3     2662     TIP3     H2       HT       0.417000       1.00800           0
     30369 TIP3     2663     TIP3     OH2      OT      -0.834000       15.9994           0
     30370 TIP3     2663     TIP3     H1       HT       0.417000       1.00800           0
     30371 TIP3     2663     TIP3     H2       HT       0.417000       1.00800           0
     30372 TIP3     2664     TIP3     OH2      OT      -0.834000       15.9994           0
     30373 TIP3     2664     TIP3     H1       HT       0.417000       1.00800           0
     30374 TIP3     2664     TIP3     H2       HT       0.417000       1.00800           0
     30375 TIP3     2665     TIP3     OH2      OT      -0.834000       15.9994           0
     30376 TIP3     2665     TIP3     H1       HT       0.417000       1.00800           0
     30377 TIP3     2665     TIP3     H2       HT       0.417000       1.00800           0
     30378 TIP3     2666     TIP3     OH2      OT      -0.834000       15.9994           0
     30379 TIP3     2666     TIP3     H1       HT       0.417000       1.00800           0
     30380 TIP3     2666     TIP3     H2       HT       0.417000       1.00800           0
     30381 TIP3     2667     TIP3     OH2      OT      -0.834000       15.9994           0
     30382 TIP3     2667     TIP3     H1       HT       0.417000       1.00800           0
     30383 TIP3     2667     TIP3     H2       HT       0.417000       1.00800           0
     30384 TIP3     2668     TIP3     OH2      OT      -0.834000       15.9994           0
     30385 TIP3     2668     TIP3     H1       HT       0.417000       1.00800           0
     30386 TIP3     2668     TIP3     H2       HT       0.417000       1.00800           0
     30387 TIP3     2669     TIP3     OH2      OT      -0.834000       15.9994           0
     30388 TIP3     2669     TIP3     H1       HT       0.417000       1.00800           0
     30389 TIP3     2669     TIP3     H2       HT       0.417000       1.00800           0
     30390 TIP3     2670     TIP3     OH2      OT      -0.834000       15.9994           0
     30391 TIP3     2670     TIP3     H1       HT       0.417000       1.00800           0
     30392 TIP3     2670     TIP3     H2       HT       0.417000       1.00800           0
     30393 TIP3     2671     TIP3     OH2      OT      -0.834000       15.9994           0
     30394 TIP3     2671     TIP3     H1       HT       0.417000       1.00800           0
     30395 TIP3     2671     TIP3     H2       HT       0.417000       1.00800           0
     30396 TIP3     2672     TIP3     OH2      OT      -0.834000       15.9994           0
     30397 TIP3     2672     TIP3     H1       HT       0.417000       1.00800           0
     30398 TIP3     2672     TIP3     H2       HT       0.417000       1.00800           0
     30399 TIP3     2673     TIP3     OH2      OT      -0.834000       15.9994           0
     30400 TIP3     2673     TIP3     H1       HT       0.417000       1.00800           0
     30401 TIP3     2673     TIP3     H2       HT       0.417000       1.00800           0
     30402 TIP3     2674     TIP3     OH2      OT      -0.834000       15.9994           0
     30403 TIP3     2674     TIP3     H1       HT       0.417000       1.00800           0
     30404 TIP3     2674     TIP3     H2       HT       0.417000       1.00800           0
     30405 TIP3     2675     TIP3     OH2      OT      -0.834000       15.9994           0
     30406 TIP3     2675     TIP3     H1       HT       0.417000       1.00800           0
     30407 TIP3     2675     TIP3     H2       HT       0.417000       1.00800           0
     30408 TIP3     2676     TIP3     OH2      OT      -0.834000       15.9994           0
     30409 TIP3     2676     TIP3     H1       HT       0.417000       1.00800           0
     30410 TIP3     2676     TIP3     H2       HT       0.417000       1.00800           0
     30411 TIP3     2677     TIP3     OH2      OT      -0.834000       15.9994           0
     30412 TIP3     2677     TIP3     H1       HT       0.417000       1.00800           0
     30413 TIP3     2677     TIP3     H2       HT       0.417000       1.00800           0
     30414 TIP3     2678     TIP3     OH2      OT      -0.834000       15.9994           0
     30415 TIP3     2678     TIP3     H1       HT       0.417000       1.00800           0
     30416 TIP3     2678     TIP3     H2       HT       0.417000       1.00800           0
     30417 TIP3     2679     TIP3     OH2      OT      -0.834000       15.9994           0
     30418 TIP3     2679     TIP3     H1       HT       0.417000       1.00800           0
     30419 TIP3     2679     TIP3     H2       HT       0.417000       1.00800           0
     30420 TIP3     2680     TIP3     OH2      OT      -0.834000       15.9994           0
     30421 TIP3     2680     TIP3     H1       HT       0.417000       1.00800           0
     30422 TIP3     2680     TIP3     H2       HT       0.417000       1.00800           0
     30423 TIP3     2681     TIP3     OH2      OT      -0.834000       15.9994           0
     30424 TIP3     2681     TIP3     H1       HT       0.417000       1.00800           0
     30425 TIP3     2681     TIP3     H2       HT       0.417000       1.00800           0
     30426 TIP3     2682     TIP3     OH2      OT      -0.834000       15.9994           0
     30427 TIP3     2682     TIP3     H1       HT       0.417000       1.00800           0
     30428 TIP3     2682     TIP3     H2       HT       0.417000       1.00800           0
     30429 TIP3     2683     TIP3     OH2      OT      -0.834000       15.9994           0
     30430 TIP3     2683     TIP3     H1       HT       0.417000       1.00800           0
     30431 TIP3     2683     TIP3     H2       HT       0.417000       1.00800           0
     30432 TIP3     2684     TIP3     OH2      OT      -0.834000       15.9994           0
     30433 TIP3     2684     TIP3     H1       HT       0.417000       1.00800           0
     30434 TIP3     2684     TIP3     H2       HT       0.417000       1.00800           0
     30435 TIP3     2685     TIP3     OH2      OT      -0.834000       15.9994           0
     30436 TIP3     2685     TIP3     H1       HT       0.417000       1.00800           0
     30437 TIP3     2685     TIP3     H2       HT       0.417000       1.00800           0
     30438 TIP3     2686     TIP3     OH2      OT      -0.834000       15.9994           0
     30439 TIP3     2686     TIP3     H1       HT       0.417000       1.00800           0
     30440 TIP3     2686     TIP3     H2       HT       0.417000       1.00800           0
     30441 TIP3     2687     TIP3     OH2      OT      -0.834000       15.9994           0
     30442 TIP3     2687     TIP3     H1       HT       0.417000       1.00800           0
     30443 TIP3     2687     TIP3     H2       HT       0.417000       1.00800           0
     30444 TIP3     2688     TIP3     OH2      OT      -0.834000       15.9994           0
     30445 TIP3     2688     TIP3     H1       HT       0.417000       1.00800           0
     30446 TIP3     2688     TIP3     H2       HT       0.417000       1.00800           0
     30447 TIP3     2689     TIP3     OH2      OT      -0.834000       15.9994           0
     30448 TIP3     2689     TIP3     H1       HT       0.417000       1.00800           0
     30449 TIP3     2689     TIP3     H2       HT       0.417000       1.00800           0
     30450 TIP3     2690     TIP3     OH2      OT      -0.834000       15.9994           0
     30451 TIP3     2690     TIP3     H1       HT       0.417000       1.00800           0
     30452 TIP3     2690     TIP3     H2       HT       0.417000       1.00800           0
     30453 TIP3     2691     TIP3     OH2      OT      -0.834000       15.9994           0
     30454 TIP3     2691     TIP3     H1       HT       0.417000       1.00800           0
     30455 TIP3     2691     TIP3     H2       HT       0.417000       1.00800           0
     30456 TIP3     2692     TIP3     OH2      OT      -0.834000       15.9994           0
     30457 TIP3     2692     TIP3     H1       HT       0.417000       1.00800           0
     30458 TIP3     2692     TIP3     H2       HT       0.417000       1.00800           0
     30459 TIP3     2693     TIP3     OH2      OT      -0.834000       15.9994           0
     30460 TIP3     2693     TIP3     H1       HT       0.417000       1.00800           0
     30461 TIP3     2693     TIP3     H2       HT       0.417000       1.00800           0
     30462 TIP3     2694     TIP3     OH2      OT      -0.834000       15.9994           0
     30463 TIP3     2694     TIP3     H1       HT       0.417000       1.00800           0
     30464 TIP3     2694     TIP3     H2       HT       0.417000       1.00800           0
     30465 TIP3     2695     TIP3     OH2      OT      -0.834000       15.9994           0
     30466 TIP3     2695     TIP3     H1       HT       0.417000       1.00800           0
     30467 TIP3     2695     TIP3     H2       HT       0.417000       1.00800           0
     30468 TIP3     2696     TIP3     OH2      OT      -0.834000       15.9994           0
     30469 TIP3     2696     TIP3     H1       HT       0.417000       1.00800           0
     30470 TIP3     2696     TIP3     H2       HT       0.417000       1.00800           0
     30471 TIP3     2697     TIP3     OH2      OT      -0.834000       15.9994           0
     30472 TIP3     2697     TIP3     H1       HT       0.417000       1.00800           0
     30473 TIP3     2697     TIP3     H2       HT       0.417000       1.00800           0
     30474 TIP3     2698     TIP3     OH2      OT      -0.834000       15.9994           0
     30475 TIP3     2698     TIP3     H1       HT       0.417000       1.00800           0
     30476 TIP3     2698     TIP3     H2       HT       0.417000       1.00800           0
     30477 TIP3     2699     TIP3     OH2      OT      -0.834000       15.9994           0
     30478 TIP3     2699     TIP3     H1       HT       0.417000       1.00800           0
     30479 TIP3     2699     TIP3     H2       HT       0.417000       1.00800           0
     30480 TIP3     2700     TIP3     OH2      OT      -0.834000       15.9994           0
     30481 TIP3     2700     TIP3     H1       HT       0.417000       1.00800           0
     30482 TIP3     2700     TIP3     H2       HT       0.417000       1.00800           0
     30483 TIP3     2701     TIP3     OH2      OT      -0.834000       15.9994           0
     30484 TIP3     2701     TIP3     H1       HT       0.417000       1.00800           0
     30485 TIP3     2701     TIP3     H2       HT       0.417000       1.00800           0
     30486 TIP3     2702     TIP3     OH2      OT      -0.834000       15.9994           0
     30487 TIP3     2702     TIP3     H1       HT       0.417000       1.00800           0
     30488 TIP3     2702     TIP3     H2       HT       0.417000       1.00800           0
     30489 TIP3     2703     TIP3     OH2      OT      -0.834000       15.9994           0
     30490 TIP3     2703     TIP3     H1       HT       0.417000       1.00800           0
     30491 TIP3     2703     TIP3     H2       HT       0.417000       1.00800           0
     30492 TIP3     2704     TIP3     OH2      OT      -0.834000       15.9994           0
     30493 TIP3     2704     TIP3     H1       HT       0.417000       1.00800           0
     30494 TIP3     2704     TIP3     H2       HT       0.417000       1.00800           0
     30495 TIP3     2705     TIP3     OH2      OT      -0.834000       15.9994           0
     30496 TIP3     2705     TIP3     H1       HT       0.417000       1.00800           0
     30497 TIP3     2705     TIP3     H2       HT       0.417000       1.00800           0
     30498 TIP3     2706     TIP3     OH2      OT      -0.834000       15.9994           0
     30499 TIP3     2706     TIP3     H1       HT       0.417000       1.00800           0
     30500 TIP3     2706     TIP3     H2       HT       0.417000       1.00800           0
     30501 TIP3     2707     TIP3     OH2      OT      -0.834000       15.9994           0
     30502 TIP3     2707     TIP3     H1       HT       0.417000       1.00800           0
     30503 TIP3     2707     TIP3     H2       HT       0.417000       1.00800           0
     30504 TIP3     2708     TIP3     OH2      OT      -0.834000       15.9994           0
     30505 TIP3     2708     TIP3     H1       HT       0.417000       1.00800           0
     30506 TIP3     2708     TIP3     H2       HT       0.417000       1.00800           0
     30507 TIP3     2709     TIP3     OH2      OT      -0.834000       15.9994           0
     30508 TIP3     2709     TIP3     H1       HT       0.417000       1.00800           0
     30509 TIP3     2709     TIP3     H2       HT       0.417000       1.00800           0
     30510 TIP3     2710     TIP3     OH2      OT      -0.834000       15.9994           0
     30511 TIP3     2710     TIP3     H1       HT       0.417000       1.00800           0
     30512 TIP3     2710     TIP3     H2       HT       0.417000       1.00800           0
     30513 TIP3     2711     TIP3     OH2      OT      -0.834000       15.9994           0
     30514 TIP3     2711     TIP3     H1       HT       0.417000       1.00800           0
     30515 TIP3     2711     TIP3     H2       HT       0.417000       1.00800           0
     30516 TIP3     2712     TIP3     OH2      OT      -0.834000       15.9994           0
     30517 TIP3     2712     TIP3     H1       HT       0.417000       1.00800           0
     30518 TIP3     2712     TIP3     H2       HT       0.417000       1.00800           0
     30519 TIP3     2713     TIP3     OH2      OT      -0.834000       15.9994           0
     30520 TIP3     2713     TIP3     H1       HT       0.417000       1.00800           0
     30521 TIP3     2713     TIP3     H2       HT       0.417000       1.00800           0
     30522 TIP3     2714     TIP3     OH2      OT      -0.834000       15.9994           0
     30523 TIP3     2714     TIP3     H1       HT       0.417000       1.00800           0
     30524 TIP3     2714     TIP3     H2       HT       0.417000       1.00800           0
     30525 TIP3     2715     TIP3     OH2      OT      -0.834000       15.9994           0
     30526 TIP3     2715     TIP3     H1       HT       0.417000       1.00800           0
     30527 TIP3     2715     TIP3     H2       HT       0.417000       1.00800           0
     30528 TIP3     2716     TIP3     OH2      OT      -0.834000       15.9994           0
     30529 TIP3     2716     TIP3     H1       HT       0.417000       1.00800           0
     30530 TIP3     2716     TIP3     H2       HT       0.417000       1.00800           0
     30531 TIP3     2717     TIP3     OH2      OT      -0.834000       15.9994           0
     30532 TIP3     2717     TIP3     H1       HT       0.417000       1.00800           0
     30533 TIP3     2717     TIP3     H2       HT       0.417000       1.00800           0
     30534 TIP3     2718     TIP3     OH2      OT      -0.834000       15.9994           0
     30535 TIP3     2718     TIP3     H1       HT       0.417000       1.00800           0
     30536 TIP3     2718     TIP3     H2       HT       0.417000       1.00800           0
     30537 TIP3     2719     TIP3     OH2      OT      -0.834000       15.9994           0
     30538 TIP3     2719     TIP3     H1       HT       0.417000       1.00800           0
     30539 TIP3     2719     TIP3     H2       HT       0.417000       1.00800           0
     30540 TIP3     2720     TIP3     OH2      OT      -0.834000       15.9994           0
     30541 TIP3     2720     TIP3     H1       HT       0.417000       1.00800           0
     30542 TIP3     2720     TIP3     H2       HT       0.417000       1.00800           0
     30543 TIP3     2721     TIP3     OH2      OT      -0.834000       15.9994           0
     30544 TIP3     2721     TIP3     H1       HT       0.417000       1.00800           0
     30545 TIP3     2721     TIP3     H2       HT       0.417000       1.00800           0
     30546 TIP3     2722     TIP3     OH2      OT      -0.834000       15.9994           0
     30547 TIP3     2722     TIP3     H1       HT       0.417000       1.00800           0
     30548 TIP3     2722     TIP3     H2       HT       0.417000       1.00800           0
     30549 TIP3     2723     TIP3     OH2      OT      -0.834000       15.9994           0
     30550 TIP3     2723     TIP3     H1       HT       0.417000       1.00800           0
     30551 TIP3     2723     TIP3     H2       HT       0.417000       1.00800           0
     30552 TIP3     2724     TIP3     OH2      OT      -0.834000       15.9994           0
     30553 TIP3     2724     TIP3     H1       HT       0.417000       1.00800           0
     30554 TIP3     2724     TIP3     H2       HT       0.417000       1.00800           0
     30555 TIP3     2725     TIP3     OH2      OT      -0.834000       15.9994           0
     30556 TIP3     2725     TIP3     H1       HT       0.417000       1.00800           0
     30557 TIP3     2725     TIP3     H2       HT       0.417000       1.00800           0
     30558 TIP3     2726     TIP3     OH2      OT      -0.834000       15.9994           0
     30559 TIP3     2726     TIP3     H1       HT       0.417000       1.00800           0
     30560 TIP3     2726     TIP3     H2       HT       0.417000       1.00800           0
     30561 TIP3     2727     TIP3     OH2      OT      -0.834000       15.9994           0
     30562 TIP3     2727     TIP3     H1       HT       0.417000       1.00800           0
     30563 TIP3     2727     TIP3     H2       HT       0.417000       1.00800           0
     30564 TIP3     2728     TIP3     OH2      OT      -0.834000       15.9994           0
     30565 TIP3     2728     TIP3     H1       HT       0.417000       1.00800           0
     30566 TIP3     2728     TIP3     H2       HT       0.417000       1.00800           0
     30567 TIP3     2729     TIP3     OH2      OT      -0.834000       15.9994           0
     30568 TIP3     2729     TIP3     H1       HT       0.417000       1.00800           0
     30569 TIP3     2729     TIP3     H2       HT       0.417000       1.00800           0
     30570 TIP3     2730     TIP3     OH2      OT      -0.834000       15.9994           0
     30571 TIP3     2730     TIP3     H1       HT       0.417000       1.00800           0
     30572 TIP3     2730     TIP3     H2       HT       0.417000       1.00800           0
     30573 TIP3     2731     TIP3     OH2      OT      -0.834000       15.9994           0
     30574 TIP3     2731     TIP3     H1       HT       0.417000       1.00800           0
     30575 TIP3     2731     TIP3     H2       HT       0.417000       1.00800           0
     30576 TIP3     2732     TIP3     OH2      OT      -0.834000       15.9994           0
     30577 TIP3     2732     TIP3     H1       HT       0.417000       1.00800           0
     30578 TIP3     2732     TIP3     H2       HT       0.417000       1.00800           0
     30579 TIP3     2733     TIP3     OH2      OT      -0.834000       15.9994           0
     30580 TIP3     2733     TIP3     H1       HT       0.417000       1.00800           0
     30581 TIP3     2733     TIP3     H2       HT       0.417000       1.00800           0
     30582 TIP3     2734     TIP3     OH2      OT      -0.834000       15.9994           0
     30583 TIP3     2734     TIP3     H1       HT       0.417000       1.00800           0
     30584 TIP3     2734     TIP3     H2       HT       0.417000       1.00800           0
     30585 TIP3     2735     TIP3     OH2      OT      -0.834000       15.9994           0
     30586 TIP3     2735     TIP3     H1       HT       0.417000       1.00800           0
     30587 TIP3     2735     TIP3     H2       HT       0.417000       1.00800           0
     30588 TIP3     2736     TIP3     OH2      OT      -0.834000       15.9994           0
     30589 TIP3     2736     TIP3     H1       HT       0.417000       1.00800           0
     30590 TIP3     2736     TIP3     H2       HT       0.417000       1.00800           0
     30591 TIP3     2737     TIP3     OH2      OT      -0.834000       15.9994           0
     30592 TIP3     2737     TIP3     H1       HT       0.417000       1.00800           0
     30593 TIP3     2737     TIP3     H2       HT       0.417000       1.00800           0
     30594 TIP3     2738     TIP3     OH2      OT      -0.834000       15.9994           0
     30595 TIP3     2738     TIP3     H1       HT       0.417000       1.00800           0
     30596 TIP3     2738     TIP3     H2       HT       0.417000       1.00800           0
     30597 TIP3     2739     TIP3     OH2      OT      -0.834000       15.9994           0
     30598 TIP3     2739     TIP3     H1       HT       0.417000       1.00800           0
     30599 TIP3     2739     TIP3     H2       HT       0.417000       1.00800           0
     30600 TIP3     2740     TIP3     OH2      OT      -0.834000       15.9994           0
     30601 TIP3     2740     TIP3     H1       HT       0.417000       1.00800           0
     30602 TIP3     2740     TIP3     H2       HT       0.417000       1.00800           0
     30603 TIP3     2741     TIP3     OH2      OT      -0.834000       15.9994           0
     30604 TIP3     2741     TIP3     H1       HT       0.417000       1.00800           0
     30605 TIP3     2741     TIP3     H2       HT       0.417000       1.00800           0
     30606 TIP3     2742     TIP3     OH2      OT      -0.834000       15.9994           0
     30607 TIP3     2742     TIP3     H1       HT       0.417000       1.00800           0
     30608 TIP3     2742     TIP3     H2       HT       0.417000       1.00800           0
     30609 TIP3     2743     TIP3     OH2      OT      -0.834000       15.9994           0
     30610 TIP3     2743     TIP3     H1       HT       0.417000       1.00800           0
     30611 TIP3     2743     TIP3     H2       HT       0.417000       1.00800           0
     30612 TIP3     2744     TIP3     OH2      OT      -0.834000       15.9994           0
     30613 TIP3     2744     TIP3     H1       HT       0.417000       1.00800           0
     30614 TIP3     2744     TIP3     H2       HT       0.417000       1.00800           0
     30615 TIP3     2745     TIP3     OH2      OT      -0.834000       15.9994           0
     30616 TIP3     2745     TIP3     H1       HT       0.417000       1.00800           0
     30617 TIP3     2745     TIP3     H2       HT       0.417000       1.00800           0
     30618 TIP3     2746     TIP3     OH2      OT      -0.834000       15.9994           0
     30619 TIP3     2746     TIP3     H1       HT       0.417000       1.00800           0
     30620 TIP3     2746     TIP3     H2       HT       0.417000       1.00800           0
     30621 TIP3     2747     TIP3     OH2      OT      -0.834000       15.9994           0
     30622 TIP3     2747     TIP3     H1       HT       0.417000       1.00800           0
     30623 TIP3     2747     TIP3     H2       HT       0.417000       1.00800           0
     30624 TIP3     2748     TIP3     OH2      OT      -0.834000       15.9994           0
     30625 TIP3     2748     TIP3     H1       HT       0.417000       1.00800           0
     30626 TIP3     2748     TIP3     H2       HT       0.417000       1.00800           0
     30627 TIP3     2749     TIP3     OH2      OT      -0.834000       15.9994           0
     30628 TIP3     2749     TIP3     H1       HT       0.417000       1.00800           0
     30629 TIP3     2749     TIP3     H2       HT       0.417000       1.00800           0
     30630 TIP3     2750     TIP3     OH2      OT      -0.834000       15.9994           0
     30631 TIP3     2750     TIP3     H1       HT       0.417000       1.00800           0
     30632 TIP3     2750     TIP3     H2       HT       0.417000       1.00800           0
     30633 TIP3     2751     TIP3     OH2      OT      -0.834000       15.9994           0
     30634 TIP3     2751     TIP3     H1       HT       0.417000       1.00800           0
     30635 TIP3     2751     TIP3     H2       HT       0.417000       1.00800           0
     30636 TIP3     2752     TIP3     OH2      OT      -0.834000       15.9994           0
     30637 TIP3     2752     TIP3     H1       HT       0.417000       1.00800           0
     30638 TIP3     2752     TIP3     H2       HT       0.417000       1.00800           0
     30639 TIP3     2753     TIP3     OH2      OT      -0.834000       15.9994           0
     30640 TIP3     2753     TIP3     H1       HT       0.417000       1.00800           0
     30641 TIP3     2753     TIP3     H2       HT       0.417000       1.00800           0
     30642 TIP3     2754     TIP3     OH2      OT      -0.834000       15.9994           0
     30643 TIP3     2754     TIP3     H1       HT       0.417000       1.00800           0
     30644 TIP3     2754     TIP3     H2       HT       0.417000       1.00800           0
     30645 TIP3     2755     TIP3     OH2      OT      -0.834000       15.9994           0
     30646 TIP3     2755     TIP3     H1       HT       0.417000       1.00800           0
     30647 TIP3     2755     TIP3     H2       HT       0.417000       1.00800           0
     30648 TIP3     2756     TIP3     OH2      OT      -0.834000       15.9994           0
     30649 TIP3     2756     TIP3     H1       HT       0.417000       1.00800           0
     30650 TIP3     2756     TIP3     H2       HT       0.417000       1.00800           0
     30651 TIP3     2757     TIP3     OH2      OT      -0.834000       15.9994           0
     30652 TIP3     2757     TIP3     H1       HT       0.417000       1.00800           0
     30653 TIP3     2757     TIP3     H2       HT       0.417000       1.00800           0
     30654 TIP3     2758     TIP3     OH2      OT      -0.834000       15.9994           0
     30655 TIP3     2758     TIP3     H1       HT       0.417000       1.00800           0
     30656 TIP3     2758     TIP3     H2       HT       0.417000       1.00800           0
     30657 TIP3     2759     TIP3     OH2      OT      -0.834000       15.9994           0
     30658 TIP3     2759     TIP3     H1       HT       0.417000       1.00800           0
     30659 TIP3     2759     TIP3     H2       HT       0.417000       1.00800           0
     30660 TIP3     2760     TIP3     OH2      OT      -0.834000       15.9994           0
     30661 TIP3     2760     TIP3     H1       HT       0.417000       1.00800           0
     30662 TIP3     2760     TIP3     H2       HT       0.417000       1.00800           0
     30663 TIP3     2761     TIP3     OH2      OT      -0.834000       15.9994           0
     30664 TIP3     2761     TIP3     H1       HT       0.417000       1.00800           0
     30665 TIP3     2761     TIP3     H2       HT       0.417000       1.00800           0
     30666 TIP3     2762     TIP3     OH2      OT      -0.834000       15.9994           0
     30667 TIP3     2762     TIP3     H1       HT       0.417000       1.00800           0
     30668 TIP3     2762     TIP3     H2       HT       0.417000       1.00800           0
     30669 TIP3     2763     TIP3     OH2      OT      -0.834000       15.9994           0
     30670 TIP3     2763     TIP3     H1       HT       0.417000       1.00800           0
     30671 TIP3     2763     TIP3     H2       HT       0.417000       1.00800           0
     30672 TIP3     2764     TIP3     OH2      OT      -0.834000       15.9994           0
     30673 TIP3     2764     TIP3     H1       HT       0.417000       1.00800           0
     30674 TIP3     2764     TIP3     H2       HT       0.417000       1.00800           0
     30675 TIP3     2765     TIP3     OH2      OT      -0.834000       15.9994           0
     30676 TIP3     2765     TIP3     H1       HT       0.417000       1.00800           0
     30677 TIP3     2765     TIP3     H2       HT       0.417000       1.00800           0
     30678 TIP3     2766     TIP3     OH2      OT      -0.834000       15.9994           0
     30679 TIP3     2766     TIP3     H1       HT       0.417000       1.00800           0
     30680 TIP3     2766     TIP3     H2       HT       0.417000       1.00800           0
     30681 TIP3     2767     TIP3     OH2      OT      -0.834000       15.9994           0
     30682 TIP3     2767     TIP3     H1       HT       0.417000       1.00800           0
     30683 TIP3     2767     TIP3     H2       HT       0.417000       1.00800           0
     30684 TIP3     2768     TIP3     OH2      OT      -0.834000       15.9994           0
     30685 TIP3     2768     TIP3     H1       HT       0.417000       1.00800           0
     30686 TIP3     2768     TIP3     H2       HT       0.417000       1.00800           0
     30687 TIP3     2769     TIP3     OH2      OT      -0.834000       15.9994           0
     30688 TIP3     2769     TIP3     H1       HT       0.417000       1.00800           0
     30689 TIP3     2769     TIP3     H2       HT       0.417000       1.00800           0
     30690 TIP3     2770     TIP3     OH2      OT      -0.834000       15.9994           0
     30691 TIP3     2770     TIP3     H1       HT       0.417000       1.00800           0
     30692 TIP3     2770     TIP3     H2       HT       0.417000       1.00800           0
     30693 TIP3     2771     TIP3     OH2      OT      -0.834000       15.9994           0
     30694 TIP3     2771     TIP3     H1       HT       0.417000       1.00800           0
     30695 TIP3     2771     TIP3     H2       HT       0.417000       1.00800           0
     30696 TIP3     2772     TIP3     OH2      OT      -0.834000       15.9994           0
     30697 TIP3     2772     TIP3     H1       HT       0.417000       1.00800           0
     30698 TIP3     2772     TIP3     H2       HT       0.417000       1.00800           0
     30699 TIP3     2773     TIP3     OH2      OT      -0.834000       15.9994           0
     30700 TIP3     2773     TIP3     H1       HT       0.417000       1.00800           0
     30701 TIP3     2773     TIP3     H2       HT       0.417000       1.00800           0
     30702 TIP3     2774     TIP3     OH2      OT      -0.834000       15.9994           0
     30703 TIP3     2774     TIP3     H1       HT       0.417000       1.00800           0
     30704 TIP3     2774     TIP3     H2       HT       0.417000       1.00800           0
     30705 TIP3     2775     TIP3     OH2      OT      -0.834000       15.9994           0
     30706 TIP3     2775     TIP3     H1       HT       0.417000       1.00800           0
     30707 TIP3     2775     TIP3     H2       HT       0.417000       1.00800           0
     30708 TIP3     2776     TIP3     OH2      OT      -0.834000       15.9994           0
     30709 TIP3     2776     TIP3     H1       HT       0.417000       1.00800           0
     30710 TIP3     2776     TIP3     H2       HT       0.417000       1.00800           0
     30711 TIP3     2777     TIP3     OH2      OT      -0.834000       15.9994           0
     30712 TIP3     2777     TIP3     H1       HT       0.417000       1.00800           0
     30713 TIP3     2777     TIP3     H2       HT       0.417000       1.00800           0
     30714 TIP3     2778     TIP3     OH2      OT      -0.834000       15.9994           0
     30715 TIP3     2778     TIP3     H1       HT       0.417000       1.00800           0
     30716 TIP3     2778     TIP3     H2       HT       0.417000       1.00800           0
     30717 TIP3     2779     TIP3     OH2      OT      -0.834000       15.9994           0
     30718 TIP3     2779     TIP3     H1       HT       0.417000       1.00800           0
     30719 TIP3     2779     TIP3     H2       HT       0.417000       1.00800           0
     30720 TIP3     2780     TIP3     OH2      OT      -0.834000       15.9994           0
     30721 TIP3     2780     TIP3     H1       HT       0.417000       1.00800           0
     30722 TIP3     2780     TIP3     H2       HT       0.417000       1.00800           0
     30723 TIP3     2781     TIP3     OH2      OT      -0.834000       15.9994           0
     30724 TIP3     2781     TIP3     H1       HT       0.417000       1.00800           0
     30725 TIP3     2781     TIP3     H2       HT       0.417000       1.00800           0
     30726 TIP3     2782     TIP3     OH2      OT      -0.834000       15.9994           0
     30727 TIP3     2782     TIP3     H1       HT       0.417000       1.00800           0
     30728 TIP3     2782     TIP3     H2       HT       0.417000       1.00800           0
     30729 TIP3     2783     TIP3     OH2      OT      -0.834000       15.9994           0
     30730 TIP3     2783     TIP3     H1       HT       0.417000       1.00800           0
     30731 TIP3     2783     TIP3     H2       HT       0.417000       1.00800           0
     30732 TIP3     2784     TIP3     OH2      OT      -0.834000       15.9994           0
     30733 TIP3     2784     TIP3     H1       HT       0.417000       1.00800           0
     30734 TIP3     2784     TIP3     H2       HT       0.417000       1.00800           0
     30735 TIP3     2785     TIP3     OH2      OT      -0.834000       15.9994           0
     30736 TIP3     2785     TIP3     H1       HT       0.417000       1.00800           0
     30737 TIP3     2785     TIP3     H2       HT       0.417000       1.00800           0
     30738 TIP3     2786     TIP3     OH2      OT      -0.834000       15.9994           0
     30739 TIP3     2786     TIP3     H1       HT       0.417000       1.00800           0
     30740 TIP3     2786     TIP3     H2       HT       0.417000       1.00800           0
     30741 TIP3     2787     TIP3     OH2      OT      -0.834000       15.9994           0
     30742 TIP3     2787     TIP3     H1       HT       0.417000       1.00800           0
     30743 TIP3     2787     TIP3     H2       HT       0.417000       1.00800           0
     30744 TIP3     2788     TIP3     OH2      OT      -0.834000       15.9994           0
     30745 TIP3     2788     TIP3     H1       HT       0.417000       1.00800           0
     30746 TIP3     2788     TIP3     H2       HT       0.417000       1.00800           0
     30747 TIP3     2789     TIP3     OH2      OT      -0.834000       15.9994           0
     30748 TIP3     2789     TIP3     H1       HT       0.417000       1.00800           0
     30749 TIP3     2789     TIP3     H2       HT       0.417000       1.00800           0
     30750 TIP3     2790     TIP3     OH2      OT      -0.834000       15.9994           0
     30751 TIP3     2790     TIP3     H1       HT       0.417000       1.00800           0
     30752 TIP3     2790     TIP3     H2       HT       0.417000       1.00800           0
     30753 TIP3     2791     TIP3     OH2      OT      -0.834000       15.9994           0
     30754 TIP3     2791     TIP3     H1       HT       0.417000       1.00800           0
     30755 TIP3     2791     TIP3     H2       HT       0.417000       1.00800           0
     30756 TIP3     2792     TIP3     OH2      OT      -0.834000       15.9994           0
     30757 TIP3     2792     TIP3     H1       HT       0.417000       1.00800           0
     30758 TIP3     2792     TIP3     H2       HT       0.417000       1.00800           0
     30759 TIP3     2793     TIP3     OH2      OT      -0.834000       15.9994           0
     30760 TIP3     2793     TIP3     H1       HT       0.417000       1.00800           0
     30761 TIP3     2793     TIP3     H2       HT       0.417000       1.00800           0
     30762 TIP3     2794     TIP3     OH2      OT      -0.834000       15.9994           0
     30763 TIP3     2794     TIP3     H1       HT       0.417000       1.00800           0
     30764 TIP3     2794     TIP3     H2       HT       0.417000       1.00800           0
     30765 TIP3     2795     TIP3     OH2      OT      -0.834000       15.9994           0
     30766 TIP3     2795     TIP3     H1       HT       0.417000       1.00800           0
     30767 TIP3     2795     TIP3     H2       HT       0.417000       1.00800           0
     30768 TIP3     2796     TIP3     OH2      OT      -0.834000       15.9994           0
     30769 TIP3     2796     TIP3     H1       HT       0.417000       1.00800           0
     30770 TIP3     2796     TIP3     H2       HT       0.417000       1.00800           0
     30771 TIP3     2797     TIP3     OH2      OT      -0.834000       15.9994           0
     30772 TIP3     2797     TIP3     H1       HT       0.417000       1.00800           0
     30773 TIP3     2797     TIP3     H2       HT       0.417000       1.00800           0
     30774 TIP3     2798     TIP3     OH2      OT      -0.834000       15.9994           0
     30775 TIP3     2798     TIP3     H1       HT       0.417000       1.00800           0
     30776 TIP3     2798     TIP3     H2       HT       0.417000       1.00800           0
     30777 TIP3     2799     TIP3     OH2      OT      -0.834000       15.9994           0
     30778 TIP3     2799     TIP3     H1       HT       0.417000       1.00800           0
     30779 TIP3     2799     TIP3     H2       HT       0.417000       1.00800           0
     30780 TIP3     2800     TIP3     OH2      OT      -0.834000       15.9994           0
     30781 TIP3     2800     TIP3     H1       HT       0.417000       1.00800           0
     30782 TIP3     2800     TIP3     H2       HT       0.417000       1.00800           0
     30783 TIP3     2801     TIP3     OH2      OT      -0.834000       15.9994           0
     30784 TIP3     2801     TIP3     H1       HT       0.417000       1.00800           0
     30785 TIP3     2801     TIP3     H2       HT       0.417000       1.00800           0
     30786 TIP3     2802     TIP3     OH2      OT      -0.834000       15.9994           0
     30787 TIP3     2802     TIP3     H1       HT       0.417000       1.00800           0
     30788 TIP3     2802     TIP3     H2       HT       0.417000       1.00800           0
     30789 TIP3     2803     TIP3     OH2      OT      -0.834000       15.9994           0
     30790 TIP3     2803     TIP3     H1       HT       0.417000       1.00800           0
     30791 TIP3     2803     TIP3     H2       HT       0.417000       1.00800           0
     30792 TIP3     2804     TIP3     OH2      OT      -0.834000       15.9994           0
     30793 TIP3     2804     TIP3     H1       HT       0.417000       1.00800           0
     30794 TIP3     2804     TIP3     H2       HT       0.417000       1.00800           0
     30795 TIP3     2805     TIP3     OH2      OT      -0.834000       15.9994           0
     30796 TIP3     2805     TIP3     H1       HT       0.417000       1.00800           0
     30797 TIP3     2805     TIP3     H2       HT       0.417000       1.00800           0
     30798 TIP3     2806     TIP3     OH2      OT      -0.834000       15.9994           0
     30799 TIP3     2806     TIP3     H1       HT       0.417000       1.00800           0
     30800 TIP3     2806     TIP3     H2       HT       0.417000       1.00800           0
     30801 TIP3     2807     TIP3     OH2      OT      -0.834000       15.9994           0
     30802 TIP3     2807     TIP3     H1       HT       0.417000       1.00800           0
     30803 TIP3     2807     TIP3     H2       HT       0.417000       1.00800           0
     30804 TIP3     2808     TIP3     OH2      OT      -0.834000       15.9994           0
     30805 TIP3     2808     TIP3     H1       HT       0.417000       1.00800           0
     30806 TIP3     2808     TIP3     H2       HT       0.417000       1.00800           0
     30807 TIP3     2809     TIP3     OH2      OT      -0.834000       15.9994           0
     30808 TIP3     2809     TIP3     H1       HT       0.417000       1.00800           0
     30809 TIP3     2809     TIP3     H2       HT       0.417000       1.00800           0
     30810 TIP3     2810     TIP3     OH2      OT      -0.834000       15.9994           0
     30811 TIP3     2810     TIP3     H1       HT       0.417000       1.00800           0
     30812 TIP3     2810     TIP3     H2       HT       0.417000       1.00800           0
     30813 TIP3     2811     TIP3     OH2      OT      -0.834000       15.9994           0
     30814 TIP3     2811     TIP3     H1       HT       0.417000       1.00800           0
     30815 TIP3     2811     TIP3     H2       HT       0.417000       1.00800           0
     30816 TIP3     2812     TIP3     OH2      OT      -0.834000       15.9994           0
     30817 TIP3     2812     TIP3     H1       HT       0.417000       1.00800           0
     30818 TIP3     2812     TIP3     H2       HT       0.417000       1.00800           0
     30819 TIP3     2813     TIP3     OH2      OT      -0.834000       15.9994           0
     30820 TIP3     2813     TIP3     H1       HT       0.417000       1.00800           0
     30821 TIP3     2813     TIP3     H2       HT       0.417000       1.00800           0
     30822 TIP3     2814     TIP3     OH2      OT      -0.834000       15.9994           0
     30823 TIP3     2814     TIP3     H1       HT       0.417000       1.00800           0
     30824 TIP3     2814     TIP3     H2       HT       0.417000       1.00800           0
     30825 TIP3     2815     TIP3     OH2      OT      -0.834000       15.9994           0
     30826 TIP3     2815     TIP3     H1       HT       0.417000       1.00800           0
     30827 TIP3     2815     TIP3     H2       HT       0.417000       1.00800           0
     30828 TIP3     2816     TIP3     OH2      OT      -0.834000       15.9994           0
     30829 TIP3     2816     TIP3     H1       HT       0.417000       1.00800           0
     30830 TIP3     2816     TIP3     H2       HT       0.417000       1.00800           0
     30831 TIP3     2817     TIP3     OH2      OT      -0.834000       15.9994           0
     30832 TIP3     2817     TIP3     H1       HT       0.417000       1.00800           0
     30833 TIP3     2817     TIP3     H2       HT       0.417000       1.00800           0
     30834 TIP3     2818     TIP3     OH2      OT      -0.834000       15.9994           0
     30835 TIP3     2818     TIP3     H1       HT       0.417000       1.00800           0
     30836 TIP3     2818     TIP3     H2       HT       0.417000       1.00800           0
     30837 TIP3     2819     TIP3     OH2      OT      -0.834000       15.9994           0
     30838 TIP3     2819     TIP3     H1       HT       0.417000       1.00800           0
     30839 TIP3     2819     TIP3     H2       HT       0.417000       1.00800           0
     30840 TIP3     2820     TIP3     OH2      OT      -0.834000       15.9994           0
     30841 TIP3     2820     TIP3     H1       HT       0.417000       1.00800           0
     30842 TIP3     2820     TIP3     H2       HT       0.417000       1.00800           0
     30843 TIP3     2821     TIP3     OH2      OT      -0.834000       15.9994           0
     30844 TIP3     2821     TIP3     H1       HT       0.417000       1.00800           0
     30845 TIP3     2821     TIP3     H2       HT       0.417000       1.00800           0
     30846 TIP3     2822     TIP3     OH2      OT      -0.834000       15.9994           0
     30847 TIP3     2822     TIP3     H1       HT       0.417000       1.00800           0
     30848 TIP3     2822     TIP3     H2       HT       0.417000       1.00800           0
     30849 TIP3     2823     TIP3     OH2      OT      -0.834000       15.9994           0
     30850 TIP3     2823     TIP3     H1       HT       0.417000       1.00800           0
     30851 TIP3     2823     TIP3     H2       HT       0.417000       1.00800           0
     30852 TIP3     2824     TIP3     OH2      OT      -0.834000       15.9994           0
     30853 TIP3     2824     TIP3     H1       HT       0.417000       1.00800           0
     30854 TIP3     2824     TIP3     H2       HT       0.417000       1.00800           0
     30855 TIP3     2825     TIP3     OH2      OT      -0.834000       15.9994           0
     30856 TIP3     2825     TIP3     H1       HT       0.417000       1.00800           0
     30857 TIP3     2825     TIP3     H2       HT       0.417000       1.00800           0
     30858 TIP3     2826     TIP3     OH2      OT      -0.834000       15.9994           0
     30859 TIP3     2826     TIP3     H1       HT       0.417000       1.00800           0
     30860 TIP3     2826     TIP3     H2       HT       0.417000       1.00800           0
     30861 TIP3     2827     TIP3     OH2      OT      -0.834000       15.9994           0
     30862 TIP3     2827     TIP3     H1       HT       0.417000       1.00800           0
     30863 TIP3     2827     TIP3     H2       HT       0.417000       1.00800           0
     30864 TIP3     2828     TIP3     OH2      OT      -0.834000       15.9994           0
     30865 TIP3     2828     TIP3     H1       HT       0.417000       1.00800           0
     30866 TIP3     2828     TIP3     H2       HT       0.417000       1.00800           0
     30867 TIP3     2829     TIP3     OH2      OT      -0.834000       15.9994           0
     30868 TIP3     2829     TIP3     H1       HT       0.417000       1.00800           0
     30869 TIP3     2829     TIP3     H2       HT       0.417000       1.00800           0
     30870 TIP3     2830     TIP3     OH2      OT      -0.834000       15.9994           0
     30871 TIP3     2830     TIP3     H1       HT       0.417000       1.00800           0
     30872 TIP3     2830     TIP3     H2       HT       0.417000       1.00800           0
     30873 TIP3     2831     TIP3     OH2      OT      -0.834000       15.9994           0
     30874 TIP3     2831     TIP3     H1       HT       0.417000       1.00800           0
     30875 TIP3     2831     TIP3     H2       HT       0.417000       1.00800           0
     30876 TIP3     2832     TIP3     OH2      OT      -0.834000       15.9994           0
     30877 TIP3     2832     TIP3     H1       HT       0.417000       1.00800           0
     30878 TIP3     2832     TIP3     H2       HT       0.417000       1.00800           0
     30879 TIP3     2833     TIP3     OH2      OT      -0.834000       15.9994           0
     30880 TIP3     2833     TIP3     H1       HT       0.417000       1.00800           0
     30881 TIP3     2833     TIP3     H2       HT       0.417000       1.00800           0
     30882 TIP3     2834     TIP3     OH2      OT      -0.834000       15.9994           0
     30883 TIP3     2834     TIP3     H1       HT       0.417000       1.00800           0
     30884 TIP3     2834     TIP3     H2       HT       0.417000       1.00800           0
     30885 TIP3     2835     TIP3     OH2      OT      -0.834000       15.9994           0
     30886 TIP3     2835     TIP3     H1       HT       0.417000       1.00800           0
     30887 TIP3     2835     TIP3     H2       HT       0.417000       1.00800           0
     30888 TIP3     2836     TIP3     OH2      OT      -0.834000       15.9994           0
     30889 TIP3     2836     TIP3     H1       HT       0.417000       1.00800           0
     30890 TIP3     2836     TIP3     H2       HT       0.417000       1.00800           0
     30891 TIP3     2837     TIP3     OH2      OT      -0.834000       15.9994           0
     30892 TIP3     2837     TIP3     H1       HT       0.417000       1.00800           0
     30893 TIP3     2837     TIP3     H2       HT       0.417000       1.00800           0
     30894 TIP3     2838     TIP3     OH2      OT      -0.834000       15.9994           0
     30895 TIP3     2838     TIP3     H1       HT       0.417000       1.00800           0
     30896 TIP3     2838     TIP3     H2       HT       0.417000       1.00800           0
     30897 TIP3     2839     TIP3     OH2      OT      -0.834000       15.9994           0
     30898 TIP3     2839     TIP3     H1       HT       0.417000       1.00800           0
     30899 TIP3     2839     TIP3     H2       HT       0.417000       1.00800           0
     30900 TIP3     2840     TIP3     OH2      OT      -0.834000       15.9994           0
     30901 TIP3     2840     TIP3     H1       HT       0.417000       1.00800           0
     30902 TIP3     2840     TIP3     H2       HT       0.417000       1.00800           0
     30903 TIP3     2841     TIP3     OH2      OT      -0.834000       15.9994           0
     30904 TIP3     2841     TIP3     H1       HT       0.417000       1.00800           0
     30905 TIP3     2841     TIP3     H2       HT       0.417000       1.00800           0
     30906 TIP3     2842     TIP3     OH2      OT      -0.834000       15.9994           0
     30907 TIP3     2842     TIP3     H1       HT       0.417000       1.00800           0
     30908 TIP3     2842     TIP3     H2       HT       0.417000       1.00800           0
     30909 TIP3     2843     TIP3     OH2      OT      -0.834000       15.9994           0
     30910 TIP3     2843     TIP3     H1       HT       0.417000       1.00800           0
     30911 TIP3     2843     TIP3     H2       HT       0.417000       1.00800           0
     30912 TIP3     2844     TIP3     OH2      OT      -0.834000       15.9994           0
     30913 TIP3     2844     TIP3     H1       HT       0.417000       1.00800           0
     30914 TIP3     2844     TIP3     H2       HT       0.417000       1.00800           0
     30915 TIP3     2845     TIP3     OH2      OT      -0.834000       15.9994           0
     30916 TIP3     2845     TIP3     H1       HT       0.417000       1.00800           0
     30917 TIP3     2845     TIP3     H2       HT       0.417000       1.00800           0
     30918 TIP3     2846     TIP3     OH2      OT      -0.834000       15.9994           0
     30919 TIP3     2846     TIP3     H1       HT       0.417000       1.00800           0
     30920 TIP3     2846     TIP3     H2       HT       0.417000       1.00800           0
     30921 TIP3     2847     TIP3     OH2      OT      -0.834000       15.9994           0
     30922 TIP3     2847     TIP3     H1       HT       0.417000       1.00800           0
     30923 TIP3     2847     TIP3     H2       HT       0.417000       1.00800           0
     30924 TIP3     2848     TIP3     OH2      OT      -0.834000       15.9994           0
     30925 TIP3     2848     TIP3     H1       HT       0.417000       1.00800           0
     30926 TIP3     2848     TIP3     H2       HT       0.417000       1.00800           0
     30927 TIP3     2849     TIP3     OH2      OT      -0.834000       15.9994           0
     30928 TIP3     2849     TIP3     H1       HT       0.417000       1.00800           0
     30929 TIP3     2849     TIP3     H2       HT       0.417000       1.00800           0
     30930 TIP3     2850     TIP3     OH2      OT      -0.834000       15.9994           0
     30931 TIP3     2850     TIP3     H1       HT       0.417000       1.00800           0
     30932 TIP3     2850     TIP3     H2       HT       0.417000       1.00800           0
     30933 TIP3     2851     TIP3     OH2      OT      -0.834000       15.9994           0
     30934 TIP3     2851     TIP3     H1       HT       0.417000       1.00800           0
     30935 TIP3     2851     TIP3     H2       HT       0.417000       1.00800           0
     30936 TIP3     2852     TIP3     OH2      OT      -0.834000       15.9994           0
     30937 TIP3     2852     TIP3     H1       HT       0.417000       1.00800           0
     30938 TIP3     2852     TIP3     H2       HT       0.417000       1.00800           0
     30939 TIP3     2853     TIP3     OH2      OT      -0.834000       15.9994           0
     30940 TIP3     2853     TIP3     H1       HT       0.417000       1.00800           0
     30941 TIP3     2853     TIP3     H2       HT       0.417000       1.00800           0
     30942 TIP3     2854     TIP3     OH2      OT      -0.834000       15.9994           0
     30943 TIP3     2854     TIP3     H1       HT       0.417000       1.00800           0
     30944 TIP3     2854     TIP3     H2       HT       0.417000       1.00800           0
     30945 TIP3     2855     TIP3     OH2      OT      -0.834000       15.9994           0
     30946 TIP3     2855     TIP3     H1       HT       0.417000       1.00800           0
     30947 TIP3     2855     TIP3     H2       HT       0.417000       1.00800           0
     30948 TIP3     2856     TIP3     OH2      OT      -0.834000       15.9994           0
     30949 TIP3     2856     TIP3     H1       HT       0.417000       1.00800           0
     30950 TIP3     2856     TIP3     H2       HT       0.417000       1.00800           0
     30951 TIP3     2857     TIP3     OH2      OT      -0.834000       15.9994           0
     30952 TIP3     2857     TIP3     H1       HT       0.417000       1.00800           0
     30953 TIP3     2857     TIP3     H2       HT       0.417000       1.00800           0
     30954 TIP3     2858     TIP3     OH2      OT      -0.834000       15.9994           0
     30955 TIP3     2858     TIP3     H1       HT       0.417000       1.00800           0
     30956 TIP3     2858     TIP3     H2       HT       0.417000       1.00800           0
     30957 TIP3     2859     TIP3     OH2      OT      -0.834000       15.9994           0
     30958 TIP3     2859     TIP3     H1       HT       0.417000       1.00800           0
     30959 TIP3     2859     TIP3     H2       HT       0.417000       1.00800           0
     30960 TIP3     2860     TIP3     OH2      OT      -0.834000       15.9994           0
     30961 TIP3     2860     TIP3     H1       HT       0.417000       1.00800           0
     30962 TIP3     2860     TIP3     H2       HT       0.417000       1.00800           0
     30963 TIP3     2861     TIP3     OH2      OT      -0.834000       15.9994           0
     30964 TIP3     2861     TIP3     H1       HT       0.417000       1.00800           0
     30965 TIP3     2861     TIP3     H2       HT       0.417000       1.00800           0
     30966 TIP3     2862     TIP3     OH2      OT      -0.834000       15.9994           0
     30967 TIP3     2862     TIP3     H1       HT       0.417000       1.00800           0
     30968 TIP3     2862     TIP3     H2       HT       0.417000       1.00800           0
     30969 TIP3     2863     TIP3     OH2      OT      -0.834000       15.9994           0
     30970 TIP3     2863     TIP3     H1       HT       0.417000       1.00800           0
     30971 TIP3     2863     TIP3     H2       HT       0.417000       1.00800           0
     30972 TIP3     2864     TIP3     OH2      OT      -0.834000       15.9994           0
     30973 TIP3     2864     TIP3     H1       HT       0.417000       1.00800           0
     30974 TIP3     2864     TIP3     H2       HT       0.417000       1.00800           0
     30975 TIP3     2865     TIP3     OH2      OT      -0.834000       15.9994           0
     30976 TIP3     2865     TIP3     H1       HT       0.417000       1.00800           0
     30977 TIP3     2865     TIP3     H2       HT       0.417000       1.00800           0
     30978 TIP3     2866     TIP3     OH2      OT      -0.834000       15.9994           0
     30979 TIP3     2866     TIP3     H1       HT       0.417000       1.00800           0
     30980 TIP3     2866     TIP3     H2       HT       0.417000       1.00800           0
     30981 TIP3     2867     TIP3     OH2      OT      -0.834000       15.9994           0
     30982 TIP3     2867     TIP3     H1       HT       0.417000       1.00800           0
     30983 TIP3     2867     TIP3     H2       HT       0.417000       1.00800           0
     30984 TIP3     2868     TIP3     OH2      OT      -0.834000       15.9994           0
     30985 TIP3     2868     TIP3     H1       HT       0.417000       1.00800           0
     30986 TIP3     2868     TIP3     H2       HT       0.417000       1.00800           0
     30987 TIP3     2869     TIP3     OH2      OT      -0.834000       15.9994           0
     30988 TIP3     2869     TIP3     H1       HT       0.417000       1.00800           0
     30989 TIP3     2869     TIP3     H2       HT       0.417000       1.00800           0
     30990 TIP3     2870     TIP3     OH2      OT      -0.834000       15.9994           0
     30991 TIP3     2870     TIP3     H1       HT       0.417000       1.00800           0
     30992 TIP3     2870     TIP3     H2       HT       0.417000       1.00800           0
     30993 TIP3     2871     TIP3     OH2      OT      -0.834000       15.9994           0
     30994 TIP3     2871     TIP3     H1       HT       0.417000       1.00800           0
     30995 TIP3     2871     TIP3     H2       HT       0.417000       1.00800           0
     30996 TIP3     2872     TIP3     OH2      OT      -0.834000       15.9994           0
     30997 TIP3     2872     TIP3     H1       HT       0.417000       1.00800           0
     30998 TIP3     2872     TIP3     H2       HT       0.417000       1.00800           0
     30999 TIP3     2873     TIP3     OH2      OT      -0.834000       15.9994           0
     31000 TIP3     2873     TIP3     H1       HT       0.417000       1.00800           0
     31001 TIP3     2873     TIP3     H2       HT       0.417000       1.00800           0
     31002 TIP3     2874     TIP3     OH2      OT      -0.834000       15.9994           0
     31003 TIP3     2874     TIP3     H1       HT       0.417000       1.00800           0
     31004 TIP3     2874     TIP3     H2       HT       0.417000       1.00800           0
     31005 TIP3     2875     TIP3     OH2      OT      -0.834000       15.9994           0
     31006 TIP3     2875     TIP3     H1       HT       0.417000       1.00800           0
     31007 TIP3     2875     TIP3     H2       HT       0.417000       1.00800           0
     31008 TIP3     2876     TIP3     OH2      OT      -0.834000       15.9994           0
     31009 TIP3     2876     TIP3     H1       HT       0.417000       1.00800           0
     31010 TIP3     2876     TIP3     H2       HT       0.417000       1.00800           0
     31011 TIP3     2877     TIP3     OH2      OT      -0.834000       15.9994           0
     31012 TIP3     2877     TIP3     H1       HT       0.417000       1.00800           0
     31013 TIP3     2877     TIP3     H2       HT       0.417000       1.00800           0
     31014 TIP3     2878     TIP3     OH2      OT      -0.834000       15.9994           0
     31015 TIP3     2878     TIP3     H1       HT       0.417000       1.00800           0
     31016 TIP3     2878     TIP3     H2       HT       0.417000       1.00800           0
     31017 TIP3     2879     TIP3     OH2      OT      -0.834000       15.9994           0
     31018 TIP3     2879     TIP3     H1       HT       0.417000       1.00800           0
     31019 TIP3     2879     TIP3     H2       HT       0.417000       1.00800           0
     31020 TIP3     2880     TIP3     OH2      OT      -0.834000       15.9994           0
     31021 TIP3     2880     TIP3     H1       HT       0.417000       1.00800           0
     31022 TIP3     2880     TIP3     H2       HT       0.417000       1.00800           0
     31023 TIP3     2881     TIP3     OH2      OT      -0.834000       15.9994           0
     31024 TIP3     2881     TIP3     H1       HT       0.417000       1.00800           0
     31025 TIP3     2881     TIP3     H2       HT       0.417000       1.00800           0
     31026 TIP3     2882     TIP3     OH2      OT      -0.834000       15.9994           0
     31027 TIP3     2882     TIP3     H1       HT       0.417000       1.00800           0
     31028 TIP3     2882     TIP3     H2       HT       0.417000       1.00800           0
     31029 TIP3     2883     TIP3     OH2      OT      -0.834000       15.9994           0
     31030 TIP3     2883     TIP3     H1       HT       0.417000       1.00800           0
     31031 TIP3     2883     TIP3     H2       HT       0.417000       1.00800           0
     31032 TIP3     2884     TIP3     OH2      OT      -0.834000       15.9994           0
     31033 TIP3     2884     TIP3     H1       HT       0.417000       1.00800           0
     31034 TIP3     2884     TIP3     H2       HT       0.417000       1.00800           0
     31035 TIP3     2885     TIP3     OH2      OT      -0.834000       15.9994           0
     31036 TIP3     2885     TIP3     H1       HT       0.417000       1.00800           0
     31037 TIP3     2885     TIP3     H2       HT       0.417000       1.00800           0
     31038 TIP3     2886     TIP3     OH2      OT      -0.834000       15.9994           0
     31039 TIP3     2886     TIP3     H1       HT       0.417000       1.00800           0
     31040 TIP3     2886     TIP3     H2       HT       0.417000       1.00800           0
     31041 TIP3     2887     TIP3     OH2      OT      -0.834000       15.9994           0
     31042 TIP3     2887     TIP3     H1       HT       0.417000       1.00800           0
     31043 TIP3     2887     TIP3     H2       HT       0.417000       1.00800           0
     31044 TIP3     2888     TIP3     OH2      OT      -0.834000       15.9994           0
     31045 TIP3     2888     TIP3     H1       HT       0.417000       1.00800           0
     31046 TIP3     2888     TIP3     H2       HT       0.417000       1.00800           0
     31047 TIP3     2889     TIP3     OH2      OT      -0.834000       15.9994           0
     31048 TIP3     2889     TIP3     H1       HT       0.417000       1.00800           0
     31049 TIP3     2889     TIP3     H2       HT       0.417000       1.00800           0
     31050 TIP3     2890     TIP3     OH2      OT      -0.834000       15.9994           0
     31051 TIP3     2890     TIP3     H1       HT       0.417000       1.00800           0
     31052 TIP3     2890     TIP3     H2       HT       0.417000       1.00800           0
     31053 TIP3     2891     TIP3     OH2      OT      -0.834000       15.9994           0
     31054 TIP3     2891     TIP3     H1       HT       0.417000       1.00800           0
     31055 TIP3     2891     TIP3     H2       HT       0.417000       1.00800           0
     31056 TIP3     2892     TIP3     OH2      OT      -0.834000       15.9994           0
     31057 TIP3     2892     TIP3     H1       HT       0.417000       1.00800           0
     31058 TIP3     2892     TIP3     H2       HT       0.417000       1.00800           0
     31059 TIP3     2893     TIP3     OH2      OT      -0.834000       15.9994           0
     31060 TIP3     2893     TIP3     H1       HT       0.417000       1.00800           0
     31061 TIP3     2893     TIP3     H2       HT       0.417000       1.00800           0
     31062 TIP3     2894     TIP3     OH2      OT      -0.834000       15.9994           0
     31063 TIP3     2894     TIP3     H1       HT       0.417000       1.00800           0
     31064 TIP3     2894     TIP3     H2       HT       0.417000       1.00800           0
     31065 TIP3     2895     TIP3     OH2      OT      -0.834000       15.9994           0
     31066 TIP3     2895     TIP3     H1       HT       0.417000       1.00800           0
     31067 TIP3     2895     TIP3     H2       HT       0.417000       1.00800           0
     31068 TIP3     2896     TIP3     OH2      OT      -0.834000       15.9994           0
     31069 TIP3     2896     TIP3     H1       HT       0.417000       1.00800           0
     31070 TIP3     2896     TIP3     H2       HT       0.417000       1.00800           0
     31071 TIP3     2897     TIP3     OH2      OT      -0.834000       15.9994           0
     31072 TIP3     2897     TIP3     H1       HT       0.417000       1.00800           0
     31073 TIP3     2897     TIP3     H2       HT       0.417000       1.00800           0
     31074 TIP3     2898     TIP3     OH2      OT      -0.834000       15.9994           0
     31075 TIP3     2898     TIP3     H1       HT       0.417000       1.00800           0
     31076 TIP3     2898     TIP3     H2       HT       0.417000       1.00800           0
     31077 TIP3     2899     TIP3     OH2      OT      -0.834000       15.9994           0
     31078 TIP3     2899     TIP3     H1       HT       0.417000       1.00800           0
     31079 TIP3     2899     TIP3     H2       HT       0.417000       1.00800           0
     31080 TIP3     2900     TIP3     OH2      OT      -0.834000       15.9994           0
     31081 TIP3     2900     TIP3     H1       HT       0.417000       1.00800           0
     31082 TIP3     2900     TIP3     H2       HT       0.417000       1.00800           0
     31083 TIP3     2901     TIP3     OH2      OT      -0.834000       15.9994           0
     31084 TIP3     2901     TIP3     H1       HT       0.417000       1.00800           0
     31085 TIP3     2901     TIP3     H2       HT       0.417000       1.00800           0
     31086 TIP3     2902     TIP3     OH2      OT      -0.834000       15.9994           0
     31087 TIP3     2902     TIP3     H1       HT       0.417000       1.00800           0
     31088 TIP3     2902     TIP3     H2       HT       0.417000       1.00800           0
     31089 TIP3     2903     TIP3     OH2      OT      -0.834000       15.9994           0
     31090 TIP3     2903     TIP3     H1       HT       0.417000       1.00800           0
     31091 TIP3     2903     TIP3     H2       HT       0.417000       1.00800           0
     31092 TIP3     2904     TIP3     OH2      OT      -0.834000       15.9994           0
     31093 TIP3     2904     TIP3     H1       HT       0.417000       1.00800           0
     31094 TIP3     2904     TIP3     H2       HT       0.417000       1.00800           0
     31095 TIP3     2905     TIP3     OH2      OT      -0.834000       15.9994           0
     31096 TIP3     2905     TIP3     H1       HT       0.417000       1.00800           0
     31097 TIP3     2905     TIP3     H2       HT       0.417000       1.00800           0
     31098 TIP3     2906     TIP3     OH2      OT      -0.834000       15.9994           0
     31099 TIP3     2906     TIP3     H1       HT       0.417000       1.00800           0
     31100 TIP3     2906     TIP3     H2       HT       0.417000       1.00800           0
     31101 TIP3     2907     TIP3     OH2      OT      -0.834000       15.9994           0
     31102 TIP3     2907     TIP3     H1       HT       0.417000       1.00800           0
     31103 TIP3     2907     TIP3     H2       HT       0.417000       1.00800           0
     31104 TIP3     2908     TIP3     OH2      OT      -0.834000       15.9994           0
     31105 TIP3     2908     TIP3     H1       HT       0.417000       1.00800           0
     31106 TIP3     2908     TIP3     H2       HT       0.417000       1.00800           0
     31107 TIP3     2909     TIP3     OH2      OT      -0.834000       15.9994           0
     31108 TIP3     2909     TIP3     H1       HT       0.417000       1.00800           0
     31109 TIP3     2909     TIP3     H2       HT       0.417000       1.00800           0
     31110 TIP3     2910     TIP3     OH2      OT      -0.834000       15.9994           0
     31111 TIP3     2910     TIP3     H1       HT       0.417000       1.00800           0
     31112 TIP3     2910     TIP3     H2       HT       0.417000       1.00800           0
     31113 TIP3     2911     TIP3     OH2      OT      -0.834000       15.9994           0
     31114 TIP3     2911     TIP3     H1       HT       0.417000       1.00800           0
     31115 TIP3     2911     TIP3     H2       HT       0.417000       1.00800           0
     31116 TIP3     2912     TIP3     OH2      OT      -0.834000       15.9994           0
     31117 TIP3     2912     TIP3     H1       HT       0.417000       1.00800           0
     31118 TIP3     2912     TIP3     H2       HT       0.417000       1.00800           0
     31119 TIP3     2913     TIP3     OH2      OT      -0.834000       15.9994           0
     31120 TIP3     2913     TIP3     H1       HT       0.417000       1.00800           0
     31121 TIP3     2913     TIP3     H2       HT       0.417000       1.00800           0
     31122 TIP3     2914     TIP3     OH2      OT      -0.834000       15.9994           0
     31123 TIP3     2914     TIP3     H1       HT       0.417000       1.00800           0
     31124 TIP3     2914     TIP3     H2       HT       0.417000       1.00800           0
     31125 TIP3     2915     TIP3     OH2      OT      -0.834000       15.9994           0
     31126 TIP3     2915     TIP3     H1       HT       0.417000       1.00800           0
     31127 TIP3     2915     TIP3     H2       HT       0.417000       1.00800           0
     31128 TIP3     2916     TIP3     OH2      OT      -0.834000       15.9994           0
     31129 TIP3     2916     TIP3     H1       HT       0.417000       1.00800           0
     31130 TIP3     2916     TIP3     H2       HT       0.417000       1.00800           0
     31131 TIP3     2917     TIP3     OH2      OT      -0.834000       15.9994           0
     31132 TIP3     2917     TIP3     H1       HT       0.417000       1.00800           0
     31133 TIP3     2917     TIP3     H2       HT       0.417000       1.00800           0
     31134 TIP3     2918     TIP3     OH2      OT      -0.834000       15.9994           0
     31135 TIP3     2918     TIP3     H1       HT       0.417000       1.00800           0
     31136 TIP3     2918     TIP3     H2       HT       0.417000       1.00800           0
     31137 TIP3     2919     TIP3     OH2      OT      -0.834000       15.9994           0
     31138 TIP3     2919     TIP3     H1       HT       0.417000       1.00800           0
     31139 TIP3     2919     TIP3     H2       HT       0.417000       1.00800           0
     31140 TIP3     2920     TIP3     OH2      OT      -0.834000       15.9994           0
     31141 TIP3     2920     TIP3     H1       HT       0.417000       1.00800           0
     31142 TIP3     2920     TIP3     H2       HT       0.417000       1.00800           0
     31143 TIP3     2921     TIP3     OH2      OT      -0.834000       15.9994           0
     31144 TIP3     2921     TIP3     H1       HT       0.417000       1.00800           0
     31145 TIP3     2921     TIP3     H2       HT       0.417000       1.00800           0
     31146 TIP3     2922     TIP3     OH2      OT      -0.834000       15.9994           0
     31147 TIP3     2922     TIP3     H1       HT       0.417000       1.00800           0
     31148 TIP3     2922     TIP3     H2       HT       0.417000       1.00800           0
     31149 TIP3     2923     TIP3     OH2      OT      -0.834000       15.9994           0
     31150 TIP3     2923     TIP3     H1       HT       0.417000       1.00800           0
     31151 TIP3     2923     TIP3     H2       HT       0.417000       1.00800           0
     31152 TIP3     2924     TIP3     OH2      OT      -0.834000       15.9994           0
     31153 TIP3     2924     TIP3     H1       HT       0.417000       1.00800           0
     31154 TIP3     2924     TIP3     H2       HT       0.417000       1.00800           0
     31155 TIP3     2925     TIP3     OH2      OT      -0.834000       15.9994           0
     31156 TIP3     2925     TIP3     H1       HT       0.417000       1.00800           0
     31157 TIP3     2925     TIP3     H2       HT       0.417000       1.00800           0
     31158 TIP3     2926     TIP3     OH2      OT      -0.834000       15.9994           0
     31159 TIP3     2926     TIP3     H1       HT       0.417000       1.00800           0
     31160 TIP3     2926     TIP3     H2       HT       0.417000       1.00800           0
     31161 TIP3     2927     TIP3     OH2      OT      -0.834000       15.9994           0
     31162 TIP3     2927     TIP3     H1       HT       0.417000       1.00800           0
     31163 TIP3     2927     TIP3     H2       HT       0.417000       1.00800           0
     31164 TIP3     2928     TIP3     OH2      OT      -0.834000       15.9994           0
     31165 TIP3     2928     TIP3     H1       HT       0.417000       1.00800           0
     31166 TIP3     2928     TIP3     H2       HT       0.417000       1.00800           0
     31167 TIP3     2929     TIP3     OH2      OT      -0.834000       15.9994           0
     31168 TIP3     2929     TIP3     H1       HT       0.417000       1.00800           0
     31169 TIP3     2929     TIP3     H2       HT       0.417000       1.00800           0
     31170 TIP3     2930     TIP3     OH2      OT      -0.834000       15.9994           0
     31171 TIP3     2930     TIP3     H1       HT       0.417000       1.00800           0
     31172 TIP3     2930     TIP3     H2       HT       0.417000       1.00800           0
     31173 TIP3     2931     TIP3     OH2      OT      -0.834000       15.9994           0
     31174 TIP3     2931     TIP3     H1       HT       0.417000       1.00800           0
     31175 TIP3     2931     TIP3     H2       HT       0.417000       1.00800           0
     31176 TIP3     2932     TIP3     OH2      OT      -0.834000       15.9994           0
     31177 TIP3     2932     TIP3     H1       HT       0.417000       1.00800           0
     31178 TIP3     2932     TIP3     H2       HT       0.417000       1.00800           0
     31179 TIP3     2933     TIP3     OH2      OT      -0.834000       15.9994           0
     31180 TIP3     2933     TIP3     H1       HT       0.417000       1.00800           0
     31181 TIP3     2933     TIP3     H2       HT       0.417000       1.00800           0
     31182 TIP3     2934     TIP3     OH2      OT      -0.834000       15.9994           0
     31183 TIP3     2934     TIP3     H1       HT       0.417000       1.00800           0
     31184 TIP3     2934     TIP3     H2       HT       0.417000       1.00800           0
     31185 TIP3     2935     TIP3     OH2      OT      -0.834000       15.9994           0
     31186 TIP3     2935     TIP3     H1       HT       0.417000       1.00800           0
     31187 TIP3     2935     TIP3     H2       HT       0.417000       1.00800           0
     31188 TIP3     2936     TIP3     OH2      OT      -0.834000       15.9994           0
     31189 TIP3     2936     TIP3     H1       HT       0.417000       1.00800           0
     31190 TIP3     2936     TIP3     H2       HT       0.417000       1.00800           0
     31191 TIP3     2937     TIP3     OH2      OT      -0.834000       15.9994           0
     31192 TIP3     2937     TIP3     H1       HT       0.417000       1.00800           0
     31193 TIP3     2937     TIP3     H2       HT       0.417000       1.00800           0
     31194 TIP3     2938     TIP3     OH2      OT      -0.834000       15.9994           0
     31195 TIP3     2938     TIP3     H1       HT       0.417000       1.00800           0
     31196 TIP3     2938     TIP3     H2       HT       0.417000       1.00800           0
     31197 TIP3     2939     TIP3     OH2      OT      -0.834000       15.9994           0
     31198 TIP3     2939     TIP3     H1       HT       0.417000       1.00800           0
     31199 TIP3     2939     TIP3     H2       HT       0.417000       1.00800           0
     31200 TIP3     2940     TIP3     OH2      OT      -0.834000       15.9994           0
     31201 TIP3     2940     TIP3     H1       HT       0.417000       1.00800           0
     31202 TIP3     2940     TIP3     H2       HT       0.417000       1.00800           0
     31203 TIP3     2941     TIP3     OH2      OT      -0.834000       15.9994           0
     31204 TIP3     2941     TIP3     H1       HT       0.417000       1.00800           0
     31205 TIP3     2941     TIP3     H2       HT       0.417000       1.00800           0
     31206 TIP3     2942     TIP3     OH2      OT      -0.834000       15.9994           0
     31207 TIP3     2942     TIP3     H1       HT       0.417000       1.00800           0
     31208 TIP3     2942     TIP3     H2       HT       0.417000       1.00800           0
     31209 TIP3     2943     TIP3     OH2      OT      -0.834000       15.9994           0
     31210 TIP3     2943     TIP3     H1       HT       0.417000       1.00800           0
     31211 TIP3     2943     TIP3     H2       HT       0.417000       1.00800           0
     31212 TIP3     2944     TIP3     OH2      OT      -0.834000       15.9994           0
     31213 TIP3     2944     TIP3     H1       HT       0.417000       1.00800           0
     31214 TIP3     2944     TIP3     H2       HT       0.417000       1.00800           0
     31215 TIP3     2945     TIP3     OH2      OT      -0.834000       15.9994           0
     31216 TIP3     2945     TIP3     H1       HT       0.417000       1.00800           0
     31217 TIP3     2945     TIP3     H2       HT       0.417000       1.00800           0
     31218 TIP3     2946     TIP3     OH2      OT      -0.834000       15.9994           0
     31219 TIP3     2946     TIP3     H1       HT       0.417000       1.00800           0
     31220 TIP3     2946     TIP3     H2       HT       0.417000       1.00800           0
     31221 TIP3     2947     TIP3     OH2      OT      -0.834000       15.9994           0
     31222 TIP3     2947     TIP3     H1       HT       0.417000       1.00800           0
     31223 TIP3     2947     TIP3     H2       HT       0.417000       1.00800           0
     31224 TIP3     2948     TIP3     OH2      OT      -0.834000       15.9994           0
     31225 TIP3     2948     TIP3     H1       HT       0.417000       1.00800           0
     31226 TIP3     2948     TIP3     H2       HT       0.417000       1.00800           0
     31227 TIP3     2949     TIP3     OH2      OT      -0.834000       15.9994           0
     31228 TIP3     2949     TIP3     H1       HT       0.417000       1.00800           0
     31229 TIP3     2949     TIP3     H2       HT       0.417000       1.00800           0
     31230 TIP3     2950     TIP3     OH2      OT      -0.834000       15.9994           0
     31231 TIP3     2950     TIP3     H1       HT       0.417000       1.00800           0
     31232 TIP3     2950     TIP3     H2       HT       0.417000       1.00800           0
     31233 TIP3     2951     TIP3     OH2      OT      -0.834000       15.9994           0
     31234 TIP3     2951     TIP3     H1       HT       0.417000       1.00800           0
     31235 TIP3     2951     TIP3     H2       HT       0.417000       1.00800           0
     31236 TIP3     2952     TIP3     OH2      OT      -0.834000       15.9994           0
     31237 TIP3     2952     TIP3     H1       HT       0.417000       1.00800           0
     31238 TIP3     2952     TIP3     H2       HT       0.417000       1.00800           0
     31239 TIP3     2953     TIP3     OH2      OT      -0.834000       15.9994           0
     31240 TIP3     2953     TIP3     H1       HT       0.417000       1.00800           0
     31241 TIP3     2953     TIP3     H2       HT       0.417000       1.00800           0
     31242 TIP3     2954     TIP3     OH2      OT      -0.834000       15.9994           0
     31243 TIP3     2954     TIP3     H1       HT       0.417000       1.00800           0
     31244 TIP3     2954     TIP3     H2       HT       0.417000       1.00800           0
     31245 TIP3     2955     TIP3     OH2      OT      -0.834000       15.9994           0
     31246 TIP3     2955     TIP3     H1       HT       0.417000       1.00800           0
     31247 TIP3     2955     TIP3     H2       HT       0.417000       1.00800           0
     31248 TIP3     2956     TIP3     OH2      OT      -0.834000       15.9994           0
     31249 TIP3     2956     TIP3     H1       HT       0.417000       1.00800           0
     31250 TIP3     2956     TIP3     H2       HT       0.417000       1.00800           0
     31251 TIP3     2957     TIP3     OH2      OT      -0.834000       15.9994           0
     31252 TIP3     2957     TIP3     H1       HT       0.417000       1.00800           0
     31253 TIP3     2957     TIP3     H2       HT       0.417000       1.00800           0
     31254 TIP3     2958     TIP3     OH2      OT      -0.834000       15.9994           0
     31255 TIP3     2958     TIP3     H1       HT       0.417000       1.00800           0
     31256 TIP3     2958     TIP3     H2       HT       0.417000       1.00800           0
     31257 TIP3     2959     TIP3     OH2      OT      -0.834000       15.9994           0
     31258 TIP3     2959     TIP3     H1       HT       0.417000       1.00800           0
     31259 TIP3     2959     TIP3     H2       HT       0.417000       1.00800           0
     31260 TIP3     2960     TIP3     OH2      OT      -0.834000       15.9994           0
     31261 TIP3     2960     TIP3     H1       HT       0.417000       1.00800           0
     31262 TIP3     2960     TIP3     H2       HT       0.417000       1.00800           0
     31263 TIP3     2961     TIP3     OH2      OT      -0.834000       15.9994           0
     31264 TIP3     2961     TIP3     H1       HT       0.417000       1.00800           0
     31265 TIP3     2961     TIP3     H2       HT       0.417000       1.00800           0
     31266 TIP3     2962     TIP3     OH2      OT      -0.834000       15.9994           0
     31267 TIP3     2962     TIP3     H1       HT       0.417000       1.00800           0
     31268 TIP3     2962     TIP3     H2       HT       0.417000       1.00800           0
     31269 TIP3     2963     TIP3     OH2      OT      -0.834000       15.9994           0
     31270 TIP3     2963     TIP3     H1       HT       0.417000       1.00800           0
     31271 TIP3     2963     TIP3     H2       HT       0.417000       1.00800           0
     31272 TIP3     2964     TIP3     OH2      OT      -0.834000       15.9994           0
     31273 TIP3     2964     TIP3     H1       HT       0.417000       1.00800           0
     31274 TIP3     2964     TIP3     H2       HT       0.417000       1.00800           0
     31275 TIP3     2965     TIP3     OH2      OT      -0.834000       15.9994           0
     31276 TIP3     2965     TIP3     H1       HT       0.417000       1.00800           0
     31277 TIP3     2965     TIP3     H2       HT       0.417000       1.00800           0
     31278 TIP3     2966     TIP3     OH2      OT      -0.834000       15.9994           0
     31279 TIP3     2966     TIP3     H1       HT       0.417000       1.00800           0
     31280 TIP3     2966     TIP3     H2       HT       0.417000       1.00800           0
     31281 TIP3     2967     TIP3     OH2      OT      -0.834000       15.9994           0
     31282 TIP3     2967     TIP3     H1       HT       0.417000       1.00800           0
     31283 TIP3     2967     TIP3     H2       HT       0.417000       1.00800           0
     31284 TIP3     2968     TIP3     OH2      OT      -0.834000       15.9994           0
     31285 TIP3     2968     TIP3     H1       HT       0.417000       1.00800           0
     31286 TIP3     2968     TIP3     H2       HT       0.417000       1.00800           0
     31287 TIP3     2969     TIP3     OH2      OT      -0.834000       15.9994           0
     31288 TIP3     2969     TIP3     H1       HT       0.417000       1.00800           0
     31289 TIP3     2969     TIP3     H2       HT       0.417000       1.00800           0
     31290 TIP3     2970     TIP3     OH2      OT      -0.834000       15.9994           0
     31291 TIP3     2970     TIP3     H1       HT       0.417000       1.00800           0
     31292 TIP3     2970     TIP3     H2       HT       0.417000       1.00800           0
     31293 TIP3     2971     TIP3     OH2      OT      -0.834000       15.9994           0
     31294 TIP3     2971     TIP3     H1       HT       0.417000       1.00800           0
     31295 TIP3     2971     TIP3     H2       HT       0.417000       1.00800           0
     31296 TIP3     2972     TIP3     OH2      OT      -0.834000       15.9994           0
     31297 TIP3     2972     TIP3     H1       HT       0.417000       1.00800           0
     31298 TIP3     2972     TIP3     H2       HT       0.417000       1.00800           0
     31299 TIP3     2973     TIP3     OH2      OT      -0.834000       15.9994           0
     31300 TIP3     2973     TIP3     H1       HT       0.417000       1.00800           0
     31301 TIP3     2973     TIP3     H2       HT       0.417000       1.00800           0
     31302 TIP3     2974     TIP3     OH2      OT      -0.834000       15.9994           0
     31303 TIP3     2974     TIP3     H1       HT       0.417000       1.00800           0
     31304 TIP3     2974     TIP3     H2       HT       0.417000       1.00800           0
     31305 TIP3     2975     TIP3     OH2      OT      -0.834000       15.9994           0
     31306 TIP3     2975     TIP3     H1       HT       0.417000       1.00800           0
     31307 TIP3     2975     TIP3     H2       HT       0.417000       1.00800           0
     31308 TIP3     2976     TIP3     OH2      OT      -0.834000       15.9994           0
     31309 TIP3     2976     TIP3     H1       HT       0.417000       1.00800           0
     31310 TIP3     2976     TIP3     H2       HT       0.417000       1.00800           0
     31311 TIP3     2977     TIP3     OH2      OT      -0.834000       15.9994           0
     31312 TIP3     2977     TIP3     H1       HT       0.417000       1.00800           0
     31313 TIP3     2977     TIP3     H2       HT       0.417000       1.00800           0
     31314 TIP3     2978     TIP3     OH2      OT      -0.834000       15.9994           0
     31315 TIP3     2978     TIP3     H1       HT       0.417000       1.00800           0
     31316 TIP3     2978     TIP3     H2       HT       0.417000       1.00800           0
     31317 TIP3     2979     TIP3     OH2      OT      -0.834000       15.9994           0
     31318 TIP3     2979     TIP3     H1       HT       0.417000       1.00800           0
     31319 TIP3     2979     TIP3     H2       HT       0.417000       1.00800           0
     31320 TIP3     2980     TIP3     OH2      OT      -0.834000       15.9994           0
     31321 TIP3     2980     TIP3     H1       HT       0.417000       1.00800           0
     31322 TIP3     2980     TIP3     H2       HT       0.417000       1.00800           0
     31323 TIP3     2981     TIP3     OH2      OT      -0.834000       15.9994           0
     31324 TIP3     2981     TIP3     H1       HT       0.417000       1.00800           0
     31325 TIP3     2981     TIP3     H2       HT       0.417000       1.00800           0
     31326 TIP3     2982     TIP3     OH2      OT      -0.834000       15.9994           0
     31327 TIP3     2982     TIP3     H1       HT       0.417000       1.00800           0
     31328 TIP3     2982     TIP3     H2       HT       0.417000       1.00800           0
     31329 TIP3     2983     TIP3     OH2      OT      -0.834000       15.9994           0
     31330 TIP3     2983     TIP3     H1       HT       0.417000       1.00800           0
     31331 TIP3     2983     TIP3     H2       HT       0.417000       1.00800           0
     31332 TIP3     2984     TIP3     OH2      OT      -0.834000       15.9994           0
     31333 TIP3     2984     TIP3     H1       HT       0.417000       1.00800           0
     31334 TIP3     2984     TIP3     H2       HT       0.417000       1.00800           0
     31335 TIP3     2985     TIP3     OH2      OT      -0.834000       15.9994           0
     31336 TIP3     2985     TIP3     H1       HT       0.417000       1.00800           0
     31337 TIP3     2985     TIP3     H2       HT       0.417000       1.00800           0
     31338 TIP3     2986     TIP3     OH2      OT      -0.834000       15.9994           0
     31339 TIP3     2986     TIP3     H1       HT       0.417000       1.00800           0
     31340 TIP3     2986     TIP3     H2       HT       0.417000       1.00800           0
     31341 TIP3     2987     TIP3     OH2      OT      -0.834000       15.9994           0
     31342 TIP3     2987     TIP3     H1       HT       0.417000       1.00800           0
     31343 TIP3     2987     TIP3     H2       HT       0.417000       1.00800           0
     31344 TIP3     2988     TIP3     OH2      OT      -0.834000       15.9994           0
     31345 TIP3     2988     TIP3     H1       HT       0.417000       1.00800           0
     31346 TIP3     2988     TIP3     H2       HT       0.417000       1.00800           0
     31347 TIP3     2989     TIP3     OH2      OT      -0.834000       15.9994           0
     31348 TIP3     2989     TIP3     H1       HT       0.417000       1.00800           0
     31349 TIP3     2989     TIP3     H2       HT       0.417000       1.00800           0
     31350 TIP3     2990     TIP3     OH2      OT      -0.834000       15.9994           0
     31351 TIP3     2990     TIP3     H1       HT       0.417000       1.00800           0
     31352 TIP3     2990     TIP3     H2       HT       0.417000       1.00800           0
     31353 TIP3     2991     TIP3     OH2      OT      -0.834000       15.9994           0
     31354 TIP3     2991     TIP3     H1       HT       0.417000       1.00800           0
     31355 TIP3     2991     TIP3     H2       HT       0.417000       1.00800           0
     31356 TIP3     2992     TIP3     OH2      OT      -0.834000       15.9994           0
     31357 TIP3     2992     TIP3     H1       HT       0.417000       1.00800           0
     31358 TIP3     2992     TIP3     H2       HT       0.417000       1.00800           0
     31359 TIP3     2993     TIP3     OH2      OT      -0.834000       15.9994           0
     31360 TIP3     2993     TIP3     H1       HT       0.417000       1.00800           0
     31361 TIP3     2993     TIP3     H2       HT       0.417000       1.00800           0
     31362 TIP3     2994     TIP3     OH2      OT      -0.834000       15.9994           0
     31363 TIP3     2994     TIP3     H1       HT       0.417000       1.00800           0
     31364 TIP3     2994     TIP3     H2       HT       0.417000       1.00800           0
     31365 TIP3     2995     TIP3     OH2      OT      -0.834000       15.9994           0
     31366 TIP3     2995     TIP3     H1       HT       0.417000       1.00800           0
     31367 TIP3     2995     TIP3     H2       HT       0.417000       1.00800           0
     31368 TIP3     2996     TIP3     OH2      OT      -0.834000       15.9994           0
     31369 TIP3     2996     TIP3     H1       HT       0.417000       1.00800           0
     31370 TIP3     2996     TIP3     H2       HT       0.417000       1.00800           0
     31371 TIP3     2997     TIP3     OH2      OT      -0.834000       15.9994           0
     31372 TIP3     2997     TIP3     H1       HT       0.417000       1.00800           0
     31373 TIP3     2997     TIP3     H2       HT       0.417000       1.00800           0
     31374 TIP3     2998     TIP3     OH2      OT      -0.834000       15.9994           0
     31375 TIP3     2998     TIP3     H1       HT       0.417000       1.00800           0
     31376 TIP3     2998     TIP3     H2       HT       0.417000       1.00800           0
     31377 TIP3     2999     TIP3     OH2      OT      -0.834000       15.9994           0
     31378 TIP3     2999     TIP3     H1       HT       0.417000       1.00800           0
     31379 TIP3     2999     TIP3     H2       HT       0.417000       1.00800           0
     31380 TIP3     3000     TIP3     OH2      OT      -0.834000       15.9994           0
     31381 TIP3     3000     TIP3     H1       HT       0.417000       1.00800           0
     31382 TIP3     3000     TIP3     H2       HT       0.417000       1.00800           0
     31383 TIP3     3001     TIP3     OH2      OT      -0.834000       15.9994           0
     31384 TIP3     3001     TIP3     H1       HT       0.417000       1.00800           0
     31385 TIP3     3001     TIP3     H2       HT       0.417000       1.00800           0
     31386 TIP3     3002     TIP3     OH2      OT      -0.834000       15.9994           0
     31387 TIP3     3002     TIP3     H1       HT       0.417000       1.00800           0
     31388 TIP3     3002     TIP3     H2       HT       0.417000       1.00800           0
     31389 TIP3     3003     TIP3     OH2      OT      -0.834000       15.9994           0
     31390 TIP3     3003     TIP3     H1       HT       0.417000       1.00800           0
     31391 TIP3     3003     TIP3     H2       HT       0.417000       1.00800           0
     31392 TIP3     3004     TIP3     OH2      OT      -0.834000       15.9994           0
     31393 TIP3     3004     TIP3     H1       HT       0.417000       1.00800           0
     31394 TIP3     3004     TIP3     H2       HT       0.417000       1.00800           0
     31395 TIP3     3005     TIP3     OH2      OT      -0.834000       15.9994           0
     31396 TIP3     3005     TIP3     H1       HT       0.417000       1.00800           0
     31397 TIP3     3005     TIP3     H2       HT       0.417000       1.00800           0
     31398 TIP3     3006     TIP3     OH2      OT      -0.834000       15.9994           0
     31399 TIP3     3006     TIP3     H1       HT       0.417000       1.00800           0
     31400 TIP3     3006     TIP3     H2       HT       0.417000       1.00800           0
     31401 TIP3     3007     TIP3     OH2      OT      -0.834000       15.9994           0
     31402 TIP3     3007     TIP3     H1       HT       0.417000       1.00800           0
     31403 TIP3     3007     TIP3     H2       HT       0.417000       1.00800           0
     31404 TIP3     3008     TIP3     OH2      OT      -0.834000       15.9994           0
     31405 TIP3     3008     TIP3     H1       HT       0.417000       1.00800           0
     31406 TIP3     3008     TIP3     H2       HT       0.417000       1.00800           0
     31407 TIP3     3009     TIP3     OH2      OT      -0.834000       15.9994           0
     31408 TIP3     3009     TIP3     H1       HT       0.417000       1.00800           0
     31409 TIP3     3009     TIP3     H2       HT       0.417000       1.00800           0
     31410 TIP3     3010     TIP3     OH2      OT      -0.834000       15.9994           0
     31411 TIP3     3010     TIP3     H1       HT       0.417000       1.00800           0
     31412 TIP3     3010     TIP3     H2       HT       0.417000       1.00800           0
     31413 TIP3     3011     TIP3     OH2      OT      -0.834000       15.9994           0
     31414 TIP3     3011     TIP3     H1       HT       0.417000       1.00800           0
     31415 TIP3     3011     TIP3     H2       HT       0.417000       1.00800           0
     31416 TIP3     3012     TIP3     OH2      OT      -0.834000       15.9994           0
     31417 TIP3     3012     TIP3     H1       HT       0.417000       1.00800           0
     31418 TIP3     3012     TIP3     H2       HT       0.417000       1.00800           0
     31419 TIP3     3013     TIP3     OH2      OT      -0.834000       15.9994           0
     31420 TIP3     3013     TIP3     H1       HT       0.417000       1.00800           0
     31421 TIP3     3013     TIP3     H2       HT       0.417000       1.00800           0
     31422 TIP3     3014     TIP3     OH2      OT      -0.834000       15.9994           0
     31423 TIP3     3014     TIP3     H1       HT       0.417000       1.00800           0
     31424 TIP3     3014     TIP3     H2       HT       0.417000       1.00800           0
     31425 TIP3     3015     TIP3     OH2      OT      -0.834000       15.9994           0
     31426 TIP3     3015     TIP3     H1       HT       0.417000       1.00800           0
     31427 TIP3     3015     TIP3     H2       HT       0.417000       1.00800           0
     31428 TIP3     3016     TIP3     OH2      OT      -0.834000       15.9994           0
     31429 TIP3     3016     TIP3     H1       HT       0.417000       1.00800           0
     31430 TIP3     3016     TIP3     H2       HT       0.417000       1.00800           0
     31431 TIP3     3017     TIP3     OH2      OT      -0.834000       15.9994           0
     31432 TIP3     3017     TIP3     H1       HT       0.417000       1.00800           0
     31433 TIP3     3017     TIP3     H2       HT       0.417000       1.00800           0
     31434 TIP3     3018     TIP3     OH2      OT      -0.834000       15.9994           0
     31435 TIP3     3018     TIP3     H1       HT       0.417000       1.00800           0
     31436 TIP3     3018     TIP3     H2       HT       0.417000       1.00800           0
     31437 TIP3     3019     TIP3     OH2      OT      -0.834000       15.9994           0
     31438 TIP3     3019     TIP3     H1       HT       0.417000       1.00800           0
     31439 TIP3     3019     TIP3     H2       HT       0.417000       1.00800           0
     31440 TIP3     3020     TIP3     OH2      OT      -0.834000       15.9994           0
     31441 TIP3     3020     TIP3     H1       HT       0.417000       1.00800           0
     31442 TIP3     3020     TIP3     H2       HT       0.417000       1.00800           0
     31443 TIP3     3021     TIP3     OH2      OT      -0.834000       15.9994           0
     31444 TIP3     3021     TIP3     H1       HT       0.417000       1.00800           0
     31445 TIP3     3021     TIP3     H2       HT       0.417000       1.00800           0
     31446 TIP3     3022     TIP3     OH2      OT      -0.834000       15.9994           0
     31447 TIP3     3022     TIP3     H1       HT       0.417000       1.00800           0
     31448 TIP3     3022     TIP3     H2       HT       0.417000       1.00800           0
     31449 TIP3     3023     TIP3     OH2      OT      -0.834000       15.9994           0
     31450 TIP3     3023     TIP3     H1       HT       0.417000       1.00800           0
     31451 TIP3     3023     TIP3     H2       HT       0.417000       1.00800           0
     31452 TIP3     3024     TIP3     OH2      OT      -0.834000       15.9994           0
     31453 TIP3     3024     TIP3     H1       HT       0.417000       1.00800           0
     31454 TIP3     3024     TIP3     H2       HT       0.417000       1.00800           0
     31455 TIP3     3025     TIP3     OH2      OT      -0.834000       15.9994           0
     31456 TIP3     3025     TIP3     H1       HT       0.417000       1.00800           0
     31457 TIP3     3025     TIP3     H2       HT       0.417000       1.00800           0
     31458 TIP3     3026     TIP3     OH2      OT      -0.834000       15.9994           0
     31459 TIP3     3026     TIP3     H1       HT       0.417000       1.00800           0
     31460 TIP3     3026     TIP3     H2       HT       0.417000       1.00800           0
     31461 TIP3     3027     TIP3     OH2      OT      -0.834000       15.9994           0
     31462 TIP3     3027     TIP3     H1       HT       0.417000       1.00800           0
     31463 TIP3     3027     TIP3     H2       HT       0.417000       1.00800           0
     31464 TIP3     3028     TIP3     OH2      OT      -0.834000       15.9994           0
     31465 TIP3     3028     TIP3     H1       HT       0.417000       1.00800           0
     31466 TIP3     3028     TIP3     H2       HT       0.417000       1.00800           0
     31467 TIP3     3029     TIP3     OH2      OT      -0.834000       15.9994           0
     31468 TIP3     3029     TIP3     H1       HT       0.417000       1.00800           0
     31469 TIP3     3029     TIP3     H2       HT       0.417000       1.00800           0
     31470 TIP3     3030     TIP3     OH2      OT      -0.834000       15.9994           0
     31471 TIP3     3030     TIP3     H1       HT       0.417000       1.00800           0
     31472 TIP3     3030     TIP3     H2       HT       0.417000       1.00800           0
     31473 TIP3     3031     TIP3     OH2      OT      -0.834000       15.9994           0
     31474 TIP3     3031     TIP3     H1       HT       0.417000       1.00800           0
     31475 TIP3     3031     TIP3     H2       HT       0.417000       1.00800           0
     31476 TIP3     3032     TIP3     OH2      OT      -0.834000       15.9994           0
     31477 TIP3     3032     TIP3     H1       HT       0.417000       1.00800           0
     31478 TIP3     3032     TIP3     H2       HT       0.417000       1.00800           0
     31479 TIP3     3033     TIP3     OH2      OT      -0.834000       15.9994           0
     31480 TIP3     3033     TIP3     H1       HT       0.417000       1.00800           0
     31481 TIP3     3033     TIP3     H2       HT       0.417000       1.00800           0
     31482 TIP3     3034     TIP3     OH2      OT      -0.834000       15.9994           0
     31483 TIP3     3034     TIP3     H1       HT       0.417000       1.00800           0
     31484 TIP3     3034     TIP3     H2       HT       0.417000       1.00800           0
     31485 TIP3     3035     TIP3     OH2      OT      -0.834000       15.9994           0
     31486 TIP3     3035     TIP3     H1       HT       0.417000       1.00800           0
     31487 TIP3     3035     TIP3     H2       HT       0.417000       1.00800           0
     31488 TIP3     3036     TIP3     OH2      OT      -0.834000       15.9994           0
     31489 TIP3     3036     TIP3     H1       HT       0.417000       1.00800           0
     31490 TIP3     3036     TIP3     H2       HT       0.417000       1.00800           0
     31491 TIP3     3037     TIP3     OH2      OT      -0.834000       15.9994           0
     31492 TIP3     3037     TIP3     H1       HT       0.417000       1.00800           0
     31493 TIP3     3037     TIP3     H2       HT       0.417000       1.00800           0
     31494 TIP3     3038     TIP3     OH2      OT      -0.834000       15.9994           0
     31495 TIP3     3038     TIP3     H1       HT       0.417000       1.00800           0
     31496 TIP3     3038     TIP3     H2       HT       0.417000       1.00800           0
     31497 TIP3     3039     TIP3     OH2      OT      -0.834000       15.9994           0
     31498 TIP3     3039     TIP3     H1       HT       0.417000       1.00800           0
     31499 TIP3     3039     TIP3     H2       HT       0.417000       1.00800           0
     31500 TIP3     3040     TIP3     OH2      OT      -0.834000       15.9994           0
     31501 TIP3     3040     TIP3     H1       HT       0.417000       1.00800           0
     31502 TIP3     3040     TIP3     H2       HT       0.417000       1.00800           0
     31503 TIP3     3041     TIP3     OH2      OT      -0.834000       15.9994           0
     31504 TIP3     3041     TIP3     H1       HT       0.417000       1.00800           0
     31505 TIP3     3041     TIP3     H2       HT       0.417000       1.00800           0
     31506 TIP3     3042     TIP3     OH2      OT      -0.834000       15.9994           0
     31507 TIP3     3042     TIP3     H1       HT       0.417000       1.00800           0
     31508 TIP3     3042     TIP3     H2       HT       0.417000       1.00800           0
     31509 TIP3     3043     TIP3     OH2      OT      -0.834000       15.9994           0
     31510 TIP3     3043     TIP3     H1       HT       0.417000       1.00800           0
     31511 TIP3     3043     TIP3     H2       HT       0.417000       1.00800           0
     31512 TIP3     3044     TIP3     OH2      OT      -0.834000       15.9994           0
     31513 TIP3     3044     TIP3     H1       HT       0.417000       1.00800           0
     31514 TIP3     3044     TIP3     H2       HT       0.417000       1.00800           0
     31515 TIP3     3045     TIP3     OH2      OT      -0.834000       15.9994           0
     31516 TIP3     3045     TIP3     H1       HT       0.417000       1.00800           0
     31517 TIP3     3045     TIP3     H2       HT       0.417000       1.00800           0
     31518 TIP3     3046     TIP3     OH2      OT      -0.834000       15.9994           0
     31519 TIP3     3046     TIP3     H1       HT       0.417000       1.00800           0
     31520 TIP3     3046     TIP3     H2       HT       0.417000       1.00800           0
     31521 TIP3     3047     TIP3     OH2      OT      -0.834000       15.9994           0
     31522 TIP3     3047     TIP3     H1       HT       0.417000       1.00800           0
     31523 TIP3     3047     TIP3     H2       HT       0.417000       1.00800           0
     31524 TIP3     3048     TIP3     OH2      OT      -0.834000       15.9994           0
     31525 TIP3     3048     TIP3     H1       HT       0.417000       1.00800           0
     31526 TIP3     3048     TIP3     H2       HT       0.417000       1.00800           0
     31527 TIP3     3049     TIP3     OH2      OT      -0.834000       15.9994           0
     31528 TIP3     3049     TIP3     H1       HT       0.417000       1.00800           0
     31529 TIP3     3049     TIP3     H2       HT       0.417000       1.00800           0
     31530 TIP3     3050     TIP3     OH2      OT      -0.834000       15.9994           0
     31531 TIP3     3050     TIP3     H1       HT       0.417000       1.00800           0
     31532 TIP3     3050     TIP3     H2       HT       0.417000       1.00800           0
     31533 TIP3     3051     TIP3     OH2      OT      -0.834000       15.9994           0
     31534 TIP3     3051     TIP3     H1       HT       0.417000       1.00800           0
     31535 TIP3     3051     TIP3     H2       HT       0.417000       1.00800           0
     31536 TIP3     3052     TIP3     OH2      OT      -0.834000       15.9994           0
     31537 TIP3     3052     TIP3     H1       HT       0.417000       1.00800           0
     31538 TIP3     3052     TIP3     H2       HT       0.417000       1.00800           0
     31539 TIP3     3053     TIP3     OH2      OT      -0.834000       15.9994           0
     31540 TIP3     3053     TIP3     H1       HT       0.417000       1.00800           0
     31541 TIP3     3053     TIP3     H2       HT       0.417000       1.00800           0
     31542 TIP3     3054     TIP3     OH2      OT      -0.834000       15.9994           0
     31543 TIP3     3054     TIP3     H1       HT       0.417000       1.00800           0
     31544 TIP3     3054     TIP3     H2       HT       0.417000       1.00800           0
     31545 TIP3     3055     TIP3     OH2      OT      -0.834000       15.9994           0
     31546 TIP3     3055     TIP3     H1       HT       0.417000       1.00800           0
     31547 TIP3     3055     TIP3     H2       HT       0.417000       1.00800           0
     31548 TIP3     3056     TIP3     OH2      OT      -0.834000       15.9994           0
     31549 TIP3     3056     TIP3     H1       HT       0.417000       1.00800           0
     31550 TIP3     3056     TIP3     H2       HT       0.417000       1.00800           0
     31551 TIP3     3057     TIP3     OH2      OT      -0.834000       15.9994           0
     31552 TIP3     3057     TIP3     H1       HT       0.417000       1.00800           0
     31553 TIP3     3057     TIP3     H2       HT       0.417000       1.00800           0
     31554 TIP3     3058     TIP3     OH2      OT      -0.834000       15.9994           0
     31555 TIP3     3058     TIP3     H1       HT       0.417000       1.00800           0
     31556 TIP3     3058     TIP3     H2       HT       0.417000       1.00800           0
     31557 TIP3     3059     TIP3     OH2      OT      -0.834000       15.9994           0
     31558 TIP3     3059     TIP3     H1       HT       0.417000       1.00800           0
     31559 TIP3     3059     TIP3     H2       HT       0.417000       1.00800           0
     31560 TIP3     3060     TIP3     OH2      OT      -0.834000       15.9994           0
     31561 TIP3     3060     TIP3     H1       HT       0.417000       1.00800           0
     31562 TIP3     3060     TIP3     H2       HT       0.417000       1.00800           0
     31563 TIP3     3061     TIP3     OH2      OT      -0.834000       15.9994           0
     31564 TIP3     3061     TIP3     H1       HT       0.417000       1.00800           0
     31565 TIP3     3061     TIP3     H2       HT       0.417000       1.00800           0
     31566 TIP3     3062     TIP3     OH2      OT      -0.834000       15.9994           0
     31567 TIP3     3062     TIP3     H1       HT       0.417000       1.00800           0
     31568 TIP3     3062     TIP3     H2       HT       0.417000       1.00800           0
     31569 TIP3     3063     TIP3     OH2      OT      -0.834000       15.9994           0
     31570 TIP3     3063     TIP3     H1       HT       0.417000       1.00800           0
     31571 TIP3     3063     TIP3     H2       HT       0.417000       1.00800           0
     31572 TIP3     3064     TIP3     OH2      OT      -0.834000       15.9994           0
     31573 TIP3     3064     TIP3     H1       HT       0.417000       1.00800           0
     31574 TIP3     3064     TIP3     H2       HT       0.417000       1.00800           0
     31575 TIP3     3065     TIP3     OH2      OT      -0.834000       15.9994           0
     31576 TIP3     3065     TIP3     H1       HT       0.417000       1.00800           0
     31577 TIP3     3065     TIP3     H2       HT       0.417000       1.00800           0
     31578 TIP3     3066     TIP3     OH2      OT      -0.834000       15.9994           0
     31579 TIP3     3066     TIP3     H1       HT       0.417000       1.00800           0
     31580 TIP3     3066     TIP3     H2       HT       0.417000       1.00800           0
     31581 TIP3     3067     TIP3     OH2      OT      -0.834000       15.9994           0
     31582 TIP3     3067     TIP3     H1       HT       0.417000       1.00800           0
     31583 TIP3     3067     TIP3     H2       HT       0.417000       1.00800           0
     31584 TIP3     3068     TIP3     OH2      OT      -0.834000       15.9994           0
     31585 TIP3     3068     TIP3     H1       HT       0.417000       1.00800           0
     31586 TIP3     3068     TIP3     H2       HT       0.417000       1.00800           0
     31587 TIP3     3069     TIP3     OH2      OT      -0.834000       15.9994           0
     31588 TIP3     3069     TIP3     H1       HT       0.417000       1.00800           0
     31589 TIP3     3069     TIP3     H2       HT       0.417000       1.00800           0
     31590 TIP3     3070     TIP3     OH2      OT      -0.834000       15.9994           0
     31591 TIP3     3070     TIP3     H1       HT       0.417000       1.00800           0
     31592 TIP3     3070     TIP3     H2       HT       0.417000       1.00800           0
     31593 TIP3     3071     TIP3     OH2      OT      -0.834000       15.9994           0
     31594 TIP3     3071     TIP3     H1       HT       0.417000       1.00800           0
     31595 TIP3     3071     TIP3     H2       HT       0.417000       1.00800           0
     31596 TIP3     3072     TIP3     OH2      OT      -0.834000       15.9994           0
     31597 TIP3     3072     TIP3     H1       HT       0.417000       1.00800           0
     31598 TIP3     3072     TIP3     H2       HT       0.417000       1.00800           0
     31599 TIP3     3073     TIP3     OH2      OT      -0.834000       15.9994           0
     31600 TIP3     3073     TIP3     H1       HT       0.417000       1.00800           0
     31601 TIP3     3073     TIP3     H2       HT       0.417000       1.00800           0
     31602 TIP3     3074     TIP3     OH2      OT      -0.834000       15.9994           0
     31603 TIP3     3074     TIP3     H1       HT       0.417000       1.00800           0
     31604 TIP3     3074     TIP3     H2       HT       0.417000       1.00800           0
     31605 TIP3     3075     TIP3     OH2      OT      -0.834000       15.9994           0
     31606 TIP3     3075     TIP3     H1       HT       0.417000       1.00800           0
     31607 TIP3     3075     TIP3     H2       HT       0.417000       1.00800           0
     31608 TIP3     3076     TIP3     OH2      OT      -0.834000       15.9994           0
     31609 TIP3     3076     TIP3     H1       HT       0.417000       1.00800           0
     31610 TIP3     3076     TIP3     H2       HT       0.417000       1.00800           0
     31611 TIP3     3077     TIP3     OH2      OT      -0.834000       15.9994           0
     31612 TIP3     3077     TIP3     H1       HT       0.417000       1.00800           0
     31613 TIP3     3077     TIP3     H2       HT       0.417000       1.00800           0
     31614 TIP3     3078     TIP3     OH2      OT      -0.834000       15.9994           0
     31615 TIP3     3078     TIP3     H1       HT       0.417000       1.00800           0
     31616 TIP3     3078     TIP3     H2       HT       0.417000       1.00800           0
     31617 TIP3     3079     TIP3     OH2      OT      -0.834000       15.9994           0
     31618 TIP3     3079     TIP3     H1       HT       0.417000       1.00800           0
     31619 TIP3     3079     TIP3     H2       HT       0.417000       1.00800           0
     31620 TIP3     3080     TIP3     OH2      OT      -0.834000       15.9994           0
     31621 TIP3     3080     TIP3     H1       HT       0.417000       1.00800           0
     31622 TIP3     3080     TIP3     H2       HT       0.417000       1.00800           0
     31623 TIP3     3081     TIP3     OH2      OT      -0.834000       15.9994           0
     31624 TIP3     3081     TIP3     H1       HT       0.417000       1.00800           0
     31625 TIP3     3081     TIP3     H2       HT       0.417000       1.00800           0
     31626 TIP3     3082     TIP3     OH2      OT      -0.834000       15.9994           0
     31627 TIP3     3082     TIP3     H1       HT       0.417000       1.00800           0
     31628 TIP3     3082     TIP3     H2       HT       0.417000       1.00800           0
     31629 TIP3     3083     TIP3     OH2      OT      -0.834000       15.9994           0
     31630 TIP3     3083     TIP3     H1       HT       0.417000       1.00800           0
     31631 TIP3     3083     TIP3     H2       HT       0.417000       1.00800           0
     31632 TIP3     3084     TIP3     OH2      OT      -0.834000       15.9994           0
     31633 TIP3     3084     TIP3     H1       HT       0.417000       1.00800           0
     31634 TIP3     3084     TIP3     H2       HT       0.417000       1.00800           0
     31635 TIP3     3085     TIP3     OH2      OT      -0.834000       15.9994           0
     31636 TIP3     3085     TIP3     H1       HT       0.417000       1.00800           0
     31637 TIP3     3085     TIP3     H2       HT       0.417000       1.00800           0
     31638 TIP3     3086     TIP3     OH2      OT      -0.834000       15.9994           0
     31639 TIP3     3086     TIP3     H1       HT       0.417000       1.00800           0
     31640 TIP3     3086     TIP3     H2       HT       0.417000       1.00800           0
     31641 TIP3     3087     TIP3     OH2      OT      -0.834000       15.9994           0
     31642 TIP3     3087     TIP3     H1       HT       0.417000       1.00800           0
     31643 TIP3     3087     TIP3     H2       HT       0.417000       1.00800           0
     31644 TIP3     3088     TIP3     OH2      OT      -0.834000       15.9994           0
     31645 TIP3     3088     TIP3     H1       HT       0.417000       1.00800           0
     31646 TIP3     3088     TIP3     H2       HT       0.417000       1.00800           0
     31647 TIP3     3089     TIP3     OH2      OT      -0.834000       15.9994           0
     31648 TIP3     3089     TIP3     H1       HT       0.417000       1.00800           0
     31649 TIP3     3089     TIP3     H2       HT       0.417000       1.00800           0
     31650 TIP3     3090     TIP3     OH2      OT      -0.834000       15.9994           0
     31651 TIP3     3090     TIP3     H1       HT       0.417000       1.00800           0
     31652 TIP3     3090     TIP3     H2       HT       0.417000       1.00800           0
     31653 TIP3     3091     TIP3     OH2      OT      -0.834000       15.9994           0
     31654 TIP3     3091     TIP3     H1       HT       0.417000       1.00800           0
     31655 TIP3     3091     TIP3     H2       HT       0.417000       1.00800           0
     31656 TIP3     3092     TIP3     OH2      OT      -0.834000       15.9994           0
     31657 TIP3     3092     TIP3     H1       HT       0.417000       1.00800           0
     31658 TIP3     3092     TIP3     H2       HT       0.417000       1.00800           0
     31659 TIP3     3093     TIP3     OH2      OT      -0.834000       15.9994           0
     31660 TIP3     3093     TIP3     H1       HT       0.417000       1.00800           0
     31661 TIP3     3093     TIP3     H2       HT       0.417000       1.00800           0
     31662 TIP3     3094     TIP3     OH2      OT      -0.834000       15.9994           0
     31663 TIP3     3094     TIP3     H1       HT       0.417000       1.00800           0
     31664 TIP3     3094     TIP3     H2       HT       0.417000       1.00800           0
     31665 TIP3     3095     TIP3     OH2      OT      -0.834000       15.9994           0
     31666 TIP3     3095     TIP3     H1       HT       0.417000       1.00800           0
     31667 TIP3     3095     TIP3     H2       HT       0.417000       1.00800           0
     31668 TIP3     3096     TIP3     OH2      OT      -0.834000       15.9994           0
     31669 TIP3     3096     TIP3     H1       HT       0.417000       1.00800           0
     31670 TIP3     3096     TIP3     H2       HT       0.417000       1.00800           0
     31671 TIP3     3097     TIP3     OH2      OT      -0.834000       15.9994           0
     31672 TIP3     3097     TIP3     H1       HT       0.417000       1.00800           0
     31673 TIP3     3097     TIP3     H2       HT       0.417000       1.00800           0
     31674 TIP3     3098     TIP3     OH2      OT      -0.834000       15.9994           0
     31675 TIP3     3098     TIP3     H1       HT       0.417000       1.00800           0
     31676 TIP3     3098     TIP3     H2       HT       0.417000       1.00800           0
     31677 TIP3     3099     TIP3     OH2      OT      -0.834000       15.9994           0
     31678 TIP3     3099     TIP3     H1       HT       0.417000       1.00800           0
     31679 TIP3     3099     TIP3     H2       HT       0.417000       1.00800           0
     31680 TIP3     3100     TIP3     OH2      OT      -0.834000       15.9994           0
     31681 TIP3     3100     TIP3     H1       HT       0.417000       1.00800           0
     31682 TIP3     3100     TIP3     H2       HT       0.417000       1.00800           0
     31683 TIP3     3101     TIP3     OH2      OT      -0.834000       15.9994           0
     31684 TIP3     3101     TIP3     H1       HT       0.417000       1.00800           0
     31685 TIP3     3101     TIP3     H2       HT       0.417000       1.00800           0
     31686 TIP3     3102     TIP3     OH2      OT      -0.834000       15.9994           0
     31687 TIP3     3102     TIP3     H1       HT       0.417000       1.00800           0
     31688 TIP3     3102     TIP3     H2       HT       0.417000       1.00800           0
     31689 TIP3     3103     TIP3     OH2      OT      -0.834000       15.9994           0
     31690 TIP3     3103     TIP3     H1       HT       0.417000       1.00800           0
     31691 TIP3     3103     TIP3     H2       HT       0.417000       1.00800           0
     31692 TIP3     3104     TIP3     OH2      OT      -0.834000       15.9994           0
     31693 TIP3     3104     TIP3     H1       HT       0.417000       1.00800           0
     31694 TIP3     3104     TIP3     H2       HT       0.417000       1.00800           0
     31695 TIP3     3105     TIP3     OH2      OT      -0.834000       15.9994           0
     31696 TIP3     3105     TIP3     H1       HT       0.417000       1.00800           0
     31697 TIP3     3105     TIP3     H2       HT       0.417000       1.00800           0
     31698 TIP3     3106     TIP3     OH2      OT      -0.834000       15.9994           0
     31699 TIP3     3106     TIP3     H1       HT       0.417000       1.00800           0
     31700 TIP3     3106     TIP3     H2       HT       0.417000       1.00800           0
     31701 TIP3     3107     TIP3     OH2      OT      -0.834000       15.9994           0
     31702 TIP3     3107     TIP3     H1       HT       0.417000       1.00800           0
     31703 TIP3     3107     TIP3     H2       HT       0.417000       1.00800           0
     31704 TIP3     3108     TIP3     OH2      OT      -0.834000       15.9994           0
     31705 TIP3     3108     TIP3     H1       HT       0.417000       1.00800           0
     31706 TIP3     3108     TIP3     H2       HT       0.417000       1.00800           0
     31707 TIP3     3109     TIP3     OH2      OT      -0.834000       15.9994           0
     31708 TIP3     3109     TIP3     H1       HT       0.417000       1.00800           0
     31709 TIP3     3109     TIP3     H2       HT       0.417000       1.00800           0
     31710 TIP3     3110     TIP3     OH2      OT      -0.834000       15.9994           0
     31711 TIP3     3110     TIP3     H1       HT       0.417000       1.00800           0
     31712 TIP3     3110     TIP3     H2       HT       0.417000       1.00800           0
     31713 TIP3     3111     TIP3     OH2      OT      -0.834000       15.9994           0
     31714 TIP3     3111     TIP3     H1       HT       0.417000       1.00800           0
     31715 TIP3     3111     TIP3     H2       HT       0.417000       1.00800           0
     31716 TIP3     3112     TIP3     OH2      OT      -0.834000       15.9994           0
     31717 TIP3     3112     TIP3     H1       HT       0.417000       1.00800           0
     31718 TIP3     3112     TIP3     H2       HT       0.417000       1.00800           0
     31719 TIP3     3113     TIP3     OH2      OT      -0.834000       15.9994           0
     31720 TIP3     3113     TIP3     H1       HT       0.417000       1.00800           0
     31721 TIP3     3113     TIP3     H2       HT       0.417000       1.00800           0
     31722 TIP3     3114     TIP3     OH2      OT      -0.834000       15.9994           0
     31723 TIP3     3114     TIP3     H1       HT       0.417000       1.00800           0
     31724 TIP3     3114     TIP3     H2       HT       0.417000       1.00800           0
     31725 TIP3     3115     TIP3     OH2      OT      -0.834000       15.9994           0
     31726 TIP3     3115     TIP3     H1       HT       0.417000       1.00800           0
     31727 TIP3     3115     TIP3     H2       HT       0.417000       1.00800           0
     31728 TIP3     3116     TIP3     OH2      OT      -0.834000       15.9994           0
     31729 TIP3     3116     TIP3     H1       HT       0.417000       1.00800           0
     31730 TIP3     3116     TIP3     H2       HT       0.417000       1.00800           0
     31731 TIP3     3117     TIP3     OH2      OT      -0.834000       15.9994           0
     31732 TIP3     3117     TIP3     H1       HT       0.417000       1.00800           0
     31733 TIP3     3117     TIP3     H2       HT       0.417000       1.00800           0
     31734 TIP3     3118     TIP3     OH2      OT      -0.834000       15.9994           0
     31735 TIP3     3118     TIP3     H1       HT       0.417000       1.00800           0
     31736 TIP3     3118     TIP3     H2       HT       0.417000       1.00800           0
     31737 TIP3     3119     TIP3     OH2      OT      -0.834000       15.9994           0
     31738 TIP3     3119     TIP3     H1       HT       0.417000       1.00800           0
     31739 TIP3     3119     TIP3     H2       HT       0.417000       1.00800           0
     31740 TIP3     3120     TIP3     OH2      OT      -0.834000       15.9994           0
     31741 TIP3     3120     TIP3     H1       HT       0.417000       1.00800           0
     31742 TIP3     3120     TIP3     H2       HT       0.417000       1.00800           0
     31743 TIP3     3121     TIP3     OH2      OT      -0.834000       15.9994           0
     31744 TIP3     3121     TIP3     H1       HT       0.417000       1.00800           0
     31745 TIP3     3121     TIP3     H2       HT       0.417000       1.00800           0
     31746 TIP3     3122     TIP3     OH2      OT      -0.834000       15.9994           0
     31747 TIP3     3122     TIP3     H1       HT       0.417000       1.00800           0
     31748 TIP3     3122     TIP3     H2       HT       0.417000       1.00800           0
     31749 TIP3     3123     TIP3     OH2      OT      -0.834000       15.9994           0
     31750 TIP3     3123     TIP3     H1       HT       0.417000       1.00800           0
     31751 TIP3     3123     TIP3     H2       HT       0.417000       1.00800           0
     31752 TIP3     3124     TIP3     OH2      OT      -0.834000       15.9994           0
     31753 TIP3     3124     TIP3     H1       HT       0.417000       1.00800           0
     31754 TIP3     3124     TIP3     H2       HT       0.417000       1.00800           0
     31755 TIP3     3125     TIP3     OH2      OT      -0.834000       15.9994           0
     31756 TIP3     3125     TIP3     H1       HT       0.417000       1.00800           0
     31757 TIP3     3125     TIP3     H2       HT       0.417000       1.00800           0
     31758 TIP3     3126     TIP3     OH2      OT      -0.834000       15.9994           0
     31759 TIP3     3126     TIP3     H1       HT       0.417000       1.00800           0
     31760 TIP3     3126     TIP3     H2       HT       0.417000       1.00800           0
     31761 TIP3     3127     TIP3     OH2      OT      -0.834000       15.9994           0
     31762 TIP3     3127     TIP3     H1       HT       0.417000       1.00800           0
     31763 TIP3     3127     TIP3     H2       HT       0.417000       1.00800           0
     31764 TIP3     3128     TIP3     OH2      OT      -0.834000       15.9994           0
     31765 TIP3     3128     TIP3     H1       HT       0.417000       1.00800           0
     31766 TIP3     3128     TIP3     H2       HT       0.417000       1.00800           0
     31767 TIP3     3129     TIP3     OH2      OT      -0.834000       15.9994           0
     31768 TIP3     3129     TIP3     H1       HT       0.417000       1.00800           0
     31769 TIP3     3129     TIP3     H2       HT       0.417000       1.00800           0
     31770 TIP3     3130     TIP3     OH2      OT      -0.834000       15.9994           0
     31771 TIP3     3130     TIP3     H1       HT       0.417000       1.00800           0
     31772 TIP3     3130     TIP3     H2       HT       0.417000       1.00800           0
     31773 TIP3     3131     TIP3     OH2      OT      -0.834000       15.9994           0
     31774 TIP3     3131     TIP3     H1       HT       0.417000       1.00800           0
     31775 TIP3     3131     TIP3     H2       HT       0.417000       1.00800           0
     31776 TIP3     3132     TIP3     OH2      OT      -0.834000       15.9994           0
     31777 TIP3     3132     TIP3     H1       HT       0.417000       1.00800           0
     31778 TIP3     3132     TIP3     H2       HT       0.417000       1.00800           0
     31779 TIP3     3133     TIP3     OH2      OT      -0.834000       15.9994           0
     31780 TIP3     3133     TIP3     H1       HT       0.417000       1.00800           0
     31781 TIP3     3133     TIP3     H2       HT       0.417000       1.00800           0
     31782 TIP3     3134     TIP3     OH2      OT      -0.834000       15.9994           0
     31783 TIP3     3134     TIP3     H1       HT       0.417000       1.00800           0
     31784 TIP3     3134     TIP3     H2       HT       0.417000       1.00800           0
     31785 TIP3     3135     TIP3     OH2      OT      -0.834000       15.9994           0
     31786 TIP3     3135     TIP3     H1       HT       0.417000       1.00800           0
     31787 TIP3     3135     TIP3     H2       HT       0.417000       1.00800           0
     31788 TIP3     3136     TIP3     OH2      OT      -0.834000       15.9994           0
     31789 TIP3     3136     TIP3     H1       HT       0.417000       1.00800           0
     31790 TIP3     3136     TIP3     H2       HT       0.417000       1.00800           0
     31791 TIP3     3137     TIP3     OH2      OT      -0.834000       15.9994           0
     31792 TIP3     3137     TIP3     H1       HT       0.417000       1.00800           0
     31793 TIP3     3137     TIP3     H2       HT       0.417000       1.00800           0
     31794 TIP3     3138     TIP3     OH2      OT      -0.834000       15.9994           0
     31795 TIP3     3138     TIP3     H1       HT       0.417000       1.00800           0
     31796 TIP3     3138     TIP3     H2       HT       0.417000       1.00800           0
     31797 TIP3     3139     TIP3     OH2      OT      -0.834000       15.9994           0
     31798 TIP3     3139     TIP3     H1       HT       0.417000       1.00800           0
     31799 TIP3     3139     TIP3     H2       HT       0.417000       1.00800           0
     31800 TIP3     3140     TIP3     OH2      OT      -0.834000       15.9994           0
     31801 TIP3     3140     TIP3     H1       HT       0.417000       1.00800           0
     31802 TIP3     3140     TIP3     H2       HT       0.417000       1.00800           0
     31803 TIP3     3141     TIP3     OH2      OT      -0.834000       15.9994           0
     31804 TIP3     3141     TIP3     H1       HT       0.417000       1.00800           0
     31805 TIP3     3141     TIP3     H2       HT       0.417000       1.00800           0
     31806 TIP3     3142     TIP3     OH2      OT      -0.834000       15.9994           0
     31807 TIP3     3142     TIP3     H1       HT       0.417000       1.00800           0
     31808 TIP3     3142     TIP3     H2       HT       0.417000       1.00800           0
     31809 TIP3     3143     TIP3     OH2      OT      -0.834000       15.9994           0
     31810 TIP3     3143     TIP3     H1       HT       0.417000       1.00800           0
     31811 TIP3     3143     TIP3     H2       HT       0.417000       1.00800           0
     31812 TIP3     3144     TIP3     OH2      OT      -0.834000       15.9994           0
     31813 TIP3     3144     TIP3     H1       HT       0.417000       1.00800           0
     31814 TIP3     3144     TIP3     H2       HT       0.417000       1.00800           0
     31815 TIP3     3145     TIP3     OH2      OT      -0.834000       15.9994           0
     31816 TIP3     3145     TIP3     H1       HT       0.417000       1.00800           0
     31817 TIP3     3145     TIP3     H2       HT       0.417000       1.00800           0
     31818 TIP3     3146     TIP3     OH2      OT      -0.834000       15.9994           0
     31819 TIP3     3146     TIP3     H1       HT       0.417000       1.00800           0
     31820 TIP3     3146     TIP3     H2       HT       0.417000       1.00800           0
     31821 TIP3     3147     TIP3     OH2      OT      -0.834000       15.9994           0
     31822 TIP3     3147     TIP3     H1       HT       0.417000       1.00800           0
     31823 TIP3     3147     TIP3     H2       HT       0.417000       1.00800           0
     31824 TIP3     3148     TIP3     OH2      OT      -0.834000       15.9994           0
     31825 TIP3     3148     TIP3     H1       HT       0.417000       1.00800           0
     31826 TIP3     3148     TIP3     H2       HT       0.417000       1.00800           0
     31827 TIP3     3149     TIP3     OH2      OT      -0.834000       15.9994           0
     31828 TIP3     3149     TIP3     H1       HT       0.417000       1.00800           0
     31829 TIP3     3149     TIP3     H2       HT       0.417000       1.00800           0
     31830 TIP3     3150     TIP3     OH2      OT      -0.834000       15.9994           0
     31831 TIP3     3150     TIP3     H1       HT       0.417000       1.00800           0
     31832 TIP3     3150     TIP3     H2       HT       0.417000       1.00800           0
     31833 TIP3     3151     TIP3     OH2      OT      -0.834000       15.9994           0
     31834 TIP3     3151     TIP3     H1       HT       0.417000       1.00800           0
     31835 TIP3     3151     TIP3     H2       HT       0.417000       1.00800           0
     31836 TIP3     3152     TIP3     OH2      OT      -0.834000       15.9994           0
     31837 TIP3     3152     TIP3     H1       HT       0.417000       1.00800           0
     31838 TIP3     3152     TIP3     H2       HT       0.417000       1.00800           0
     31839 TIP3     3153     TIP3     OH2      OT      -0.834000       15.9994           0
     31840 TIP3     3153     TIP3     H1       HT       0.417000       1.00800           0
     31841 TIP3     3153     TIP3     H2       HT       0.417000       1.00800           0
     31842 TIP3     3154     TIP3     OH2      OT      -0.834000       15.9994           0
     31843 TIP3     3154     TIP3     H1       HT       0.417000       1.00800           0
     31844 TIP3     3154     TIP3     H2       HT       0.417000       1.00800           0
     31845 TIP3     3155     TIP3     OH2      OT      -0.834000       15.9994           0
     31846 TIP3     3155     TIP3     H1       HT       0.417000       1.00800           0
     31847 TIP3     3155     TIP3     H2       HT       0.417000       1.00800           0
     31848 TIP3     3156     TIP3     OH2      OT      -0.834000       15.9994           0
     31849 TIP3     3156     TIP3     H1       HT       0.417000       1.00800           0
     31850 TIP3     3156     TIP3     H2       HT       0.417000       1.00800           0
     31851 TIP3     3157     TIP3     OH2      OT      -0.834000       15.9994           0
     31852 TIP3     3157     TIP3     H1       HT       0.417000       1.00800           0
     31853 TIP3     3157     TIP3     H2       HT       0.417000       1.00800           0
     31854 TIP3     3158     TIP3     OH2      OT      -0.834000       15.9994           0
     31855 TIP3     3158     TIP3     H1       HT       0.417000       1.00800           0
     31856 TIP3     3158     TIP3     H2       HT       0.417000       1.00800           0
     31857 TIP3     3159     TIP3     OH2      OT      -0.834000       15.9994           0
     31858 TIP3     3159     TIP3     H1       HT       0.417000       1.00800           0
     31859 TIP3     3159     TIP3     H2       HT       0.417000       1.00800           0
     31860 TIP3     3160     TIP3     OH2      OT      -0.834000       15.9994           0
     31861 TIP3     3160     TIP3     H1       HT       0.417000       1.00800           0
     31862 TIP3     3160     TIP3     H2       HT       0.417000       1.00800           0
     31863 TIP3     3161     TIP3     OH2      OT      -0.834000       15.9994           0
     31864 TIP3     3161     TIP3     H1       HT       0.417000       1.00800           0
     31865 TIP3     3161     TIP3     H2       HT       0.417000       1.00800           0
     31866 TIP3     3162     TIP3     OH2      OT      -0.834000       15.9994           0
     31867 TIP3     3162     TIP3     H1       HT       0.417000       1.00800           0
     31868 TIP3     3162     TIP3     H2       HT       0.417000       1.00800           0
     31869 TIP3     3163     TIP3     OH2      OT      -0.834000       15.9994           0
     31870 TIP3     3163     TIP3     H1       HT       0.417000       1.00800           0
     31871 TIP3     3163     TIP3     H2       HT       0.417000       1.00800           0
     31872 TIP3     3164     TIP3     OH2      OT      -0.834000       15.9994           0
     31873 TIP3     3164     TIP3     H1       HT       0.417000       1.00800           0
     31874 TIP3     3164     TIP3     H2       HT       0.417000       1.00800           0
     31875 TIP3     3165     TIP3     OH2      OT      -0.834000       15.9994           0
     31876 TIP3     3165     TIP3     H1       HT       0.417000       1.00800           0
     31877 TIP3     3165     TIP3     H2       HT       0.417000       1.00800           0
     31878 TIP3     3166     TIP3     OH2      OT      -0.834000       15.9994           0
     31879 TIP3     3166     TIP3     H1       HT       0.417000       1.00800           0
     31880 TIP3     3166     TIP3     H2       HT       0.417000       1.00800           0
     31881 TIP3     3167     TIP3     OH2      OT      -0.834000       15.9994           0
     31882 TIP3     3167     TIP3     H1       HT       0.417000       1.00800           0
     31883 TIP3     3167     TIP3     H2       HT       0.417000       1.00800           0
     31884 TIP3     3168     TIP3     OH2      OT      -0.834000       15.9994           0
     31885 TIP3     3168     TIP3     H1       HT       0.417000       1.00800           0
     31886 TIP3     3168     TIP3     H2       HT       0.417000       1.00800           0
     31887 TIP3     3169     TIP3     OH2      OT      -0.834000       15.9994           0
     31888 TIP3     3169     TIP3     H1       HT       0.417000       1.00800           0
     31889 TIP3     3169     TIP3     H2       HT       0.417000       1.00800           0
     31890 TIP3     3170     TIP3     OH2      OT      -0.834000       15.9994           0
     31891 TIP3     3170     TIP3     H1       HT       0.417000       1.00800           0
     31892 TIP3     3170     TIP3     H2       HT       0.417000       1.00800           0
     31893 TIP3     3171     TIP3     OH2      OT      -0.834000       15.9994           0
     31894 TIP3     3171     TIP3     H1       HT       0.417000       1.00800           0
     31895 TIP3     3171     TIP3     H2       HT       0.417000       1.00800           0
     31896 TIP3     3172     TIP3     OH2      OT      -0.834000       15.9994           0
     31897 TIP3     3172     TIP3     H1       HT       0.417000       1.00800           0
     31898 TIP3     3172     TIP3     H2       HT       0.417000       1.00800           0
     31899 TIP3     3173     TIP3     OH2      OT      -0.834000       15.9994           0
     31900 TIP3     3173     TIP3     H1       HT       0.417000       1.00800           0
     31901 TIP3     3173     TIP3     H2       HT       0.417000       1.00800           0
     31902 TIP3     3174     TIP3     OH2      OT      -0.834000       15.9994           0
     31903 TIP3     3174     TIP3     H1       HT       0.417000       1.00800           0
     31904 TIP3     3174     TIP3     H2       HT       0.417000       1.00800           0
     31905 TIP3     3175     TIP3     OH2      OT      -0.834000       15.9994           0
     31906 TIP3     3175     TIP3     H1       HT       0.417000       1.00800           0
     31907 TIP3     3175     TIP3     H2       HT       0.417000       1.00800           0
     31908 TIP3     3176     TIP3     OH2      OT      -0.834000       15.9994           0
     31909 TIP3     3176     TIP3     H1       HT       0.417000       1.00800           0
     31910 TIP3     3176     TIP3     H2       HT       0.417000       1.00800           0
     31911 TIP3     3177     TIP3     OH2      OT      -0.834000       15.9994           0
     31912 TIP3     3177     TIP3     H1       HT       0.417000       1.00800           0
     31913 TIP3     3177     TIP3     H2       HT       0.417000       1.00800           0
     31914 TIP3     3178     TIP3     OH2      OT      -0.834000       15.9994           0
     31915 TIP3     3178     TIP3     H1       HT       0.417000       1.00800           0
     31916 TIP3     3178     TIP3     H2       HT       0.417000       1.00800           0
     31917 TIP3     3179     TIP3     OH2      OT      -0.834000       15.9994           0
     31918 TIP3     3179     TIP3     H1       HT       0.417000       1.00800           0
     31919 TIP3     3179     TIP3     H2       HT       0.417000       1.00800           0
     31920 TIP3     3180     TIP3     OH2      OT      -0.834000       15.9994           0
     31921 TIP3     3180     TIP3     H1       HT       0.417000       1.00800           0
     31922 TIP3     3180     TIP3     H2       HT       0.417000       1.00800           0
     31923 TIP3     3181     TIP3     OH2      OT      -0.834000       15.9994           0
     31924 TIP3     3181     TIP3     H1       HT       0.417000       1.00800           0
     31925 TIP3     3181     TIP3     H2       HT       0.417000       1.00800           0
     31926 TIP3     3182     TIP3     OH2      OT      -0.834000       15.9994           0
     31927 TIP3     3182     TIP3     H1       HT       0.417000       1.00800           0
     31928 TIP3     3182     TIP3     H2       HT       0.417000       1.00800           0
     31929 TIP3     3183     TIP3     OH2      OT      -0.834000       15.9994           0
     31930 TIP3     3183     TIP3     H1       HT       0.417000       1.00800           0
     31931 TIP3     3183     TIP3     H2       HT       0.417000       1.00800           0
     31932 TIP3     3184     TIP3     OH2      OT      -0.834000       15.9994           0
     31933 TIP3     3184     TIP3     H1       HT       0.417000       1.00800           0
     31934 TIP3     3184     TIP3     H2       HT       0.417000       1.00800           0
     31935 TIP3     3185     TIP3     OH2      OT      -0.834000       15.9994           0
     31936 TIP3     3185     TIP3     H1       HT       0.417000       1.00800           0
     31937 TIP3     3185     TIP3     H2       HT       0.417000       1.00800           0
     31938 TIP3     3186     TIP3     OH2      OT      -0.834000       15.9994           0
     31939 TIP3     3186     TIP3     H1       HT       0.417000       1.00800           0
     31940 TIP3     3186     TIP3     H2       HT       0.417000       1.00800           0
     31941 TIP3     3187     TIP3     OH2      OT      -0.834000       15.9994           0
     31942 TIP3     3187     TIP3     H1       HT       0.417000       1.00800           0
     31943 TIP3     3187     TIP3     H2       HT       0.417000       1.00800           0
     31944 TIP3     3188     TIP3     OH2      OT      -0.834000       15.9994           0
     31945 TIP3     3188     TIP3     H1       HT       0.417000       1.00800           0
     31946 TIP3     3188     TIP3     H2       HT       0.417000       1.00800           0
     31947 TIP3     3189     TIP3     OH2      OT      -0.834000       15.9994           0
     31948 TIP3     3189     TIP3     H1       HT       0.417000       1.00800           0
     31949 TIP3     3189     TIP3     H2       HT       0.417000       1.00800           0
     31950 TIP3     3190     TIP3     OH2      OT      -0.834000       15.9994           0
     31951 TIP3     3190     TIP3     H1       HT       0.417000       1.00800           0
     31952 TIP3     3190     TIP3     H2       HT       0.417000       1.00800           0
     31953 TIP3     3191     TIP3     OH2      OT      -0.834000       15.9994           0
     31954 TIP3     3191     TIP3     H1       HT       0.417000       1.00800           0
     31955 TIP3     3191     TIP3     H2       HT       0.417000       1.00800           0
     31956 TIP3     3192     TIP3     OH2      OT      -0.834000       15.9994           0
     31957 TIP3     3192     TIP3     H1       HT       0.417000       1.00800           0
     31958 TIP3     3192     TIP3     H2       HT       0.417000       1.00800           0
     31959 TIP3     3193     TIP3     OH2      OT      -0.834000       15.9994           0
     31960 TIP3     3193     TIP3     H1       HT       0.417000       1.00800           0
     31961 TIP3     3193     TIP3     H2       HT       0.417000       1.00800           0
     31962 TIP3     3194     TIP3     OH2      OT      -0.834000       15.9994           0
     31963 TIP3     3194     TIP3     H1       HT       0.417000       1.00800           0
     31964 TIP3     3194     TIP3     H2       HT       0.417000       1.00800           0
     31965 TIP3     3195     TIP3     OH2      OT      -0.834000       15.9994           0
     31966 TIP3     3195     TIP3     H1       HT       0.417000       1.00800           0
     31967 TIP3     3195     TIP3     H2       HT       0.417000       1.00800           0
     31968 TIP3     3196     TIP3     OH2      OT      -0.834000       15.9994           0
     31969 TIP3     3196     TIP3     H1       HT       0.417000       1.00800           0
     31970 TIP3     3196     TIP3     H2       HT       0.417000       1.00800           0
     31971 TIP3     3197     TIP3     OH2      OT      -0.834000       15.9994           0
     31972 TIP3     3197     TIP3     H1       HT       0.417000       1.00800           0
     31973 TIP3     3197     TIP3     H2       HT       0.417000       1.00800           0
     31974 TIP3     3198     TIP3     OH2      OT      -0.834000       15.9994           0
     31975 TIP3     3198     TIP3     H1       HT       0.417000       1.00800           0
     31976 TIP3     3198     TIP3     H2       HT       0.417000       1.00800           0
     31977 TIP3     3199     TIP3     OH2      OT      -0.834000       15.9994           0
     31978 TIP3     3199     TIP3     H1       HT       0.417000       1.00800           0
     31979 TIP3     3199     TIP3     H2       HT       0.417000       1.00800           0
     31980 TIP3     3200     TIP3     OH2      OT      -0.834000       15.9994           0
     31981 TIP3     3200     TIP3     H1       HT       0.417000       1.00800           0
     31982 TIP3     3200     TIP3     H2       HT       0.417000       1.00800           0
     31983 TIP3     3201     TIP3     OH2      OT      -0.834000       15.9994           0
     31984 TIP3     3201     TIP3     H1       HT       0.417000       1.00800           0
     31985 TIP3     3201     TIP3     H2       HT       0.417000       1.00800           0
     31986 TIP3     3202     TIP3     OH2      OT      -0.834000       15.9994           0
     31987 TIP3     3202     TIP3     H1       HT       0.417000       1.00800           0
     31988 TIP3     3202     TIP3     H2       HT       0.417000       1.00800           0
     31989 TIP3     3203     TIP3     OH2      OT      -0.834000       15.9994           0
     31990 TIP3     3203     TIP3     H1       HT       0.417000       1.00800           0
     31991 TIP3     3203     TIP3     H2       HT       0.417000       1.00800           0
     31992 TIP3     3204     TIP3     OH2      OT      -0.834000       15.9994           0
     31993 TIP3     3204     TIP3     H1       HT       0.417000       1.00800           0
     31994 TIP3     3204     TIP3     H2       HT       0.417000       1.00800           0
     31995 TIP3     3205     TIP3     OH2      OT      -0.834000       15.9994           0
     31996 TIP3     3205     TIP3     H1       HT       0.417000       1.00800           0
     31997 TIP3     3205     TIP3     H2       HT       0.417000       1.00800           0
     31998 TIP3     3206     TIP3     OH2      OT      -0.834000       15.9994           0
     31999 TIP3     3206     TIP3     H1       HT       0.417000       1.00800           0
     32000 TIP3     3206     TIP3     H2       HT       0.417000       1.00800           0
     32001 TIP3     3207     TIP3     OH2      OT      -0.834000       15.9994           0
     32002 TIP3     3207     TIP3     H1       HT       0.417000       1.00800           0
     32003 TIP3     3207     TIP3     H2       HT       0.417000       1.00800           0
     32004 TIP3     3208     TIP3     OH2      OT      -0.834000       15.9994           0
     32005 TIP3     3208     TIP3     H1       HT       0.417000       1.00800           0
     32006 TIP3     3208     TIP3     H2       HT       0.417000       1.00800           0
     32007 TIP3     3209     TIP3     OH2      OT      -0.834000       15.9994           0
     32008 TIP3     3209     TIP3     H1       HT       0.417000       1.00800           0
     32009 TIP3     3209     TIP3     H2       HT       0.417000       1.00800           0
     32010 TIP3     3210     TIP3     OH2      OT      -0.834000       15.9994           0
     32011 TIP3     3210     TIP3     H1       HT       0.417000       1.00800           0
     32012 TIP3     3210     TIP3     H2       HT       0.417000       1.00800           0
     32013 TIP3     3211     TIP3     OH2      OT      -0.834000       15.9994           0
     32014 TIP3     3211     TIP3     H1       HT       0.417000       1.00800           0
     32015 TIP3     3211     TIP3     H2       HT       0.417000       1.00800           0
     32016 TIP3     3212     TIP3     OH2      OT      -0.834000       15.9994           0
     32017 TIP3     3212     TIP3     H1       HT       0.417000       1.00800           0
     32018 TIP3     3212     TIP3     H2       HT       0.417000       1.00800           0
     32019 TIP3     3213     TIP3     OH2      OT      -0.834000       15.9994           0
     32020 TIP3     3213     TIP3     H1       HT       0.417000       1.00800           0
     32021 TIP3     3213     TIP3     H2       HT       0.417000       1.00800           0
     32022 TIP3     3214     TIP3     OH2      OT      -0.834000       15.9994           0
     32023 TIP3     3214     TIP3     H1       HT       0.417000       1.00800           0
     32024 TIP3     3214     TIP3     H2       HT       0.417000       1.00800           0
     32025 TIP3     3215     TIP3     OH2      OT      -0.834000       15.9994           0
     32026 TIP3     3215     TIP3     H1       HT       0.417000       1.00800           0
     32027 TIP3     3215     TIP3     H2       HT       0.417000       1.00800           0
     32028 TIP3     3216     TIP3     OH2      OT      -0.834000       15.9994           0
     32029 TIP3     3216     TIP3     H1       HT       0.417000       1.00800           0
     32030 TIP3     3216     TIP3     H2       HT       0.417000       1.00800           0
     32031 TIP3     3217     TIP3     OH2      OT      -0.834000       15.9994           0
     32032 TIP3     3217     TIP3     H1       HT       0.417000       1.00800           0
     32033 TIP3     3217     TIP3     H2       HT       0.417000       1.00800           0
     32034 TIP3     3218     TIP3     OH2      OT      -0.834000       15.9994           0
     32035 TIP3     3218     TIP3     H1       HT       0.417000       1.00800           0
     32036 TIP3     3218     TIP3     H2       HT       0.417000       1.00800           0
     32037 TIP3     3219     TIP3     OH2      OT      -0.834000       15.9994           0
     32038 TIP3     3219     TIP3     H1       HT       0.417000       1.00800           0
     32039 TIP3     3219     TIP3     H2       HT       0.417000       1.00800           0
     32040 TIP3     3220     TIP3     OH2      OT      -0.834000       15.9994           0
     32041 TIP3     3220     TIP3     H1       HT       0.417000       1.00800           0
     32042 TIP3     3220     TIP3     H2       HT       0.417000       1.00800           0
     32043 TIP3     3221     TIP3     OH2      OT      -0.834000       15.9994           0
     32044 TIP3     3221     TIP3     H1       HT       0.417000       1.00800           0
     32045 TIP3     3221     TIP3     H2       HT       0.417000       1.00800           0
     32046 TIP3     3222     TIP3     OH2      OT      -0.834000       15.9994           0
     32047 TIP3     3222     TIP3     H1       HT       0.417000       1.00800           0
     32048 TIP3     3222     TIP3     H2       HT       0.417000       1.00800           0
     32049 TIP3     3223     TIP3     OH2      OT      -0.834000       15.9994           0
     32050 TIP3     3223     TIP3     H1       HT       0.417000       1.00800           0
     32051 TIP3     3223     TIP3     H2       HT       0.417000       1.00800           0
     32052 TIP3     3224     TIP3     OH2      OT      -0.834000       15.9994           0
     32053 TIP3     3224     TIP3     H1       HT       0.417000       1.00800           0
     32054 TIP3     3224     TIP3     H2       HT       0.417000       1.00800           0
     32055 TIP3     3225     TIP3     OH2      OT      -0.834000       15.9994           0
     32056 TIP3     3225     TIP3     H1       HT       0.417000       1.00800           0
     32057 TIP3     3225     TIP3     H2       HT       0.417000       1.00800           0
     32058 TIP3     3226     TIP3     OH2      OT      -0.834000       15.9994           0
     32059 TIP3     3226     TIP3     H1       HT       0.417000       1.00800           0
     32060 TIP3     3226     TIP3     H2       HT       0.417000       1.00800           0
     32061 TIP3     3227     TIP3     OH2      OT      -0.834000       15.9994           0
     32062 TIP3     3227     TIP3     H1       HT       0.417000       1.00800           0
     32063 TIP3     3227     TIP3     H2       HT       0.417000       1.00800           0
     32064 TIP3     3228     TIP3     OH2      OT      -0.834000       15.9994           0
     32065 TIP3     3228     TIP3     H1       HT       0.417000       1.00800           0
     32066 TIP3     3228     TIP3     H2       HT       0.417000       1.00800           0
     32067 TIP3     3229     TIP3     OH2      OT      -0.834000       15.9994           0
     32068 TIP3     3229     TIP3     H1       HT       0.417000       1.00800           0
     32069 TIP3     3229     TIP3     H2       HT       0.417000       1.00800           0
     32070 TIP3     3230     TIP3     OH2      OT      -0.834000       15.9994           0
     32071 TIP3     3230     TIP3     H1       HT       0.417000       1.00800           0
     32072 TIP3     3230     TIP3     H2       HT       0.417000       1.00800           0
     32073 TIP3     3231     TIP3     OH2      OT      -0.834000       15.9994           0
     32074 TIP3     3231     TIP3     H1       HT       0.417000       1.00800           0
     32075 TIP3     3231     TIP3     H2       HT       0.417000       1.00800           0
     32076 TIP3     3232     TIP3     OH2      OT      -0.834000       15.9994           0
     32077 TIP3     3232     TIP3     H1       HT       0.417000       1.00800           0
     32078 TIP3     3232     TIP3     H2       HT       0.417000       1.00800           0
     32079 TIP3     3233     TIP3     OH2      OT      -0.834000       15.9994           0
     32080 TIP3     3233     TIP3     H1       HT       0.417000       1.00800           0
     32081 TIP3     3233     TIP3     H2       HT       0.417000       1.00800           0
     32082 TIP3     3234     TIP3     OH2      OT      -0.834000       15.9994           0
     32083 TIP3     3234     TIP3     H1       HT       0.417000       1.00800           0
     32084 TIP3     3234     TIP3     H2       HT       0.417000       1.00800           0
     32085 TIP3     3235     TIP3     OH2      OT      -0.834000       15.9994           0
     32086 TIP3     3235     TIP3     H1       HT       0.417000       1.00800           0
     32087 TIP3     3235     TIP3     H2       HT       0.417000       1.00800           0
     32088 TIP3     3236     TIP3     OH2      OT      -0.834000       15.9994           0
     32089 TIP3     3236     TIP3     H1       HT       0.417000       1.00800           0
     32090 TIP3     3236     TIP3     H2       HT       0.417000       1.00800           0
     32091 TIP3     3237     TIP3     OH2      OT      -0.834000       15.9994           0
     32092 TIP3     3237     TIP3     H1       HT       0.417000       1.00800           0
     32093 TIP3     3237     TIP3     H2       HT       0.417000       1.00800           0
     32094 TIP3     3238     TIP3     OH2      OT      -0.834000       15.9994           0
     32095 TIP3     3238     TIP3     H1       HT       0.417000       1.00800           0
     32096 TIP3     3238     TIP3     H2       HT       0.417000       1.00800           0
     32097 TIP3     3239     TIP3     OH2      OT      -0.834000       15.9994           0
     32098 TIP3     3239     TIP3     H1       HT       0.417000       1.00800           0
     32099 TIP3     3239     TIP3     H2       HT       0.417000       1.00800           0
     32100 TIP3     3240     TIP3     OH2      OT      -0.834000       15.9994           0
     32101 TIP3     3240     TIP3     H1       HT       0.417000       1.00800           0
     32102 TIP3     3240     TIP3     H2       HT       0.417000       1.00800           0
     32103 TIP3     3241     TIP3     OH2      OT      -0.834000       15.9994           0
     32104 TIP3     3241     TIP3     H1       HT       0.417000       1.00800           0
     32105 TIP3     3241     TIP3     H2       HT       0.417000       1.00800           0
     32106 TIP3     3242     TIP3     OH2      OT      -0.834000       15.9994           0
     32107 TIP3     3242     TIP3     H1       HT       0.417000       1.00800           0
     32108 TIP3     3242     TIP3     H2       HT       0.417000       1.00800           0
     32109 TIP3     3243     TIP3     OH2      OT      -0.834000       15.9994           0
     32110 TIP3     3243     TIP3     H1       HT       0.417000       1.00800           0
     32111 TIP3     3243     TIP3     H2       HT       0.417000       1.00800           0
     32112 TIP3     3244     TIP3     OH2      OT      -0.834000       15.9994           0
     32113 TIP3     3244     TIP3     H1       HT       0.417000       1.00800           0
     32114 TIP3     3244     TIP3     H2       HT       0.417000       1.00800           0
     32115 TIP3     3245     TIP3     OH2      OT      -0.834000       15.9994           0
     32116 TIP3     3245     TIP3     H1       HT       0.417000       1.00800           0
     32117 TIP3     3245     TIP3     H2       HT       0.417000       1.00800           0
     32118 TIP3     3246     TIP3     OH2      OT      -0.834000       15.9994           0
     32119 TIP3     3246     TIP3     H1       HT       0.417000       1.00800           0
     32120 TIP3     3246     TIP3     H2       HT       0.417000       1.00800           0
     32121 TIP3     3247     TIP3     OH2      OT      -0.834000       15.9994           0
     32122 TIP3     3247     TIP3     H1       HT       0.417000       1.00800           0
     32123 TIP3     3247     TIP3     H2       HT       0.417000       1.00800           0
     32124 TIP3     3248     TIP3     OH2      OT      -0.834000       15.9994           0
     32125 TIP3     3248     TIP3     H1       HT       0.417000       1.00800           0
     32126 TIP3     3248     TIP3     H2       HT       0.417000       1.00800           0
     32127 TIP3     3249     TIP3     OH2      OT      -0.834000       15.9994           0
     32128 TIP3     3249     TIP3     H1       HT       0.417000       1.00800           0
     32129 TIP3     3249     TIP3     H2       HT       0.417000       1.00800           0
     32130 TIP3     3250     TIP3     OH2      OT      -0.834000       15.9994           0
     32131 TIP3     3250     TIP3     H1       HT       0.417000       1.00800           0
     32132 TIP3     3250     TIP3     H2       HT       0.417000       1.00800           0
     32133 TIP3     3251     TIP3     OH2      OT      -0.834000       15.9994           0
     32134 TIP3     3251     TIP3     H1       HT       0.417000       1.00800           0
     32135 TIP3     3251     TIP3     H2       HT       0.417000       1.00800           0
     32136 TIP3     3252     TIP3     OH2      OT      -0.834000       15.9994           0
     32137 TIP3     3252     TIP3     H1       HT       0.417000       1.00800           0
     32138 TIP3     3252     TIP3     H2       HT       0.417000       1.00800           0
     32139 TIP3     3253     TIP3     OH2      OT      -0.834000       15.9994           0
     32140 TIP3     3253     TIP3     H1       HT       0.417000       1.00800           0
     32141 TIP3     3253     TIP3     H2       HT       0.417000       1.00800           0
     32142 TIP3     3254     TIP3     OH2      OT      -0.834000       15.9994           0
     32143 TIP3     3254     TIP3     H1       HT       0.417000       1.00800           0
     32144 TIP3     3254     TIP3     H2       HT       0.417000       1.00800           0
     32145 TIP3     3255     TIP3     OH2      OT      -0.834000       15.9994           0
     32146 TIP3     3255     TIP3     H1       HT       0.417000       1.00800           0
     32147 TIP3     3255     TIP3     H2       HT       0.417000       1.00800           0
     32148 TIP3     3256     TIP3     OH2      OT      -0.834000       15.9994           0
     32149 TIP3     3256     TIP3     H1       HT       0.417000       1.00800           0
     32150 TIP3     3256     TIP3     H2       HT       0.417000       1.00800           0
     32151 TIP3     3257     TIP3     OH2      OT      -0.834000       15.9994           0
     32152 TIP3     3257     TIP3     H1       HT       0.417000       1.00800           0
     32153 TIP3     3257     TIP3     H2       HT       0.417000       1.00800           0
     32154 TIP3     3258     TIP3     OH2      OT      -0.834000       15.9994           0
     32155 TIP3     3258     TIP3     H1       HT       0.417000       1.00800           0
     32156 TIP3     3258     TIP3     H2       HT       0.417000       1.00800           0
     32157 TIP3     3259     TIP3     OH2      OT      -0.834000       15.9994           0
     32158 TIP3     3259     TIP3     H1       HT       0.417000       1.00800           0
     32159 TIP3     3259     TIP3     H2       HT       0.417000       1.00800           0
     32160 TIP3     3260     TIP3     OH2      OT      -0.834000       15.9994           0
     32161 TIP3     3260     TIP3     H1       HT       0.417000       1.00800           0
     32162 TIP3     3260     TIP3     H2       HT       0.417000       1.00800           0
     32163 TIP3     3261     TIP3     OH2      OT      -0.834000       15.9994           0
     32164 TIP3     3261     TIP3     H1       HT       0.417000       1.00800           0
     32165 TIP3     3261     TIP3     H2       HT       0.417000       1.00800           0
     32166 TIP3     3262     TIP3     OH2      OT      -0.834000       15.9994           0
     32167 TIP3     3262     TIP3     H1       HT       0.417000       1.00800           0
     32168 TIP3     3262     TIP3     H2       HT       0.417000       1.00800           0
     32169 TIP3     3263     TIP3     OH2      OT      -0.834000       15.9994           0
     32170 TIP3     3263     TIP3     H1       HT       0.417000       1.00800           0
     32171 TIP3     3263     TIP3     H2       HT       0.417000       1.00800           0
     32172 TIP3     3264     TIP3     OH2      OT      -0.834000       15.9994           0
     32173 TIP3     3264     TIP3     H1       HT       0.417000       1.00800           0
     32174 TIP3     3264     TIP3     H2       HT       0.417000       1.00800           0
     32175 TIP3     3265     TIP3     OH2      OT      -0.834000       15.9994           0
     32176 TIP3     3265     TIP3     H1       HT       0.417000       1.00800           0
     32177 TIP3     3265     TIP3     H2       HT       0.417000       1.00800           0
     32178 TIP3     3266     TIP3     OH2      OT      -0.834000       15.9994           0
     32179 TIP3     3266     TIP3     H1       HT       0.417000       1.00800           0
     32180 TIP3     3266     TIP3     H2       HT       0.417000       1.00800           0
     32181 TIP3     3267     TIP3     OH2      OT      -0.834000       15.9994           0
     32182 TIP3     3267     TIP3     H1       HT       0.417000       1.00800           0
     32183 TIP3     3267     TIP3     H2       HT       0.417000       1.00800           0
     32184 TIP3     3268     TIP3     OH2      OT      -0.834000       15.9994           0
     32185 TIP3     3268     TIP3     H1       HT       0.417000       1.00800           0
     32186 TIP3     3268     TIP3     H2       HT       0.417000       1.00800           0
     32187 TIP3     3269     TIP3     OH2      OT      -0.834000       15.9994           0
     32188 TIP3     3269     TIP3     H1       HT       0.417000       1.00800           0
     32189 TIP3     3269     TIP3     H2       HT       0.417000       1.00800           0
     32190 TIP3     3270     TIP3     OH2      OT      -0.834000       15.9994           0
     32191 TIP3     3270     TIP3     H1       HT       0.417000       1.00800           0
     32192 TIP3     3270     TIP3     H2       HT       0.417000       1.00800           0
     32193 TIP3     3271     TIP3     OH2      OT      -0.834000       15.9994           0
     32194 TIP3     3271     TIP3     H1       HT       0.417000       1.00800           0
     32195 TIP3     3271     TIP3     H2       HT       0.417000       1.00800           0
     32196 TIP3     3272     TIP3     OH2      OT      -0.834000       15.9994           0
     32197 TIP3     3272     TIP3     H1       HT       0.417000       1.00800           0
     32198 TIP3     3272     TIP3     H2       HT       0.417000       1.00800           0
     32199 TIP3     3273     TIP3     OH2      OT      -0.834000       15.9994           0
     32200 TIP3     3273     TIP3     H1       HT       0.417000       1.00800           0
     32201 TIP3     3273     TIP3     H2       HT       0.417000       1.00800           0
     32202 TIP3     3274     TIP3     OH2      OT      -0.834000       15.9994           0
     32203 TIP3     3274     TIP3     H1       HT       0.417000       1.00800           0
     32204 TIP3     3274     TIP3     H2       HT       0.417000       1.00800           0
     32205 TIP3     3275     TIP3     OH2      OT      -0.834000       15.9994           0
     32206 TIP3     3275     TIP3     H1       HT       0.417000       1.00800           0
     32207 TIP3     3275     TIP3     H2       HT       0.417000       1.00800           0
     32208 TIP3     3276     TIP3     OH2      OT      -0.834000       15.9994           0
     32209 TIP3     3276     TIP3     H1       HT       0.417000       1.00800           0
     32210 TIP3     3276     TIP3     H2       HT       0.417000       1.00800           0
     32211 TIP3     3277     TIP3     OH2      OT      -0.834000       15.9994           0
     32212 TIP3     3277     TIP3     H1       HT       0.417000       1.00800           0
     32213 TIP3     3277     TIP3     H2       HT       0.417000       1.00800           0
     32214 TIP3     3278     TIP3     OH2      OT      -0.834000       15.9994           0
     32215 TIP3     3278     TIP3     H1       HT       0.417000       1.00800           0
     32216 TIP3     3278     TIP3     H2       HT       0.417000       1.00800           0
     32217 TIP3     3279     TIP3     OH2      OT      -0.834000       15.9994           0
     32218 TIP3     3279     TIP3     H1       HT       0.417000       1.00800           0
     32219 TIP3     3279     TIP3     H2       HT       0.417000       1.00800           0
     32220 TIP3     3280     TIP3     OH2      OT      -0.834000       15.9994           0
     32221 TIP3     3280     TIP3     H1       HT       0.417000       1.00800           0
     32222 TIP3     3280     TIP3     H2       HT       0.417000       1.00800           0
     32223 TIP3     3281     TIP3     OH2      OT      -0.834000       15.9994           0
     32224 TIP3     3281     TIP3     H1       HT       0.417000       1.00800           0
     32225 TIP3     3281     TIP3     H2       HT       0.417000       1.00800           0
     32226 TIP3     3282     TIP3     OH2      OT      -0.834000       15.9994           0
     32227 TIP3     3282     TIP3     H1       HT       0.417000       1.00800           0
     32228 TIP3     3282     TIP3     H2       HT       0.417000       1.00800           0
     32229 TIP3     3283     TIP3     OH2      OT      -0.834000       15.9994           0
     32230 TIP3     3283     TIP3     H1       HT       0.417000       1.00800           0
     32231 TIP3     3283     TIP3     H2       HT       0.417000       1.00800           0
     32232 TIP3     3284     TIP3     OH2      OT      -0.834000       15.9994           0
     32233 TIP3     3284     TIP3     H1       HT       0.417000       1.00800           0
     32234 TIP3     3284     TIP3     H2       HT       0.417000       1.00800           0
     32235 TIP3     3285     TIP3     OH2      OT      -0.834000       15.9994           0
     32236 TIP3     3285     TIP3     H1       HT       0.417000       1.00800           0
     32237 TIP3     3285     TIP3     H2       HT       0.417000       1.00800           0
     32238 TIP3     3286     TIP3     OH2      OT      -0.834000       15.9994           0
     32239 TIP3     3286     TIP3     H1       HT       0.417000       1.00800           0
     32240 TIP3     3286     TIP3     H2       HT       0.417000       1.00800           0
     32241 TIP3     3287     TIP3     OH2      OT      -0.834000       15.9994           0
     32242 TIP3     3287     TIP3     H1       HT       0.417000       1.00800           0
     32243 TIP3     3287     TIP3     H2       HT       0.417000       1.00800           0
     32244 TIP3     3288     TIP3     OH2      OT      -0.834000       15.9994           0
     32245 TIP3     3288     TIP3     H1       HT       0.417000       1.00800           0
     32246 TIP3     3288     TIP3     H2       HT       0.417000       1.00800           0
     32247 TIP3     3289     TIP3     OH2      OT      -0.834000       15.9994           0
     32248 TIP3     3289     TIP3     H1       HT       0.417000       1.00800           0
     32249 TIP3     3289     TIP3     H2       HT       0.417000       1.00800           0
     32250 TIP3     3290     TIP3     OH2      OT      -0.834000       15.9994           0
     32251 TIP3     3290     TIP3     H1       HT       0.417000       1.00800           0
     32252 TIP3     3290     TIP3     H2       HT       0.417000       1.00800           0
     32253 TIP3     3291     TIP3     OH2      OT      -0.834000       15.9994           0
     32254 TIP3     3291     TIP3     H1       HT       0.417000       1.00800           0
     32255 TIP3     3291     TIP3     H2       HT       0.417000       1.00800           0
     32256 TIP3     3292     TIP3     OH2      OT      -0.834000       15.9994           0
     32257 TIP3     3292     TIP3     H1       HT       0.417000       1.00800           0
     32258 TIP3     3292     TIP3     H2       HT       0.417000       1.00800           0
     32259 TIP3     3293     TIP3     OH2      OT      -0.834000       15.9994           0
     32260 TIP3     3293     TIP3     H1       HT       0.417000       1.00800           0
     32261 TIP3     3293     TIP3     H2       HT       0.417000       1.00800           0
     32262 TIP3     3294     TIP3     OH2      OT      -0.834000       15.9994           0
     32263 TIP3     3294     TIP3     H1       HT       0.417000       1.00800           0
     32264 TIP3     3294     TIP3     H2       HT       0.417000       1.00800           0
     32265 TIP3     3295     TIP3     OH2      OT      -0.834000       15.9994           0
     32266 TIP3     3295     TIP3     H1       HT       0.417000       1.00800           0
     32267 TIP3     3295     TIP3     H2       HT       0.417000       1.00800           0
     32268 TIP3     3296     TIP3     OH2      OT      -0.834000       15.9994           0
     32269 TIP3     3296     TIP3     H1       HT       0.417000       1.00800           0
     32270 TIP3     3296     TIP3     H2       HT       0.417000       1.00800           0
     32271 TIP3     3297     TIP3     OH2      OT      -0.834000       15.9994           0
     32272 TIP3     3297     TIP3     H1       HT       0.417000       1.00800           0
     32273 TIP3     3297     TIP3     H2       HT       0.417000       1.00800           0
     32274 TIP3     3298     TIP3     OH2      OT      -0.834000       15.9994           0
     32275 TIP3     3298     TIP3     H1       HT       0.417000       1.00800           0
     32276 TIP3     3298     TIP3     H2       HT       0.417000       1.00800           0
     32277 TIP3     3299     TIP3     OH2      OT      -0.834000       15.9994           0
     32278 TIP3     3299     TIP3     H1       HT       0.417000       1.00800           0
     32279 TIP3     3299     TIP3     H2       HT       0.417000       1.00800           0
     32280 TIP3     3300     TIP3     OH2      OT      -0.834000       15.9994           0
     32281 TIP3     3300     TIP3     H1       HT       0.417000       1.00800           0
     32282 TIP3     3300     TIP3     H2       HT       0.417000       1.00800           0
     32283 TIP3     3301     TIP3     OH2      OT      -0.834000       15.9994           0
     32284 TIP3     3301     TIP3     H1       HT       0.417000       1.00800           0
     32285 TIP3     3301     TIP3     H2       HT       0.417000       1.00800           0
     32286 TIP3     3302     TIP3     OH2      OT      -0.834000       15.9994           0
     32287 TIP3     3302     TIP3     H1       HT       0.417000       1.00800           0
     32288 TIP3     3302     TIP3     H2       HT       0.417000       1.00800           0
     32289 TIP3     3303     TIP3     OH2      OT      -0.834000       15.9994           0
     32290 TIP3     3303     TIP3     H1       HT       0.417000       1.00800           0
     32291 TIP3     3303     TIP3     H2       HT       0.417000       1.00800           0
     32292 TIP3     3304     TIP3     OH2      OT      -0.834000       15.9994           0
     32293 TIP3     3304     TIP3     H1       HT       0.417000       1.00800           0
     32294 TIP3     3304     TIP3     H2       HT       0.417000       1.00800           0
     32295 TIP3     3305     TIP3     OH2      OT      -0.834000       15.9994           0
     32296 TIP3     3305     TIP3     H1       HT       0.417000       1.00800           0
     32297 TIP3     3305     TIP3     H2       HT       0.417000       1.00800           0
     32298 TIP3     3306     TIP3     OH2      OT      -0.834000       15.9994           0
     32299 TIP3     3306     TIP3     H1       HT       0.417000       1.00800           0
     32300 TIP3     3306     TIP3     H2       HT       0.417000       1.00800           0
     32301 TIP3     3307     TIP3     OH2      OT      -0.834000       15.9994           0
     32302 TIP3     3307     TIP3     H1       HT       0.417000       1.00800           0
     32303 TIP3     3307     TIP3     H2       HT       0.417000       1.00800           0
     32304 TIP3     3308     TIP3     OH2      OT      -0.834000       15.9994           0
     32305 TIP3     3308     TIP3     H1       HT       0.417000       1.00800           0
     32306 TIP3     3308     TIP3     H2       HT       0.417000       1.00800           0
     32307 TIP3     3309     TIP3     OH2      OT      -0.834000       15.9994           0
     32308 TIP3     3309     TIP3     H1       HT       0.417000       1.00800           0
     32309 TIP3     3309     TIP3     H2       HT       0.417000       1.00800           0
     32310 TIP3     3310     TIP3     OH2      OT      -0.834000       15.9994           0
     32311 TIP3     3310     TIP3     H1       HT       0.417000       1.00800           0
     32312 TIP3     3310     TIP3     H2       HT       0.417000       1.00800           0
     32313 TIP3     3311     TIP3     OH2      OT      -0.834000       15.9994           0
     32314 TIP3     3311     TIP3     H1       HT       0.417000       1.00800           0
     32315 TIP3     3311     TIP3     H2       HT       0.417000       1.00800           0
     32316 TIP3     3312     TIP3     OH2      OT      -0.834000       15.9994           0
     32317 TIP3     3312     TIP3     H1       HT       0.417000       1.00800           0
     32318 TIP3     3312     TIP3     H2       HT       0.417000       1.00800           0
     32319 TIP3     3313     TIP3     OH2      OT      -0.834000       15.9994           0
     32320 TIP3     3313     TIP3     H1       HT       0.417000       1.00800           0
     32321 TIP3     3313     TIP3     H2       HT       0.417000       1.00800           0
     32322 TIP3     3314     TIP3     OH2      OT      -0.834000       15.9994           0
     32323 TIP3     3314     TIP3     H1       HT       0.417000       1.00800           0
     32324 TIP3     3314     TIP3     H2       HT       0.417000       1.00800           0
     32325 TIP3     3315     TIP3     OH2      OT      -0.834000       15.9994           0
     32326 TIP3     3315     TIP3     H1       HT       0.417000       1.00800           0
     32327 TIP3     3315     TIP3     H2       HT       0.417000       1.00800           0
     32328 TIP3     3316     TIP3     OH2      OT      -0.834000       15.9994           0
     32329 TIP3     3316     TIP3     H1       HT       0.417000       1.00800           0
     32330 TIP3     3316     TIP3     H2       HT       0.417000       1.00800           0
     32331 TIP3     3317     TIP3     OH2      OT      -0.834000       15.9994           0
     32332 TIP3     3317     TIP3     H1       HT       0.417000       1.00800           0
     32333 TIP3     3317     TIP3     H2       HT       0.417000       1.00800           0
     32334 TIP3     3318     TIP3     OH2      OT      -0.834000       15.9994           0
     32335 TIP3     3318     TIP3     H1       HT       0.417000       1.00800           0
     32336 TIP3     3318     TIP3     H2       HT       0.417000       1.00800           0
     32337 TIP3     3319     TIP3     OH2      OT      -0.834000       15.9994           0
     32338 TIP3     3319     TIP3     H1       HT       0.417000       1.00800           0
     32339 TIP3     3319     TIP3     H2       HT       0.417000       1.00800           0
     32340 TIP3     3320     TIP3     OH2      OT      -0.834000       15.9994           0
     32341 TIP3     3320     TIP3     H1       HT       0.417000       1.00800           0
     32342 TIP3     3320     TIP3     H2       HT       0.417000       1.00800           0
     32343 TIP3     3321     TIP3     OH2      OT      -0.834000       15.9994           0
     32344 TIP3     3321     TIP3     H1       HT       0.417000       1.00800           0
     32345 TIP3     3321     TIP3     H2       HT       0.417000       1.00800           0
     32346 TIP3     3322     TIP3     OH2      OT      -0.834000       15.9994           0
     32347 TIP3     3322     TIP3     H1       HT       0.417000       1.00800           0
     32348 TIP3     3322     TIP3     H2       HT       0.417000       1.00800           0
     32349 TIP3     3323     TIP3     OH2      OT      -0.834000       15.9994           0
     32350 TIP3     3323     TIP3     H1       HT       0.417000       1.00800           0
     32351 TIP3     3323     TIP3     H2       HT       0.417000       1.00800           0
     32352 TIP3     3324     TIP3     OH2      OT      -0.834000       15.9994           0
     32353 TIP3     3324     TIP3     H1       HT       0.417000       1.00800           0
     32354 TIP3     3324     TIP3     H2       HT       0.417000       1.00800           0
     32355 TIP3     3325     TIP3     OH2      OT      -0.834000       15.9994           0
     32356 TIP3     3325     TIP3     H1       HT       0.417000       1.00800           0
     32357 TIP3     3325     TIP3     H2       HT       0.417000       1.00800           0
     32358 TIP3     3326     TIP3     OH2      OT      -0.834000       15.9994           0
     32359 TIP3     3326     TIP3     H1       HT       0.417000       1.00800           0
     32360 TIP3     3326     TIP3     H2       HT       0.417000       1.00800           0
     32361 TIP3     3327     TIP3     OH2      OT      -0.834000       15.9994           0
     32362 TIP3     3327     TIP3     H1       HT       0.417000       1.00800           0
     32363 TIP3     3327     TIP3     H2       HT       0.417000       1.00800           0
     32364 TIP3     3328     TIP3     OH2      OT      -0.834000       15.9994           0
     32365 TIP3     3328     TIP3     H1       HT       0.417000       1.00800           0
     32366 TIP3     3328     TIP3     H2       HT       0.417000       1.00800           0
     32367 TIP3     3329     TIP3     OH2      OT      -0.834000       15.9994           0
     32368 TIP3     3329     TIP3     H1       HT       0.417000       1.00800           0
     32369 TIP3     3329     TIP3     H2       HT       0.417000       1.00800           0
     32370 TIP3     3330     TIP3     OH2      OT      -0.834000       15.9994           0
     32371 TIP3     3330     TIP3     H1       HT       0.417000       1.00800           0
     32372 TIP3     3330     TIP3     H2       HT       0.417000       1.00800           0
     32373 TIP3     3331     TIP3     OH2      OT      -0.834000       15.9994           0
     32374 TIP3     3331     TIP3     H1       HT       0.417000       1.00800           0
     32375 TIP3     3331     TIP3     H2       HT       0.417000       1.00800           0
     32376 TIP3     3332     TIP3     OH2      OT      -0.834000       15.9994           0
     32377 TIP3     3332     TIP3     H1       HT       0.417000       1.00800           0
     32378 TIP3     3332     TIP3     H2       HT       0.417000       1.00800           0
     32379 TIP3     3333     TIP3     OH2      OT      -0.834000       15.9994           0
     32380 TIP3     3333     TIP3     H1       HT       0.417000       1.00800           0
     32381 TIP3     3333     TIP3     H2       HT       0.417000       1.00800           0
     32382 TIP3     3334     TIP3     OH2      OT      -0.834000       15.9994           0
     32383 TIP3     3334     TIP3     H1       HT       0.417000       1.00800           0
     32384 TIP3     3334     TIP3     H2       HT       0.417000       1.00800           0
     32385 TIP3     3335     TIP3     OH2      OT      -0.834000       15.9994           0
     32386 TIP3     3335     TIP3     H1       HT       0.417000       1.00800           0
     32387 TIP3     3335     TIP3     H2       HT       0.417000       1.00800           0
     32388 TIP3     3336     TIP3     OH2      OT      -0.834000       15.9994           0
     32389 TIP3     3336     TIP3     H1       HT       0.417000       1.00800           0
     32390 TIP3     3336     TIP3     H2       HT       0.417000       1.00800           0
     32391 TIP3     3337     TIP3     OH2      OT      -0.834000       15.9994           0
     32392 TIP3     3337     TIP3     H1       HT       0.417000       1.00800           0
     32393 TIP3     3337     TIP3     H2       HT       0.417000       1.00800           0
     32394 TIP3     3338     TIP3     OH2      OT      -0.834000       15.9994           0
     32395 TIP3     3338     TIP3     H1       HT       0.417000       1.00800           0
     32396 TIP3     3338     TIP3     H2       HT       0.417000       1.00800           0
     32397 TIP3     3339     TIP3     OH2      OT      -0.834000       15.9994           0
     32398 TIP3     3339     TIP3     H1       HT       0.417000       1.00800           0
     32399 TIP3     3339     TIP3     H2       HT       0.417000       1.00800           0
     32400 TIP3     3340     TIP3     OH2      OT      -0.834000       15.9994           0
     32401 TIP3     3340     TIP3     H1       HT       0.417000       1.00800           0
     32402 TIP3     3340     TIP3     H2       HT       0.417000       1.00800           0
     32403 TIP3     3341     TIP3     OH2      OT      -0.834000       15.9994           0
     32404 TIP3     3341     TIP3     H1       HT       0.417000       1.00800           0
     32405 TIP3     3341     TIP3     H2       HT       0.417000       1.00800           0
     32406 TIP3     3342     TIP3     OH2      OT      -0.834000       15.9994           0
     32407 TIP3     3342     TIP3     H1       HT       0.417000       1.00800           0
     32408 TIP3     3342     TIP3     H2       HT       0.417000       1.00800           0
     32409 TIP3     3343     TIP3     OH2      OT      -0.834000       15.9994           0
     32410 TIP3     3343     TIP3     H1       HT       0.417000       1.00800           0
     32411 TIP3     3343     TIP3     H2       HT       0.417000       1.00800           0
     32412 TIP3     3344     TIP3     OH2      OT      -0.834000       15.9994           0
     32413 TIP3     3344     TIP3     H1       HT       0.417000       1.00800           0
     32414 TIP3     3344     TIP3     H2       HT       0.417000       1.00800           0
     32415 TIP3     3345     TIP3     OH2      OT      -0.834000       15.9994           0
     32416 TIP3     3345     TIP3     H1       HT       0.417000       1.00800           0
     32417 TIP3     3345     TIP3     H2       HT       0.417000       1.00800           0
     32418 TIP3     3346     TIP3     OH2      OT      -0.834000       15.9994           0
     32419 TIP3     3346     TIP3     H1       HT       0.417000       1.00800           0
     32420 TIP3     3346     TIP3     H2       HT       0.417000       1.00800           0
     32421 TIP3     3347     TIP3     OH2      OT      -0.834000       15.9994           0
     32422 TIP3     3347     TIP3     H1       HT       0.417000       1.00800           0
     32423 TIP3     3347     TIP3     H2       HT       0.417000       1.00800           0
     32424 TIP3     3348     TIP3     OH2      OT      -0.834000       15.9994           0
     32425 TIP3     3348     TIP3     H1       HT       0.417000       1.00800           0
     32426 TIP3     3348     TIP3     H2       HT       0.417000       1.00800           0
     32427 TIP3     3349     TIP3     OH2      OT      -0.834000       15.9994           0
     32428 TIP3     3349     TIP3     H1       HT       0.417000       1.00800           0
     32429 TIP3     3349     TIP3     H2       HT       0.417000       1.00800           0
     32430 TIP3     3350     TIP3     OH2      OT      -0.834000       15.9994           0
     32431 TIP3     3350     TIP3     H1       HT       0.417000       1.00800           0
     32432 TIP3     3350     TIP3     H2       HT       0.417000       1.00800           0
     32433 TIP3     3351     TIP3     OH2      OT      -0.834000       15.9994           0
     32434 TIP3     3351     TIP3     H1       HT       0.417000       1.00800           0
     32435 TIP3     3351     TIP3     H2       HT       0.417000       1.00800           0
     32436 TIP3     3352     TIP3     OH2      OT      -0.834000       15.9994           0
     32437 TIP3     3352     TIP3     H1       HT       0.417000       1.00800           0
     32438 TIP3     3352     TIP3     H2       HT       0.417000       1.00800           0
     32439 TIP3     3353     TIP3     OH2      OT      -0.834000       15.9994           0
     32440 TIP3     3353     TIP3     H1       HT       0.417000       1.00800           0
     32441 TIP3     3353     TIP3     H2       HT       0.417000       1.00800           0
     32442 TIP3     3354     TIP3     OH2      OT      -0.834000       15.9994           0
     32443 TIP3     3354     TIP3     H1       HT       0.417000       1.00800           0
     32444 TIP3     3354     TIP3     H2       HT       0.417000       1.00800           0
     32445 TIP3     3355     TIP3     OH2      OT      -0.834000       15.9994           0
     32446 TIP3     3355     TIP3     H1       HT       0.417000       1.00800           0
     32447 TIP3     3355     TIP3     H2       HT       0.417000       1.00800           0
     32448 TIP3     3356     TIP3     OH2      OT      -0.834000       15.9994           0
     32449 TIP3     3356     TIP3     H1       HT       0.417000       1.00800           0
     32450 TIP3     3356     TIP3     H2       HT       0.417000       1.00800           0
     32451 TIP3     3357     TIP3     OH2      OT      -0.834000       15.9994           0
     32452 TIP3     3357     TIP3     H1       HT       0.417000       1.00800           0
     32453 TIP3     3357     TIP3     H2       HT       0.417000       1.00800           0
     32454 TIP3     3358     TIP3     OH2      OT      -0.834000       15.9994           0
     32455 TIP3     3358     TIP3     H1       HT       0.417000       1.00800           0
     32456 TIP3     3358     TIP3     H2       HT       0.417000       1.00800           0
     32457 TIP3     3359     TIP3     OH2      OT      -0.834000       15.9994           0
     32458 TIP3     3359     TIP3     H1       HT       0.417000       1.00800           0
     32459 TIP3     3359     TIP3     H2       HT       0.417000       1.00800           0
     32460 TIP3     3360     TIP3     OH2      OT      -0.834000       15.9994           0
     32461 TIP3     3360     TIP3     H1       HT       0.417000       1.00800           0
     32462 TIP3     3360     TIP3     H2       HT       0.417000       1.00800           0
     32463 TIP3     3361     TIP3     OH2      OT      -0.834000       15.9994           0
     32464 TIP3     3361     TIP3     H1       HT       0.417000       1.00800           0
     32465 TIP3     3361     TIP3     H2       HT       0.417000       1.00800           0
     32466 TIP3     3362     TIP3     OH2      OT      -0.834000       15.9994           0
     32467 TIP3     3362     TIP3     H1       HT       0.417000       1.00800           0
     32468 TIP3     3362     TIP3     H2       HT       0.417000       1.00800           0
     32469 TIP3     3363     TIP3     OH2      OT      -0.834000       15.9994           0
     32470 TIP3     3363     TIP3     H1       HT       0.417000       1.00800           0
     32471 TIP3     3363     TIP3     H2       HT       0.417000       1.00800           0
     32472 TIP3     3364     TIP3     OH2      OT      -0.834000       15.9994           0
     32473 TIP3     3364     TIP3     H1       HT       0.417000       1.00800           0
     32474 TIP3     3364     TIP3     H2       HT       0.417000       1.00800           0
     32475 TIP3     3365     TIP3     OH2      OT      -0.834000       15.9994           0
     32476 TIP3     3365     TIP3     H1       HT       0.417000       1.00800           0
     32477 TIP3     3365     TIP3     H2       HT       0.417000       1.00800           0
     32478 TIP3     3366     TIP3     OH2      OT      -0.834000       15.9994           0
     32479 TIP3     3366     TIP3     H1       HT       0.417000       1.00800           0
     32480 TIP3     3366     TIP3     H2       HT       0.417000       1.00800           0
     32481 TIP3     3367     TIP3     OH2      OT      -0.834000       15.9994           0
     32482 TIP3     3367     TIP3     H1       HT       0.417000       1.00800           0
     32483 TIP3     3367     TIP3     H2       HT       0.417000       1.00800           0
     32484 TIP3     3368     TIP3     OH2      OT      -0.834000       15.9994           0
     32485 TIP3     3368     TIP3     H1       HT       0.417000       1.00800           0
     32486 TIP3     3368     TIP3     H2       HT       0.417000       1.00800           0
     32487 TIP3     3369     TIP3     OH2      OT      -0.834000       15.9994           0
     32488 TIP3     3369     TIP3     H1       HT       0.417000       1.00800           0
     32489 TIP3     3369     TIP3     H2       HT       0.417000       1.00800           0
     32490 TIP3     3370     TIP3     OH2      OT      -0.834000       15.9994           0
     32491 TIP3     3370     TIP3     H1       HT       0.417000       1.00800           0
     32492 TIP3     3370     TIP3     H2       HT       0.417000       1.00800           0
     32493 TIP3     3371     TIP3     OH2      OT      -0.834000       15.9994           0
     32494 TIP3     3371     TIP3     H1       HT       0.417000       1.00800           0
     32495 TIP3     3371     TIP3     H2       HT       0.417000       1.00800           0
     32496 TIP3     3372     TIP3     OH2      OT      -0.834000       15.9994           0
     32497 TIP3     3372     TIP3     H1       HT       0.417000       1.00800           0
     32498 TIP3     3372     TIP3     H2       HT       0.417000       1.00800           0
     32499 TIP3     3373     TIP3     OH2      OT      -0.834000       15.9994           0
     32500 TIP3     3373     TIP3     H1       HT       0.417000       1.00800           0
     32501 TIP3     3373     TIP3     H2       HT       0.417000       1.00800           0
     32502 TIP3     3374     TIP3     OH2      OT      -0.834000       15.9994           0
     32503 TIP3     3374     TIP3     H1       HT       0.417000       1.00800           0
     32504 TIP3     3374     TIP3     H2       HT       0.417000       1.00800           0
     32505 TIP3     3375     TIP3     OH2      OT      -0.834000       15.9994           0
     32506 TIP3     3375     TIP3     H1       HT       0.417000       1.00800           0
     32507 TIP3     3375     TIP3     H2       HT       0.417000       1.00800           0
     32508 TIP3     3376     TIP3     OH2      OT      -0.834000       15.9994           0
     32509 TIP3     3376     TIP3     H1       HT       0.417000       1.00800           0
     32510 TIP3     3376     TIP3     H2       HT       0.417000       1.00800           0
     32511 TIP3     3377     TIP3     OH2      OT      -0.834000       15.9994           0
     32512 TIP3     3377     TIP3     H1       HT       0.417000       1.00800           0
     32513 TIP3     3377     TIP3     H2       HT       0.417000       1.00800           0
     32514 TIP3     3378     TIP3     OH2      OT      -0.834000       15.9994           0
     32515 TIP3     3378     TIP3     H1       HT       0.417000       1.00800           0
     32516 TIP3     3378     TIP3     H2       HT       0.417000       1.00800           0
     32517 TIP3     3379     TIP3     OH2      OT      -0.834000       15.9994           0
     32518 TIP3     3379     TIP3     H1       HT       0.417000       1.00800           0
     32519 TIP3     3379     TIP3     H2       HT       0.417000       1.00800           0
     32520 TIP3     3380     TIP3     OH2      OT      -0.834000       15.9994           0
     32521 TIP3     3380     TIP3     H1       HT       0.417000       1.00800           0
     32522 TIP3     3380     TIP3     H2       HT       0.417000       1.00800           0
     32523 TIP3     3381     TIP3     OH2      OT      -0.834000       15.9994           0
     32524 TIP3     3381     TIP3     H1       HT       0.417000       1.00800           0
     32525 TIP3     3381     TIP3     H2       HT       0.417000       1.00800           0
     32526 TIP3     3382     TIP3     OH2      OT      -0.834000       15.9994           0
     32527 TIP3     3382     TIP3     H1       HT       0.417000       1.00800           0
     32528 TIP3     3382     TIP3     H2       HT       0.417000       1.00800           0
     32529 TIP3     3383     TIP3     OH2      OT      -0.834000       15.9994           0
     32530 TIP3     3383     TIP3     H1       HT       0.417000       1.00800           0
     32531 TIP3     3383     TIP3     H2       HT       0.417000       1.00800           0
     32532 TIP3     3384     TIP3     OH2      OT      -0.834000       15.9994           0
     32533 TIP3     3384     TIP3     H1       HT       0.417000       1.00800           0
     32534 TIP3     3384     TIP3     H2       HT       0.417000       1.00800           0
     32535 TIP3     3385     TIP3     OH2      OT      -0.834000       15.9994           0
     32536 TIP3     3385     TIP3     H1       HT       0.417000       1.00800           0
     32537 TIP3     3385     TIP3     H2       HT       0.417000       1.00800           0
     32538 TIP3     3386     TIP3     OH2      OT      -0.834000       15.9994           0
     32539 TIP3     3386     TIP3     H1       HT       0.417000       1.00800           0
     32540 TIP3     3386     TIP3     H2       HT       0.417000       1.00800           0
     32541 TIP3     3387     TIP3     OH2      OT      -0.834000       15.9994           0
     32542 TIP3     3387     TIP3     H1       HT       0.417000       1.00800           0
     32543 TIP3     3387     TIP3     H2       HT       0.417000       1.00800           0
     32544 TIP3     3388     TIP3     OH2      OT      -0.834000       15.9994           0
     32545 TIP3     3388     TIP3     H1       HT       0.417000       1.00800           0
     32546 TIP3     3388     TIP3     H2       HT       0.417000       1.00800           0
     32547 TIP3     3389     TIP3     OH2      OT      -0.834000       15.9994           0
     32548 TIP3     3389     TIP3     H1       HT       0.417000       1.00800           0
     32549 TIP3     3389     TIP3     H2       HT       0.417000       1.00800           0
     32550 TIP3     3390     TIP3     OH2      OT      -0.834000       15.9994           0
     32551 TIP3     3390     TIP3     H1       HT       0.417000       1.00800           0
     32552 TIP3     3390     TIP3     H2       HT       0.417000       1.00800           0
     32553 TIP3     3391     TIP3     OH2      OT      -0.834000       15.9994           0
     32554 TIP3     3391     TIP3     H1       HT       0.417000       1.00800           0
     32555 TIP3     3391     TIP3     H2       HT       0.417000       1.00800           0
     32556 TIP3     3392     TIP3     OH2      OT      -0.834000       15.9994           0
     32557 TIP3     3392     TIP3     H1       HT       0.417000       1.00800           0
     32558 TIP3     3392     TIP3     H2       HT       0.417000       1.00800           0
     32559 TIP3     3393     TIP3     OH2      OT      -0.834000       15.9994           0
     32560 TIP3     3393     TIP3     H1       HT       0.417000       1.00800           0
     32561 TIP3     3393     TIP3     H2       HT       0.417000       1.00800           0
     32562 TIP3     3394     TIP3     OH2      OT      -0.834000       15.9994           0
     32563 TIP3     3394     TIP3     H1       HT       0.417000       1.00800           0
     32564 TIP3     3394     TIP3     H2       HT       0.417000       1.00800           0
     32565 TIP3     3395     TIP3     OH2      OT      -0.834000       15.9994           0
     32566 TIP3     3395     TIP3     H1       HT       0.417000       1.00800           0
     32567 TIP3     3395     TIP3     H2       HT       0.417000       1.00800           0
     32568 TIP3     3396     TIP3     OH2      OT      -0.834000       15.9994           0
     32569 TIP3     3396     TIP3     H1       HT       0.417000       1.00800           0
     32570 TIP3     3396     TIP3     H2       HT       0.417000       1.00800           0
     32571 TIP3     3397     TIP3     OH2      OT      -0.834000       15.9994           0
     32572 TIP3     3397     TIP3     H1       HT       0.417000       1.00800           0
     32573 TIP3     3397     TIP3     H2       HT       0.417000       1.00800           0
     32574 TIP3     3398     TIP3     OH2      OT      -0.834000       15.9994           0
     32575 TIP3     3398     TIP3     H1       HT       0.417000       1.00800           0
     32576 TIP3     3398     TIP3     H2       HT       0.417000       1.00800           0
     32577 TIP3     3399     TIP3     OH2      OT      -0.834000       15.9994           0
     32578 TIP3     3399     TIP3     H1       HT       0.417000       1.00800           0
     32579 TIP3     3399     TIP3     H2       HT       0.417000       1.00800           0
     32580 TIP3     3400     TIP3     OH2      OT      -0.834000       15.9994           0
     32581 TIP3     3400     TIP3     H1       HT       0.417000       1.00800           0
     32582 TIP3     3400     TIP3     H2       HT       0.417000       1.00800           0
     32583 TIP3     3401     TIP3     OH2      OT      -0.834000       15.9994           0
     32584 TIP3     3401     TIP3     H1       HT       0.417000       1.00800           0
     32585 TIP3     3401     TIP3     H2       HT       0.417000       1.00800           0
     32586 TIP3     3402     TIP3     OH2      OT      -0.834000       15.9994           0
     32587 TIP3     3402     TIP3     H1       HT       0.417000       1.00800           0
     32588 TIP3     3402     TIP3     H2       HT       0.417000       1.00800           0
     32589 TIP3     3403     TIP3     OH2      OT      -0.834000       15.9994           0
     32590 TIP3     3403     TIP3     H1       HT       0.417000       1.00800           0
     32591 TIP3     3403     TIP3     H2       HT       0.417000       1.00800           0
     32592 TIP3     3404     TIP3     OH2      OT      -0.834000       15.9994           0
     32593 TIP3     3404     TIP3     H1       HT       0.417000       1.00800           0
     32594 TIP3     3404     TIP3     H2       HT       0.417000       1.00800           0
     32595 TIP3     3405     TIP3     OH2      OT      -0.834000       15.9994           0
     32596 TIP3     3405     TIP3     H1       HT       0.417000       1.00800           0
     32597 TIP3     3405     TIP3     H2       HT       0.417000       1.00800           0
     32598 TIP3     3406     TIP3     OH2      OT      -0.834000       15.9994           0
     32599 TIP3     3406     TIP3     H1       HT       0.417000       1.00800           0
     32600 TIP3     3406     TIP3     H2       HT       0.417000       1.00800           0
     32601 TIP3     3407     TIP3     OH2      OT      -0.834000       15.9994           0
     32602 TIP3     3407     TIP3     H1       HT       0.417000       1.00800           0
     32603 TIP3     3407     TIP3     H2       HT       0.417000       1.00800           0
     32604 TIP3     3408     TIP3     OH2      OT      -0.834000       15.9994           0
     32605 TIP3     3408     TIP3     H1       HT       0.417000       1.00800           0
     32606 TIP3     3408     TIP3     H2       HT       0.417000       1.00800           0
     32607 TIP3     3409     TIP3     OH2      OT      -0.834000       15.9994           0
     32608 TIP3     3409     TIP3     H1       HT       0.417000       1.00800           0
     32609 TIP3     3409     TIP3     H2       HT       0.417000       1.00800           0
     32610 TIP3     3410     TIP3     OH2      OT      -0.834000       15.9994           0
     32611 TIP3     3410     TIP3     H1       HT       0.417000       1.00800           0
     32612 TIP3     3410     TIP3     H2       HT       0.417000       1.00800           0
     32613 TIP3     3411     TIP3     OH2      OT      -0.834000       15.9994           0
     32614 TIP3     3411     TIP3     H1       HT       0.417000       1.00800           0
     32615 TIP3     3411     TIP3     H2       HT       0.417000       1.00800           0
     32616 TIP3     3412     TIP3     OH2      OT      -0.834000       15.9994           0
     32617 TIP3     3412     TIP3     H1       HT       0.417000       1.00800           0
     32618 TIP3     3412     TIP3     H2       HT       0.417000       1.00800           0
     32619 TIP3     3413     TIP3     OH2      OT      -0.834000       15.9994           0
     32620 TIP3     3413     TIP3     H1       HT       0.417000       1.00800           0
     32621 TIP3     3413     TIP3     H2       HT       0.417000       1.00800           0
     32622 TIP3     3414     TIP3     OH2      OT      -0.834000       15.9994           0
     32623 TIP3     3414     TIP3     H1       HT       0.417000       1.00800           0
     32624 TIP3     3414     TIP3     H2       HT       0.417000       1.00800           0
     32625 TIP3     3415     TIP3     OH2      OT      -0.834000       15.9994           0
     32626 TIP3     3415     TIP3     H1       HT       0.417000       1.00800           0
     32627 TIP3     3415     TIP3     H2       HT       0.417000       1.00800           0
     32628 TIP3     3416     TIP3     OH2      OT      -0.834000       15.9994           0
     32629 TIP3     3416     TIP3     H1       HT       0.417000       1.00800           0
     32630 TIP3     3416     TIP3     H2       HT       0.417000       1.00800           0
     32631 TIP3     3417     TIP3     OH2      OT      -0.834000       15.9994           0
     32632 TIP3     3417     TIP3     H1       HT       0.417000       1.00800           0
     32633 TIP3     3417     TIP3     H2       HT       0.417000       1.00800           0
     32634 TIP3     3418     TIP3     OH2      OT      -0.834000       15.9994           0
     32635 TIP3     3418     TIP3     H1       HT       0.417000       1.00800           0
     32636 TIP3     3418     TIP3     H2       HT       0.417000       1.00800           0
     32637 TIP3     3419     TIP3     OH2      OT      -0.834000       15.9994           0
     32638 TIP3     3419     TIP3     H1       HT       0.417000       1.00800           0
     32639 TIP3     3419     TIP3     H2       HT       0.417000       1.00800           0
     32640 TIP3     3420     TIP3     OH2      OT      -0.834000       15.9994           0
     32641 TIP3     3420     TIP3     H1       HT       0.417000       1.00800           0
     32642 TIP3     3420     TIP3     H2       HT       0.417000       1.00800           0
     32643 TIP3     3421     TIP3     OH2      OT      -0.834000       15.9994           0
     32644 TIP3     3421     TIP3     H1       HT       0.417000       1.00800           0
     32645 TIP3     3421     TIP3     H2       HT       0.417000       1.00800           0
     32646 TIP3     3422     TIP3     OH2      OT      -0.834000       15.9994           0
     32647 TIP3     3422     TIP3     H1       HT       0.417000       1.00800           0
     32648 TIP3     3422     TIP3     H2       HT       0.417000       1.00800           0
     32649 TIP3     3423     TIP3     OH2      OT      -0.834000       15.9994           0
     32650 TIP3     3423     TIP3     H1       HT       0.417000       1.00800           0
     32651 TIP3     3423     TIP3     H2       HT       0.417000       1.00800           0
     32652 TIP3     3424     TIP3     OH2      OT      -0.834000       15.9994           0
     32653 TIP3     3424     TIP3     H1       HT       0.417000       1.00800           0
     32654 TIP3     3424     TIP3     H2       HT       0.417000       1.00800           0
     32655 TIP3     3425     TIP3     OH2      OT      -0.834000       15.9994           0
     32656 TIP3     3425     TIP3     H1       HT       0.417000       1.00800           0
     32657 TIP3     3425     TIP3     H2       HT       0.417000       1.00800           0
     32658 TIP3     3426     TIP3     OH2      OT      -0.834000       15.9994           0
     32659 TIP3     3426     TIP3     H1       HT       0.417000       1.00800           0
     32660 TIP3     3426     TIP3     H2       HT       0.417000       1.00800           0
     32661 TIP3     3427     TIP3     OH2      OT      -0.834000       15.9994           0
     32662 TIP3     3427     TIP3     H1       HT       0.417000       1.00800           0
     32663 TIP3     3427     TIP3     H2       HT       0.417000       1.00800           0
     32664 TIP3     3428     TIP3     OH2      OT      -0.834000       15.9994           0
     32665 TIP3     3428     TIP3     H1       HT       0.417000       1.00800           0
     32666 TIP3     3428     TIP3     H2       HT       0.417000       1.00800           0
     32667 TIP3     3429     TIP3     OH2      OT      -0.834000       15.9994           0
     32668 TIP3     3429     TIP3     H1       HT       0.417000       1.00800           0
     32669 TIP3     3429     TIP3     H2       HT       0.417000       1.00800           0
     32670 TIP3     3430     TIP3     OH2      OT      -0.834000       15.9994           0
     32671 TIP3     3430     TIP3     H1       HT       0.417000       1.00800           0
     32672 TIP3     3430     TIP3     H2       HT       0.417000       1.00800           0
     32673 TIP3     3431     TIP3     OH2      OT      -0.834000       15.9994           0
     32674 TIP3     3431     TIP3     H1       HT       0.417000       1.00800           0
     32675 TIP3     3431     TIP3     H2       HT       0.417000       1.00800           0
     32676 TIP3     3432     TIP3     OH2      OT      -0.834000       15.9994           0
     32677 TIP3     3432     TIP3     H1       HT       0.417000       1.00800           0
     32678 TIP3     3432     TIP3     H2       HT       0.417000       1.00800           0
     32679 TIP3     3433     TIP3     OH2      OT      -0.834000       15.9994           0
     32680 TIP3     3433     TIP3     H1       HT       0.417000       1.00800           0
     32681 TIP3     3433     TIP3     H2       HT       0.417000       1.00800           0
     32682 TIP3     3434     TIP3     OH2      OT      -0.834000       15.9994           0
     32683 TIP3     3434     TIP3     H1       HT       0.417000       1.00800           0
     32684 TIP3     3434     TIP3     H2       HT       0.417000       1.00800           0
     32685 TIP3     3435     TIP3     OH2      OT      -0.834000       15.9994           0
     32686 TIP3     3435     TIP3     H1       HT       0.417000       1.00800           0
     32687 TIP3     3435     TIP3     H2       HT       0.417000       1.00800           0
     32688 TIP3     3436     TIP3     OH2      OT      -0.834000       15.9994           0
     32689 TIP3     3436     TIP3     H1       HT       0.417000       1.00800           0
     32690 TIP3     3436     TIP3     H2       HT       0.417000       1.00800           0
     32691 TIP3     3437     TIP3     OH2      OT      -0.834000       15.9994           0
     32692 TIP3     3437     TIP3     H1       HT       0.417000       1.00800           0
     32693 TIP3     3437     TIP3     H2       HT       0.417000       1.00800           0
     32694 TIP3     3438     TIP3     OH2      OT      -0.834000       15.9994           0
     32695 TIP3     3438     TIP3     H1       HT       0.417000       1.00800           0
     32696 TIP3     3438     TIP3     H2       HT       0.417000       1.00800           0
     32697 TIP3     3439     TIP3     OH2      OT      -0.834000       15.9994           0
     32698 TIP3     3439     TIP3     H1       HT       0.417000       1.00800           0
     32699 TIP3     3439     TIP3     H2       HT       0.417000       1.00800           0
     32700 TIP3     3440     TIP3     OH2      OT      -0.834000       15.9994           0
     32701 TIP3     3440     TIP3     H1       HT       0.417000       1.00800           0
     32702 TIP3     3440     TIP3     H2       HT       0.417000       1.00800           0
     32703 TIP3     3441     TIP3     OH2      OT      -0.834000       15.9994           0
     32704 TIP3     3441     TIP3     H1       HT       0.417000       1.00800           0
     32705 TIP3     3441     TIP3     H2       HT       0.417000       1.00800           0
     32706 TIP3     3442     TIP3     OH2      OT      -0.834000       15.9994           0
     32707 TIP3     3442     TIP3     H1       HT       0.417000       1.00800           0
     32708 TIP3     3442     TIP3     H2       HT       0.417000       1.00800           0
     32709 TIP3     3443     TIP3     OH2      OT      -0.834000       15.9994           0
     32710 TIP3     3443     TIP3     H1       HT       0.417000       1.00800           0
     32711 TIP3     3443     TIP3     H2       HT       0.417000       1.00800           0
     32712 TIP3     3444     TIP3     OH2      OT      -0.834000       15.9994           0
     32713 TIP3     3444     TIP3     H1       HT       0.417000       1.00800           0
     32714 TIP3     3444     TIP3     H2       HT       0.417000       1.00800           0
     32715 TIP3     3445     TIP3     OH2      OT      -0.834000       15.9994           0
     32716 TIP3     3445     TIP3     H1       HT       0.417000       1.00800           0
     32717 TIP3     3445     TIP3     H2       HT       0.417000       1.00800           0
     32718 TIP3     3446     TIP3     OH2      OT      -0.834000       15.9994           0
     32719 TIP3     3446     TIP3     H1       HT       0.417000       1.00800           0
     32720 TIP3     3446     TIP3     H2       HT       0.417000       1.00800           0
     32721 TIP3     3447     TIP3     OH2      OT      -0.834000       15.9994           0
     32722 TIP3     3447     TIP3     H1       HT       0.417000       1.00800           0
     32723 TIP3     3447     TIP3     H2       HT       0.417000       1.00800           0
     32724 TIP3     3448     TIP3     OH2      OT      -0.834000       15.9994           0
     32725 TIP3     3448     TIP3     H1       HT       0.417000       1.00800           0
     32726 TIP3     3448     TIP3     H2       HT       0.417000       1.00800           0
     32727 TIP3     3449     TIP3     OH2      OT      -0.834000       15.9994           0
     32728 TIP3     3449     TIP3     H1       HT       0.417000       1.00800           0
     32729 TIP3     3449     TIP3     H2       HT       0.417000       1.00800           0
     32730 TIP3     3450     TIP3     OH2      OT      -0.834000       15.9994           0
     32731 TIP3     3450     TIP3     H1       HT       0.417000       1.00800           0
     32732 TIP3     3450     TIP3     H2       HT       0.417000       1.00800           0
     32733 TIP3     3451     TIP3     OH2      OT      -0.834000       15.9994           0
     32734 TIP3     3451     TIP3     H1       HT       0.417000       1.00800           0
     32735 TIP3     3451     TIP3     H2       HT       0.417000       1.00800           0
     32736 TIP3     3452     TIP3     OH2      OT      -0.834000       15.9994           0
     32737 TIP3     3452     TIP3     H1       HT       0.417000       1.00800           0
     32738 TIP3     3452     TIP3     H2       HT       0.417000       1.00800           0
     32739 TIP3     3453     TIP3     OH2      OT      -0.834000       15.9994           0
     32740 TIP3     3453     TIP3     H1       HT       0.417000       1.00800           0
     32741 TIP3     3453     TIP3     H2       HT       0.417000       1.00800           0
     32742 TIP3     3454     TIP3     OH2      OT      -0.834000       15.9994           0
     32743 TIP3     3454     TIP3     H1       HT       0.417000       1.00800           0
     32744 TIP3     3454     TIP3     H2       HT       0.417000       1.00800           0
     32745 TIP3     3455     TIP3     OH2      OT      -0.834000       15.9994           0
     32746 TIP3     3455     TIP3     H1       HT       0.417000       1.00800           0
     32747 TIP3     3455     TIP3     H2       HT       0.417000       1.00800           0
     32748 TIP3     3456     TIP3     OH2      OT      -0.834000       15.9994           0
     32749 TIP3     3456     TIP3     H1       HT       0.417000       1.00800           0
     32750 TIP3     3456     TIP3     H2       HT       0.417000       1.00800           0
     32751 TIP3     3457     TIP3     OH2      OT      -0.834000       15.9994           0
     32752 TIP3     3457     TIP3     H1       HT       0.417000       1.00800           0
     32753 TIP3     3457     TIP3     H2       HT       0.417000       1.00800           0
     32754 TIP3     3458     TIP3     OH2      OT      -0.834000       15.9994           0
     32755 TIP3     3458     TIP3     H1       HT       0.417000       1.00800           0
     32756 TIP3     3458     TIP3     H2       HT       0.417000       1.00800           0
     32757 TIP3     3459     TIP3     OH2      OT      -0.834000       15.9994           0
     32758 TIP3     3459     TIP3     H1       HT       0.417000       1.00800           0
     32759 TIP3     3459     TIP3     H2       HT       0.417000       1.00800           0
     32760 TIP3     3460     TIP3     OH2      OT      -0.834000       15.9994           0
     32761 TIP3     3460     TIP3     H1       HT       0.417000       1.00800           0
     32762 TIP3     3460     TIP3     H2       HT       0.417000       1.00800           0
     32763 TIP3     3461     TIP3     OH2      OT      -0.834000       15.9994           0
     32764 TIP3     3461     TIP3     H1       HT       0.417000       1.00800           0
     32765 TIP3     3461     TIP3     H2       HT       0.417000       1.00800           0
     32766 TIP3     3462     TIP3     OH2      OT      -0.834000       15.9994           0
     32767 TIP3     3462     TIP3     H1       HT       0.417000       1.00800           0
     32768 TIP3     3462     TIP3     H2       HT       0.417000       1.00800           0
     32769 TIP3     3463     TIP3     OH2      OT      -0.834000       15.9994           0
     32770 TIP3     3463     TIP3     H1       HT       0.417000       1.00800           0
     32771 TIP3     3463     TIP3     H2       HT       0.417000       1.00800           0
     32772 TIP3     3464     TIP3     OH2      OT      -0.834000       15.9994           0
     32773 TIP3     3464     TIP3     H1       HT       0.417000       1.00800           0
     32774 TIP3     3464     TIP3     H2       HT       0.417000       1.00800           0
     32775 TIP3     3465     TIP3     OH2      OT      -0.834000       15.9994           0
     32776 TIP3     3465     TIP3     H1       HT       0.417000       1.00800           0
     32777 TIP3     3465     TIP3     H2       HT       0.417000       1.00800           0
     32778 TIP3     3466     TIP3     OH2      OT      -0.834000       15.9994           0
     32779 TIP3     3466     TIP3     H1       HT       0.417000       1.00800           0
     32780 TIP3     3466     TIP3     H2       HT       0.417000       1.00800           0
     32781 TIP3     3467     TIP3     OH2      OT      -0.834000       15.9994           0
     32782 TIP3     3467     TIP3     H1       HT       0.417000       1.00800           0
     32783 TIP3     3467     TIP3     H2       HT       0.417000       1.00800           0
     32784 TIP3     3468     TIP3     OH2      OT      -0.834000       15.9994           0
     32785 TIP3     3468     TIP3     H1       HT       0.417000       1.00800           0
     32786 TIP3     3468     TIP3     H2       HT       0.417000       1.00800           0
     32787 TIP3     3469     TIP3     OH2      OT      -0.834000       15.9994           0
     32788 TIP3     3469     TIP3     H1       HT       0.417000       1.00800           0
     32789 TIP3     3469     TIP3     H2       HT       0.417000       1.00800           0
     32790 TIP3     3470     TIP3     OH2      OT      -0.834000       15.9994           0
     32791 TIP3     3470     TIP3     H1       HT       0.417000       1.00800           0
     32792 TIP3     3470     TIP3     H2       HT       0.417000       1.00800           0
     32793 TIP3     3471     TIP3     OH2      OT      -0.834000       15.9994           0
     32794 TIP3     3471     TIP3     H1       HT       0.417000       1.00800           0
     32795 TIP3     3471     TIP3     H2       HT       0.417000       1.00800           0
     32796 TIP3     3472     TIP3     OH2      OT      -0.834000       15.9994           0
     32797 TIP3     3472     TIP3     H1       HT       0.417000       1.00800           0
     32798 TIP3     3472     TIP3     H2       HT       0.417000       1.00800           0
     32799 TIP3     3473     TIP3     OH2      OT      -0.834000       15.9994           0
     32800 TIP3     3473     TIP3     H1       HT       0.417000       1.00800           0
     32801 TIP3     3473     TIP3     H2       HT       0.417000       1.00800           0
     32802 TIP3     3474     TIP3     OH2      OT      -0.834000       15.9994           0
     32803 TIP3     3474     TIP3     H1       HT       0.417000       1.00800           0
     32804 TIP3     3474     TIP3     H2       HT       0.417000       1.00800           0
     32805 TIP3     3475     TIP3     OH2      OT      -0.834000       15.9994           0
     32806 TIP3     3475     TIP3     H1       HT       0.417000       1.00800           0
     32807 TIP3     3475     TIP3     H2       HT       0.417000       1.00800           0
     32808 TIP3     3476     TIP3     OH2      OT      -0.834000       15.9994           0
     32809 TIP3     3476     TIP3     H1       HT       0.417000       1.00800           0
     32810 TIP3     3476     TIP3     H2       HT       0.417000       1.00800           0
     32811 TIP3     3477     TIP3     OH2      OT      -0.834000       15.9994           0
     32812 TIP3     3477     TIP3     H1       HT       0.417000       1.00800           0
     32813 TIP3     3477     TIP3     H2       HT       0.417000       1.00800           0
     32814 TIP3     3478     TIP3     OH2      OT      -0.834000       15.9994           0
     32815 TIP3     3478     TIP3     H1       HT       0.417000       1.00800           0
     32816 TIP3     3478     TIP3     H2       HT       0.417000       1.00800           0
     32817 TIP3     3479     TIP3     OH2      OT      -0.834000       15.9994           0
     32818 TIP3     3479     TIP3     H1       HT       0.417000       1.00800           0
     32819 TIP3     3479     TIP3     H2       HT       0.417000       1.00800           0
     32820 TIP3     3480     TIP3     OH2      OT      -0.834000       15.9994           0
     32821 TIP3     3480     TIP3     H1       HT       0.417000       1.00800           0
     32822 TIP3     3480     TIP3     H2       HT       0.417000       1.00800           0
     32823 TIP3     3481     TIP3     OH2      OT      -0.834000       15.9994           0
     32824 TIP3     3481     TIP3     H1       HT       0.417000       1.00800           0
     32825 TIP3     3481     TIP3     H2       HT       0.417000       1.00800           0
     32826 TIP3     3482     TIP3     OH2      OT      -0.834000       15.9994           0
     32827 TIP3     3482     TIP3     H1       HT       0.417000       1.00800           0
     32828 TIP3     3482     TIP3     H2       HT       0.417000       1.00800           0
     32829 TIP3     3483     TIP3     OH2      OT      -0.834000       15.9994           0
     32830 TIP3     3483     TIP3     H1       HT       0.417000       1.00800           0
     32831 TIP3     3483     TIP3     H2       HT       0.417000       1.00800           0
     32832 TIP3     3484     TIP3     OH2      OT      -0.834000       15.9994           0
     32833 TIP3     3484     TIP3     H1       HT       0.417000       1.00800           0
     32834 TIP3     3484     TIP3     H2       HT       0.417000       1.00800           0
     32835 TIP3     3485     TIP3     OH2      OT      -0.834000       15.9994           0
     32836 TIP3     3485     TIP3     H1       HT       0.417000       1.00800           0
     32837 TIP3     3485     TIP3     H2       HT       0.417000       1.00800           0
     32838 TIP3     3486     TIP3     OH2      OT      -0.834000       15.9994           0
     32839 TIP3     3486     TIP3     H1       HT       0.417000       1.00800           0
     32840 TIP3     3486     TIP3     H2       HT       0.417000       1.00800           0
     32841 TIP3     3487     TIP3     OH2      OT      -0.834000       15.9994           0
     32842 TIP3     3487     TIP3     H1       HT       0.417000       1.00800           0
     32843 TIP3     3487     TIP3     H2       HT       0.417000       1.00800           0
     32844 TIP3     3488     TIP3     OH2      OT      -0.834000       15.9994           0
     32845 TIP3     3488     TIP3     H1       HT       0.417000       1.00800           0
     32846 TIP3     3488     TIP3     H2       HT       0.417000       1.00800           0
     32847 TIP3     3489     TIP3     OH2      OT      -0.834000       15.9994           0
     32848 TIP3     3489     TIP3     H1       HT       0.417000       1.00800           0
     32849 TIP3     3489     TIP3     H2       HT       0.417000       1.00800           0
     32850 TIP3     3490     TIP3     OH2      OT      -0.834000       15.9994           0
     32851 TIP3     3490     TIP3     H1       HT       0.417000       1.00800           0
     32852 TIP3     3490     TIP3     H2       HT       0.417000       1.00800           0
     32853 TIP3     3491     TIP3     OH2      OT      -0.834000       15.9994           0
     32854 TIP3     3491     TIP3     H1       HT       0.417000       1.00800           0
     32855 TIP3     3491     TIP3     H2       HT       0.417000       1.00800           0
     32856 TIP3     3492     TIP3     OH2      OT      -0.834000       15.9994           0
     32857 TIP3     3492     TIP3     H1       HT       0.417000       1.00800           0
     32858 TIP3     3492     TIP3     H2       HT       0.417000       1.00800           0
     32859 TIP3     3493     TIP3     OH2      OT      -0.834000       15.9994           0
     32860 TIP3     3493     TIP3     H1       HT       0.417000       1.00800           0
     32861 TIP3     3493     TIP3     H2       HT       0.417000       1.00800           0
     32862 TIP3     3494     TIP3     OH2      OT      -0.834000       15.9994           0
     32863 TIP3     3494     TIP3     H1       HT       0.417000       1.00800           0
     32864 TIP3     3494     TIP3     H2       HT       0.417000       1.00800           0
     32865 TIP3     3495     TIP3     OH2      OT      -0.834000       15.9994           0
     32866 TIP3     3495     TIP3     H1       HT       0.417000       1.00800           0
     32867 TIP3     3495     TIP3     H2       HT       0.417000       1.00800           0
     32868 TIP3     3496     TIP3     OH2      OT      -0.834000       15.9994           0
     32869 TIP3     3496     TIP3     H1       HT       0.417000       1.00800           0
     32870 TIP3     3496     TIP3     H2       HT       0.417000       1.00800           0
     32871 TIP3     3497     TIP3     OH2      OT      -0.834000       15.9994           0
     32872 TIP3     3497     TIP3     H1       HT       0.417000       1.00800           0
     32873 TIP3     3497     TIP3     H2       HT       0.417000       1.00800           0
     32874 TIP3     3498     TIP3     OH2      OT      -0.834000       15.9994           0
     32875 TIP3     3498     TIP3     H1       HT       0.417000       1.00800           0
     32876 TIP3     3498     TIP3     H2       HT       0.417000       1.00800           0
     32877 TIP3     3499     TIP3     OH2      OT      -0.834000       15.9994           0
     32878 TIP3     3499     TIP3     H1       HT       0.417000       1.00800           0
     32879 TIP3     3499     TIP3     H2       HT       0.417000       1.00800           0
     32880 TIP3     3500     TIP3     OH2      OT      -0.834000       15.9994           0
     32881 TIP3     3500     TIP3     H1       HT       0.417000       1.00800           0
     32882 TIP3     3500     TIP3     H2       HT       0.417000       1.00800           0
     32883 TIP3     3501     TIP3     OH2      OT      -0.834000       15.9994           0
     32884 TIP3     3501     TIP3     H1       HT       0.417000       1.00800           0
     32885 TIP3     3501     TIP3     H2       HT       0.417000       1.00800           0
     32886 TIP3     3502     TIP3     OH2      OT      -0.834000       15.9994           0
     32887 TIP3     3502     TIP3     H1       HT       0.417000       1.00800           0
     32888 TIP3     3502     TIP3     H2       HT       0.417000       1.00800           0
     32889 TIP3     3503     TIP3     OH2      OT      -0.834000       15.9994           0
     32890 TIP3     3503     TIP3     H1       HT       0.417000       1.00800           0
     32891 TIP3     3503     TIP3     H2       HT       0.417000       1.00800           0
     32892 TIP3     3504     TIP3     OH2      OT      -0.834000       15.9994           0
     32893 TIP3     3504     TIP3     H1       HT       0.417000       1.00800           0
     32894 TIP3     3504     TIP3     H2       HT       0.417000       1.00800           0
     32895 TIP3     3505     TIP3     OH2      OT      -0.834000       15.9994           0
     32896 TIP3     3505     TIP3     H1       HT       0.417000       1.00800           0
     32897 TIP3     3505     TIP3     H2       HT       0.417000       1.00800           0
     32898 TIP3     3506     TIP3     OH2      OT      -0.834000       15.9994           0
     32899 TIP3     3506     TIP3     H1       HT       0.417000       1.00800           0
     32900 TIP3     3506     TIP3     H2       HT       0.417000       1.00800           0
     32901 TIP3     3507     TIP3     OH2      OT      -0.834000       15.9994           0
     32902 TIP3     3507     TIP3     H1       HT       0.417000       1.00800           0
     32903 TIP3     3507     TIP3     H2       HT       0.417000       1.00800           0
     32904 TIP3     3508     TIP3     OH2      OT      -0.834000       15.9994           0
     32905 TIP3     3508     TIP3     H1       HT       0.417000       1.00800           0
     32906 TIP3     3508     TIP3     H2       HT       0.417000       1.00800           0
     32907 TIP3     3509     TIP3     OH2      OT      -0.834000       15.9994           0
     32908 TIP3     3509     TIP3     H1       HT       0.417000       1.00800           0
     32909 TIP3     3509     TIP3     H2       HT       0.417000       1.00800           0
     32910 TIP3     3510     TIP3     OH2      OT      -0.834000       15.9994           0
     32911 TIP3     3510     TIP3     H1       HT       0.417000       1.00800           0
     32912 TIP3     3510     TIP3     H2       HT       0.417000       1.00800           0
     32913 TIP3     3511     TIP3     OH2      OT      -0.834000       15.9994           0
     32914 TIP3     3511     TIP3     H1       HT       0.417000       1.00800           0
     32915 TIP3     3511     TIP3     H2       HT       0.417000       1.00800           0
     32916 TIP3     3512     TIP3     OH2      OT      -0.834000       15.9994           0
     32917 TIP3     3512     TIP3     H1       HT       0.417000       1.00800           0
     32918 TIP3     3512     TIP3     H2       HT       0.417000       1.00800           0
     32919 TIP3     3513     TIP3     OH2      OT      -0.834000       15.9994           0
     32920 TIP3     3513     TIP3     H1       HT       0.417000       1.00800           0
     32921 TIP3     3513     TIP3     H2       HT       0.417000       1.00800           0
     32922 TIP3     3514     TIP3     OH2      OT      -0.834000       15.9994           0
     32923 TIP3     3514     TIP3     H1       HT       0.417000       1.00800           0
     32924 TIP3     3514     TIP3     H2       HT       0.417000       1.00800           0
     32925 TIP3     3515     TIP3     OH2      OT      -0.834000       15.9994           0
     32926 TIP3     3515     TIP3     H1       HT       0.417000       1.00800           0
     32927 TIP3     3515     TIP3     H2       HT       0.417000       1.00800           0
     32928 TIP3     3516     TIP3     OH2      OT      -0.834000       15.9994           0
     32929 TIP3     3516     TIP3     H1       HT       0.417000       1.00800           0
     32930 TIP3     3516     TIP3     H2       HT       0.417000       1.00800           0
     32931 TIP3     3517     TIP3     OH2      OT      -0.834000       15.9994           0
     32932 TIP3     3517     TIP3     H1       HT       0.417000       1.00800           0
     32933 TIP3     3517     TIP3     H2       HT       0.417000       1.00800           0
     32934 TIP3     3518     TIP3     OH2      OT      -0.834000       15.9994           0
     32935 TIP3     3518     TIP3     H1       HT       0.417000       1.00800           0
     32936 TIP3     3518     TIP3     H2       HT       0.417000       1.00800           0
     32937 TIP3     3519     TIP3     OH2      OT      -0.834000       15.9994           0
     32938 TIP3     3519     TIP3     H1       HT       0.417000       1.00800           0
     32939 TIP3     3519     TIP3     H2       HT       0.417000       1.00800           0
     32940 TIP3     3520     TIP3     OH2      OT      -0.834000       15.9994           0
     32941 TIP3     3520     TIP3     H1       HT       0.417000       1.00800           0
     32942 TIP3     3520     TIP3     H2       HT       0.417000       1.00800           0
     32943 TIP3     3521     TIP3     OH2      OT      -0.834000       15.9994           0
     32944 TIP3     3521     TIP3     H1       HT       0.417000       1.00800           0
     32945 TIP3     3521     TIP3     H2       HT       0.417000       1.00800           0
     32946 TIP3     3522     TIP3     OH2      OT      -0.834000       15.9994           0
     32947 TIP3     3522     TIP3     H1       HT       0.417000       1.00800           0
     32948 TIP3     3522     TIP3     H2       HT       0.417000       1.00800           0
     32949 TIP3     3523     TIP3     OH2      OT      -0.834000       15.9994           0
     32950 TIP3     3523     TIP3     H1       HT       0.417000       1.00800           0
     32951 TIP3     3523     TIP3     H2       HT       0.417000       1.00800           0
     32952 TIP3     3524     TIP3     OH2      OT      -0.834000       15.9994           0
     32953 TIP3     3524     TIP3     H1       HT       0.417000       1.00800           0
     32954 TIP3     3524     TIP3     H2       HT       0.417000       1.00800           0
     32955 TIP3     3525     TIP3     OH2      OT      -0.834000       15.9994           0
     32956 TIP3     3525     TIP3     H1       HT       0.417000       1.00800           0
     32957 TIP3     3525     TIP3     H2       HT       0.417000       1.00800           0
     32958 TIP3     3526     TIP3     OH2      OT      -0.834000       15.9994           0
     32959 TIP3     3526     TIP3     H1       HT       0.417000       1.00800           0
     32960 TIP3     3526     TIP3     H2       HT       0.417000       1.00800           0
     32961 TIP3     3527     TIP3     OH2      OT      -0.834000       15.9994           0
     32962 TIP3     3527     TIP3     H1       HT       0.417000       1.00800           0
     32963 TIP3     3527     TIP3     H2       HT       0.417000       1.00800           0
     32964 TIP3     3528     TIP3     OH2      OT      -0.834000       15.9994           0
     32965 TIP3     3528     TIP3     H1       HT       0.417000       1.00800           0
     32966 TIP3     3528     TIP3     H2       HT       0.417000       1.00800           0
     32967 TIP3     3529     TIP3     OH2      OT      -0.834000       15.9994           0
     32968 TIP3     3529     TIP3     H1       HT       0.417000       1.00800           0
     32969 TIP3     3529     TIP3     H2       HT       0.417000       1.00800           0
     32970 TIP3     3530     TIP3     OH2      OT      -0.834000       15.9994           0
     32971 TIP3     3530     TIP3     H1       HT       0.417000       1.00800           0
     32972 TIP3     3530     TIP3     H2       HT       0.417000       1.00800           0
     32973 TIP3     3531     TIP3     OH2      OT      -0.834000       15.9994           0
     32974 TIP3     3531     TIP3     H1       HT       0.417000       1.00800           0
     32975 TIP3     3531     TIP3     H2       HT       0.417000       1.00800           0
     32976 TIP3     3532     TIP3     OH2      OT      -0.834000       15.9994           0
     32977 TIP3     3532     TIP3     H1       HT       0.417000       1.00800           0
     32978 TIP3     3532     TIP3     H2       HT       0.417000       1.00800           0
     32979 TIP3     3533     TIP3     OH2      OT      -0.834000       15.9994           0
     32980 TIP3     3533     TIP3     H1       HT       0.417000       1.00800           0
     32981 TIP3     3533     TIP3     H2       HT       0.417000       1.00800           0
     32982 TIP3     3534     TIP3     OH2      OT      -0.834000       15.9994           0
     32983 TIP3     3534     TIP3     H1       HT       0.417000       1.00800           0
     32984 TIP3     3534     TIP3     H2       HT       0.417000       1.00800           0
     32985 TIP3     3535     TIP3     OH2      OT      -0.834000       15.9994           0
     32986 TIP3     3535     TIP3     H1       HT       0.417000       1.00800           0
     32987 TIP3     3535     TIP3     H2       HT       0.417000       1.00800           0
     32988 TIP3     3536     TIP3     OH2      OT      -0.834000       15.9994           0
     32989 TIP3     3536     TIP3     H1       HT       0.417000       1.00800           0
     32990 TIP3     3536     TIP3     H2       HT       0.417000       1.00800           0
     32991 TIP3     3537     TIP3     OH2      OT      -0.834000       15.9994           0
     32992 TIP3     3537     TIP3     H1       HT       0.417000       1.00800           0
     32993 TIP3     3537     TIP3     H2       HT       0.417000       1.00800           0
     32994 TIP3     3538     TIP3     OH2      OT      -0.834000       15.9994           0
     32995 TIP3     3538     TIP3     H1       HT       0.417000       1.00800           0
     32996 TIP3     3538     TIP3     H2       HT       0.417000       1.00800           0
     32997 TIP3     3539     TIP3     OH2      OT      -0.834000       15.9994           0
     32998 TIP3     3539     TIP3     H1       HT       0.417000       1.00800           0
     32999 TIP3     3539     TIP3     H2       HT       0.417000       1.00800           0
     33000 TIP3     3540     TIP3     OH2      OT      -0.834000       15.9994           0
     33001 TIP3     3540     TIP3     H1       HT       0.417000       1.00800           0
     33002 TIP3     3540     TIP3     H2       HT       0.417000       1.00800           0
     33003 TIP3     3541     TIP3     OH2      OT      -0.834000       15.9994           0
     33004 TIP3     3541     TIP3     H1       HT       0.417000       1.00800           0
     33005 TIP3     3541     TIP3     H2       HT       0.417000       1.00800           0
     33006 TIP3     3542     TIP3     OH2      OT      -0.834000       15.9994           0
     33007 TIP3     3542     TIP3     H1       HT       0.417000       1.00800           0
     33008 TIP3     3542     TIP3     H2       HT       0.417000       1.00800           0
     33009 TIP3     3543     TIP3     OH2      OT      -0.834000       15.9994           0
     33010 TIP3     3543     TIP3     H1       HT       0.417000       1.00800           0
     33011 TIP3     3543     TIP3     H2       HT       0.417000       1.00800           0
     33012 TIP3     3544     TIP3     OH2      OT      -0.834000       15.9994           0
     33013 TIP3     3544     TIP3     H1       HT       0.417000       1.00800           0
     33014 TIP3     3544     TIP3     H2       HT       0.417000       1.00800           0
     33015 TIP3     3545     TIP3     OH2      OT      -0.834000       15.9994           0
     33016 TIP3     3545     TIP3     H1       HT       0.417000       1.00800           0
     33017 TIP3     3545     TIP3     H2       HT       0.417000       1.00800           0
     33018 TIP3     3546     TIP3     OH2      OT      -0.834000       15.9994           0
     33019 TIP3     3546     TIP3     H1       HT       0.417000       1.00800           0
     33020 TIP3     3546     TIP3     H2       HT       0.417000       1.00800           0
     33021 TIP3     3547     TIP3     OH2      OT      -0.834000       15.9994           0
     33022 TIP3     3547     TIP3     H1       HT       0.417000       1.00800           0
     33023 TIP3     3547     TIP3     H2       HT       0.417000       1.00800           0
     33024 TIP3     3548     TIP3     OH2      OT      -0.834000       15.9994           0
     33025 TIP3     3548     TIP3     H1       HT       0.417000       1.00800           0
     33026 TIP3     3548     TIP3     H2       HT       0.417000       1.00800           0
     33027 TIP3     3549     TIP3     OH2      OT      -0.834000       15.9994           0
     33028 TIP3     3549     TIP3     H1       HT       0.417000       1.00800           0
     33029 TIP3     3549     TIP3     H2       HT       0.417000       1.00800           0
     33030 TIP3     3550     TIP3     OH2      OT      -0.834000       15.9994           0
     33031 TIP3     3550     TIP3     H1       HT       0.417000       1.00800           0
     33032 TIP3     3550     TIP3     H2       HT       0.417000       1.00800           0
     33033 TIP3     3551     TIP3     OH2      OT      -0.834000       15.9994           0
     33034 TIP3     3551     TIP3     H1       HT       0.417000       1.00800           0
     33035 TIP3     3551     TIP3     H2       HT       0.417000       1.00800           0
     33036 TIP3     3552     TIP3     OH2      OT      -0.834000       15.9994           0
     33037 TIP3     3552     TIP3     H1       HT       0.417000       1.00800           0
     33038 TIP3     3552     TIP3     H2       HT       0.417000       1.00800           0
     33039 TIP3     3553     TIP3     OH2      OT      -0.834000       15.9994           0
     33040 TIP3     3553     TIP3     H1       HT       0.417000       1.00800           0
     33041 TIP3     3553     TIP3     H2       HT       0.417000       1.00800           0
     33042 TIP3     3554     TIP3     OH2      OT      -0.834000       15.9994           0
     33043 TIP3     3554     TIP3     H1       HT       0.417000       1.00800           0
     33044 TIP3     3554     TIP3     H2       HT       0.417000       1.00800           0
     33045 TIP3     3555     TIP3     OH2      OT      -0.834000       15.9994           0
     33046 TIP3     3555     TIP3     H1       HT       0.417000       1.00800           0
     33047 TIP3     3555     TIP3     H2       HT       0.417000       1.00800           0
     33048 TIP3     3556     TIP3     OH2      OT      -0.834000       15.9994           0
     33049 TIP3     3556     TIP3     H1       HT       0.417000       1.00800           0
     33050 TIP3     3556     TIP3     H2       HT       0.417000       1.00800           0
     33051 TIP3     3557     TIP3     OH2      OT      -0.834000       15.9994           0
     33052 TIP3     3557     TIP3     H1       HT       0.417000       1.00800           0
     33053 TIP3     3557     TIP3     H2       HT       0.417000       1.00800           0
     33054 TIP3     3558     TIP3     OH2      OT      -0.834000       15.9994           0
     33055 TIP3     3558     TIP3     H1       HT       0.417000       1.00800           0
     33056 TIP3     3558     TIP3     H2       HT       0.417000       1.00800           0
     33057 TIP3     3559     TIP3     OH2      OT      -0.834000       15.9994           0
     33058 TIP3     3559     TIP3     H1       HT       0.417000       1.00800           0
     33059 TIP3     3559     TIP3     H2       HT       0.417000       1.00800           0
     33060 TIP3     3560     TIP3     OH2      OT      -0.834000       15.9994           0
     33061 TIP3     3560     TIP3     H1       HT       0.417000       1.00800           0
     33062 TIP3     3560     TIP3     H2       HT       0.417000       1.00800           0
     33063 TIP3     3561     TIP3     OH2      OT      -0.834000       15.9994           0
     33064 TIP3     3561     TIP3     H1       HT       0.417000       1.00800           0
     33065 TIP3     3561     TIP3     H2       HT       0.417000       1.00800           0
     33066 TIP3     3562     TIP3     OH2      OT      -0.834000       15.9994           0
     33067 TIP3     3562     TIP3     H1       HT       0.417000       1.00800           0
     33068 TIP3     3562     TIP3     H2       HT       0.417000       1.00800           0
     33069 TIP3     3563     TIP3     OH2      OT      -0.834000       15.9994           0
     33070 TIP3     3563     TIP3     H1       HT       0.417000       1.00800           0
     33071 TIP3     3563     TIP3     H2       HT       0.417000       1.00800           0
     33072 TIP3     3564     TIP3     OH2      OT      -0.834000       15.9994           0
     33073 TIP3     3564     TIP3     H1       HT       0.417000       1.00800           0
     33074 TIP3     3564     TIP3     H2       HT       0.417000       1.00800           0
     33075 TIP3     3565     TIP3     OH2      OT      -0.834000       15.9994           0
     33076 TIP3     3565     TIP3     H1       HT       0.417000       1.00800           0
     33077 TIP3     3565     TIP3     H2       HT       0.417000       1.00800           0
     33078 TIP3     3566     TIP3     OH2      OT      -0.834000       15.9994           0
     33079 TIP3     3566     TIP3     H1       HT       0.417000       1.00800           0
     33080 TIP3     3566     TIP3     H2       HT       0.417000       1.00800           0
     33081 TIP3     3567     TIP3     OH2      OT      -0.834000       15.9994           0
     33082 TIP3     3567     TIP3     H1       HT       0.417000       1.00800           0
     33083 TIP3     3567     TIP3     H2       HT       0.417000       1.00800           0
     33084 TIP3     3568     TIP3     OH2      OT      -0.834000       15.9994           0
     33085 TIP3     3568     TIP3     H1       HT       0.417000       1.00800           0
     33086 TIP3     3568     TIP3     H2       HT       0.417000       1.00800           0
     33087 TIP3     3569     TIP3     OH2      OT      -0.834000       15.9994           0
     33088 TIP3     3569     TIP3     H1       HT       0.417000       1.00800           0
     33089 TIP3     3569     TIP3     H2       HT       0.417000       1.00800           0
     33090 TIP3     3570     TIP3     OH2      OT      -0.834000       15.9994           0
     33091 TIP3     3570     TIP3     H1       HT       0.417000       1.00800           0
     33092 TIP3     3570     TIP3     H2       HT       0.417000       1.00800           0
     33093 TIP3     3571     TIP3     OH2      OT      -0.834000       15.9994           0
     33094 TIP3     3571     TIP3     H1       HT       0.417000       1.00800           0
     33095 TIP3     3571     TIP3     H2       HT       0.417000       1.00800           0
     33096 TIP3     3572     TIP3     OH2      OT      -0.834000       15.9994           0
     33097 TIP3     3572     TIP3     H1       HT       0.417000       1.00800           0
     33098 TIP3     3572     TIP3     H2       HT       0.417000       1.00800           0
     33099 TIP3     3573     TIP3     OH2      OT      -0.834000       15.9994           0
     33100 TIP3     3573     TIP3     H1       HT       0.417000       1.00800           0
     33101 TIP3     3573     TIP3     H2       HT       0.417000       1.00800           0
     33102 TIP3     3574     TIP3     OH2      OT      -0.834000       15.9994           0
     33103 TIP3     3574     TIP3     H1       HT       0.417000       1.00800           0
     33104 TIP3     3574     TIP3     H2       HT       0.417000       1.00800           0
     33105 TIP3     3575     TIP3     OH2      OT      -0.834000       15.9994           0
     33106 TIP3     3575     TIP3     H1       HT       0.417000       1.00800           0
     33107 TIP3     3575     TIP3     H2       HT       0.417000       1.00800           0
     33108 TIP3     3576     TIP3     OH2      OT      -0.834000       15.9994           0
     33109 TIP3     3576     TIP3     H1       HT       0.417000       1.00800           0
     33110 TIP3     3576     TIP3     H2       HT       0.417000       1.00800           0
     33111 TIP3     3577     TIP3     OH2      OT      -0.834000       15.9994           0
     33112 TIP3     3577     TIP3     H1       HT       0.417000       1.00800           0
     33113 TIP3     3577     TIP3     H2       HT       0.417000       1.00800           0
     33114 TIP3     3578     TIP3     OH2      OT      -0.834000       15.9994           0
     33115 TIP3     3578     TIP3     H1       HT       0.417000       1.00800           0
     33116 TIP3     3578     TIP3     H2       HT       0.417000       1.00800           0
     33117 TIP3     3579     TIP3     OH2      OT      -0.834000       15.9994           0
     33118 TIP3     3579     TIP3     H1       HT       0.417000       1.00800           0
     33119 TIP3     3579     TIP3     H2       HT       0.417000       1.00800           0
     33120 TIP3     3580     TIP3     OH2      OT      -0.834000       15.9994           0
     33121 TIP3     3580     TIP3     H1       HT       0.417000       1.00800           0
     33122 TIP3     3580     TIP3     H2       HT       0.417000       1.00800           0
     33123 TIP3     3581     TIP3     OH2      OT      -0.834000       15.9994           0
     33124 TIP3     3581     TIP3     H1       HT       0.417000       1.00800           0
     33125 TIP3     3581     TIP3     H2       HT       0.417000       1.00800           0
     33126 TIP3     3582     TIP3     OH2      OT      -0.834000       15.9994           0
     33127 TIP3     3582     TIP3     H1       HT       0.417000       1.00800           0
     33128 TIP3     3582     TIP3     H2       HT       0.417000       1.00800           0
     33129 TIP3     3583     TIP3     OH2      OT      -0.834000       15.9994           0
     33130 TIP3     3583     TIP3     H1       HT       0.417000       1.00800           0
     33131 TIP3     3583     TIP3     H2       HT       0.417000       1.00800           0
     33132 TIP3     3584     TIP3     OH2      OT      -0.834000       15.9994           0
     33133 TIP3     3584     TIP3     H1       HT       0.417000       1.00800           0
     33134 TIP3     3584     TIP3     H2       HT       0.417000       1.00800           0
     33135 TIP3     3585     TIP3     OH2      OT      -0.834000       15.9994           0
     33136 TIP3     3585     TIP3     H1       HT       0.417000       1.00800           0
     33137 TIP3     3585     TIP3     H2       HT       0.417000       1.00800           0
     33138 TIP3     3586     TIP3     OH2      OT      -0.834000       15.9994           0
     33139 TIP3     3586     TIP3     H1       HT       0.417000       1.00800           0
     33140 TIP3     3586     TIP3     H2       HT       0.417000       1.00800           0
     33141 TIP3     3587     TIP3     OH2      OT      -0.834000       15.9994           0
     33142 TIP3     3587     TIP3     H1       HT       0.417000       1.00800           0
     33143 TIP3     3587     TIP3     H2       HT       0.417000       1.00800           0
     33144 TIP3     3588     TIP3     OH2      OT      -0.834000       15.9994           0
     33145 TIP3     3588     TIP3     H1       HT       0.417000       1.00800           0
     33146 TIP3     3588     TIP3     H2       HT       0.417000       1.00800           0
     33147 TIP3     3589     TIP3     OH2      OT      -0.834000       15.9994           0
     33148 TIP3     3589     TIP3     H1       HT       0.417000       1.00800           0
     33149 TIP3     3589     TIP3     H2       HT       0.417000       1.00800           0
     33150 TIP3     3590     TIP3     OH2      OT      -0.834000       15.9994           0
     33151 TIP3     3590     TIP3     H1       HT       0.417000       1.00800           0
     33152 TIP3     3590     TIP3     H2       HT       0.417000       1.00800           0
     33153 TIP3     3591     TIP3     OH2      OT      -0.834000       15.9994           0
     33154 TIP3     3591     TIP3     H1       HT       0.417000       1.00800           0
     33155 TIP3     3591     TIP3     H2       HT       0.417000       1.00800           0
     33156 TIP3     3592     TIP3     OH2      OT      -0.834000       15.9994           0
     33157 TIP3     3592     TIP3     H1       HT       0.417000       1.00800           0
     33158 TIP3     3592     TIP3     H2       HT       0.417000       1.00800           0
     33159 TIP3     3593     TIP3     OH2      OT      -0.834000       15.9994           0
     33160 TIP3     3593     TIP3     H1       HT       0.417000       1.00800           0
     33161 TIP3     3593     TIP3     H2       HT       0.417000       1.00800           0
     33162 TIP3     3594     TIP3     OH2      OT      -0.834000       15.9994           0
     33163 TIP3     3594     TIP3     H1       HT       0.417000       1.00800           0
     33164 TIP3     3594     TIP3     H2       HT       0.417000       1.00800           0
     33165 TIP3     3595     TIP3     OH2      OT      -0.834000       15.9994           0
     33166 TIP3     3595     TIP3     H1       HT       0.417000       1.00800           0
     33167 TIP3     3595     TIP3     H2       HT       0.417000       1.00800           0
     33168 TIP3     3596     TIP3     OH2      OT      -0.834000       15.9994           0
     33169 TIP3     3596     TIP3     H1       HT       0.417000       1.00800           0
     33170 TIP3     3596     TIP3     H2       HT       0.417000       1.00800           0
     33171 TIP3     3597     TIP3     OH2      OT      -0.834000       15.9994           0
     33172 TIP3     3597     TIP3     H1       HT       0.417000       1.00800           0
     33173 TIP3     3597     TIP3     H2       HT       0.417000       1.00800           0
     33174 TIP3     3598     TIP3     OH2      OT      -0.834000       15.9994           0
     33175 TIP3     3598     TIP3     H1       HT       0.417000       1.00800           0
     33176 TIP3     3598     TIP3     H2       HT       0.417000       1.00800           0
     33177 TIP3     3599     TIP3     OH2      OT      -0.834000       15.9994           0
     33178 TIP3     3599     TIP3     H1       HT       0.417000       1.00800           0
     33179 TIP3     3599     TIP3     H2       HT       0.417000       1.00800           0
     33180 TIP3     3600     TIP3     OH2      OT      -0.834000       15.9994           0
     33181 TIP3     3600     TIP3     H1       HT       0.417000       1.00800           0
     33182 TIP3     3600     TIP3     H2       HT       0.417000       1.00800           0
     33183 TIP3     3601     TIP3     OH2      OT      -0.834000       15.9994           0
     33184 TIP3     3601     TIP3     H1       HT       0.417000       1.00800           0
     33185 TIP3     3601     TIP3     H2       HT       0.417000       1.00800           0
     33186 TIP3     3602     TIP3     OH2      OT      -0.834000       15.9994           0
     33187 TIP3     3602     TIP3     H1       HT       0.417000       1.00800           0
     33188 TIP3     3602     TIP3     H2       HT       0.417000       1.00800           0
     33189 TIP3     3603     TIP3     OH2      OT      -0.834000       15.9994           0
     33190 TIP3     3603     TIP3     H1       HT       0.417000       1.00800           0
     33191 TIP3     3603     TIP3     H2       HT       0.417000       1.00800           0
     33192 TIP3     3604     TIP3     OH2      OT      -0.834000       15.9994           0
     33193 TIP3     3604     TIP3     H1       HT       0.417000       1.00800           0
     33194 TIP3     3604     TIP3     H2       HT       0.417000       1.00800           0
     33195 TIP3     3605     TIP3     OH2      OT      -0.834000       15.9994           0
     33196 TIP3     3605     TIP3     H1       HT       0.417000       1.00800           0
     33197 TIP3     3605     TIP3     H2       HT       0.417000       1.00800           0
     33198 TIP3     3606     TIP3     OH2      OT      -0.834000       15.9994           0
     33199 TIP3     3606     TIP3     H1       HT       0.417000       1.00800           0
     33200 TIP3     3606     TIP3     H2       HT       0.417000       1.00800           0
     33201 TIP3     3607     TIP3     OH2      OT      -0.834000       15.9994           0
     33202 TIP3     3607     TIP3     H1       HT       0.417000       1.00800           0
     33203 TIP3     3607     TIP3     H2       HT       0.417000       1.00800           0
     33204 TIP3     3608     TIP3     OH2      OT      -0.834000       15.9994           0
     33205 TIP3     3608     TIP3     H1       HT       0.417000       1.00800           0
     33206 TIP3     3608     TIP3     H2       HT       0.417000       1.00800           0
     33207 TIP3     3609     TIP3     OH2      OT      -0.834000       15.9994           0
     33208 TIP3     3609     TIP3     H1       HT       0.417000       1.00800           0
     33209 TIP3     3609     TIP3     H2       HT       0.417000       1.00800           0
     33210 TIP3     3610     TIP3     OH2      OT      -0.834000       15.9994           0
     33211 TIP3     3610     TIP3     H1       HT       0.417000       1.00800           0
     33212 TIP3     3610     TIP3     H2       HT       0.417000       1.00800           0
     33213 TIP3     3611     TIP3     OH2      OT      -0.834000       15.9994           0
     33214 TIP3     3611     TIP3     H1       HT       0.417000       1.00800           0
     33215 TIP3     3611     TIP3     H2       HT       0.417000       1.00800           0
     33216 TIP3     3612     TIP3     OH2      OT      -0.834000       15.9994           0
     33217 TIP3     3612     TIP3     H1       HT       0.417000       1.00800           0
     33218 TIP3     3612     TIP3     H2       HT       0.417000       1.00800           0
     33219 TIP3     3613     TIP3     OH2      OT      -0.834000       15.9994           0
     33220 TIP3     3613     TIP3     H1       HT       0.417000       1.00800           0
     33221 TIP3     3613     TIP3     H2       HT       0.417000       1.00800           0
     33222 TIP3     3614     TIP3     OH2      OT      -0.834000       15.9994           0
     33223 TIP3     3614     TIP3     H1       HT       0.417000       1.00800           0
     33224 TIP3     3614     TIP3     H2       HT       0.417000       1.00800           0
     33225 TIP3     3615     TIP3     OH2      OT      -0.834000       15.9994           0
     33226 TIP3     3615     TIP3     H1       HT       0.417000       1.00800           0
     33227 TIP3     3615     TIP3     H2       HT       0.417000       1.00800           0
     33228 TIP3     3616     TIP3     OH2      OT      -0.834000       15.9994           0
     33229 TIP3     3616     TIP3     H1       HT       0.417000       1.00800           0
     33230 TIP3     3616     TIP3     H2       HT       0.417000       1.00800           0
     33231 TIP3     3617     TIP3     OH2      OT      -0.834000       15.9994           0
     33232 TIP3     3617     TIP3     H1       HT       0.417000       1.00800           0
     33233 TIP3     3617     TIP3     H2       HT       0.417000       1.00800           0
     33234 TIP3     3618     TIP3     OH2      OT      -0.834000       15.9994           0
     33235 TIP3     3618     TIP3     H1       HT       0.417000       1.00800           0
     33236 TIP3     3618     TIP3     H2       HT       0.417000       1.00800           0
     33237 TIP3     3619     TIP3     OH2      OT      -0.834000       15.9994           0
     33238 TIP3     3619     TIP3     H1       HT       0.417000       1.00800           0
     33239 TIP3     3619     TIP3     H2       HT       0.417000       1.00800           0
     33240 TIP3     3620     TIP3     OH2      OT      -0.834000       15.9994           0
     33241 TIP3     3620     TIP3     H1       HT       0.417000       1.00800           0
     33242 TIP3     3620     TIP3     H2       HT       0.417000       1.00800           0
     33243 TIP3     3621     TIP3     OH2      OT      -0.834000       15.9994           0
     33244 TIP3     3621     TIP3     H1       HT       0.417000       1.00800           0
     33245 TIP3     3621     TIP3     H2       HT       0.417000       1.00800           0
     33246 TIP3     3622     TIP3     OH2      OT      -0.834000       15.9994           0
     33247 TIP3     3622     TIP3     H1       HT       0.417000       1.00800           0
     33248 TIP3     3622     TIP3     H2       HT       0.417000       1.00800           0
     33249 TIP3     3623     TIP3     OH2      OT      -0.834000       15.9994           0
     33250 TIP3     3623     TIP3     H1       HT       0.417000       1.00800           0
     33251 TIP3     3623     TIP3     H2       HT       0.417000       1.00800           0
     33252 TIP3     3624     TIP3     OH2      OT      -0.834000       15.9994           0
     33253 TIP3     3624     TIP3     H1       HT       0.417000       1.00800           0
     33254 TIP3     3624     TIP3     H2       HT       0.417000       1.00800           0
     33255 TIP3     3625     TIP3     OH2      OT      -0.834000       15.9994           0
     33256 TIP3     3625     TIP3     H1       HT       0.417000       1.00800           0
     33257 TIP3     3625     TIP3     H2       HT       0.417000       1.00800           0
     33258 TIP3     3626     TIP3     OH2      OT      -0.834000       15.9994           0
     33259 TIP3     3626     TIP3     H1       HT       0.417000       1.00800           0
     33260 TIP3     3626     TIP3     H2       HT       0.417000       1.00800           0
     33261 TIP3     3627     TIP3     OH2      OT      -0.834000       15.9994           0
     33262 TIP3     3627     TIP3     H1       HT       0.417000       1.00800           0
     33263 TIP3     3627     TIP3     H2       HT       0.417000       1.00800           0
     33264 TIP3     3628     TIP3     OH2      OT      -0.834000       15.9994           0
     33265 TIP3     3628     TIP3     H1       HT       0.417000       1.00800           0
     33266 TIP3     3628     TIP3     H2       HT       0.417000       1.00800           0
     33267 TIP3     3629     TIP3     OH2      OT      -0.834000       15.9994           0
     33268 TIP3     3629     TIP3     H1       HT       0.417000       1.00800           0
     33269 TIP3     3629     TIP3     H2       HT       0.417000       1.00800           0
     33270 TIP3     3630     TIP3     OH2      OT      -0.834000       15.9994           0
     33271 TIP3     3630     TIP3     H1       HT       0.417000       1.00800           0
     33272 TIP3     3630     TIP3     H2       HT       0.417000       1.00800           0
     33273 TIP3     3631     TIP3     OH2      OT      -0.834000       15.9994           0
     33274 TIP3     3631     TIP3     H1       HT       0.417000       1.00800           0
     33275 TIP3     3631     TIP3     H2       HT       0.417000       1.00800           0
     33276 TIP3     3632     TIP3     OH2      OT      -0.834000       15.9994           0
     33277 TIP3     3632     TIP3     H1       HT       0.417000       1.00800           0
     33278 TIP3     3632     TIP3     H2       HT       0.417000       1.00800           0
     33279 TIP3     3633     TIP3     OH2      OT      -0.834000       15.9994           0
     33280 TIP3     3633     TIP3     H1       HT       0.417000       1.00800           0
     33281 TIP3     3633     TIP3     H2       HT       0.417000       1.00800           0
     33282 TIP3     3634     TIP3     OH2      OT      -0.834000       15.9994           0
     33283 TIP3     3634     TIP3     H1       HT       0.417000       1.00800           0
     33284 TIP3     3634     TIP3     H2       HT       0.417000       1.00800           0
     33285 TIP3     3635     TIP3     OH2      OT      -0.834000       15.9994           0
     33286 TIP3     3635     TIP3     H1       HT       0.417000       1.00800           0
     33287 TIP3     3635     TIP3     H2       HT       0.417000       1.00800           0
     33288 TIP3     3636     TIP3     OH2      OT      -0.834000       15.9994           0
     33289 TIP3     3636     TIP3     H1       HT       0.417000       1.00800           0
     33290 TIP3     3636     TIP3     H2       HT       0.417000       1.00800           0
     33291 TIP3     3637     TIP3     OH2      OT      -0.834000       15.9994           0
     33292 TIP3     3637     TIP3     H1       HT       0.417000       1.00800           0
     33293 TIP3     3637     TIP3     H2       HT       0.417000       1.00800           0
     33294 TIP3     3638     TIP3     OH2      OT      -0.834000       15.9994           0
     33295 TIP3     3638     TIP3     H1       HT       0.417000       1.00800           0
     33296 TIP3     3638     TIP3     H2       HT       0.417000       1.00800           0
     33297 TIP3     3639     TIP3     OH2      OT      -0.834000       15.9994           0
     33298 TIP3     3639     TIP3     H1       HT       0.417000       1.00800           0
     33299 TIP3     3639     TIP3     H2       HT       0.417000       1.00800           0
     33300 TIP3     3640     TIP3     OH2      OT      -0.834000       15.9994           0
     33301 TIP3     3640     TIP3     H1       HT       0.417000       1.00800           0
     33302 TIP3     3640     TIP3     H2       HT       0.417000       1.00800           0
     33303 TIP3     3641     TIP3     OH2      OT      -0.834000       15.9994           0
     33304 TIP3     3641     TIP3     H1       HT       0.417000       1.00800           0
     33305 TIP3     3641     TIP3     H2       HT       0.417000       1.00800           0
     33306 TIP3     3642     TIP3     OH2      OT      -0.834000       15.9994           0
     33307 TIP3     3642     TIP3     H1       HT       0.417000       1.00800           0
     33308 TIP3     3642     TIP3     H2       HT       0.417000       1.00800           0
     33309 TIP3     3643     TIP3     OH2      OT      -0.834000       15.9994           0
     33310 TIP3     3643     TIP3     H1       HT       0.417000       1.00800           0
     33311 TIP3     3643     TIP3     H2       HT       0.417000       1.00800           0
     33312 TIP3     3644     TIP3     OH2      OT      -0.834000       15.9994           0
     33313 TIP3     3644     TIP3     H1       HT       0.417000       1.00800           0
     33314 TIP3     3644     TIP3     H2       HT       0.417000       1.00800           0
     33315 TIP3     3645     TIP3     OH2      OT      -0.834000       15.9994           0
     33316 TIP3     3645     TIP3     H1       HT       0.417000       1.00800           0
     33317 TIP3     3645     TIP3     H2       HT       0.417000       1.00800           0
     33318 TIP3     3646     TIP3     OH2      OT      -0.834000       15.9994           0
     33319 TIP3     3646     TIP3     H1       HT       0.417000       1.00800           0
     33320 TIP3     3646     TIP3     H2       HT       0.417000       1.00800           0
     33321 TIP3     3647     TIP3     OH2      OT      -0.834000       15.9994           0
     33322 TIP3     3647     TIP3     H1       HT       0.417000       1.00800           0
     33323 TIP3     3647     TIP3     H2       HT       0.417000       1.00800           0
     33324 TIP3     3648     TIP3     OH2      OT      -0.834000       15.9994           0
     33325 TIP3     3648     TIP3     H1       HT       0.417000       1.00800           0
     33326 TIP3     3648     TIP3     H2       HT       0.417000       1.00800           0
     33327 TIP3     3649     TIP3     OH2      OT      -0.834000       15.9994           0
     33328 TIP3     3649     TIP3     H1       HT       0.417000       1.00800           0
     33329 TIP3     3649     TIP3     H2       HT       0.417000       1.00800           0
     33330 TIP3     3650     TIP3     OH2      OT      -0.834000       15.9994           0
     33331 TIP3     3650     TIP3     H1       HT       0.417000       1.00800           0
     33332 TIP3     3650     TIP3     H2       HT       0.417000       1.00800           0
     33333 TIP3     3651     TIP3     OH2      OT      -0.834000       15.9994           0
     33334 TIP3     3651     TIP3     H1       HT       0.417000       1.00800           0
     33335 TIP3     3651     TIP3     H2       HT       0.417000       1.00800           0
     33336 TIP3     3652     TIP3     OH2      OT      -0.834000       15.9994           0
     33337 TIP3     3652     TIP3     H1       HT       0.417000       1.00800           0
     33338 TIP3     3652     TIP3     H2       HT       0.417000       1.00800           0
     33339 TIP3     3653     TIP3     OH2      OT      -0.834000       15.9994           0
     33340 TIP3     3653     TIP3     H1       HT       0.417000       1.00800           0
     33341 TIP3     3653     TIP3     H2       HT       0.417000       1.00800           0
     33342 TIP3     3654     TIP3     OH2      OT      -0.834000       15.9994           0
     33343 TIP3     3654     TIP3     H1       HT       0.417000       1.00800           0
     33344 TIP3     3654     TIP3     H2       HT       0.417000       1.00800           0
     33345 TIP3     3655     TIP3     OH2      OT      -0.834000       15.9994           0
     33346 TIP3     3655     TIP3     H1       HT       0.417000       1.00800           0
     33347 TIP3     3655     TIP3     H2       HT       0.417000       1.00800           0
     33348 TIP3     3656     TIP3     OH2      OT      -0.834000       15.9994           0
     33349 TIP3     3656     TIP3     H1       HT       0.417000       1.00800           0
     33350 TIP3     3656     TIP3     H2       HT       0.417000       1.00800           0
     33351 TIP3     3657     TIP3     OH2      OT      -0.834000       15.9994           0
     33352 TIP3     3657     TIP3     H1       HT       0.417000       1.00800           0
     33353 TIP3     3657     TIP3     H2       HT       0.417000       1.00800           0
     33354 TIP3     3658     TIP3     OH2      OT      -0.834000       15.9994           0
     33355 TIP3     3658     TIP3     H1       HT       0.417000       1.00800           0
     33356 TIP3     3658     TIP3     H2       HT       0.417000       1.00800           0
     33357 TIP3     3659     TIP3     OH2      OT      -0.834000       15.9994           0
     33358 TIP3     3659     TIP3     H1       HT       0.417000       1.00800           0
     33359 TIP3     3659     TIP3     H2       HT       0.417000       1.00800           0
     33360 TIP3     3660     TIP3     OH2      OT      -0.834000       15.9994           0
     33361 TIP3     3660     TIP3     H1       HT       0.417000       1.00800           0
     33362 TIP3     3660     TIP3     H2       HT       0.417000       1.00800           0
     33363 TIP3     3661     TIP3     OH2      OT      -0.834000       15.9994           0
     33364 TIP3     3661     TIP3     H1       HT       0.417000       1.00800           0
     33365 TIP3     3661     TIP3     H2       HT       0.417000       1.00800           0
     33366 TIP3     3662     TIP3     OH2      OT      -0.834000       15.9994           0
     33367 TIP3     3662     TIP3     H1       HT       0.417000       1.00800           0
     33368 TIP3     3662     TIP3     H2       HT       0.417000       1.00800           0
     33369 TIP3     3663     TIP3     OH2      OT      -0.834000       15.9994           0
     33370 TIP3     3663     TIP3     H1       HT       0.417000       1.00800           0
     33371 TIP3     3663     TIP3     H2       HT       0.417000       1.00800           0
     33372 TIP3     3664     TIP3     OH2      OT      -0.834000       15.9994           0
     33373 TIP3     3664     TIP3     H1       HT       0.417000       1.00800           0
     33374 TIP3     3664     TIP3     H2       HT       0.417000       1.00800           0
     33375 TIP3     3665     TIP3     OH2      OT      -0.834000       15.9994           0
     33376 TIP3     3665     TIP3     H1       HT       0.417000       1.00800           0
     33377 TIP3     3665     TIP3     H2       HT       0.417000       1.00800           0
     33378 TIP3     3666     TIP3     OH2      OT      -0.834000       15.9994           0
     33379 TIP3     3666     TIP3     H1       HT       0.417000       1.00800           0
     33380 TIP3     3666     TIP3     H2       HT       0.417000       1.00800           0
     33381 TIP3     3667     TIP3     OH2      OT      -0.834000       15.9994           0
     33382 TIP3     3667     TIP3     H1       HT       0.417000       1.00800           0
     33383 TIP3     3667     TIP3     H2       HT       0.417000       1.00800           0
     33384 TIP3     3668     TIP3     OH2      OT      -0.834000       15.9994           0
     33385 TIP3     3668     TIP3     H1       HT       0.417000       1.00800           0
     33386 TIP3     3668     TIP3     H2       HT       0.417000       1.00800           0
     33387 TIP3     3669     TIP3     OH2      OT      -0.834000       15.9994           0
     33388 TIP3     3669     TIP3     H1       HT       0.417000       1.00800           0
     33389 TIP3     3669     TIP3     H2       HT       0.417000       1.00800           0
     33390 TIP3     3670     TIP3     OH2      OT      -0.834000       15.9994           0
     33391 TIP3     3670     TIP3     H1       HT       0.417000       1.00800           0
     33392 TIP3     3670     TIP3     H2       HT       0.417000       1.00800           0
     33393 TIP3     3671     TIP3     OH2      OT      -0.834000       15.9994           0
     33394 TIP3     3671     TIP3     H1       HT       0.417000       1.00800           0
     33395 TIP3     3671     TIP3     H2       HT       0.417000       1.00800           0
     33396 TIP3     3672     TIP3     OH2      OT      -0.834000       15.9994           0
     33397 TIP3     3672     TIP3     H1       HT       0.417000       1.00800           0
     33398 TIP3     3672     TIP3     H2       HT       0.417000       1.00800           0
     33399 TIP3     3673     TIP3     OH2      OT      -0.834000       15.9994           0
     33400 TIP3     3673     TIP3     H1       HT       0.417000       1.00800           0
     33401 TIP3     3673     TIP3     H2       HT       0.417000       1.00800           0
     33402 TIP3     3674     TIP3     OH2      OT      -0.834000       15.9994           0
     33403 TIP3     3674     TIP3     H1       HT       0.417000       1.00800           0
     33404 TIP3     3674     TIP3     H2       HT       0.417000       1.00800           0
     33405 TIP3     3675     TIP3     OH2      OT      -0.834000       15.9994           0
     33406 TIP3     3675     TIP3     H1       HT       0.417000       1.00800           0
     33407 TIP3     3675     TIP3     H2       HT       0.417000       1.00800           0
     33408 TIP3     3676     TIP3     OH2      OT      -0.834000       15.9994           0
     33409 TIP3     3676     TIP3     H1       HT       0.417000       1.00800           0
     33410 TIP3     3676     TIP3     H2       HT       0.417000       1.00800           0
     33411 TIP3     3677     TIP3     OH2      OT      -0.834000       15.9994           0
     33412 TIP3     3677     TIP3     H1       HT       0.417000       1.00800           0
     33413 TIP3     3677     TIP3     H2       HT       0.417000       1.00800           0
     33414 TIP3     3678     TIP3     OH2      OT      -0.834000       15.9994           0
     33415 TIP3     3678     TIP3     H1       HT       0.417000       1.00800           0
     33416 TIP3     3678     TIP3     H2       HT       0.417000       1.00800           0
     33417 TIP3     3679     TIP3     OH2      OT      -0.834000       15.9994           0
     33418 TIP3     3679     TIP3     H1       HT       0.417000       1.00800           0
     33419 TIP3     3679     TIP3     H2       HT       0.417000       1.00800           0
     33420 TIP3     3680     TIP3     OH2      OT      -0.834000       15.9994           0
     33421 TIP3     3680     TIP3     H1       HT       0.417000       1.00800           0
     33422 TIP3     3680     TIP3     H2       HT       0.417000       1.00800           0
     33423 TIP3     3681     TIP3     OH2      OT      -0.834000       15.9994           0
     33424 TIP3     3681     TIP3     H1       HT       0.417000       1.00800           0
     33425 TIP3     3681     TIP3     H2       HT       0.417000       1.00800           0
     33426 TIP3     3682     TIP3     OH2      OT      -0.834000       15.9994           0
     33427 TIP3     3682     TIP3     H1       HT       0.417000       1.00800           0
     33428 TIP3     3682     TIP3     H2       HT       0.417000       1.00800           0
     33429 TIP3     3683     TIP3     OH2      OT      -0.834000       15.9994           0
     33430 TIP3     3683     TIP3     H1       HT       0.417000       1.00800           0
     33431 TIP3     3683     TIP3     H2       HT       0.417000       1.00800           0
     33432 TIP3     3684     TIP3     OH2      OT      -0.834000       15.9994           0
     33433 TIP3     3684     TIP3     H1       HT       0.417000       1.00800           0
     33434 TIP3     3684     TIP3     H2       HT       0.417000       1.00800           0
     33435 TIP3     3685     TIP3     OH2      OT      -0.834000       15.9994           0
     33436 TIP3     3685     TIP3     H1       HT       0.417000       1.00800           0
     33437 TIP3     3685     TIP3     H2       HT       0.417000       1.00800           0
     33438 TIP3     3686     TIP3     OH2      OT      -0.834000       15.9994           0
     33439 TIP3     3686     TIP3     H1       HT       0.417000       1.00800           0
     33440 TIP3     3686     TIP3     H2       HT       0.417000       1.00800           0
     33441 TIP3     3687     TIP3     OH2      OT      -0.834000       15.9994           0
     33442 TIP3     3687     TIP3     H1       HT       0.417000       1.00800           0
     33443 TIP3     3687     TIP3     H2       HT       0.417000       1.00800           0
     33444 TIP3     3688     TIP3     OH2      OT      -0.834000       15.9994           0
     33445 TIP3     3688     TIP3     H1       HT       0.417000       1.00800           0
     33446 TIP3     3688     TIP3     H2       HT       0.417000       1.00800           0
     33447 TIP3     3689     TIP3     OH2      OT      -0.834000       15.9994           0
     33448 TIP3     3689     TIP3     H1       HT       0.417000       1.00800           0
     33449 TIP3     3689     TIP3     H2       HT       0.417000       1.00800           0
     33450 TIP3     3690     TIP3     OH2      OT      -0.834000       15.9994           0
     33451 TIP3     3690     TIP3     H1       HT       0.417000       1.00800           0
     33452 TIP3     3690     TIP3     H2       HT       0.417000       1.00800           0
     33453 TIP3     3691     TIP3     OH2      OT      -0.834000       15.9994           0
     33454 TIP3     3691     TIP3     H1       HT       0.417000       1.00800           0
     33455 TIP3     3691     TIP3     H2       HT       0.417000       1.00800           0
     33456 TIP3     3692     TIP3     OH2      OT      -0.834000       15.9994           0
     33457 TIP3     3692     TIP3     H1       HT       0.417000       1.00800           0
     33458 TIP3     3692     TIP3     H2       HT       0.417000       1.00800           0
     33459 TIP3     3693     TIP3     OH2      OT      -0.834000       15.9994           0
     33460 TIP3     3693     TIP3     H1       HT       0.417000       1.00800           0
     33461 TIP3     3693     TIP3     H2       HT       0.417000       1.00800           0
     33462 TIP3     3694     TIP3     OH2      OT      -0.834000       15.9994           0
     33463 TIP3     3694     TIP3     H1       HT       0.417000       1.00800           0
     33464 TIP3     3694     TIP3     H2       HT       0.417000       1.00800           0
     33465 TIP3     3695     TIP3     OH2      OT      -0.834000       15.9994           0
     33466 TIP3     3695     TIP3     H1       HT       0.417000       1.00800           0
     33467 TIP3     3695     TIP3     H2       HT       0.417000       1.00800           0
     33468 TIP3     3696     TIP3     OH2      OT      -0.834000       15.9994           0
     33469 TIP3     3696     TIP3     H1       HT       0.417000       1.00800           0
     33470 TIP3     3696     TIP3     H2       HT       0.417000       1.00800           0
     33471 TIP3     3697     TIP3     OH2      OT      -0.834000       15.9994           0
     33472 TIP3     3697     TIP3     H1       HT       0.417000       1.00800           0
     33473 TIP3     3697     TIP3     H2       HT       0.417000       1.00800           0
     33474 TIP3     3698     TIP3     OH2      OT      -0.834000       15.9994           0
     33475 TIP3     3698     TIP3     H1       HT       0.417000       1.00800           0
     33476 TIP3     3698     TIP3     H2       HT       0.417000       1.00800           0
     33477 TIP3     3699     TIP3     OH2      OT      -0.834000       15.9994           0
     33478 TIP3     3699     TIP3     H1       HT       0.417000       1.00800           0
     33479 TIP3     3699     TIP3     H2       HT       0.417000       1.00800           0
     33480 TIP3     3700     TIP3     OH2      OT      -0.834000       15.9994           0
     33481 TIP3     3700     TIP3     H1       HT       0.417000       1.00800           0
     33482 TIP3     3700     TIP3     H2       HT       0.417000       1.00800           0
     33483 TIP3     3701     TIP3     OH2      OT      -0.834000       15.9994           0
     33484 TIP3     3701     TIP3     H1       HT       0.417000       1.00800           0
     33485 TIP3     3701     TIP3     H2       HT       0.417000       1.00800           0
     33486 TIP3     3702     TIP3     OH2      OT      -0.834000       15.9994           0
     33487 TIP3     3702     TIP3     H1       HT       0.417000       1.00800           0
     33488 TIP3     3702     TIP3     H2       HT       0.417000       1.00800           0
     33489 TIP3     3703     TIP3     OH2      OT      -0.834000       15.9994           0
     33490 TIP3     3703     TIP3     H1       HT       0.417000       1.00800           0
     33491 TIP3     3703     TIP3     H2       HT       0.417000       1.00800           0
     33492 TIP3     3704     TIP3     OH2      OT      -0.834000       15.9994           0
     33493 TIP3     3704     TIP3     H1       HT       0.417000       1.00800           0
     33494 TIP3     3704     TIP3     H2       HT       0.417000       1.00800           0
     33495 TIP3     3705     TIP3     OH2      OT      -0.834000       15.9994           0
     33496 TIP3     3705     TIP3     H1       HT       0.417000       1.00800           0
     33497 TIP3     3705     TIP3     H2       HT       0.417000       1.00800           0
     33498 TIP3     3706     TIP3     OH2      OT      -0.834000       15.9994           0
     33499 TIP3     3706     TIP3     H1       HT       0.417000       1.00800           0
     33500 TIP3     3706     TIP3     H2       HT       0.417000       1.00800           0
     33501 TIP3     3707     TIP3     OH2      OT      -0.834000       15.9994           0
     33502 TIP3     3707     TIP3     H1       HT       0.417000       1.00800           0
     33503 TIP3     3707     TIP3     H2       HT       0.417000       1.00800           0
     33504 TIP3     3708     TIP3     OH2      OT      -0.834000       15.9994           0
     33505 TIP3     3708     TIP3     H1       HT       0.417000       1.00800           0
     33506 TIP3     3708     TIP3     H2       HT       0.417000       1.00800           0
     33507 TIP3     3709     TIP3     OH2      OT      -0.834000       15.9994           0
     33508 TIP3     3709     TIP3     H1       HT       0.417000       1.00800           0
     33509 TIP3     3709     TIP3     H2       HT       0.417000       1.00800           0
     33510 TIP3     3710     TIP3     OH2      OT      -0.834000       15.9994           0
     33511 TIP3     3710     TIP3     H1       HT       0.417000       1.00800           0
     33512 TIP3     3710     TIP3     H2       HT       0.417000       1.00800           0
     33513 TIP3     3711     TIP3     OH2      OT      -0.834000       15.9994           0
     33514 TIP3     3711     TIP3     H1       HT       0.417000       1.00800           0
     33515 TIP3     3711     TIP3     H2       HT       0.417000       1.00800           0
     33516 TIP3     3712     TIP3     OH2      OT      -0.834000       15.9994           0
     33517 TIP3     3712     TIP3     H1       HT       0.417000       1.00800           0
     33518 TIP3     3712     TIP3     H2       HT       0.417000       1.00800           0
     33519 TIP3     3713     TIP3     OH2      OT      -0.834000       15.9994           0
     33520 TIP3     3713     TIP3     H1       HT       0.417000       1.00800           0
     33521 TIP3     3713     TIP3     H2       HT       0.417000       1.00800           0
     33522 TIP3     3714     TIP3     OH2      OT      -0.834000       15.9994           0
     33523 TIP3     3714     TIP3     H1       HT       0.417000       1.00800           0
     33524 TIP3     3714     TIP3     H2       HT       0.417000       1.00800           0
     33525 TIP3     3715     TIP3     OH2      OT      -0.834000       15.9994           0
     33526 TIP3     3715     TIP3     H1       HT       0.417000       1.00800           0
     33527 TIP3     3715     TIP3     H2       HT       0.417000       1.00800           0
     33528 TIP3     3716     TIP3     OH2      OT      -0.834000       15.9994           0
     33529 TIP3     3716     TIP3     H1       HT       0.417000       1.00800           0
     33530 TIP3     3716     TIP3     H2       HT       0.417000       1.00800           0
     33531 TIP3     3717     TIP3     OH2      OT      -0.834000       15.9994           0
     33532 TIP3     3717     TIP3     H1       HT       0.417000       1.00800           0
     33533 TIP3     3717     TIP3     H2       HT       0.417000       1.00800           0
     33534 TIP3     3718     TIP3     OH2      OT      -0.834000       15.9994           0
     33535 TIP3     3718     TIP3     H1       HT       0.417000       1.00800           0
     33536 TIP3     3718     TIP3     H2       HT       0.417000       1.00800           0
     33537 TIP3     3719     TIP3     OH2      OT      -0.834000       15.9994           0
     33538 TIP3     3719     TIP3     H1       HT       0.417000       1.00800           0
     33539 TIP3     3719     TIP3     H2       HT       0.417000       1.00800           0
     33540 TIP3     3720     TIP3     OH2      OT      -0.834000       15.9994           0
     33541 TIP3     3720     TIP3     H1       HT       0.417000       1.00800           0
     33542 TIP3     3720     TIP3     H2       HT       0.417000       1.00800           0
     33543 TIP3     3721     TIP3     OH2      OT      -0.834000       15.9994           0
     33544 TIP3     3721     TIP3     H1       HT       0.417000       1.00800           0
     33545 TIP3     3721     TIP3     H2       HT       0.417000       1.00800           0
     33546 TIP3     3722     TIP3     OH2      OT      -0.834000       15.9994           0
     33547 TIP3     3722     TIP3     H1       HT       0.417000       1.00800           0
     33548 TIP3     3722     TIP3     H2       HT       0.417000       1.00800           0
     33549 TIP3     3723     TIP3     OH2      OT      -0.834000       15.9994           0
     33550 TIP3     3723     TIP3     H1       HT       0.417000       1.00800           0
     33551 TIP3     3723     TIP3     H2       HT       0.417000       1.00800           0
     33552 TIP3     3724     TIP3     OH2      OT      -0.834000       15.9994           0
     33553 TIP3     3724     TIP3     H1       HT       0.417000       1.00800           0
     33554 TIP3     3724     TIP3     H2       HT       0.417000       1.00800           0
     33555 TIP3     3725     TIP3     OH2      OT      -0.834000       15.9994           0
     33556 TIP3     3725     TIP3     H1       HT       0.417000       1.00800           0
     33557 TIP3     3725     TIP3     H2       HT       0.417000       1.00800           0
     33558 TIP3     3726     TIP3     OH2      OT      -0.834000       15.9994           0
     33559 TIP3     3726     TIP3     H1       HT       0.417000       1.00800           0
     33560 TIP3     3726     TIP3     H2       HT       0.417000       1.00800           0
     33561 TIP3     3727     TIP3     OH2      OT      -0.834000       15.9994           0
     33562 TIP3     3727     TIP3     H1       HT       0.417000       1.00800           0
     33563 TIP3     3727     TIP3     H2       HT       0.417000       1.00800           0
     33564 TIP3     3728     TIP3     OH2      OT      -0.834000       15.9994           0
     33565 TIP3     3728     TIP3     H1       HT       0.417000       1.00800           0
     33566 TIP3     3728     TIP3     H2       HT       0.417000       1.00800           0
     33567 TIP3     3729     TIP3     OH2      OT      -0.834000       15.9994           0
     33568 TIP3     3729     TIP3     H1       HT       0.417000       1.00800           0
     33569 TIP3     3729     TIP3     H2       HT       0.417000       1.00800           0
     33570 TIP3     3730     TIP3     OH2      OT      -0.834000       15.9994           0
     33571 TIP3     3730     TIP3     H1       HT       0.417000       1.00800           0
     33572 TIP3     3730     TIP3     H2       HT       0.417000       1.00800           0
     33573 TIP3     3731     TIP3     OH2      OT      -0.834000       15.9994           0
     33574 TIP3     3731     TIP3     H1       HT       0.417000       1.00800           0
     33575 TIP3     3731     TIP3     H2       HT       0.417000       1.00800           0
     33576 TIP3     3732     TIP3     OH2      OT      -0.834000       15.9994           0
     33577 TIP3     3732     TIP3     H1       HT       0.417000       1.00800           0
     33578 TIP3     3732     TIP3     H2       HT       0.417000       1.00800           0
     33579 TIP3     3733     TIP3     OH2      OT      -0.834000       15.9994           0
     33580 TIP3     3733     TIP3     H1       HT       0.417000       1.00800           0
     33581 TIP3     3733     TIP3     H2       HT       0.417000       1.00800           0
     33582 TIP3     3734     TIP3     OH2      OT      -0.834000       15.9994           0
     33583 TIP3     3734     TIP3     H1       HT       0.417000       1.00800           0
     33584 TIP3     3734     TIP3     H2       HT       0.417000       1.00800           0
     33585 TIP3     3735     TIP3     OH2      OT      -0.834000       15.9994           0
     33586 TIP3     3735     TIP3     H1       HT       0.417000       1.00800           0
     33587 TIP3     3735     TIP3     H2       HT       0.417000       1.00800           0
     33588 TIP3     3736     TIP3     OH2      OT      -0.834000       15.9994           0
     33589 TIP3     3736     TIP3     H1       HT       0.417000       1.00800           0
     33590 TIP3     3736     TIP3     H2       HT       0.417000       1.00800           0
     33591 TIP3     3737     TIP3     OH2      OT      -0.834000       15.9994           0
     33592 TIP3     3737     TIP3     H1       HT       0.417000       1.00800           0
     33593 TIP3     3737     TIP3     H2       HT       0.417000       1.00800           0
     33594 TIP3     3738     TIP3     OH2      OT      -0.834000       15.9994           0
     33595 TIP3     3738     TIP3     H1       HT       0.417000       1.00800           0
     33596 TIP3     3738     TIP3     H2       HT       0.417000       1.00800           0
     33597 TIP3     3739     TIP3     OH2      OT      -0.834000       15.9994           0
     33598 TIP3     3739     TIP3     H1       HT       0.417000       1.00800           0
     33599 TIP3     3739     TIP3     H2       HT       0.417000       1.00800           0
     33600 TIP3     3740     TIP3     OH2      OT      -0.834000       15.9994           0
     33601 TIP3     3740     TIP3     H1       HT       0.417000       1.00800           0
     33602 TIP3     3740     TIP3     H2       HT       0.417000       1.00800           0
     33603 TIP3     3741     TIP3     OH2      OT      -0.834000       15.9994           0
     33604 TIP3     3741     TIP3     H1       HT       0.417000       1.00800           0
     33605 TIP3     3741     TIP3     H2       HT       0.417000       1.00800           0
     33606 TIP3     3742     TIP3     OH2      OT      -0.834000       15.9994           0
     33607 TIP3     3742     TIP3     H1       HT       0.417000       1.00800           0
     33608 TIP3     3742     TIP3     H2       HT       0.417000       1.00800           0
     33609 TIP3     3743     TIP3     OH2      OT      -0.834000       15.9994           0
     33610 TIP3     3743     TIP3     H1       HT       0.417000       1.00800           0
     33611 TIP3     3743     TIP3     H2       HT       0.417000       1.00800           0
     33612 TIP3     3744     TIP3     OH2      OT      -0.834000       15.9994           0
     33613 TIP3     3744     TIP3     H1       HT       0.417000       1.00800           0
     33614 TIP3     3744     TIP3     H2       HT       0.417000       1.00800           0
     33615 TIP3     3745     TIP3     OH2      OT      -0.834000       15.9994           0
     33616 TIP3     3745     TIP3     H1       HT       0.417000       1.00800           0
     33617 TIP3     3745     TIP3     H2       HT       0.417000       1.00800           0
     33618 TIP3     3746     TIP3     OH2      OT      -0.834000       15.9994           0
     33619 TIP3     3746     TIP3     H1       HT       0.417000       1.00800           0
     33620 TIP3     3746     TIP3     H2       HT       0.417000       1.00800           0
     33621 TIP3     3747     TIP3     OH2      OT      -0.834000       15.9994           0
     33622 TIP3     3747     TIP3     H1       HT       0.417000       1.00800           0
     33623 TIP3     3747     TIP3     H2       HT       0.417000       1.00800           0
     33624 TIP3     3748     TIP3     OH2      OT      -0.834000       15.9994           0
     33625 TIP3     3748     TIP3     H1       HT       0.417000       1.00800           0
     33626 TIP3     3748     TIP3     H2       HT       0.417000       1.00800           0
     33627 TIP3     3749     TIP3     OH2      OT      -0.834000       15.9994           0
     33628 TIP3     3749     TIP3     H1       HT       0.417000       1.00800           0
     33629 TIP3     3749     TIP3     H2       HT       0.417000       1.00800           0
     33630 TIP3     3750     TIP3     OH2      OT      -0.834000       15.9994           0
     33631 TIP3     3750     TIP3     H1       HT       0.417000       1.00800           0
     33632 TIP3     3750     TIP3     H2       HT       0.417000       1.00800           0
     33633 TIP3     3751     TIP3     OH2      OT      -0.834000       15.9994           0
     33634 TIP3     3751     TIP3     H1       HT       0.417000       1.00800           0
     33635 TIP3     3751     TIP3     H2       HT       0.417000       1.00800           0
     33636 TIP3     3752     TIP3     OH2      OT      -0.834000       15.9994           0
     33637 TIP3     3752     TIP3     H1       HT       0.417000       1.00800           0
     33638 TIP3     3752     TIP3     H2       HT       0.417000       1.00800           0
     33639 TIP3     3753     TIP3     OH2      OT      -0.834000       15.9994           0
     33640 TIP3     3753     TIP3     H1       HT       0.417000       1.00800           0
     33641 TIP3     3753     TIP3     H2       HT       0.417000       1.00800           0
     33642 TIP3     3754     TIP3     OH2      OT      -0.834000       15.9994           0
     33643 TIP3     3754     TIP3     H1       HT       0.417000       1.00800           0
     33644 TIP3     3754     TIP3     H2       HT       0.417000       1.00800           0
     33645 TIP3     3755     TIP3     OH2      OT      -0.834000       15.9994           0
     33646 TIP3     3755     TIP3     H1       HT       0.417000       1.00800           0
     33647 TIP3     3755     TIP3     H2       HT       0.417000       1.00800           0
     33648 TIP3     3756     TIP3     OH2      OT      -0.834000       15.9994           0
     33649 TIP3     3756     TIP3     H1       HT       0.417000       1.00800           0
     33650 TIP3     3756     TIP3     H2       HT       0.417000       1.00800           0
     33651 TIP3     3757     TIP3     OH2      OT      -0.834000       15.9994           0
     33652 TIP3     3757     TIP3     H1       HT       0.417000       1.00800           0
     33653 TIP3     3757     TIP3     H2       HT       0.417000       1.00800           0
     33654 TIP3     3758     TIP3     OH2      OT      -0.834000       15.9994           0
     33655 TIP3     3758     TIP3     H1       HT       0.417000       1.00800           0
     33656 TIP3     3758     TIP3     H2       HT       0.417000       1.00800           0
     33657 TIP3     3759     TIP3     OH2      OT      -0.834000       15.9994           0
     33658 TIP3     3759     TIP3     H1       HT       0.417000       1.00800           0
     33659 TIP3     3759     TIP3     H2       HT       0.417000       1.00800           0
     33660 TIP3     3760     TIP3     OH2      OT      -0.834000       15.9994           0
     33661 TIP3     3760     TIP3     H1       HT       0.417000       1.00800           0
     33662 TIP3     3760     TIP3     H2       HT       0.417000       1.00800           0
     33663 TIP3     3761     TIP3     OH2      OT      -0.834000       15.9994           0
     33664 TIP3     3761     TIP3     H1       HT       0.417000       1.00800           0
     33665 TIP3     3761     TIP3     H2       HT       0.417000       1.00800           0
     33666 TIP3     3762     TIP3     OH2      OT      -0.834000       15.9994           0
     33667 TIP3     3762     TIP3     H1       HT       0.417000       1.00800           0
     33668 TIP3     3762     TIP3     H2       HT       0.417000       1.00800           0
     33669 TIP3     3763     TIP3     OH2      OT      -0.834000       15.9994           0
     33670 TIP3     3763     TIP3     H1       HT       0.417000       1.00800           0
     33671 TIP3     3763     TIP3     H2       HT       0.417000       1.00800           0
     33672 TIP3     3764     TIP3     OH2      OT      -0.834000       15.9994           0
     33673 TIP3     3764     TIP3     H1       HT       0.417000       1.00800           0
     33674 TIP3     3764     TIP3     H2       HT       0.417000       1.00800           0
     33675 TIP3     3765     TIP3     OH2      OT      -0.834000       15.9994           0
     33676 TIP3     3765     TIP3     H1       HT       0.417000       1.00800           0
     33677 TIP3     3765     TIP3     H2       HT       0.417000       1.00800           0
     33678 TIP3     3766     TIP3     OH2      OT      -0.834000       15.9994           0
     33679 TIP3     3766     TIP3     H1       HT       0.417000       1.00800           0
     33680 TIP3     3766     TIP3     H2       HT       0.417000       1.00800           0
     33681 TIP3     3767     TIP3     OH2      OT      -0.834000       15.9994           0
     33682 TIP3     3767     TIP3     H1       HT       0.417000       1.00800           0
     33683 TIP3     3767     TIP3     H2       HT       0.417000       1.00800           0
     33684 TIP3     3768     TIP3     OH2      OT      -0.834000       15.9994           0
     33685 TIP3     3768     TIP3     H1       HT       0.417000       1.00800           0
     33686 TIP3     3768     TIP3     H2       HT       0.417000       1.00800           0
     33687 TIP3     3769     TIP3     OH2      OT      -0.834000       15.9994           0
     33688 TIP3     3769     TIP3     H1       HT       0.417000       1.00800           0
     33689 TIP3     3769     TIP3     H2       HT       0.417000       1.00800           0
     33690 TIP3     3770     TIP3     OH2      OT      -0.834000       15.9994           0
     33691 TIP3     3770     TIP3     H1       HT       0.417000       1.00800           0
     33692 TIP3     3770     TIP3     H2       HT       0.417000       1.00800           0
     33693 TIP3     3771     TIP3     OH2      OT      -0.834000       15.9994           0
     33694 TIP3     3771     TIP3     H1       HT       0.417000       1.00800           0
     33695 TIP3     3771     TIP3     H2       HT       0.417000       1.00800           0
     33696 TIP3     3772     TIP3     OH2      OT      -0.834000       15.9994           0
     33697 TIP3     3772     TIP3     H1       HT       0.417000       1.00800           0
     33698 TIP3     3772     TIP3     H2       HT       0.417000       1.00800           0
     33699 TIP3     3773     TIP3     OH2      OT      -0.834000       15.9994           0
     33700 TIP3     3773     TIP3     H1       HT       0.417000       1.00800           0
     33701 TIP3     3773     TIP3     H2       HT       0.417000       1.00800           0
     33702 TIP3     3774     TIP3     OH2      OT      -0.834000       15.9994           0
     33703 TIP3     3774     TIP3     H1       HT       0.417000       1.00800           0
     33704 TIP3     3774     TIP3     H2       HT       0.417000       1.00800           0
     33705 TIP3     3775     TIP3     OH2      OT      -0.834000       15.9994           0
     33706 TIP3     3775     TIP3     H1       HT       0.417000       1.00800           0
     33707 TIP3     3775     TIP3     H2       HT       0.417000       1.00800           0
     33708 TIP3     3776     TIP3     OH2      OT      -0.834000       15.9994           0
     33709 TIP3     3776     TIP3     H1       HT       0.417000       1.00800           0
     33710 TIP3     3776     TIP3     H2       HT       0.417000       1.00800           0
     33711 TIP3     3777     TIP3     OH2      OT      -0.834000       15.9994           0
     33712 TIP3     3777     TIP3     H1       HT       0.417000       1.00800           0
     33713 TIP3     3777     TIP3     H2       HT       0.417000       1.00800           0
     33714 TIP3     3778     TIP3     OH2      OT      -0.834000       15.9994           0
     33715 TIP3     3778     TIP3     H1       HT       0.417000       1.00800           0
     33716 TIP3     3778     TIP3     H2       HT       0.417000       1.00800           0
     33717 TIP3     3779     TIP3     OH2      OT      -0.834000       15.9994           0
     33718 TIP3     3779     TIP3     H1       HT       0.417000       1.00800           0
     33719 TIP3     3779     TIP3     H2       HT       0.417000       1.00800           0
     33720 TIP3     3780     TIP3     OH2      OT      -0.834000       15.9994           0
     33721 TIP3     3780     TIP3     H1       HT       0.417000       1.00800           0
     33722 TIP3     3780     TIP3     H2       HT       0.417000       1.00800           0
     33723 TIP3     3781     TIP3     OH2      OT      -0.834000       15.9994           0
     33724 TIP3     3781     TIP3     H1       HT       0.417000       1.00800           0
     33725 TIP3     3781     TIP3     H2       HT       0.417000       1.00800           0
     33726 TIP3     3782     TIP3     OH2      OT      -0.834000       15.9994           0
     33727 TIP3     3782     TIP3     H1       HT       0.417000       1.00800           0
     33728 TIP3     3782     TIP3     H2       HT       0.417000       1.00800           0
     33729 TIP3     3783     TIP3     OH2      OT      -0.834000       15.9994           0
     33730 TIP3     3783     TIP3     H1       HT       0.417000       1.00800           0
     33731 TIP3     3783     TIP3     H2       HT       0.417000       1.00800           0
     33732 TIP3     3784     TIP3     OH2      OT      -0.834000       15.9994           0
     33733 TIP3     3784     TIP3     H1       HT       0.417000       1.00800           0
     33734 TIP3     3784     TIP3     H2       HT       0.417000       1.00800           0
     33735 TIP3     3785     TIP3     OH2      OT      -0.834000       15.9994           0
     33736 TIP3     3785     TIP3     H1       HT       0.417000       1.00800           0
     33737 TIP3     3785     TIP3     H2       HT       0.417000       1.00800           0
     33738 TIP3     3786     TIP3     OH2      OT      -0.834000       15.9994           0
     33739 TIP3     3786     TIP3     H1       HT       0.417000       1.00800           0
     33740 TIP3     3786     TIP3     H2       HT       0.417000       1.00800           0
     33741 TIP3     3787     TIP3     OH2      OT      -0.834000       15.9994           0
     33742 TIP3     3787     TIP3     H1       HT       0.417000       1.00800           0
     33743 TIP3     3787     TIP3     H2       HT       0.417000       1.00800           0
     33744 TIP3     3788     TIP3     OH2      OT      -0.834000       15.9994           0
     33745 TIP3     3788     TIP3     H1       HT       0.417000       1.00800           0
     33746 TIP3     3788     TIP3     H2       HT       0.417000       1.00800           0
     33747 TIP3     3789     TIP3     OH2      OT      -0.834000       15.9994           0
     33748 TIP3     3789     TIP3     H1       HT       0.417000       1.00800           0
     33749 TIP3     3789     TIP3     H2       HT       0.417000       1.00800           0
     33750 TIP3     3790     TIP3     OH2      OT      -0.834000       15.9994           0
     33751 TIP3     3790     TIP3     H1       HT       0.417000       1.00800           0
     33752 TIP3     3790     TIP3     H2       HT       0.417000       1.00800           0
     33753 TIP3     3791     TIP3     OH2      OT      -0.834000       15.9994           0
     33754 TIP3     3791     TIP3     H1       HT       0.417000       1.00800           0
     33755 TIP3     3791     TIP3     H2       HT       0.417000       1.00800           0
     33756 TIP3     3792     TIP3     OH2      OT      -0.834000       15.9994           0
     33757 TIP3     3792     TIP3     H1       HT       0.417000       1.00800           0
     33758 TIP3     3792     TIP3     H2       HT       0.417000       1.00800           0
     33759 TIP3     3793     TIP3     OH2      OT      -0.834000       15.9994           0
     33760 TIP3     3793     TIP3     H1       HT       0.417000       1.00800           0
     33761 TIP3     3793     TIP3     H2       HT       0.417000       1.00800           0
     33762 TIP3     3794     TIP3     OH2      OT      -0.834000       15.9994           0
     33763 TIP3     3794     TIP3     H1       HT       0.417000       1.00800           0
     33764 TIP3     3794     TIP3     H2       HT       0.417000       1.00800           0
     33765 TIP3     3795     TIP3     OH2      OT      -0.834000       15.9994           0
     33766 TIP3     3795     TIP3     H1       HT       0.417000       1.00800           0
     33767 TIP3     3795     TIP3     H2       HT       0.417000       1.00800           0
     33768 TIP3     3796     TIP3     OH2      OT      -0.834000       15.9994           0
     33769 TIP3     3796     TIP3     H1       HT       0.417000       1.00800           0
     33770 TIP3     3796     TIP3     H2       HT       0.417000       1.00800           0
     33771 TIP3     3797     TIP3     OH2      OT      -0.834000       15.9994           0
     33772 TIP3     3797     TIP3     H1       HT       0.417000       1.00800           0
     33773 TIP3     3797     TIP3     H2       HT       0.417000       1.00800           0
     33774 TIP3     3798     TIP3     OH2      OT      -0.834000       15.9994           0
     33775 TIP3     3798     TIP3     H1       HT       0.417000       1.00800           0
     33776 TIP3     3798     TIP3     H2       HT       0.417000       1.00800           0
     33777 TIP3     3799     TIP3     OH2      OT      -0.834000       15.9994           0
     33778 TIP3     3799     TIP3     H1       HT       0.417000       1.00800           0
     33779 TIP3     3799     TIP3     H2       HT       0.417000       1.00800           0
     33780 TIP3     3800     TIP3     OH2      OT      -0.834000       15.9994           0
     33781 TIP3     3800     TIP3     H1       HT       0.417000       1.00800           0
     33782 TIP3     3800     TIP3     H2       HT       0.417000       1.00800           0
     33783 TIP3     3801     TIP3     OH2      OT      -0.834000       15.9994           0
     33784 TIP3     3801     TIP3     H1       HT       0.417000       1.00800           0
     33785 TIP3     3801     TIP3     H2       HT       0.417000       1.00800           0
     33786 TIP3     3802     TIP3     OH2      OT      -0.834000       15.9994           0
     33787 TIP3     3802     TIP3     H1       HT       0.417000       1.00800           0
     33788 TIP3     3802     TIP3     H2       HT       0.417000       1.00800           0
     33789 TIP3     3803     TIP3     OH2      OT      -0.834000       15.9994           0
     33790 TIP3     3803     TIP3     H1       HT       0.417000       1.00800           0
     33791 TIP3     3803     TIP3     H2       HT       0.417000       1.00800           0
     33792 TIP3     3804     TIP3     OH2      OT      -0.834000       15.9994           0
     33793 TIP3     3804     TIP3     H1       HT       0.417000       1.00800           0
     33794 TIP3     3804     TIP3     H2       HT       0.417000       1.00800           0
     33795 TIP3     3805     TIP3     OH2      OT      -0.834000       15.9994           0
     33796 TIP3     3805     TIP3     H1       HT       0.417000       1.00800           0
     33797 TIP3     3805     TIP3     H2       HT       0.417000       1.00800           0
     33798 TIP3     3806     TIP3     OH2      OT      -0.834000       15.9994           0
     33799 TIP3     3806     TIP3     H1       HT       0.417000       1.00800           0
     33800 TIP3     3806     TIP3     H2       HT       0.417000       1.00800           0
     33801 TIP3     3807     TIP3     OH2      OT      -0.834000       15.9994           0
     33802 TIP3     3807     TIP3     H1       HT       0.417000       1.00800           0
     33803 TIP3     3807     TIP3     H2       HT       0.417000       1.00800           0
     33804 TIP3     3808     TIP3     OH2      OT      -0.834000       15.9994           0
     33805 TIP3     3808     TIP3     H1       HT       0.417000       1.00800           0
     33806 TIP3     3808     TIP3     H2       HT       0.417000       1.00800           0
     33807 TIP3     3809     TIP3     OH2      OT      -0.834000       15.9994           0
     33808 TIP3     3809     TIP3     H1       HT       0.417000       1.00800           0
     33809 TIP3     3809     TIP3     H2       HT       0.417000       1.00800           0
     33810 TIP3     3810     TIP3     OH2      OT      -0.834000       15.9994           0
     33811 TIP3     3810     TIP3     H1       HT       0.417000       1.00800           0
     33812 TIP3     3810     TIP3     H2       HT       0.417000       1.00800           0
     33813 TIP3     3811     TIP3     OH2      OT      -0.834000       15.9994           0
     33814 TIP3     3811     TIP3     H1       HT       0.417000       1.00800           0
     33815 TIP3     3811     TIP3     H2       HT       0.417000       1.00800           0
     33816 TIP3     3812     TIP3     OH2      OT      -0.834000       15.9994           0
     33817 TIP3     3812     TIP3     H1       HT       0.417000       1.00800           0
     33818 TIP3     3812     TIP3     H2       HT       0.417000       1.00800           0
     33819 TIP3     3813     TIP3     OH2      OT      -0.834000       15.9994           0
     33820 TIP3     3813     TIP3     H1       HT       0.417000       1.00800           0
     33821 TIP3     3813     TIP3     H2       HT       0.417000       1.00800           0
     33822 TIP3     3814     TIP3     OH2      OT      -0.834000       15.9994           0
     33823 TIP3     3814     TIP3     H1       HT       0.417000       1.00800           0
     33824 TIP3     3814     TIP3     H2       HT       0.417000       1.00800           0
     33825 TIP3     3815     TIP3     OH2      OT      -0.834000       15.9994           0
     33826 TIP3     3815     TIP3     H1       HT       0.417000       1.00800           0
     33827 TIP3     3815     TIP3     H2       HT       0.417000       1.00800           0
     33828 TIP3     3816     TIP3     OH2      OT      -0.834000       15.9994           0
     33829 TIP3     3816     TIP3     H1       HT       0.417000       1.00800           0
     33830 TIP3     3816     TIP3     H2       HT       0.417000       1.00800           0
     33831 TIP3     3817     TIP3     OH2      OT      -0.834000       15.9994           0
     33832 TIP3     3817     TIP3     H1       HT       0.417000       1.00800           0
     33833 TIP3     3817     TIP3     H2       HT       0.417000       1.00800           0
     33834 TIP3     3818     TIP3     OH2      OT      -0.834000       15.9994           0
     33835 TIP3     3818     TIP3     H1       HT       0.417000       1.00800           0
     33836 TIP3     3818     TIP3     H2       HT       0.417000       1.00800           0
     33837 TIP3     3819     TIP3     OH2      OT      -0.834000       15.9994           0
     33838 TIP3     3819     TIP3     H1       HT       0.417000       1.00800           0
     33839 TIP3     3819     TIP3     H2       HT       0.417000       1.00800           0
     33840 TIP3     3820     TIP3     OH2      OT      -0.834000       15.9994           0
     33841 TIP3     3820     TIP3     H1       HT       0.417000       1.00800           0
     33842 TIP3     3820     TIP3     H2       HT       0.417000       1.00800           0
     33843 TIP3     3821     TIP3     OH2      OT      -0.834000       15.9994           0
     33844 TIP3     3821     TIP3     H1       HT       0.417000       1.00800           0
     33845 TIP3     3821     TIP3     H2       HT       0.417000       1.00800           0
     33846 TIP3     3822     TIP3     OH2      OT      -0.834000       15.9994           0
     33847 TIP3     3822     TIP3     H1       HT       0.417000       1.00800           0
     33848 TIP3     3822     TIP3     H2       HT       0.417000       1.00800           0
     33849 TIP3     3823     TIP3     OH2      OT      -0.834000       15.9994           0
     33850 TIP3     3823     TIP3     H1       HT       0.417000       1.00800           0
     33851 TIP3     3823     TIP3     H2       HT       0.417000       1.00800           0
     33852 TIP3     3824     TIP3     OH2      OT      -0.834000       15.9994           0
     33853 TIP3     3824     TIP3     H1       HT       0.417000       1.00800           0
     33854 TIP3     3824     TIP3     H2       HT       0.417000       1.00800           0
     33855 TIP3     3825     TIP3     OH2      OT      -0.834000       15.9994           0
     33856 TIP3     3825     TIP3     H1       HT       0.417000       1.00800           0
     33857 TIP3     3825     TIP3     H2       HT       0.417000       1.00800           0
     33858 TIP3     3826     TIP3     OH2      OT      -0.834000       15.9994           0
     33859 TIP3     3826     TIP3     H1       HT       0.417000       1.00800           0
     33860 TIP3     3826     TIP3     H2       HT       0.417000       1.00800           0
     33861 TIP3     3827     TIP3     OH2      OT      -0.834000       15.9994           0
     33862 TIP3     3827     TIP3     H1       HT       0.417000       1.00800           0
     33863 TIP3     3827     TIP3     H2       HT       0.417000       1.00800           0
     33864 TIP3     3828     TIP3     OH2      OT      -0.834000       15.9994           0
     33865 TIP3     3828     TIP3     H1       HT       0.417000       1.00800           0
     33866 TIP3     3828     TIP3     H2       HT       0.417000       1.00800           0
     33867 TIP3     3829     TIP3     OH2      OT      -0.834000       15.9994           0
     33868 TIP3     3829     TIP3     H1       HT       0.417000       1.00800           0
     33869 TIP3     3829     TIP3     H2       HT       0.417000       1.00800           0
     33870 TIP3     3830     TIP3     OH2      OT      -0.834000       15.9994           0
     33871 TIP3     3830     TIP3     H1       HT       0.417000       1.00800           0
     33872 TIP3     3830     TIP3     H2       HT       0.417000       1.00800           0
     33873 TIP3     3831     TIP3     OH2      OT      -0.834000       15.9994           0
     33874 TIP3     3831     TIP3     H1       HT       0.417000       1.00800           0
     33875 TIP3     3831     TIP3     H2       HT       0.417000       1.00800           0
     33876 TIP3     3832     TIP3     OH2      OT      -0.834000       15.9994           0
     33877 TIP3     3832     TIP3     H1       HT       0.417000       1.00800           0
     33878 TIP3     3832     TIP3     H2       HT       0.417000       1.00800           0
     33879 TIP3     3833     TIP3     OH2      OT      -0.834000       15.9994           0
     33880 TIP3     3833     TIP3     H1       HT       0.417000       1.00800           0
     33881 TIP3     3833     TIP3     H2       HT       0.417000       1.00800           0
     33882 TIP3     3834     TIP3     OH2      OT      -0.834000       15.9994           0
     33883 TIP3     3834     TIP3     H1       HT       0.417000       1.00800           0
     33884 TIP3     3834     TIP3     H2       HT       0.417000       1.00800           0
     33885 TIP3     3835     TIP3     OH2      OT      -0.834000       15.9994           0
     33886 TIP3     3835     TIP3     H1       HT       0.417000       1.00800           0
     33887 TIP3     3835     TIP3     H2       HT       0.417000       1.00800           0
     33888 TIP3     3836     TIP3     OH2      OT      -0.834000       15.9994           0
     33889 TIP3     3836     TIP3     H1       HT       0.417000       1.00800           0
     33890 TIP3     3836     TIP3     H2       HT       0.417000       1.00800           0
     33891 TIP3     3837     TIP3     OH2      OT      -0.834000       15.9994           0
     33892 TIP3     3837     TIP3     H1       HT       0.417000       1.00800           0
     33893 TIP3     3837     TIP3     H2       HT       0.417000       1.00800           0
     33894 TIP3     3838     TIP3     OH2      OT      -0.834000       15.9994           0
     33895 TIP3     3838     TIP3     H1       HT       0.417000       1.00800           0
     33896 TIP3     3838     TIP3     H2       HT       0.417000       1.00800           0
     33897 TIP3     3839     TIP3     OH2      OT      -0.834000       15.9994           0
     33898 TIP3     3839     TIP3     H1       HT       0.417000       1.00800           0
     33899 TIP3     3839     TIP3     H2       HT       0.417000       1.00800           0
     33900 TIP3     3840     TIP3     OH2      OT      -0.834000       15.9994           0
     33901 TIP3     3840     TIP3     H1       HT       0.417000       1.00800           0
     33902 TIP3     3840     TIP3     H2       HT       0.417000       1.00800           0
     33903 TIP3     3841     TIP3     OH2      OT      -0.834000       15.9994           0
     33904 TIP3     3841     TIP3     H1       HT       0.417000       1.00800           0
     33905 TIP3     3841     TIP3     H2       HT       0.417000       1.00800           0
     33906 TIP3     3842     TIP3     OH2      OT      -0.834000       15.9994           0
     33907 TIP3     3842     TIP3     H1       HT       0.417000       1.00800           0
     33908 TIP3     3842     TIP3     H2       HT       0.417000       1.00800           0
     33909 TIP3     3843     TIP3     OH2      OT      -0.834000       15.9994           0
     33910 TIP3     3843     TIP3     H1       HT       0.417000       1.00800           0
     33911 TIP3     3843     TIP3     H2       HT       0.417000       1.00800           0
     33912 TIP3     3844     TIP3     OH2      OT      -0.834000       15.9994           0
     33913 TIP3     3844     TIP3     H1       HT       0.417000       1.00800           0
     33914 TIP3     3844     TIP3     H2       HT       0.417000       1.00800           0
     33915 TIP3     3845     TIP3     OH2      OT      -0.834000       15.9994           0
     33916 TIP3     3845     TIP3     H1       HT       0.417000       1.00800           0
     33917 TIP3     3845     TIP3     H2       HT       0.417000       1.00800           0
     33918 TIP3     3846     TIP3     OH2      OT      -0.834000       15.9994           0
     33919 TIP3     3846     TIP3     H1       HT       0.417000       1.00800           0
     33920 TIP3     3846     TIP3     H2       HT       0.417000       1.00800           0
     33921 TIP3     3847     TIP3     OH2      OT      -0.834000       15.9994           0
     33922 TIP3     3847     TIP3     H1       HT       0.417000       1.00800           0
     33923 TIP3     3847     TIP3     H2       HT       0.417000       1.00800           0
     33924 TIP3     3848     TIP3     OH2      OT      -0.834000       15.9994           0
     33925 TIP3     3848     TIP3     H1       HT       0.417000       1.00800           0
     33926 TIP3     3848     TIP3     H2       HT       0.417000       1.00800           0
     33927 TIP3     3849     TIP3     OH2      OT      -0.834000       15.9994           0
     33928 TIP3     3849     TIP3     H1       HT       0.417000       1.00800           0
     33929 TIP3     3849     TIP3     H2       HT       0.417000       1.00800           0
     33930 TIP3     3850     TIP3     OH2      OT      -0.834000       15.9994           0
     33931 TIP3     3850     TIP3     H1       HT       0.417000       1.00800           0
     33932 TIP3     3850     TIP3     H2       HT       0.417000       1.00800           0
     33933 TIP3     3851     TIP3     OH2      OT      -0.834000       15.9994           0
     33934 TIP3     3851     TIP3     H1       HT       0.417000       1.00800           0
     33935 TIP3     3851     TIP3     H2       HT       0.417000       1.00800           0
     33936 TIP3     3852     TIP3     OH2      OT      -0.834000       15.9994           0
     33937 TIP3     3852     TIP3     H1       HT       0.417000       1.00800           0
     33938 TIP3     3852     TIP3     H2       HT       0.417000       1.00800           0
     33939 TIP3     3853     TIP3     OH2      OT      -0.834000       15.9994           0
     33940 TIP3     3853     TIP3     H1       HT       0.417000       1.00800           0
     33941 TIP3     3853     TIP3     H2       HT       0.417000       1.00800           0
     33942 TIP3     3854     TIP3     OH2      OT      -0.834000       15.9994           0
     33943 TIP3     3854     TIP3     H1       HT       0.417000       1.00800           0
     33944 TIP3     3854     TIP3     H2       HT       0.417000       1.00800           0
     33945 TIP3     3855     TIP3     OH2      OT      -0.834000       15.9994           0
     33946 TIP3     3855     TIP3     H1       HT       0.417000       1.00800           0
     33947 TIP3     3855     TIP3     H2       HT       0.417000       1.00800           0
     33948 TIP3     3856     TIP3     OH2      OT      -0.834000       15.9994           0
     33949 TIP3     3856     TIP3     H1       HT       0.417000       1.00800           0
     33950 TIP3     3856     TIP3     H2       HT       0.417000       1.00800           0
     33951 TIP3     3857     TIP3     OH2      OT      -0.834000       15.9994           0
     33952 TIP3     3857     TIP3     H1       HT       0.417000       1.00800           0
     33953 TIP3     3857     TIP3     H2       HT       0.417000       1.00800           0
     33954 TIP3     3858     TIP3     OH2      OT      -0.834000       15.9994           0
     33955 TIP3     3858     TIP3     H1       HT       0.417000       1.00800           0
     33956 TIP3     3858     TIP3     H2       HT       0.417000       1.00800           0
     33957 TIP3     3859     TIP3     OH2      OT      -0.834000       15.9994           0
     33958 TIP3     3859     TIP3     H1       HT       0.417000       1.00800           0
     33959 TIP3     3859     TIP3     H2       HT       0.417000       1.00800           0
     33960 TIP3     3860     TIP3     OH2      OT      -0.834000       15.9994           0
     33961 TIP3     3860     TIP3     H1       HT       0.417000       1.00800           0
     33962 TIP3     3860     TIP3     H2       HT       0.417000       1.00800           0
     33963 TIP3     3861     TIP3     OH2      OT      -0.834000       15.9994           0
     33964 TIP3     3861     TIP3     H1       HT       0.417000       1.00800           0
     33965 TIP3     3861     TIP3     H2       HT       0.417000       1.00800           0
     33966 TIP3     3862     TIP3     OH2      OT      -0.834000       15.9994           0
     33967 TIP3     3862     TIP3     H1       HT       0.417000       1.00800           0
     33968 TIP3     3862     TIP3     H2       HT       0.417000       1.00800           0
     33969 TIP3     3863     TIP3     OH2      OT      -0.834000       15.9994           0
     33970 TIP3     3863     TIP3     H1       HT       0.417000       1.00800           0
     33971 TIP3     3863     TIP3     H2       HT       0.417000       1.00800           0
     33972 TIP3     3864     TIP3     OH2      OT      -0.834000       15.9994           0
     33973 TIP3     3864     TIP3     H1       HT       0.417000       1.00800           0
     33974 TIP3     3864     TIP3     H2       HT       0.417000       1.00800           0
     33975 TIP3     3865     TIP3     OH2      OT      -0.834000       15.9994           0
     33976 TIP3     3865     TIP3     H1       HT       0.417000       1.00800           0
     33977 TIP3     3865     TIP3     H2       HT       0.417000       1.00800           0
     33978 TIP3     3866     TIP3     OH2      OT      -0.834000       15.9994           0
     33979 TIP3     3866     TIP3     H1       HT       0.417000       1.00800           0
     33980 TIP3     3866     TIP3     H2       HT       0.417000       1.00800           0
     33981 TIP3     3867     TIP3     OH2      OT      -0.834000       15.9994           0
     33982 TIP3     3867     TIP3     H1       HT       0.417000       1.00800           0
     33983 TIP3     3867     TIP3     H2       HT       0.417000       1.00800           0
     33984 TIP3     3868     TIP3     OH2      OT      -0.834000       15.9994           0
     33985 TIP3     3868     TIP3     H1       HT       0.417000       1.00800           0
     33986 TIP3     3868     TIP3     H2       HT       0.417000       1.00800           0
     33987 TIP3     3869     TIP3     OH2      OT      -0.834000       15.9994           0
     33988 TIP3     3869     TIP3     H1       HT       0.417000       1.00800           0
     33989 TIP3     3869     TIP3     H2       HT       0.417000       1.00800           0
     33990 TIP3     3870     TIP3     OH2      OT      -0.834000       15.9994           0
     33991 TIP3     3870     TIP3     H1       HT       0.417000       1.00800           0
     33992 TIP3     3870     TIP3     H2       HT       0.417000       1.00800           0
     33993 TIP3     3871     TIP3     OH2      OT      -0.834000       15.9994           0
     33994 TIP3     3871     TIP3     H1       HT       0.417000       1.00800           0
     33995 TIP3     3871     TIP3     H2       HT       0.417000       1.00800           0
     33996 TIP3     3872     TIP3     OH2      OT      -0.834000       15.9994           0
     33997 TIP3     3872     TIP3     H1       HT       0.417000       1.00800           0
     33998 TIP3     3872     TIP3     H2       HT       0.417000       1.00800           0
     33999 TIP3     3873     TIP3     OH2      OT      -0.834000       15.9994           0
     34000 TIP3     3873     TIP3     H1       HT       0.417000       1.00800           0
     34001 TIP3     3873     TIP3     H2       HT       0.417000       1.00800           0
     34002 TIP3     3874     TIP3     OH2      OT      -0.834000       15.9994           0
     34003 TIP3     3874     TIP3     H1       HT       0.417000       1.00800           0
     34004 TIP3     3874     TIP3     H2       HT       0.417000       1.00800           0
     34005 TIP3     3875     TIP3     OH2      OT      -0.834000       15.9994           0
     34006 TIP3     3875     TIP3     H1       HT       0.417000       1.00800           0
     34007 TIP3     3875     TIP3     H2       HT       0.417000       1.00800           0
     34008 TIP3     3876     TIP3     OH2      OT      -0.834000       15.9994           0
     34009 TIP3     3876     TIP3     H1       HT       0.417000       1.00800           0
     34010 TIP3     3876     TIP3     H2       HT       0.417000       1.00800           0
     34011 TIP3     3877     TIP3     OH2      OT      -0.834000       15.9994           0
     34012 TIP3     3877     TIP3     H1       HT       0.417000       1.00800           0
     34013 TIP3     3877     TIP3     H2       HT       0.417000       1.00800           0
     34014 TIP3     3878     TIP3     OH2      OT      -0.834000       15.9994           0
     34015 TIP3     3878     TIP3     H1       HT       0.417000       1.00800           0
     34016 TIP3     3878     TIP3     H2       HT       0.417000       1.00800           0
     34017 TIP3     3879     TIP3     OH2      OT      -0.834000       15.9994           0
     34018 TIP3     3879     TIP3     H1       HT       0.417000       1.00800           0
     34019 TIP3     3879     TIP3     H2       HT       0.417000       1.00800           0
     34020 TIP3     3880     TIP3     OH2      OT      -0.834000       15.9994           0
     34021 TIP3     3880     TIP3     H1       HT       0.417000       1.00800           0
     34022 TIP3     3880     TIP3     H2       HT       0.417000       1.00800           0
     34023 TIP3     3881     TIP3     OH2      OT      -0.834000       15.9994           0
     34024 TIP3     3881     TIP3     H1       HT       0.417000       1.00800           0
     34025 TIP3     3881     TIP3     H2       HT       0.417000       1.00800           0
     34026 TIP3     3882     TIP3     OH2      OT      -0.834000       15.9994           0
     34027 TIP3     3882     TIP3     H1       HT       0.417000       1.00800           0
     34028 TIP3     3882     TIP3     H2       HT       0.417000       1.00800           0
     34029 TIP3     3883     TIP3     OH2      OT      -0.834000       15.9994           0
     34030 TIP3     3883     TIP3     H1       HT       0.417000       1.00800           0
     34031 TIP3     3883     TIP3     H2       HT       0.417000       1.00800           0
     34032 TIP3     3884     TIP3     OH2      OT      -0.834000       15.9994           0
     34033 TIP3     3884     TIP3     H1       HT       0.417000       1.00800           0
     34034 TIP3     3884     TIP3     H2       HT       0.417000       1.00800           0
     34035 TIP3     3885     TIP3     OH2      OT      -0.834000       15.9994           0
     34036 TIP3     3885     TIP3     H1       HT       0.417000       1.00800           0
     34037 TIP3     3885     TIP3     H2       HT       0.417000       1.00800           0
     34038 TIP3     3886     TIP3     OH2      OT      -0.834000       15.9994           0
     34039 TIP3     3886     TIP3     H1       HT       0.417000       1.00800           0
     34040 TIP3     3886     TIP3     H2       HT       0.417000       1.00800           0
     34041 TIP3     3887     TIP3     OH2      OT      -0.834000       15.9994           0
     34042 TIP3     3887     TIP3     H1       HT       0.417000       1.00800           0
     34043 TIP3     3887     TIP3     H2       HT       0.417000       1.00800           0
     34044 TIP3     3888     TIP3     OH2      OT      -0.834000       15.9994           0
     34045 TIP3     3888     TIP3     H1       HT       0.417000       1.00800           0
     34046 TIP3     3888     TIP3     H2       HT       0.417000       1.00800           0
     34047 TIP3     3889     TIP3     OH2      OT      -0.834000       15.9994           0
     34048 TIP3     3889     TIP3     H1       HT       0.417000       1.00800           0
     34049 TIP3     3889     TIP3     H2       HT       0.417000       1.00800           0
     34050 TIP3     3890     TIP3     OH2      OT      -0.834000       15.9994           0
     34051 TIP3     3890     TIP3     H1       HT       0.417000       1.00800           0
     34052 TIP3     3890     TIP3     H2       HT       0.417000       1.00800           0
     34053 TIP3     3891     TIP3     OH2      OT      -0.834000       15.9994           0
     34054 TIP3     3891     TIP3     H1       HT       0.417000       1.00800           0
     34055 TIP3     3891     TIP3     H2       HT       0.417000       1.00800           0
     34056 TIP3     3892     TIP3     OH2      OT      -0.834000       15.9994           0
     34057 TIP3     3892     TIP3     H1       HT       0.417000       1.00800           0
     34058 TIP3     3892     TIP3     H2       HT       0.417000       1.00800           0
     34059 TIP3     3893     TIP3     OH2      OT      -0.834000       15.9994           0
     34060 TIP3     3893     TIP3     H1       HT       0.417000       1.00800           0
     34061 TIP3     3893     TIP3     H2       HT       0.417000       1.00800           0
     34062 TIP3     3894     TIP3     OH2      OT      -0.834000       15.9994           0
     34063 TIP3     3894     TIP3     H1       HT       0.417000       1.00800           0
     34064 TIP3     3894     TIP3     H2       HT       0.417000       1.00800           0
     34065 TIP3     3895     TIP3     OH2      OT      -0.834000       15.9994           0
     34066 TIP3     3895     TIP3     H1       HT       0.417000       1.00800           0
     34067 TIP3     3895     TIP3     H2       HT       0.417000       1.00800           0
     34068 TIP3     3896     TIP3     OH2      OT      -0.834000       15.9994           0
     34069 TIP3     3896     TIP3     H1       HT       0.417000       1.00800           0
     34070 TIP3     3896     TIP3     H2       HT       0.417000       1.00800           0
     34071 TIP3     3897     TIP3     OH2      OT      -0.834000       15.9994           0
     34072 TIP3     3897     TIP3     H1       HT       0.417000       1.00800           0
     34073 TIP3     3897     TIP3     H2       HT       0.417000       1.00800           0
     34074 TIP3     3898     TIP3     OH2      OT      -0.834000       15.9994           0
     34075 TIP3     3898     TIP3     H1       HT       0.417000       1.00800           0
     34076 TIP3     3898     TIP3     H2       HT       0.417000       1.00800           0
     34077 TIP3     3899     TIP3     OH2      OT      -0.834000       15.9994           0
     34078 TIP3     3899     TIP3     H1       HT       0.417000       1.00800           0
     34079 TIP3     3899     TIP3     H2       HT       0.417000       1.00800           0
     34080 TIP3     3900     TIP3     OH2      OT      -0.834000       15.9994           0
     34081 TIP3     3900     TIP3     H1       HT       0.417000       1.00800           0
     34082 TIP3     3900     TIP3     H2       HT       0.417000       1.00800           0
     34083 TIP3     3901     TIP3     OH2      OT      -0.834000       15.9994           0
     34084 TIP3     3901     TIP3     H1       HT       0.417000       1.00800           0
     34085 TIP3     3901     TIP3     H2       HT       0.417000       1.00800           0
     34086 TIP3     3902     TIP3     OH2      OT      -0.834000       15.9994           0
     34087 TIP3     3902     TIP3     H1       HT       0.417000       1.00800           0
     34088 TIP3     3902     TIP3     H2       HT       0.417000       1.00800           0
     34089 TIP3     3903     TIP3     OH2      OT      -0.834000       15.9994           0
     34090 TIP3     3903     TIP3     H1       HT       0.417000       1.00800           0
     34091 TIP3     3903     TIP3     H2       HT       0.417000       1.00800           0
     34092 TIP3     3904     TIP3     OH2      OT      -0.834000       15.9994           0
     34093 TIP3     3904     TIP3     H1       HT       0.417000       1.00800           0
     34094 TIP3     3904     TIP3     H2       HT       0.417000       1.00800           0
     34095 TIP3     3905     TIP3     OH2      OT      -0.834000       15.9994           0
     34096 TIP3     3905     TIP3     H1       HT       0.417000       1.00800           0
     34097 TIP3     3905     TIP3     H2       HT       0.417000       1.00800           0
     34098 TIP3     3906     TIP3     OH2      OT      -0.834000       15.9994           0
     34099 TIP3     3906     TIP3     H1       HT       0.417000       1.00800           0
     34100 TIP3     3906     TIP3     H2       HT       0.417000       1.00800           0
     34101 TIP3     3907     TIP3     OH2      OT      -0.834000       15.9994           0
     34102 TIP3     3907     TIP3     H1       HT       0.417000       1.00800           0
     34103 TIP3     3907     TIP3     H2       HT       0.417000       1.00800           0
     34104 TIP3     3908     TIP3     OH2      OT      -0.834000       15.9994           0
     34105 TIP3     3908     TIP3     H1       HT       0.417000       1.00800           0
     34106 TIP3     3908     TIP3     H2       HT       0.417000       1.00800           0
     34107 TIP3     3909     TIP3     OH2      OT      -0.834000       15.9994           0
     34108 TIP3     3909     TIP3     H1       HT       0.417000       1.00800           0
     34109 TIP3     3909     TIP3     H2       HT       0.417000       1.00800           0
     34110 TIP3     3910     TIP3     OH2      OT      -0.834000       15.9994           0
     34111 TIP3     3910     TIP3     H1       HT       0.417000       1.00800           0
     34112 TIP3     3910     TIP3     H2       HT       0.417000       1.00800           0
     34113 TIP3     3911     TIP3     OH2      OT      -0.834000       15.9994           0
     34114 TIP3     3911     TIP3     H1       HT       0.417000       1.00800           0
     34115 TIP3     3911     TIP3     H2       HT       0.417000       1.00800           0
     34116 TIP3     3912     TIP3     OH2      OT      -0.834000       15.9994           0
     34117 TIP3     3912     TIP3     H1       HT       0.417000       1.00800           0
     34118 TIP3     3912     TIP3     H2       HT       0.417000       1.00800           0
     34119 TIP3     3913     TIP3     OH2      OT      -0.834000       15.9994           0
     34120 TIP3     3913     TIP3     H1       HT       0.417000       1.00800           0
     34121 TIP3     3913     TIP3     H2       HT       0.417000       1.00800           0
     34122 TIP3     3914     TIP3     OH2      OT      -0.834000       15.9994           0
     34123 TIP3     3914     TIP3     H1       HT       0.417000       1.00800           0
     34124 TIP3     3914     TIP3     H2       HT       0.417000       1.00800           0
     34125 TIP3     3915     TIP3     OH2      OT      -0.834000       15.9994           0
     34126 TIP3     3915     TIP3     H1       HT       0.417000       1.00800           0
     34127 TIP3     3915     TIP3     H2       HT       0.417000       1.00800           0
     34128 TIP3     3916     TIP3     OH2      OT      -0.834000       15.9994           0
     34129 TIP3     3916     TIP3     H1       HT       0.417000       1.00800           0
     34130 TIP3     3916     TIP3     H2       HT       0.417000       1.00800           0
     34131 TIP3     3917     TIP3     OH2      OT      -0.834000       15.9994           0
     34132 TIP3     3917     TIP3     H1       HT       0.417000       1.00800           0
     34133 TIP3     3917     TIP3     H2       HT       0.417000       1.00800           0
     34134 TIP3     3918     TIP3     OH2      OT      -0.834000       15.9994           0
     34135 TIP3     3918     TIP3     H1       HT       0.417000       1.00800           0
     34136 TIP3     3918     TIP3     H2       HT       0.417000       1.00800           0
     34137 TIP3     3919     TIP3     OH2      OT      -0.834000       15.9994           0
     34138 TIP3     3919     TIP3     H1       HT       0.417000       1.00800           0
     34139 TIP3     3919     TIP3     H2       HT       0.417000       1.00800           0
     34140 TIP3     3920     TIP3     OH2      OT      -0.834000       15.9994           0
     34141 TIP3     3920     TIP3     H1       HT       0.417000       1.00800           0
     34142 TIP3     3920     TIP3     H2       HT       0.417000       1.00800           0
     34143 TIP3     3921     TIP3     OH2      OT      -0.834000       15.9994           0
     34144 TIP3     3921     TIP3     H1       HT       0.417000       1.00800           0
     34145 TIP3     3921     TIP3     H2       HT       0.417000       1.00800           0
     34146 TIP3     3922     TIP3     OH2      OT      -0.834000       15.9994           0
     34147 TIP3     3922     TIP3     H1       HT       0.417000       1.00800           0
     34148 TIP3     3922     TIP3     H2       HT       0.417000       1.00800           0
     34149 TIP3     3923     TIP3     OH2      OT      -0.834000       15.9994           0
     34150 TIP3     3923     TIP3     H1       HT       0.417000       1.00800           0
     34151 TIP3     3923     TIP3     H2       HT       0.417000       1.00800           0
     34152 TIP3     3924     TIP3     OH2      OT      -0.834000       15.9994           0
     34153 TIP3     3924     TIP3     H1       HT       0.417000       1.00800           0
     34154 TIP3     3924     TIP3     H2       HT       0.417000       1.00800           0
     34155 TIP3     3925     TIP3     OH2      OT      -0.834000       15.9994           0
     34156 TIP3     3925     TIP3     H1       HT       0.417000       1.00800           0
     34157 TIP3     3925     TIP3     H2       HT       0.417000       1.00800           0
     34158 TIP3     3926     TIP3     OH2      OT      -0.834000       15.9994           0
     34159 TIP3     3926     TIP3     H1       HT       0.417000       1.00800           0
     34160 TIP3     3926     TIP3     H2       HT       0.417000       1.00800           0
     34161 TIP3     3927     TIP3     OH2      OT      -0.834000       15.9994           0
     34162 TIP3     3927     TIP3     H1       HT       0.417000       1.00800           0
     34163 TIP3     3927     TIP3     H2       HT       0.417000       1.00800           0
     34164 TIP3     3928     TIP3     OH2      OT      -0.834000       15.9994           0
     34165 TIP3     3928     TIP3     H1       HT       0.417000       1.00800           0
     34166 TIP3     3928     TIP3     H2       HT       0.417000       1.00800           0
     34167 TIP3     3929     TIP3     OH2      OT      -0.834000       15.9994           0
     34168 TIP3     3929     TIP3     H1       HT       0.417000       1.00800           0
     34169 TIP3     3929     TIP3     H2       HT       0.417000       1.00800           0
     34170 TIP3     3930     TIP3     OH2      OT      -0.834000       15.9994           0
     34171 TIP3     3930     TIP3     H1       HT       0.417000       1.00800           0
     34172 TIP3     3930     TIP3     H2       HT       0.417000       1.00800           0
     34173 TIP3     3931     TIP3     OH2      OT      -0.834000       15.9994           0
     34174 TIP3     3931     TIP3     H1       HT       0.417000       1.00800           0
     34175 TIP3     3931     TIP3     H2       HT       0.417000       1.00800           0
     34176 TIP3     3932     TIP3     OH2      OT      -0.834000       15.9994           0
     34177 TIP3     3932     TIP3     H1       HT       0.417000       1.00800           0
     34178 TIP3     3932     TIP3     H2       HT       0.417000       1.00800           0
     34179 TIP3     3933     TIP3     OH2      OT      -0.834000       15.9994           0
     34180 TIP3     3933     TIP3     H1       HT       0.417000       1.00800           0
     34181 TIP3     3933     TIP3     H2       HT       0.417000       1.00800           0
     34182 TIP3     3934     TIP3     OH2      OT      -0.834000       15.9994           0
     34183 TIP3     3934     TIP3     H1       HT       0.417000       1.00800           0
     34184 TIP3     3934     TIP3     H2       HT       0.417000       1.00800           0
     34185 TIP3     3935     TIP3     OH2      OT      -0.834000       15.9994           0
     34186 TIP3     3935     TIP3     H1       HT       0.417000       1.00800           0
     34187 TIP3     3935     TIP3     H2       HT       0.417000       1.00800           0
     34188 TIP3     3936     TIP3     OH2      OT      -0.834000       15.9994           0
     34189 TIP3     3936     TIP3     H1       HT       0.417000       1.00800           0
     34190 TIP3     3936     TIP3     H2       HT       0.417000       1.00800           0
     34191 TIP3     3937     TIP3     OH2      OT      -0.834000       15.9994           0
     34192 TIP3     3937     TIP3     H1       HT       0.417000       1.00800           0
     34193 TIP3     3937     TIP3     H2       HT       0.417000       1.00800           0
     34194 TIP3     3938     TIP3     OH2      OT      -0.834000       15.9994           0
     34195 TIP3     3938     TIP3     H1       HT       0.417000       1.00800           0
     34196 TIP3     3938     TIP3     H2       HT       0.417000       1.00800           0
     34197 TIP3     3939     TIP3     OH2      OT      -0.834000       15.9994           0
     34198 TIP3     3939     TIP3     H1       HT       0.417000       1.00800           0
     34199 TIP3     3939     TIP3     H2       HT       0.417000       1.00800           0
     34200 TIP3     3940     TIP3     OH2      OT      -0.834000       15.9994           0
     34201 TIP3     3940     TIP3     H1       HT       0.417000       1.00800           0
     34202 TIP3     3940     TIP3     H2       HT       0.417000       1.00800           0
     34203 TIP3     3941     TIP3     OH2      OT      -0.834000       15.9994           0
     34204 TIP3     3941     TIP3     H1       HT       0.417000       1.00800           0
     34205 TIP3     3941     TIP3     H2       HT       0.417000       1.00800           0
     34206 TIP3     3942     TIP3     OH2      OT      -0.834000       15.9994           0
     34207 TIP3     3942     TIP3     H1       HT       0.417000       1.00800           0
     34208 TIP3     3942     TIP3     H2       HT       0.417000       1.00800           0
     34209 TIP3     3943     TIP3     OH2      OT      -0.834000       15.9994           0
     34210 TIP3     3943     TIP3     H1       HT       0.417000       1.00800           0
     34211 TIP3     3943     TIP3     H2       HT       0.417000       1.00800           0
     34212 TIP3     3944     TIP3     OH2      OT      -0.834000       15.9994           0
     34213 TIP3     3944     TIP3     H1       HT       0.417000       1.00800           0
     34214 TIP3     3944     TIP3     H2       HT       0.417000       1.00800           0
     34215 TIP3     3945     TIP3     OH2      OT      -0.834000       15.9994           0
     34216 TIP3     3945     TIP3     H1       HT       0.417000       1.00800           0
     34217 TIP3     3945     TIP3     H2       HT       0.417000       1.00800           0
     34218 TIP3     3946     TIP3     OH2      OT      -0.834000       15.9994           0
     34219 TIP3     3946     TIP3     H1       HT       0.417000       1.00800           0
     34220 TIP3     3946     TIP3     H2       HT       0.417000       1.00800           0
     34221 TIP3     3947     TIP3     OH2      OT      -0.834000       15.9994           0
     34222 TIP3     3947     TIP3     H1       HT       0.417000       1.00800           0
     34223 TIP3     3947     TIP3     H2       HT       0.417000       1.00800           0
     34224 TIP3     3948     TIP3     OH2      OT      -0.834000       15.9994           0
     34225 TIP3     3948     TIP3     H1       HT       0.417000       1.00800           0
     34226 TIP3     3948     TIP3     H2       HT       0.417000       1.00800           0
     34227 TIP3     3949     TIP3     OH2      OT      -0.834000       15.9994           0
     34228 TIP3     3949     TIP3     H1       HT       0.417000       1.00800           0
     34229 TIP3     3949     TIP3     H2       HT       0.417000       1.00800           0
     34230 TIP3     3950     TIP3     OH2      OT      -0.834000       15.9994           0
     34231 TIP3     3950     TIP3     H1       HT       0.417000       1.00800           0
     34232 TIP3     3950     TIP3     H2       HT       0.417000       1.00800           0
     34233 TIP3     3951     TIP3     OH2      OT      -0.834000       15.9994           0
     34234 TIP3     3951     TIP3     H1       HT       0.417000       1.00800           0
     34235 TIP3     3951     TIP3     H2       HT       0.417000       1.00800           0
     34236 TIP3     3952     TIP3     OH2      OT      -0.834000       15.9994           0
     34237 TIP3     3952     TIP3     H1       HT       0.417000       1.00800           0
     34238 TIP3     3952     TIP3     H2       HT       0.417000       1.00800           0
     34239 TIP3     3953     TIP3     OH2      OT      -0.834000       15.9994           0
     34240 TIP3     3953     TIP3     H1       HT       0.417000       1.00800           0
     34241 TIP3     3953     TIP3     H2       HT       0.417000       1.00800           0
     34242 TIP3     3954     TIP3     OH2      OT      -0.834000       15.9994           0
     34243 TIP3     3954     TIP3     H1       HT       0.417000       1.00800           0
     34244 TIP3     3954     TIP3     H2       HT       0.417000       1.00800           0
     34245 TIP3     3955     TIP3     OH2      OT      -0.834000       15.9994           0
     34246 TIP3     3955     TIP3     H1       HT       0.417000       1.00800           0
     34247 TIP3     3955     TIP3     H2       HT       0.417000       1.00800           0
     34248 TIP3     3956     TIP3     OH2      OT      -0.834000       15.9994           0
     34249 TIP3     3956     TIP3     H1       HT       0.417000       1.00800           0
     34250 TIP3     3956     TIP3     H2       HT       0.417000       1.00800           0
     34251 TIP3     3957     TIP3     OH2      OT      -0.834000       15.9994           0
     34252 TIP3     3957     TIP3     H1       HT       0.417000       1.00800           0
     34253 TIP3     3957     TIP3     H2       HT       0.417000       1.00800           0
     34254 TIP3     3958     TIP3     OH2      OT      -0.834000       15.9994           0
     34255 TIP3     3958     TIP3     H1       HT       0.417000       1.00800           0
     34256 TIP3     3958     TIP3     H2       HT       0.417000       1.00800           0
     34257 TIP3     3959     TIP3     OH2      OT      -0.834000       15.9994           0
     34258 TIP3     3959     TIP3     H1       HT       0.417000       1.00800           0
     34259 TIP3     3959     TIP3     H2       HT       0.417000       1.00800           0
     34260 TIP3     3960     TIP3     OH2      OT      -0.834000       15.9994           0
     34261 TIP3     3960     TIP3     H1       HT       0.417000       1.00800           0
     34262 TIP3     3960     TIP3     H2       HT       0.417000       1.00800           0
     34263 TIP3     3961     TIP3     OH2      OT      -0.834000       15.9994           0
     34264 TIP3     3961     TIP3     H1       HT       0.417000       1.00800           0
     34265 TIP3     3961     TIP3     H2       HT       0.417000       1.00800           0
     34266 TIP3     3962     TIP3     OH2      OT      -0.834000       15.9994           0
     34267 TIP3     3962     TIP3     H1       HT       0.417000       1.00800           0
     34268 TIP3     3962     TIP3     H2       HT       0.417000       1.00800           0
     34269 TIP3     3963     TIP3     OH2      OT      -0.834000       15.9994           0
     34270 TIP3     3963     TIP3     H1       HT       0.417000       1.00800           0
     34271 TIP3     3963     TIP3     H2       HT       0.417000       1.00800           0
     34272 TIP3     3964     TIP3     OH2      OT      -0.834000       15.9994           0
     34273 TIP3     3964     TIP3     H1       HT       0.417000       1.00800           0
     34274 TIP3     3964     TIP3     H2       HT       0.417000       1.00800           0
     34275 TIP3     3965     TIP3     OH2      OT      -0.834000       15.9994           0
     34276 TIP3     3965     TIP3     H1       HT       0.417000       1.00800           0
     34277 TIP3     3965     TIP3     H2       HT       0.417000       1.00800           0
     34278 TIP3     3966     TIP3     OH2      OT      -0.834000       15.9994           0
     34279 TIP3     3966     TIP3     H1       HT       0.417000       1.00800           0
     34280 TIP3     3966     TIP3     H2       HT       0.417000       1.00800           0
     34281 TIP3     3967     TIP3     OH2      OT      -0.834000       15.9994           0
     34282 TIP3     3967     TIP3     H1       HT       0.417000       1.00800           0
     34283 TIP3     3967     TIP3     H2       HT       0.417000       1.00800           0
     34284 TIP3     3968     TIP3     OH2      OT      -0.834000       15.9994           0
     34285 TIP3     3968     TIP3     H1       HT       0.417000       1.00800           0
     34286 TIP3     3968     TIP3     H2       HT       0.417000       1.00800           0
     34287 TIP3     3969     TIP3     OH2      OT      -0.834000       15.9994           0
     34288 TIP3     3969     TIP3     H1       HT       0.417000       1.00800           0
     34289 TIP3     3969     TIP3     H2       HT       0.417000       1.00800           0
     34290 TIP3     3970     TIP3     OH2      OT      -0.834000       15.9994           0
     34291 TIP3     3970     TIP3     H1       HT       0.417000       1.00800           0
     34292 TIP3     3970     TIP3     H2       HT       0.417000       1.00800           0
     34293 TIP3     3971     TIP3     OH2      OT      -0.834000       15.9994           0
     34294 TIP3     3971     TIP3     H1       HT       0.417000       1.00800           0
     34295 TIP3     3971     TIP3     H2       HT       0.417000       1.00800           0
     34296 TIP3     3972     TIP3     OH2      OT      -0.834000       15.9994           0
     34297 TIP3     3972     TIP3     H1       HT       0.417000       1.00800           0
     34298 TIP3     3972     TIP3     H2       HT       0.417000       1.00800           0
     34299 TIP3     3973     TIP3     OH2      OT      -0.834000       15.9994           0
     34300 TIP3     3973     TIP3     H1       HT       0.417000       1.00800           0
     34301 TIP3     3973     TIP3     H2       HT       0.417000       1.00800           0
     34302 TIP3     3974     TIP3     OH2      OT      -0.834000       15.9994           0
     34303 TIP3     3974     TIP3     H1       HT       0.417000       1.00800           0
     34304 TIP3     3974     TIP3     H2       HT       0.417000       1.00800           0
     34305 TIP3     3975     TIP3     OH2      OT      -0.834000       15.9994           0
     34306 TIP3     3975     TIP3     H1       HT       0.417000       1.00800           0
     34307 TIP3     3975     TIP3     H2       HT       0.417000       1.00800           0
     34308 TIP3     3976     TIP3     OH2      OT      -0.834000       15.9994           0
     34309 TIP3     3976     TIP3     H1       HT       0.417000       1.00800           0
     34310 TIP3     3976     TIP3     H2       HT       0.417000       1.00800           0
     34311 TIP3     3977     TIP3     OH2      OT      -0.834000       15.9994           0
     34312 TIP3     3977     TIP3     H1       HT       0.417000       1.00800           0
     34313 TIP3     3977     TIP3     H2       HT       0.417000       1.00800           0
     34314 TIP3     3978     TIP3     OH2      OT      -0.834000       15.9994           0
     34315 TIP3     3978     TIP3     H1       HT       0.417000       1.00800           0
     34316 TIP3     3978     TIP3     H2       HT       0.417000       1.00800           0
     34317 TIP3     3979     TIP3     OH2      OT      -0.834000       15.9994           0
     34318 TIP3     3979     TIP3     H1       HT       0.417000       1.00800           0
     34319 TIP3     3979     TIP3     H2       HT       0.417000       1.00800           0
     34320 TIP3     3980     TIP3     OH2      OT      -0.834000       15.9994           0
     34321 TIP3     3980     TIP3     H1       HT       0.417000       1.00800           0
     34322 TIP3     3980     TIP3     H2       HT       0.417000       1.00800           0
     34323 TIP3     3981     TIP3     OH2      OT      -0.834000       15.9994           0
     34324 TIP3     3981     TIP3     H1       HT       0.417000       1.00800           0
     34325 TIP3     3981     TIP3     H2       HT       0.417000       1.00800           0
     34326 TIP3     3982     TIP3     OH2      OT      -0.834000       15.9994           0
     34327 TIP3     3982     TIP3     H1       HT       0.417000       1.00800           0
     34328 TIP3     3982     TIP3     H2       HT       0.417000       1.00800           0
     34329 TIP3     3983     TIP3     OH2      OT      -0.834000       15.9994           0
     34330 TIP3     3983     TIP3     H1       HT       0.417000       1.00800           0
     34331 TIP3     3983     TIP3     H2       HT       0.417000       1.00800           0
     34332 TIP3     3984     TIP3     OH2      OT      -0.834000       15.9994           0
     34333 TIP3     3984     TIP3     H1       HT       0.417000       1.00800           0
     34334 TIP3     3984     TIP3     H2       HT       0.417000       1.00800           0
     34335 TIP3     3985     TIP3     OH2      OT      -0.834000       15.9994           0
     34336 TIP3     3985     TIP3     H1       HT       0.417000       1.00800           0
     34337 TIP3     3985     TIP3     H2       HT       0.417000       1.00800           0
     34338 TIP3     3986     TIP3     OH2      OT      -0.834000       15.9994           0
     34339 TIP3     3986     TIP3     H1       HT       0.417000       1.00800           0
     34340 TIP3     3986     TIP3     H2       HT       0.417000       1.00800           0
     34341 TIP3     3987     TIP3     OH2      OT      -0.834000       15.9994           0
     34342 TIP3     3987     TIP3     H1       HT       0.417000       1.00800           0
     34343 TIP3     3987     TIP3     H2       HT       0.417000       1.00800           0
     34344 TIP3     3988     TIP3     OH2      OT      -0.834000       15.9994           0
     34345 TIP3     3988     TIP3     H1       HT       0.417000       1.00800           0
     34346 TIP3     3988     TIP3     H2       HT       0.417000       1.00800           0
     34347 TIP3     3989     TIP3     OH2      OT      -0.834000       15.9994           0
     34348 TIP3     3989     TIP3     H1       HT       0.417000       1.00800           0
     34349 TIP3     3989     TIP3     H2       HT       0.417000       1.00800           0
     34350 TIP3     3990     TIP3     OH2      OT      -0.834000       15.9994           0
     34351 TIP3     3990     TIP3     H1       HT       0.417000       1.00800           0
     34352 TIP3     3990     TIP3     H2       HT       0.417000       1.00800           0
     34353 TIP3     3991     TIP3     OH2      OT      -0.834000       15.9994           0
     34354 TIP3     3991     TIP3     H1       HT       0.417000       1.00800           0
     34355 TIP3     3991     TIP3     H2       HT       0.417000       1.00800           0
     34356 TIP3     3992     TIP3     OH2      OT      -0.834000       15.9994           0
     34357 TIP3     3992     TIP3     H1       HT       0.417000       1.00800           0
     34358 TIP3     3992     TIP3     H2       HT       0.417000       1.00800           0
     34359 TIP3     3993     TIP3     OH2      OT      -0.834000       15.9994           0
     34360 TIP3     3993     TIP3     H1       HT       0.417000       1.00800           0
     34361 TIP3     3993     TIP3     H2       HT       0.417000       1.00800           0
     34362 TIP3     3994     TIP3     OH2      OT      -0.834000       15.9994           0
     34363 TIP3     3994     TIP3     H1       HT       0.417000       1.00800           0
     34364 TIP3     3994     TIP3     H2       HT       0.417000       1.00800           0
     34365 TIP3     3995     TIP3     OH2      OT      -0.834000       15.9994           0
     34366 TIP3     3995     TIP3     H1       HT       0.417000       1.00800           0
     34367 TIP3     3995     TIP3     H2       HT       0.417000       1.00800           0
     34368 TIP3     3996     TIP3     OH2      OT      -0.834000       15.9994           0
     34369 TIP3     3996     TIP3     H1       HT       0.417000       1.00800           0
     34370 TIP3     3996     TIP3     H2       HT       0.417000       1.00800           0
     34371 TIP3     3997     TIP3     OH2      OT      -0.834000       15.9994           0
     34372 TIP3     3997     TIP3     H1       HT       0.417000       1.00800           0
     34373 TIP3     3997     TIP3     H2       HT       0.417000       1.00800           0
     34374 TIP3     3998     TIP3     OH2      OT      -0.834000       15.9994           0
     34375 TIP3     3998     TIP3     H1       HT       0.417000       1.00800           0
     34376 TIP3     3998     TIP3     H2       HT       0.417000       1.00800           0
     34377 TIP3     3999     TIP3     OH2      OT      -0.834000       15.9994           0
     34378 TIP3     3999     TIP3     H1       HT       0.417000       1.00800           0
     34379 TIP3     3999     TIP3     H2       HT       0.417000       1.00800           0
     34380 TIP3     4000     TIP3     OH2      OT      -0.834000       15.9994           0
     34381 TIP3     4000     TIP3     H1       HT       0.417000       1.00800           0
     34382 TIP3     4000     TIP3     H2       HT       0.417000       1.00800           0
     34383 TIP3     4001     TIP3     OH2      OT      -0.834000       15.9994           0
     34384 TIP3     4001     TIP3     H1       HT       0.417000       1.00800           0
     34385 TIP3     4001     TIP3     H2       HT       0.417000       1.00800           0
     34386 TIP3     4002     TIP3     OH2      OT      -0.834000       15.9994           0
     34387 TIP3     4002     TIP3     H1       HT       0.417000       1.00800           0
     34388 TIP3     4002     TIP3     H2       HT       0.417000       1.00800           0
     34389 TIP3     4003     TIP3     OH2      OT      -0.834000       15.9994           0
     34390 TIP3     4003     TIP3     H1       HT       0.417000       1.00800           0
     34391 TIP3     4003     TIP3     H2       HT       0.417000       1.00800           0
     34392 TIP3     4004     TIP3     OH2      OT      -0.834000       15.9994           0
     34393 TIP3     4004     TIP3     H1       HT       0.417000       1.00800           0
     34394 TIP3     4004     TIP3     H2       HT       0.417000       1.00800           0
     34395 TIP3     4005     TIP3     OH2      OT      -0.834000       15.9994           0
     34396 TIP3     4005     TIP3     H1       HT       0.417000       1.00800           0
     34397 TIP3     4005     TIP3     H2       HT       0.417000       1.00800           0
     34398 TIP3     4006     TIP3     OH2      OT      -0.834000       15.9994           0
     34399 TIP3     4006     TIP3     H1       HT       0.417000       1.00800           0
     34400 TIP3     4006     TIP3     H2       HT       0.417000       1.00800           0
     34401 TIP3     4007     TIP3     OH2      OT      -0.834000       15.9994           0
     34402 TIP3     4007     TIP3     H1       HT       0.417000       1.00800           0
     34403 TIP3     4007     TIP3     H2       HT       0.417000       1.00800           0
     34404 TIP3     4008     TIP3     OH2      OT      -0.834000       15.9994           0
     34405 TIP3     4008     TIP3     H1       HT       0.417000       1.00800           0
     34406 TIP3     4008     TIP3     H2       HT       0.417000       1.00800           0
     34407 TIP3     4009     TIP3     OH2      OT      -0.834000       15.9994           0
     34408 TIP3     4009     TIP3     H1       HT       0.417000       1.00800           0
     34409 TIP3     4009     TIP3     H2       HT       0.417000       1.00800           0
     34410 TIP3     4010     TIP3     OH2      OT      -0.834000       15.9994           0
     34411 TIP3     4010     TIP3     H1       HT       0.417000       1.00800           0
     34412 TIP3     4010     TIP3     H2       HT       0.417000       1.00800           0
     34413 TIP3     4011     TIP3     OH2      OT      -0.834000       15.9994           0
     34414 TIP3     4011     TIP3     H1       HT       0.417000       1.00800           0
     34415 TIP3     4011     TIP3     H2       HT       0.417000       1.00800           0
     34416 TIP3     4012     TIP3     OH2      OT      -0.834000       15.9994           0
     34417 TIP3     4012     TIP3     H1       HT       0.417000       1.00800           0
     34418 TIP3     4012     TIP3     H2       HT       0.417000       1.00800           0
     34419 TIP3     4013     TIP3     OH2      OT      -0.834000       15.9994           0
     34420 TIP3     4013     TIP3     H1       HT       0.417000       1.00800           0
     34421 TIP3     4013     TIP3     H2       HT       0.417000       1.00800           0
     34422 TIP3     4014     TIP3     OH2      OT      -0.834000       15.9994           0
     34423 TIP3     4014     TIP3     H1       HT       0.417000       1.00800           0
     34424 TIP3     4014     TIP3     H2       HT       0.417000       1.00800           0
     34425 TIP3     4015     TIP3     OH2      OT      -0.834000       15.9994           0
     34426 TIP3     4015     TIP3     H1       HT       0.417000       1.00800           0
     34427 TIP3     4015     TIP3     H2       HT       0.417000       1.00800           0
     34428 TIP3     4016     TIP3     OH2      OT      -0.834000       15.9994           0
     34429 TIP3     4016     TIP3     H1       HT       0.417000       1.00800           0
     34430 TIP3     4016     TIP3     H2       HT       0.417000       1.00800           0
     34431 TIP3     4017     TIP3     OH2      OT      -0.834000       15.9994           0
     34432 TIP3     4017     TIP3     H1       HT       0.417000       1.00800           0
     34433 TIP3     4017     TIP3     H2       HT       0.417000       1.00800           0
     34434 TIP3     4018     TIP3     OH2      OT      -0.834000       15.9994           0
     34435 TIP3     4018     TIP3     H1       HT       0.417000       1.00800           0
     34436 TIP3     4018     TIP3     H2       HT       0.417000       1.00800           0
     34437 TIP3     4019     TIP3     OH2      OT      -0.834000       15.9994           0
     34438 TIP3     4019     TIP3     H1       HT       0.417000       1.00800           0
     34439 TIP3     4019     TIP3     H2       HT       0.417000       1.00800           0
     34440 TIP3     4020     TIP3     OH2      OT      -0.834000       15.9994           0
     34441 TIP3     4020     TIP3     H1       HT       0.417000       1.00800           0
     34442 TIP3     4020     TIP3     H2       HT       0.417000       1.00800           0
     34443 TIP3     4021     TIP3     OH2      OT      -0.834000       15.9994           0
     34444 TIP3     4021     TIP3     H1       HT       0.417000       1.00800           0
     34445 TIP3     4021     TIP3     H2       HT       0.417000       1.00800           0
     34446 TIP3     4022     TIP3     OH2      OT      -0.834000       15.9994           0
     34447 TIP3     4022     TIP3     H1       HT       0.417000       1.00800           0
     34448 TIP3     4022     TIP3     H2       HT       0.417000       1.00800           0
     34449 TIP3     4023     TIP3     OH2      OT      -0.834000       15.9994           0
     34450 TIP3     4023     TIP3     H1       HT       0.417000       1.00800           0
     34451 TIP3     4023     TIP3     H2       HT       0.417000       1.00800           0
     34452 TIP3     4024     TIP3     OH2      OT      -0.834000       15.9994           0
     34453 TIP3     4024     TIP3     H1       HT       0.417000       1.00800           0
     34454 TIP3     4024     TIP3     H2       HT       0.417000       1.00800           0
     34455 TIP3     4025     TIP3     OH2      OT      -0.834000       15.9994           0
     34456 TIP3     4025     TIP3     H1       HT       0.417000       1.00800           0
     34457 TIP3     4025     TIP3     H2       HT       0.417000       1.00800           0
     34458 TIP3     4026     TIP3     OH2      OT      -0.834000       15.9994           0
     34459 TIP3     4026     TIP3     H1       HT       0.417000       1.00800           0
     34460 TIP3     4026     TIP3     H2       HT       0.417000       1.00800           0
     34461 TIP3     4027     TIP3     OH2      OT      -0.834000       15.9994           0
     34462 TIP3     4027     TIP3     H1       HT       0.417000       1.00800           0
     34463 TIP3     4027     TIP3     H2       HT       0.417000       1.00800           0
     34464 TIP3     4028     TIP3     OH2      OT      -0.834000       15.9994           0
     34465 TIP3     4028     TIP3     H1       HT       0.417000       1.00800           0
     34466 TIP3     4028     TIP3     H2       HT       0.417000       1.00800           0
     34467 TIP3     4029     TIP3     OH2      OT      -0.834000       15.9994           0
     34468 TIP3     4029     TIP3     H1       HT       0.417000       1.00800           0
     34469 TIP3     4029     TIP3     H2       HT       0.417000       1.00800           0
     34470 TIP3     4030     TIP3     OH2      OT      -0.834000       15.9994           0
     34471 TIP3     4030     TIP3     H1       HT       0.417000       1.00800           0
     34472 TIP3     4030     TIP3     H2       HT       0.417000       1.00800           0
     34473 TIP3     4031     TIP3     OH2      OT      -0.834000       15.9994           0
     34474 TIP3     4031     TIP3     H1       HT       0.417000       1.00800           0
     34475 TIP3     4031     TIP3     H2       HT       0.417000       1.00800           0
     34476 TIP3     4032     TIP3     OH2      OT      -0.834000       15.9994           0
     34477 TIP3     4032     TIP3     H1       HT       0.417000       1.00800           0
     34478 TIP3     4032     TIP3     H2       HT       0.417000       1.00800           0
     34479 TIP3     4033     TIP3     OH2      OT      -0.834000       15.9994           0
     34480 TIP3     4033     TIP3     H1       HT       0.417000       1.00800           0
     34481 TIP3     4033     TIP3     H2       HT       0.417000       1.00800           0
     34482 TIP3     4034     TIP3     OH2      OT      -0.834000       15.9994           0
     34483 TIP3     4034     TIP3     H1       HT       0.417000       1.00800           0
     34484 TIP3     4034     TIP3     H2       HT       0.417000       1.00800           0
     34485 TIP3     4035     TIP3     OH2      OT      -0.834000       15.9994           0
     34486 TIP3     4035     TIP3     H1       HT       0.417000       1.00800           0
     34487 TIP3     4035     TIP3     H2       HT       0.417000       1.00800           0
     34488 TIP3     4036     TIP3     OH2      OT      -0.834000       15.9994           0
     34489 TIP3     4036     TIP3     H1       HT       0.417000       1.00800           0
     34490 TIP3     4036     TIP3     H2       HT       0.417000       1.00800           0
     34491 TIP3     4037     TIP3     OH2      OT      -0.834000       15.9994           0
     34492 TIP3     4037     TIP3     H1       HT       0.417000       1.00800           0
     34493 TIP3     4037     TIP3     H2       HT       0.417000       1.00800           0
     34494 TIP3     4038     TIP3     OH2      OT      -0.834000       15.9994           0
     34495 TIP3     4038     TIP3     H1       HT       0.417000       1.00800           0
     34496 TIP3     4038     TIP3     H2       HT       0.417000       1.00800           0
     34497 TIP3     4039     TIP3     OH2      OT      -0.834000       15.9994           0
     34498 TIP3     4039     TIP3     H1       HT       0.417000       1.00800           0
     34499 TIP3     4039     TIP3     H2       HT       0.417000       1.00800           0
     34500 TIP3     4040     TIP3     OH2      OT      -0.834000       15.9994           0
     34501 TIP3     4040     TIP3     H1       HT       0.417000       1.00800           0
     34502 TIP3     4040     TIP3     H2       HT       0.417000       1.00800           0
     34503 TIP3     4041     TIP3     OH2      OT      -0.834000       15.9994           0
     34504 TIP3     4041     TIP3     H1       HT       0.417000       1.00800           0
     34505 TIP3     4041     TIP3     H2       HT       0.417000       1.00800           0
     34506 TIP3     4042     TIP3     OH2      OT      -0.834000       15.9994           0
     34507 TIP3     4042     TIP3     H1       HT       0.417000       1.00800           0
     34508 TIP3     4042     TIP3     H2       HT       0.417000       1.00800           0
     34509 TIP3     4043     TIP3     OH2      OT      -0.834000       15.9994           0
     34510 TIP3     4043     TIP3     H1       HT       0.417000       1.00800           0
     34511 TIP3     4043     TIP3     H2       HT       0.417000       1.00800           0
     34512 TIP3     4044     TIP3     OH2      OT      -0.834000       15.9994           0
     34513 TIP3     4044     TIP3     H1       HT       0.417000       1.00800           0
     34514 TIP3     4044     TIP3     H2       HT       0.417000       1.00800           0
     34515 TIP3     4045     TIP3     OH2      OT      -0.834000       15.9994           0
     34516 TIP3     4045     TIP3     H1       HT       0.417000       1.00800           0
     34517 TIP3     4045     TIP3     H2       HT       0.417000       1.00800           0
     34518 TIP3     4046     TIP3     OH2      OT      -0.834000       15.9994           0
     34519 TIP3     4046     TIP3     H1       HT       0.417000       1.00800           0
     34520 TIP3     4046     TIP3     H2       HT       0.417000       1.00800           0
     34521 TIP3     4047     TIP3     OH2      OT      -0.834000       15.9994           0
     34522 TIP3     4047     TIP3     H1       HT       0.417000       1.00800           0
     34523 TIP3     4047     TIP3     H2       HT       0.417000       1.00800           0
     34524 TIP3     4048     TIP3     OH2      OT      -0.834000       15.9994           0
     34525 TIP3     4048     TIP3     H1       HT       0.417000       1.00800           0
     34526 TIP3     4048     TIP3     H2       HT       0.417000       1.00800           0
     34527 TIP3     4049     TIP3     OH2      OT      -0.834000       15.9994           0
     34528 TIP3     4049     TIP3     H1       HT       0.417000       1.00800           0
     34529 TIP3     4049     TIP3     H2       HT       0.417000       1.00800           0
     34530 TIP3     4050     TIP3     OH2      OT      -0.834000       15.9994           0
     34531 TIP3     4050     TIP3     H1       HT       0.417000       1.00800           0
     34532 TIP3     4050     TIP3     H2       HT       0.417000       1.00800           0
     34533 TIP3     4051     TIP3     OH2      OT      -0.834000       15.9994           0
     34534 TIP3     4051     TIP3     H1       HT       0.417000       1.00800           0
     34535 TIP3     4051     TIP3     H2       HT       0.417000       1.00800           0
     34536 TIP3     4052     TIP3     OH2      OT      -0.834000       15.9994           0
     34537 TIP3     4052     TIP3     H1       HT       0.417000       1.00800           0
     34538 TIP3     4052     TIP3     H2       HT       0.417000       1.00800           0
     34539 TIP3     4053     TIP3     OH2      OT      -0.834000       15.9994           0
     34540 TIP3     4053     TIP3     H1       HT       0.417000       1.00800           0
     34541 TIP3     4053     TIP3     H2       HT       0.417000       1.00800           0
     34542 TIP3     4054     TIP3     OH2      OT      -0.834000       15.9994           0
     34543 TIP3     4054     TIP3     H1       HT       0.417000       1.00800           0
     34544 TIP3     4054     TIP3     H2       HT       0.417000       1.00800           0
     34545 TIP3     4055     TIP3     OH2      OT      -0.834000       15.9994           0
     34546 TIP3     4055     TIP3     H1       HT       0.417000       1.00800           0
     34547 TIP3     4055     TIP3     H2       HT       0.417000       1.00800           0
     34548 TIP3     4056     TIP3     OH2      OT      -0.834000       15.9994           0
     34549 TIP3     4056     TIP3     H1       HT       0.417000       1.00800           0
     34550 TIP3     4056     TIP3     H2       HT       0.417000       1.00800           0
     34551 TIP3     4057     TIP3     OH2      OT      -0.834000       15.9994           0
     34552 TIP3     4057     TIP3     H1       HT       0.417000       1.00800           0
     34553 TIP3     4057     TIP3     H2       HT       0.417000       1.00800           0
     34554 TIP3     4058     TIP3     OH2      OT      -0.834000       15.9994           0
     34555 TIP3     4058     TIP3     H1       HT       0.417000       1.00800           0
     34556 TIP3     4058     TIP3     H2       HT       0.417000       1.00800           0
     34557 TIP3     4059     TIP3     OH2      OT      -0.834000       15.9994           0
     34558 TIP3     4059     TIP3     H1       HT       0.417000       1.00800           0
     34559 TIP3     4059     TIP3     H2       HT       0.417000       1.00800           0
     34560 TIP3     4060     TIP3     OH2      OT      -0.834000       15.9994           0
     34561 TIP3     4060     TIP3     H1       HT       0.417000       1.00800           0
     34562 TIP3     4060     TIP3     H2       HT       0.417000       1.00800           0
     34563 TIP3     4061     TIP3     OH2      OT      -0.834000       15.9994           0
     34564 TIP3     4061     TIP3     H1       HT       0.417000       1.00800           0
     34565 TIP3     4061     TIP3     H2       HT       0.417000       1.00800           0
     34566 TIP3     4062     TIP3     OH2      OT      -0.834000       15.9994           0
     34567 TIP3     4062     TIP3     H1       HT       0.417000       1.00800           0
     34568 TIP3     4062     TIP3     H2       HT       0.417000       1.00800           0
     34569 TIP3     4063     TIP3     OH2      OT      -0.834000       15.9994           0
     34570 TIP3     4063     TIP3     H1       HT       0.417000       1.00800           0
     34571 TIP3     4063     TIP3     H2       HT       0.417000       1.00800           0
     34572 TIP3     4064     TIP3     OH2      OT      -0.834000       15.9994           0
     34573 TIP3     4064     TIP3     H1       HT       0.417000       1.00800           0
     34574 TIP3     4064     TIP3     H2       HT       0.417000       1.00800           0
     34575 TIP3     4065     TIP3     OH2      OT      -0.834000       15.9994           0
     34576 TIP3     4065     TIP3     H1       HT       0.417000       1.00800           0
     34577 TIP3     4065     TIP3     H2       HT       0.417000       1.00800           0
     34578 TIP3     4066     TIP3     OH2      OT      -0.834000       15.9994           0
     34579 TIP3     4066     TIP3     H1       HT       0.417000       1.00800           0
     34580 TIP3     4066     TIP3     H2       HT       0.417000       1.00800           0
     34581 TIP3     4067     TIP3     OH2      OT      -0.834000       15.9994           0
     34582 TIP3     4067     TIP3     H1       HT       0.417000       1.00800           0
     34583 TIP3     4067     TIP3     H2       HT       0.417000       1.00800           0
     34584 TIP3     4068     TIP3     OH2      OT      -0.834000       15.9994           0
     34585 TIP3     4068     TIP3     H1       HT       0.417000       1.00800           0
     34586 TIP3     4068     TIP3     H2       HT       0.417000       1.00800           0
     34587 TIP3     4069     TIP3     OH2      OT      -0.834000       15.9994           0
     34588 TIP3     4069     TIP3     H1       HT       0.417000       1.00800           0
     34589 TIP3     4069     TIP3     H2       HT       0.417000       1.00800           0
     34590 TIP3     4070     TIP3     OH2      OT      -0.834000       15.9994           0
     34591 TIP3     4070     TIP3     H1       HT       0.417000       1.00800           0
     34592 TIP3     4070     TIP3     H2       HT       0.417000       1.00800           0
     34593 TIP3     4071     TIP3     OH2      OT      -0.834000       15.9994           0
     34594 TIP3     4071     TIP3     H1       HT       0.417000       1.00800           0
     34595 TIP3     4071     TIP3     H2       HT       0.417000       1.00800           0
     34596 TIP3     4072     TIP3     OH2      OT      -0.834000       15.9994           0
     34597 TIP3     4072     TIP3     H1       HT       0.417000       1.00800           0
     34598 TIP3     4072     TIP3     H2       HT       0.417000       1.00800           0
     34599 TIP3     4073     TIP3     OH2      OT      -0.834000       15.9994           0
     34600 TIP3     4073     TIP3     H1       HT       0.417000       1.00800           0
     34601 TIP3     4073     TIP3     H2       HT       0.417000       1.00800           0
     34602 TIP3     4074     TIP3     OH2      OT      -0.834000       15.9994           0
     34603 TIP3     4074     TIP3     H1       HT       0.417000       1.00800           0
     34604 TIP3     4074     TIP3     H2       HT       0.417000       1.00800           0
     34605 TIP3     4075     TIP3     OH2      OT      -0.834000       15.9994           0
     34606 TIP3     4075     TIP3     H1       HT       0.417000       1.00800           0
     34607 TIP3     4075     TIP3     H2       HT       0.417000       1.00800           0
     34608 TIP3     4076     TIP3     OH2      OT      -0.834000       15.9994           0
     34609 TIP3     4076     TIP3     H1       HT       0.417000       1.00800           0
     34610 TIP3     4076     TIP3     H2       HT       0.417000       1.00800           0
     34611 TIP3     4077     TIP3     OH2      OT      -0.834000       15.9994           0
     34612 TIP3     4077     TIP3     H1       HT       0.417000       1.00800           0
     34613 TIP3     4077     TIP3     H2       HT       0.417000       1.00800           0
     34614 TIP3     4078     TIP3     OH2      OT      -0.834000       15.9994           0
     34615 TIP3     4078     TIP3     H1       HT       0.417000       1.00800           0
     34616 TIP3     4078     TIP3     H2       HT       0.417000       1.00800           0
     34617 TIP3     4079     TIP3     OH2      OT      -0.834000       15.9994           0
     34618 TIP3     4079     TIP3     H1       HT       0.417000       1.00800           0
     34619 TIP3     4079     TIP3     H2       HT       0.417000       1.00800           0
     34620 TIP3     4080     TIP3     OH2      OT      -0.834000       15.9994           0
     34621 TIP3     4080     TIP3     H1       HT       0.417000       1.00800           0
     34622 TIP3     4080     TIP3     H2       HT       0.417000       1.00800           0
     34623 TIP3     4081     TIP3     OH2      OT      -0.834000       15.9994           0
     34624 TIP3     4081     TIP3     H1       HT       0.417000       1.00800           0
     34625 TIP3     4081     TIP3     H2       HT       0.417000       1.00800           0
     34626 TIP3     4082     TIP3     OH2      OT      -0.834000       15.9994           0
     34627 TIP3     4082     TIP3     H1       HT       0.417000       1.00800           0
     34628 TIP3     4082     TIP3     H2       HT       0.417000       1.00800           0
     34629 TIP3     4083     TIP3     OH2      OT      -0.834000       15.9994           0
     34630 TIP3     4083     TIP3     H1       HT       0.417000       1.00800           0
     34631 TIP3     4083     TIP3     H2       HT       0.417000       1.00800           0
     34632 TIP3     4084     TIP3     OH2      OT      -0.834000       15.9994           0
     34633 TIP3     4084     TIP3     H1       HT       0.417000       1.00800           0
     34634 TIP3     4084     TIP3     H2       HT       0.417000       1.00800           0
     34635 TIP3     4085     TIP3     OH2      OT      -0.834000       15.9994           0
     34636 TIP3     4085     TIP3     H1       HT       0.417000       1.00800           0
     34637 TIP3     4085     TIP3     H2       HT       0.417000       1.00800           0
     34638 TIP3     4086     TIP3     OH2      OT      -0.834000       15.9994           0
     34639 TIP3     4086     TIP3     H1       HT       0.417000       1.00800           0
     34640 TIP3     4086     TIP3     H2       HT       0.417000       1.00800           0
     34641 TIP3     4087     TIP3     OH2      OT      -0.834000       15.9994           0
     34642 TIP3     4087     TIP3     H1       HT       0.417000       1.00800           0
     34643 TIP3     4087     TIP3     H2       HT       0.417000       1.00800           0
     34644 TIP3     4088     TIP3     OH2      OT      -0.834000       15.9994           0
     34645 TIP3     4088     TIP3     H1       HT       0.417000       1.00800           0
     34646 TIP3     4088     TIP3     H2       HT       0.417000       1.00800           0
     34647 TIP3     4089     TIP3     OH2      OT      -0.834000       15.9994           0
     34648 TIP3     4089     TIP3     H1       HT       0.417000       1.00800           0
     34649 TIP3     4089     TIP3     H2       HT       0.417000       1.00800           0
     34650 TIP3     4090     TIP3     OH2      OT      -0.834000       15.9994           0
     34651 TIP3     4090     TIP3     H1       HT       0.417000       1.00800           0
     34652 TIP3     4090     TIP3     H2       HT       0.417000       1.00800           0
     34653 TIP3     4091     TIP3     OH2      OT      -0.834000       15.9994           0
     34654 TIP3     4091     TIP3     H1       HT       0.417000       1.00800           0
     34655 TIP3     4091     TIP3     H2       HT       0.417000       1.00800           0
     34656 TIP3     4092     TIP3     OH2      OT      -0.834000       15.9994           0
     34657 TIP3     4092     TIP3     H1       HT       0.417000       1.00800           0
     34658 TIP3     4092     TIP3     H2       HT       0.417000       1.00800           0
     34659 TIP3     4093     TIP3     OH2      OT      -0.834000       15.9994           0
     34660 TIP3     4093     TIP3     H1       HT       0.417000       1.00800           0
     34661 TIP3     4093     TIP3     H2       HT       0.417000       1.00800           0
     34662 TIP3     4094     TIP3     OH2      OT      -0.834000       15.9994           0
     34663 TIP3     4094     TIP3     H1       HT       0.417000       1.00800           0
     34664 TIP3     4094     TIP3     H2       HT       0.417000       1.00800           0
     34665 TIP3     4095     TIP3     OH2      OT      -0.834000       15.9994           0
     34666 TIP3     4095     TIP3     H1       HT       0.417000       1.00800           0
     34667 TIP3     4095     TIP3     H2       HT       0.417000       1.00800           0
     34668 TIP3     4096     TIP3     OH2      OT      -0.834000       15.9994           0
     34669 TIP3     4096     TIP3     H1       HT       0.417000       1.00800           0
     34670 TIP3     4096     TIP3     H2       HT       0.417000       1.00800           0
     34671 TIP3     4097     TIP3     OH2      OT      -0.834000       15.9994           0
     34672 TIP3     4097     TIP3     H1       HT       0.417000       1.00800           0
     34673 TIP3     4097     TIP3     H2       HT       0.417000       1.00800           0
     34674 TIP3     4098     TIP3     OH2      OT      -0.834000       15.9994           0
     34675 TIP3     4098     TIP3     H1       HT       0.417000       1.00800           0
     34676 TIP3     4098     TIP3     H2       HT       0.417000       1.00800           0
     34677 TIP3     4099     TIP3     OH2      OT      -0.834000       15.9994           0
     34678 TIP3     4099     TIP3     H1       HT       0.417000       1.00800           0
     34679 TIP3     4099     TIP3     H2       HT       0.417000       1.00800           0
     34680 TIP3     4100     TIP3     OH2      OT      -0.834000       15.9994           0
     34681 TIP3     4100     TIP3     H1       HT       0.417000       1.00800           0
     34682 TIP3     4100     TIP3     H2       HT       0.417000       1.00800           0
     34683 TIP3     4101     TIP3     OH2      OT      -0.834000       15.9994           0
     34684 TIP3     4101     TIP3     H1       HT       0.417000       1.00800           0
     34685 TIP3     4101     TIP3     H2       HT       0.417000       1.00800           0
     34686 TIP3     4102     TIP3     OH2      OT      -0.834000       15.9994           0
     34687 TIP3     4102     TIP3     H1       HT       0.417000       1.00800           0
     34688 TIP3     4102     TIP3     H2       HT       0.417000       1.00800           0
     34689 TIP3     4103     TIP3     OH2      OT      -0.834000       15.9994           0
     34690 TIP3     4103     TIP3     H1       HT       0.417000       1.00800           0
     34691 TIP3     4103     TIP3     H2       HT       0.417000       1.00800           0
     34692 TIP3     4104     TIP3     OH2      OT      -0.834000       15.9994           0
     34693 TIP3     4104     TIP3     H1       HT       0.417000       1.00800           0
     34694 TIP3     4104     TIP3     H2       HT       0.417000       1.00800           0
     34695 TIP3     4105     TIP3     OH2      OT      -0.834000       15.9994           0
     34696 TIP3     4105     TIP3     H1       HT       0.417000       1.00800           0
     34697 TIP3     4105     TIP3     H2       HT       0.417000       1.00800           0
     34698 TIP3     4106     TIP3     OH2      OT      -0.834000       15.9994           0
     34699 TIP3     4106     TIP3     H1       HT       0.417000       1.00800           0
     34700 TIP3     4106     TIP3     H2       HT       0.417000       1.00800           0
     34701 TIP3     4107     TIP3     OH2      OT      -0.834000       15.9994           0
     34702 TIP3     4107     TIP3     H1       HT       0.417000       1.00800           0
     34703 TIP3     4107     TIP3     H2       HT       0.417000       1.00800           0
     34704 TIP3     4108     TIP3     OH2      OT      -0.834000       15.9994           0
     34705 TIP3     4108     TIP3     H1       HT       0.417000       1.00800           0
     34706 TIP3     4108     TIP3     H2       HT       0.417000       1.00800           0
     34707 TIP3     4109     TIP3     OH2      OT      -0.834000       15.9994           0
     34708 TIP3     4109     TIP3     H1       HT       0.417000       1.00800           0
     34709 TIP3     4109     TIP3     H2       HT       0.417000       1.00800           0
     34710 TIP3     4110     TIP3     OH2      OT      -0.834000       15.9994           0
     34711 TIP3     4110     TIP3     H1       HT       0.417000       1.00800           0
     34712 TIP3     4110     TIP3     H2       HT       0.417000       1.00800           0
     34713 TIP3     4111     TIP3     OH2      OT      -0.834000       15.9994           0
     34714 TIP3     4111     TIP3     H1       HT       0.417000       1.00800           0
     34715 TIP3     4111     TIP3     H2       HT       0.417000       1.00800           0
     34716 TIP3     4112     TIP3     OH2      OT      -0.834000       15.9994           0
     34717 TIP3     4112     TIP3     H1       HT       0.417000       1.00800           0
     34718 TIP3     4112     TIP3     H2       HT       0.417000       1.00800           0
     34719 TIP3     4113     TIP3     OH2      OT      -0.834000       15.9994           0
     34720 TIP3     4113     TIP3     H1       HT       0.417000       1.00800           0
     34721 TIP3     4113     TIP3     H2       HT       0.417000       1.00800           0
     34722 TIP3     4114     TIP3     OH2      OT      -0.834000       15.9994           0
     34723 TIP3     4114     TIP3     H1       HT       0.417000       1.00800           0
     34724 TIP3     4114     TIP3     H2       HT       0.417000       1.00800           0
     34725 TIP3     4115     TIP3     OH2      OT      -0.834000       15.9994           0
     34726 TIP3     4115     TIP3     H1       HT       0.417000       1.00800           0
     34727 TIP3     4115     TIP3     H2       HT       0.417000       1.00800           0
     34728 TIP3     4116     TIP3     OH2      OT      -0.834000       15.9994           0
     34729 TIP3     4116     TIP3     H1       HT       0.417000       1.00800           0
     34730 TIP3     4116     TIP3     H2       HT       0.417000       1.00800           0
     34731 TIP3     4117     TIP3     OH2      OT      -0.834000       15.9994           0
     34732 TIP3     4117     TIP3     H1       HT       0.417000       1.00800           0
     34733 TIP3     4117     TIP3     H2       HT       0.417000       1.00800           0
     34734 TIP3     4118     TIP3     OH2      OT      -0.834000       15.9994           0
     34735 TIP3     4118     TIP3     H1       HT       0.417000       1.00800           0
     34736 TIP3     4118     TIP3     H2       HT       0.417000       1.00800           0
     34737 TIP3     4119     TIP3     OH2      OT      -0.834000       15.9994           0
     34738 TIP3     4119     TIP3     H1       HT       0.417000       1.00800           0
     34739 TIP3     4119     TIP3     H2       HT       0.417000       1.00800           0
     34740 TIP3     4120     TIP3     OH2      OT      -0.834000       15.9994           0
     34741 TIP3     4120     TIP3     H1       HT       0.417000       1.00800           0
     34742 TIP3     4120     TIP3     H2       HT       0.417000       1.00800           0
     34743 TIP3     4121     TIP3     OH2      OT      -0.834000       15.9994           0
     34744 TIP3     4121     TIP3     H1       HT       0.417000       1.00800           0
     34745 TIP3     4121     TIP3     H2       HT       0.417000       1.00800           0
     34746 TIP3     4122     TIP3     OH2      OT      -0.834000       15.9994           0
     34747 TIP3     4122     TIP3     H1       HT       0.417000       1.00800           0
     34748 TIP3     4122     TIP3     H2       HT       0.417000       1.00800           0
     34749 TIP3     4123     TIP3     OH2      OT      -0.834000       15.9994           0
     34750 TIP3     4123     TIP3     H1       HT       0.417000       1.00800           0
     34751 TIP3     4123     TIP3     H2       HT       0.417000       1.00800           0
     34752 TIP3     4124     TIP3     OH2      OT      -0.834000       15.9994           0
     34753 TIP3     4124     TIP3     H1       HT       0.417000       1.00800           0
     34754 TIP3     4124     TIP3     H2       HT       0.417000       1.00800           0
     34755 TIP3     4125     TIP3     OH2      OT      -0.834000       15.9994           0
     34756 TIP3     4125     TIP3     H1       HT       0.417000       1.00800           0
     34757 TIP3     4125     TIP3     H2       HT       0.417000       1.00800           0
     34758 TIP3     4126     TIP3     OH2      OT      -0.834000       15.9994           0
     34759 TIP3     4126     TIP3     H1       HT       0.417000       1.00800           0
     34760 TIP3     4126     TIP3     H2       HT       0.417000       1.00800           0
     34761 TIP3     4127     TIP3     OH2      OT      -0.834000       15.9994           0
     34762 TIP3     4127     TIP3     H1       HT       0.417000       1.00800           0
     34763 TIP3     4127     TIP3     H2       HT       0.417000       1.00800           0
     34764 TIP3     4128     TIP3     OH2      OT      -0.834000       15.9994           0
     34765 TIP3     4128     TIP3     H1       HT       0.417000       1.00800           0
     34766 TIP3     4128     TIP3     H2       HT       0.417000       1.00800           0
     34767 TIP3     4129     TIP3     OH2      OT      -0.834000       15.9994           0
     34768 TIP3     4129     TIP3     H1       HT       0.417000       1.00800           0
     34769 TIP3     4129     TIP3     H2       HT       0.417000       1.00800           0
     34770 TIP3     4130     TIP3     OH2      OT      -0.834000       15.9994           0
     34771 TIP3     4130     TIP3     H1       HT       0.417000       1.00800           0
     34772 TIP3     4130     TIP3     H2       HT       0.417000       1.00800           0
     34773 TIP3     4131     TIP3     OH2      OT      -0.834000       15.9994           0
     34774 TIP3     4131     TIP3     H1       HT       0.417000       1.00800           0
     34775 TIP3     4131     TIP3     H2       HT       0.417000       1.00800           0
     34776 TIP3     4132     TIP3     OH2      OT      -0.834000       15.9994           0
     34777 TIP3     4132     TIP3     H1       HT       0.417000       1.00800           0
     34778 TIP3     4132     TIP3     H2       HT       0.417000       1.00800           0
     34779 TIP3     4133     TIP3     OH2      OT      -0.834000       15.9994           0
     34780 TIP3     4133     TIP3     H1       HT       0.417000       1.00800           0
     34781 TIP3     4133     TIP3     H2       HT       0.417000       1.00800           0
     34782 TIP3     4134     TIP3     OH2      OT      -0.834000       15.9994           0
     34783 TIP3     4134     TIP3     H1       HT       0.417000       1.00800           0
     34784 TIP3     4134     TIP3     H2       HT       0.417000       1.00800           0
     34785 TIP3     4135     TIP3     OH2      OT      -0.834000       15.9994           0
     34786 TIP3     4135     TIP3     H1       HT       0.417000       1.00800           0
     34787 TIP3     4135     TIP3     H2       HT       0.417000       1.00800           0
     34788 TIP3     4136     TIP3     OH2      OT      -0.834000       15.9994           0
     34789 TIP3     4136     TIP3     H1       HT       0.417000       1.00800           0
     34790 TIP3     4136     TIP3     H2       HT       0.417000       1.00800           0
     34791 TIP3     4137     TIP3     OH2      OT      -0.834000       15.9994           0
     34792 TIP3     4137     TIP3     H1       HT       0.417000       1.00800           0
     34793 TIP3     4137     TIP3     H2       HT       0.417000       1.00800           0
     34794 TIP3     4138     TIP3     OH2      OT      -0.834000       15.9994           0
     34795 TIP3     4138     TIP3     H1       HT       0.417000       1.00800           0
     34796 TIP3     4138     TIP3     H2       HT       0.417000       1.00800           0
     34797 TIP3     4139     TIP3     OH2      OT      -0.834000       15.9994           0
     34798 TIP3     4139     TIP3     H1       HT       0.417000       1.00800           0
     34799 TIP3     4139     TIP3     H2       HT       0.417000       1.00800           0
     34800 TIP3     4140     TIP3     OH2      OT      -0.834000       15.9994           0
     34801 TIP3     4140     TIP3     H1       HT       0.417000       1.00800           0
     34802 TIP3     4140     TIP3     H2       HT       0.417000       1.00800           0
     34803 TIP3     4141     TIP3     OH2      OT      -0.834000       15.9994           0
     34804 TIP3     4141     TIP3     H1       HT       0.417000       1.00800           0
     34805 TIP3     4141     TIP3     H2       HT       0.417000       1.00800           0
     34806 TIP3     4142     TIP3     OH2      OT      -0.834000       15.9994           0
     34807 TIP3     4142     TIP3     H1       HT       0.417000       1.00800           0
     34808 TIP3     4142     TIP3     H2       HT       0.417000       1.00800           0
     34809 TIP3     4143     TIP3     OH2      OT      -0.834000       15.9994           0
     34810 TIP3     4143     TIP3     H1       HT       0.417000       1.00800           0
     34811 TIP3     4143     TIP3     H2       HT       0.417000       1.00800           0
     34812 TIP3     4144     TIP3     OH2      OT      -0.834000       15.9994           0
     34813 TIP3     4144     TIP3     H1       HT       0.417000       1.00800           0
     34814 TIP3     4144     TIP3     H2       HT       0.417000       1.00800           0
     34815 TIP3     4145     TIP3     OH2      OT      -0.834000       15.9994           0
     34816 TIP3     4145     TIP3     H1       HT       0.417000       1.00800           0
     34817 TIP3     4145     TIP3     H2       HT       0.417000       1.00800           0
     34818 TIP3     4146     TIP3     OH2      OT      -0.834000       15.9994           0
     34819 TIP3     4146     TIP3     H1       HT       0.417000       1.00800           0
     34820 TIP3     4146     TIP3     H2       HT       0.417000       1.00800           0
     34821 TIP3     4147     TIP3     OH2      OT      -0.834000       15.9994           0
     34822 TIP3     4147     TIP3     H1       HT       0.417000       1.00800           0
     34823 TIP3     4147     TIP3     H2       HT       0.417000       1.00800           0
     34824 TIP3     4148     TIP3     OH2      OT      -0.834000       15.9994           0
     34825 TIP3     4148     TIP3     H1       HT       0.417000       1.00800           0
     34826 TIP3     4148     TIP3     H2       HT       0.417000       1.00800           0
     34827 TIP3     4149     TIP3     OH2      OT      -0.834000       15.9994           0
     34828 TIP3     4149     TIP3     H1       HT       0.417000       1.00800           0
     34829 TIP3     4149     TIP3     H2       HT       0.417000       1.00800           0
     34830 TIP3     4150     TIP3     OH2      OT      -0.834000       15.9994           0
     34831 TIP3     4150     TIP3     H1       HT       0.417000       1.00800           0
     34832 TIP3     4150     TIP3     H2       HT       0.417000       1.00800           0
     34833 TIP3     4151     TIP3     OH2      OT      -0.834000       15.9994           0
     34834 TIP3     4151     TIP3     H1       HT       0.417000       1.00800           0
     34835 TIP3     4151     TIP3     H2       HT       0.417000       1.00800           0
     34836 TIP3     4152     TIP3     OH2      OT      -0.834000       15.9994           0
     34837 TIP3     4152     TIP3     H1       HT       0.417000       1.00800           0
     34838 TIP3     4152     TIP3     H2       HT       0.417000       1.00800           0
     34839 TIP3     4153     TIP3     OH2      OT      -0.834000       15.9994           0
     34840 TIP3     4153     TIP3     H1       HT       0.417000       1.00800           0
     34841 TIP3     4153     TIP3     H2       HT       0.417000       1.00800           0
     34842 TIP3     4154     TIP3     OH2      OT      -0.834000       15.9994           0
     34843 TIP3     4154     TIP3     H1       HT       0.417000       1.00800           0
     34844 TIP3     4154     TIP3     H2       HT       0.417000       1.00800           0
     34845 TIP3     4155     TIP3     OH2      OT      -0.834000       15.9994           0
     34846 TIP3     4155     TIP3     H1       HT       0.417000       1.00800           0
     34847 TIP3     4155     TIP3     H2       HT       0.417000       1.00800           0
     34848 TIP3     4156     TIP3     OH2      OT      -0.834000       15.9994           0
     34849 TIP3     4156     TIP3     H1       HT       0.417000       1.00800           0
     34850 TIP3     4156     TIP3     H2       HT       0.417000       1.00800           0
     34851 TIP3     4157     TIP3     OH2      OT      -0.834000       15.9994           0
     34852 TIP3     4157     TIP3     H1       HT       0.417000       1.00800           0
     34853 TIP3     4157     TIP3     H2       HT       0.417000       1.00800           0
     34854 TIP3     4158     TIP3     OH2      OT      -0.834000       15.9994           0
     34855 TIP3     4158     TIP3     H1       HT       0.417000       1.00800           0
     34856 TIP3     4158     TIP3     H2       HT       0.417000       1.00800           0
     34857 TIP3     4159     TIP3     OH2      OT      -0.834000       15.9994           0
     34858 TIP3     4159     TIP3     H1       HT       0.417000       1.00800           0
     34859 TIP3     4159     TIP3     H2       HT       0.417000       1.00800           0
     34860 TIP3     4160     TIP3     OH2      OT      -0.834000       15.9994           0
     34861 TIP3     4160     TIP3     H1       HT       0.417000       1.00800           0
     34862 TIP3     4160     TIP3     H2       HT       0.417000       1.00800           0
     34863 TIP3     4161     TIP3     OH2      OT      -0.834000       15.9994           0
     34864 TIP3     4161     TIP3     H1       HT       0.417000       1.00800           0
     34865 TIP3     4161     TIP3     H2       HT       0.417000       1.00800           0
     34866 TIP3     4162     TIP3     OH2      OT      -0.834000       15.9994           0
     34867 TIP3     4162     TIP3     H1       HT       0.417000       1.00800           0
     34868 TIP3     4162     TIP3     H2       HT       0.417000       1.00800           0
     34869 TIP3     4163     TIP3     OH2      OT      -0.834000       15.9994           0
     34870 TIP3     4163     TIP3     H1       HT       0.417000       1.00800           0
     34871 TIP3     4163     TIP3     H2       HT       0.417000       1.00800           0
     34872 TIP3     4164     TIP3     OH2      OT      -0.834000       15.9994           0
     34873 TIP3     4164     TIP3     H1       HT       0.417000       1.00800           0
     34874 TIP3     4164     TIP3     H2       HT       0.417000       1.00800           0
     34875 TIP3     4165     TIP3     OH2      OT      -0.834000       15.9994           0
     34876 TIP3     4165     TIP3     H1       HT       0.417000       1.00800           0
     34877 TIP3     4165     TIP3     H2       HT       0.417000       1.00800           0
     34878 TIP3     4166     TIP3     OH2      OT      -0.834000       15.9994           0
     34879 TIP3     4166     TIP3     H1       HT       0.417000       1.00800           0
     34880 TIP3     4166     TIP3     H2       HT       0.417000       1.00800           0
     34881 TIP3     4167     TIP3     OH2      OT      -0.834000       15.9994           0
     34882 TIP3     4167     TIP3     H1       HT       0.417000       1.00800           0
     34883 TIP3     4167     TIP3     H2       HT       0.417000       1.00800           0
     34884 TIP3     4168     TIP3     OH2      OT      -0.834000       15.9994           0
     34885 TIP3     4168     TIP3     H1       HT       0.417000       1.00800           0
     34886 TIP3     4168     TIP3     H2       HT       0.417000       1.00800           0
     34887 TIP3     4169     TIP3     OH2      OT      -0.834000       15.9994           0
     34888 TIP3     4169     TIP3     H1       HT       0.417000       1.00800           0
     34889 TIP3     4169     TIP3     H2       HT       0.417000       1.00800           0
     34890 TIP3     4170     TIP3     OH2      OT      -0.834000       15.9994           0
     34891 TIP3     4170     TIP3     H1       HT       0.417000       1.00800           0
     34892 TIP3     4170     TIP3     H2       HT       0.417000       1.00800           0
     34893 TIP3     4171     TIP3     OH2      OT      -0.834000       15.9994           0
     34894 TIP3     4171     TIP3     H1       HT       0.417000       1.00800           0
     34895 TIP3     4171     TIP3     H2       HT       0.417000       1.00800           0
     34896 TIP3     4172     TIP3     OH2      OT      -0.834000       15.9994           0
     34897 TIP3     4172     TIP3     H1       HT       0.417000       1.00800           0
     34898 TIP3     4172     TIP3     H2       HT       0.417000       1.00800           0
     34899 TIP3     4173     TIP3     OH2      OT      -0.834000       15.9994           0
     34900 TIP3     4173     TIP3     H1       HT       0.417000       1.00800           0
     34901 TIP3     4173     TIP3     H2       HT       0.417000       1.00800           0
     34902 TIP3     4174     TIP3     OH2      OT      -0.834000       15.9994           0
     34903 TIP3     4174     TIP3     H1       HT       0.417000       1.00800           0
     34904 TIP3     4174     TIP3     H2       HT       0.417000       1.00800           0
     34905 TIP3     4175     TIP3     OH2      OT      -0.834000       15.9994           0
     34906 TIP3     4175     TIP3     H1       HT       0.417000       1.00800           0
     34907 TIP3     4175     TIP3     H2       HT       0.417000       1.00800           0
     34908 TIP3     4176     TIP3     OH2      OT      -0.834000       15.9994           0
     34909 TIP3     4176     TIP3     H1       HT       0.417000       1.00800           0
     34910 TIP3     4176     TIP3     H2       HT       0.417000       1.00800           0
     34911 TIP3     4177     TIP3     OH2      OT      -0.834000       15.9994           0
     34912 TIP3     4177     TIP3     H1       HT       0.417000       1.00800           0
     34913 TIP3     4177     TIP3     H2       HT       0.417000       1.00800           0
     34914 TIP3     4178     TIP3     OH2      OT      -0.834000       15.9994           0
     34915 TIP3     4178     TIP3     H1       HT       0.417000       1.00800           0
     34916 TIP3     4178     TIP3     H2       HT       0.417000       1.00800           0
     34917 TIP3     4179     TIP3     OH2      OT      -0.834000       15.9994           0
     34918 TIP3     4179     TIP3     H1       HT       0.417000       1.00800           0
     34919 TIP3     4179     TIP3     H2       HT       0.417000       1.00800           0
     34920 TIP3     4180     TIP3     OH2      OT      -0.834000       15.9994           0
     34921 TIP3     4180     TIP3     H1       HT       0.417000       1.00800           0
     34922 TIP3     4180     TIP3     H2       HT       0.417000       1.00800           0
     34923 TIP3     4181     TIP3     OH2      OT      -0.834000       15.9994           0
     34924 TIP3     4181     TIP3     H1       HT       0.417000       1.00800           0
     34925 TIP3     4181     TIP3     H2       HT       0.417000       1.00800           0
     34926 TIP3     4182     TIP3     OH2      OT      -0.834000       15.9994           0
     34927 TIP3     4182     TIP3     H1       HT       0.417000       1.00800           0
     34928 TIP3     4182     TIP3     H2       HT       0.417000       1.00800           0
     34929 TIP3     4183     TIP3     OH2      OT      -0.834000       15.9994           0
     34930 TIP3     4183     TIP3     H1       HT       0.417000       1.00800           0
     34931 TIP3     4183     TIP3     H2       HT       0.417000       1.00800           0
     34932 TIP3     4184     TIP3     OH2      OT      -0.834000       15.9994           0
     34933 TIP3     4184     TIP3     H1       HT       0.417000       1.00800           0
     34934 TIP3     4184     TIP3     H2       HT       0.417000       1.00800           0
     34935 TIP3     4185     TIP3     OH2      OT      -0.834000       15.9994           0
     34936 TIP3     4185     TIP3     H1       HT       0.417000       1.00800           0
     34937 TIP3     4185     TIP3     H2       HT       0.417000       1.00800           0
     34938 TIP3     4186     TIP3     OH2      OT      -0.834000       15.9994           0
     34939 TIP3     4186     TIP3     H1       HT       0.417000       1.00800           0
     34940 TIP3     4186     TIP3     H2       HT       0.417000       1.00800           0
     34941 TIP3     4187     TIP3     OH2      OT      -0.834000       15.9994           0
     34942 TIP3     4187     TIP3     H1       HT       0.417000       1.00800           0
     34943 TIP3     4187     TIP3     H2       HT       0.417000       1.00800           0
     34944 TIP3     4188     TIP3     OH2      OT      -0.834000       15.9994           0
     34945 TIP3     4188     TIP3     H1       HT       0.417000       1.00800           0
     34946 TIP3     4188     TIP3     H2       HT       0.417000       1.00800           0
     34947 TIP3     4189     TIP3     OH2      OT      -0.834000       15.9994           0
     34948 TIP3     4189     TIP3     H1       HT       0.417000       1.00800           0
     34949 TIP3     4189     TIP3     H2       HT       0.417000       1.00800           0
     34950 TIP3     4190     TIP3     OH2      OT      -0.834000       15.9994           0
     34951 TIP3     4190     TIP3     H1       HT       0.417000       1.00800           0
     34952 TIP3     4190     TIP3     H2       HT       0.417000       1.00800           0
     34953 TIP3     4191     TIP3     OH2      OT      -0.834000       15.9994           0
     34954 TIP3     4191     TIP3     H1       HT       0.417000       1.00800           0
     34955 TIP3     4191     TIP3     H2       HT       0.417000       1.00800           0
     34956 TIP3     4192     TIP3     OH2      OT      -0.834000       15.9994           0
     34957 TIP3     4192     TIP3     H1       HT       0.417000       1.00800           0
     34958 TIP3     4192     TIP3     H2       HT       0.417000       1.00800           0
     34959 TIP3     4193     TIP3     OH2      OT      -0.834000       15.9994           0
     34960 TIP3     4193     TIP3     H1       HT       0.417000       1.00800           0
     34961 TIP3     4193     TIP3     H2       HT       0.417000       1.00800           0
     34962 TIP3     4194     TIP3     OH2      OT      -0.834000       15.9994           0
     34963 TIP3     4194     TIP3     H1       HT       0.417000       1.00800           0
     34964 TIP3     4194     TIP3     H2       HT       0.417000       1.00800           0
     34965 TIP3     4195     TIP3     OH2      OT      -0.834000       15.9994           0
     34966 TIP3     4195     TIP3     H1       HT       0.417000       1.00800           0
     34967 TIP3     4195     TIP3     H2       HT       0.417000       1.00800           0
     34968 TIP3     4196     TIP3     OH2      OT      -0.834000       15.9994           0
     34969 TIP3     4196     TIP3     H1       HT       0.417000       1.00800           0
     34970 TIP3     4196     TIP3     H2       HT       0.417000       1.00800           0
     34971 TIP3     4197     TIP3     OH2      OT      -0.834000       15.9994           0
     34972 TIP3     4197     TIP3     H1       HT       0.417000       1.00800           0
     34973 TIP3     4197     TIP3     H2       HT       0.417000       1.00800           0
     34974 TIP3     4198     TIP3     OH2      OT      -0.834000       15.9994           0
     34975 TIP3     4198     TIP3     H1       HT       0.417000       1.00800           0
     34976 TIP3     4198     TIP3     H2       HT       0.417000       1.00800           0
     34977 TIP3     4199     TIP3     OH2      OT      -0.834000       15.9994           0
     34978 TIP3     4199     TIP3     H1       HT       0.417000       1.00800           0
     34979 TIP3     4199     TIP3     H2       HT       0.417000       1.00800           0
     34980 TIP3     4200     TIP3     OH2      OT      -0.834000       15.9994           0
     34981 TIP3     4200     TIP3     H1       HT       0.417000       1.00800           0
     34982 TIP3     4200     TIP3     H2       HT       0.417000       1.00800           0
     34983 TIP3     4201     TIP3     OH2      OT      -0.834000       15.9994           0
     34984 TIP3     4201     TIP3     H1       HT       0.417000       1.00800           0
     34985 TIP3     4201     TIP3     H2       HT       0.417000       1.00800           0
     34986 TIP3     4202     TIP3     OH2      OT      -0.834000       15.9994           0
     34987 TIP3     4202     TIP3     H1       HT       0.417000       1.00800           0
     34988 TIP3     4202     TIP3     H2       HT       0.417000       1.00800           0
     34989 TIP3     4203     TIP3     OH2      OT      -0.834000       15.9994           0
     34990 TIP3     4203     TIP3     H1       HT       0.417000       1.00800           0
     34991 TIP3     4203     TIP3     H2       HT       0.417000       1.00800           0
     34992 TIP3     4204     TIP3     OH2      OT      -0.834000       15.9994           0
     34993 TIP3     4204     TIP3     H1       HT       0.417000       1.00800           0
     34994 TIP3     4204     TIP3     H2       HT       0.417000       1.00800           0
     34995 TIP3     4205     TIP3     OH2      OT      -0.834000       15.9994           0
     34996 TIP3     4205     TIP3     H1       HT       0.417000       1.00800           0
     34997 TIP3     4205     TIP3     H2       HT       0.417000       1.00800           0
     34998 TIP3     4206     TIP3     OH2      OT      -0.834000       15.9994           0
     34999 TIP3     4206     TIP3     H1       HT       0.417000       1.00800           0
     35000 TIP3     4206     TIP3     H2       HT       0.417000       1.00800           0
     35001 TIP3     4207     TIP3     OH2      OT      -0.834000       15.9994           0
     35002 TIP3     4207     TIP3     H1       HT       0.417000       1.00800           0
     35003 TIP3     4207     TIP3     H2       HT       0.417000       1.00800           0
     35004 TIP3     4208     TIP3     OH2      OT      -0.834000       15.9994           0
     35005 TIP3     4208     TIP3     H1       HT       0.417000       1.00800           0
     35006 TIP3     4208     TIP3     H2       HT       0.417000       1.00800           0
     35007 TIP3     4209     TIP3     OH2      OT      -0.834000       15.9994           0
     35008 TIP3     4209     TIP3     H1       HT       0.417000       1.00800           0
     35009 TIP3     4209     TIP3     H2       HT       0.417000       1.00800           0
     35010 TIP3     4210     TIP3     OH2      OT      -0.834000       15.9994           0
     35011 TIP3     4210     TIP3     H1       HT       0.417000       1.00800           0
     35012 TIP3     4210     TIP3     H2       HT       0.417000       1.00800           0
     35013 TIP3     4211     TIP3     OH2      OT      -0.834000       15.9994           0
     35014 TIP3     4211     TIP3     H1       HT       0.417000       1.00800           0
     35015 TIP3     4211     TIP3     H2       HT       0.417000       1.00800           0
     35016 TIP3     4212     TIP3     OH2      OT      -0.834000       15.9994           0
     35017 TIP3     4212     TIP3     H1       HT       0.417000       1.00800           0
     35018 TIP3     4212     TIP3     H2       HT       0.417000       1.00800           0
     35019 TIP3     4213     TIP3     OH2      OT      -0.834000       15.9994           0
     35020 TIP3     4213     TIP3     H1       HT       0.417000       1.00800           0
     35021 TIP3     4213     TIP3     H2       HT       0.417000       1.00800           0
     35022 TIP3     4214     TIP3     OH2      OT      -0.834000       15.9994           0
     35023 TIP3     4214     TIP3     H1       HT       0.417000       1.00800           0
     35024 TIP3     4214     TIP3     H2       HT       0.417000       1.00800           0
     35025 TIP3     4215     TIP3     OH2      OT      -0.834000       15.9994           0
     35026 TIP3     4215     TIP3     H1       HT       0.417000       1.00800           0
     35027 TIP3     4215     TIP3     H2       HT       0.417000       1.00800           0
     35028 TIP3     4216     TIP3     OH2      OT      -0.834000       15.9994           0
     35029 TIP3     4216     TIP3     H1       HT       0.417000       1.00800           0
     35030 TIP3     4216     TIP3     H2       HT       0.417000       1.00800           0
     35031 TIP3     4217     TIP3     OH2      OT      -0.834000       15.9994           0
     35032 TIP3     4217     TIP3     H1       HT       0.417000       1.00800           0
     35033 TIP3     4217     TIP3     H2       HT       0.417000       1.00800           0
     35034 TIP3     4218     TIP3     OH2      OT      -0.834000       15.9994           0
     35035 TIP3     4218     TIP3     H1       HT       0.417000       1.00800           0
     35036 TIP3     4218     TIP3     H2       HT       0.417000       1.00800           0
     35037 TIP3     4219     TIP3     OH2      OT      -0.834000       15.9994           0
     35038 TIP3     4219     TIP3     H1       HT       0.417000       1.00800           0
     35039 TIP3     4219     TIP3     H2       HT       0.417000       1.00800           0
     35040 TIP3     4220     TIP3     OH2      OT      -0.834000       15.9994           0
     35041 TIP3     4220     TIP3     H1       HT       0.417000       1.00800           0
     35042 TIP3     4220     TIP3     H2       HT       0.417000       1.00800           0
     35043 TIP3     4221     TIP3     OH2      OT      -0.834000       15.9994           0
     35044 TIP3     4221     TIP3     H1       HT       0.417000       1.00800           0
     35045 TIP3     4221     TIP3     H2       HT       0.417000       1.00800           0
     35046 TIP3     4222     TIP3     OH2      OT      -0.834000       15.9994           0
     35047 TIP3     4222     TIP3     H1       HT       0.417000       1.00800           0
     35048 TIP3     4222     TIP3     H2       HT       0.417000       1.00800           0
     35049 TIP3     4223     TIP3     OH2      OT      -0.834000       15.9994           0
     35050 TIP3     4223     TIP3     H1       HT       0.417000       1.00800           0
     35051 TIP3     4223     TIP3     H2       HT       0.417000       1.00800           0
     35052 TIP3     4224     TIP3     OH2      OT      -0.834000       15.9994           0
     35053 TIP3     4224     TIP3     H1       HT       0.417000       1.00800           0
     35054 TIP3     4224     TIP3     H2       HT       0.417000       1.00800           0
     35055 TIP3     4225     TIP3     OH2      OT      -0.834000       15.9994           0
     35056 TIP3     4225     TIP3     H1       HT       0.417000       1.00800           0
     35057 TIP3     4225     TIP3     H2       HT       0.417000       1.00800           0
     35058 TIP3     4226     TIP3     OH2      OT      -0.834000       15.9994           0
     35059 TIP3     4226     TIP3     H1       HT       0.417000       1.00800           0
     35060 TIP3     4226     TIP3     H2       HT       0.417000       1.00800           0
     35061 TIP3     4227     TIP3     OH2      OT      -0.834000       15.9994           0
     35062 TIP3     4227     TIP3     H1       HT       0.417000       1.00800           0
     35063 TIP3     4227     TIP3     H2       HT       0.417000       1.00800           0
     35064 TIP3     4228     TIP3     OH2      OT      -0.834000       15.9994           0
     35065 TIP3     4228     TIP3     H1       HT       0.417000       1.00800           0
     35066 TIP3     4228     TIP3     H2       HT       0.417000       1.00800           0
     35067 TIP3     4229     TIP3     OH2      OT      -0.834000       15.9994           0
     35068 TIP3     4229     TIP3     H1       HT       0.417000       1.00800           0
     35069 TIP3     4229     TIP3     H2       HT       0.417000       1.00800           0
     35070 TIP3     4230     TIP3     OH2      OT      -0.834000       15.9994           0
     35071 TIP3     4230     TIP3     H1       HT       0.417000       1.00800           0
     35072 TIP3     4230     TIP3     H2       HT       0.417000       1.00800           0
     35073 TIP3     4231     TIP3     OH2      OT      -0.834000       15.9994           0
     35074 TIP3     4231     TIP3     H1       HT       0.417000       1.00800           0
     35075 TIP3     4231     TIP3     H2       HT       0.417000       1.00800           0
     35076 TIP3     4232     TIP3     OH2      OT      -0.834000       15.9994           0
     35077 TIP3     4232     TIP3     H1       HT       0.417000       1.00800           0
     35078 TIP3     4232     TIP3     H2       HT       0.417000       1.00800           0
     35079 TIP3     4233     TIP3     OH2      OT      -0.834000       15.9994           0
     35080 TIP3     4233     TIP3     H1       HT       0.417000       1.00800           0
     35081 TIP3     4233     TIP3     H2       HT       0.417000       1.00800           0
     35082 TIP3     4234     TIP3     OH2      OT      -0.834000       15.9994           0
     35083 TIP3     4234     TIP3     H1       HT       0.417000       1.00800           0
     35084 TIP3     4234     TIP3     H2       HT       0.417000       1.00800           0
     35085 TIP3     4235     TIP3     OH2      OT      -0.834000       15.9994           0
     35086 TIP3     4235     TIP3     H1       HT       0.417000       1.00800           0
     35087 TIP3     4235     TIP3     H2       HT       0.417000       1.00800           0
     35088 TIP3     4236     TIP3     OH2      OT      -0.834000       15.9994           0
     35089 TIP3     4236     TIP3     H1       HT       0.417000       1.00800           0
     35090 TIP3     4236     TIP3     H2       HT       0.417000       1.00800           0
     35091 TIP3     4237     TIP3     OH2      OT      -0.834000       15.9994           0
     35092 TIP3     4237     TIP3     H1       HT       0.417000       1.00800           0
     35093 TIP3     4237     TIP3     H2       HT       0.417000       1.00800           0
     35094 TIP3     4238     TIP3     OH2      OT      -0.834000       15.9994           0
     35095 TIP3     4238     TIP3     H1       HT       0.417000       1.00800           0
     35096 TIP3     4238     TIP3     H2       HT       0.417000       1.00800           0
     35097 TIP3     4239     TIP3     OH2      OT      -0.834000       15.9994           0
     35098 TIP3     4239     TIP3     H1       HT       0.417000       1.00800           0
     35099 TIP3     4239     TIP3     H2       HT       0.417000       1.00800           0
     35100 TIP3     4240     TIP3     OH2      OT      -0.834000       15.9994           0
     35101 TIP3     4240     TIP3     H1       HT       0.417000       1.00800           0
     35102 TIP3     4240     TIP3     H2       HT       0.417000       1.00800           0
     35103 TIP3     4241     TIP3     OH2      OT      -0.834000       15.9994           0
     35104 TIP3     4241     TIP3     H1       HT       0.417000       1.00800           0
     35105 TIP3     4241     TIP3     H2       HT       0.417000       1.00800           0
     35106 TIP3     4242     TIP3     OH2      OT      -0.834000       15.9994           0
     35107 TIP3     4242     TIP3     H1       HT       0.417000       1.00800           0
     35108 TIP3     4242     TIP3     H2       HT       0.417000       1.00800           0
     35109 TIP3     4243     TIP3     OH2      OT      -0.834000       15.9994           0
     35110 TIP3     4243     TIP3     H1       HT       0.417000       1.00800           0
     35111 TIP3     4243     TIP3     H2       HT       0.417000       1.00800           0
     35112 TIP3     4244     TIP3     OH2      OT      -0.834000       15.9994           0
     35113 TIP3     4244     TIP3     H1       HT       0.417000       1.00800           0
     35114 TIP3     4244     TIP3     H2       HT       0.417000       1.00800           0
     35115 TIP3     4245     TIP3     OH2      OT      -0.834000       15.9994           0
     35116 TIP3     4245     TIP3     H1       HT       0.417000       1.00800           0
     35117 TIP3     4245     TIP3     H2       HT       0.417000       1.00800           0
     35118 TIP3     4246     TIP3     OH2      OT      -0.834000       15.9994           0
     35119 TIP3     4246     TIP3     H1       HT       0.417000       1.00800           0
     35120 TIP3     4246     TIP3     H2       HT       0.417000       1.00800           0
     35121 TIP3     4247     TIP3     OH2      OT      -0.834000       15.9994           0
     35122 TIP3     4247     TIP3     H1       HT       0.417000       1.00800           0
     35123 TIP3     4247     TIP3     H2       HT       0.417000       1.00800           0
     35124 TIP3     4248     TIP3     OH2      OT      -0.834000       15.9994           0
     35125 TIP3     4248     TIP3     H1       HT       0.417000       1.00800           0
     35126 TIP3     4248     TIP3     H2       HT       0.417000       1.00800           0
     35127 TIP3     4249     TIP3     OH2      OT      -0.834000       15.9994           0
     35128 TIP3     4249     TIP3     H1       HT       0.417000       1.00800           0
     35129 TIP3     4249     TIP3     H2       HT       0.417000       1.00800           0
     35130 TIP3     4250     TIP3     OH2      OT      -0.834000       15.9994           0
     35131 TIP3     4250     TIP3     H1       HT       0.417000       1.00800           0
     35132 TIP3     4250     TIP3     H2       HT       0.417000       1.00800           0
     35133 TIP3     4251     TIP3     OH2      OT      -0.834000       15.9994           0
     35134 TIP3     4251     TIP3     H1       HT       0.417000       1.00800           0
     35135 TIP3     4251     TIP3     H2       HT       0.417000       1.00800           0
     35136 TIP3     4252     TIP3     OH2      OT      -0.834000       15.9994           0
     35137 TIP3     4252     TIP3     H1       HT       0.417000       1.00800           0
     35138 TIP3     4252     TIP3     H2       HT       0.417000       1.00800           0
     35139 TIP3     4253     TIP3     OH2      OT      -0.834000       15.9994           0
     35140 TIP3     4253     TIP3     H1       HT       0.417000       1.00800           0
     35141 TIP3     4253     TIP3     H2       HT       0.417000       1.00800           0
     35142 TIP3     4254     TIP3     OH2      OT      -0.834000       15.9994           0
     35143 TIP3     4254     TIP3     H1       HT       0.417000       1.00800           0
     35144 TIP3     4254     TIP3     H2       HT       0.417000       1.00800           0
     35145 TIP3     4255     TIP3     OH2      OT      -0.834000       15.9994           0
     35146 TIP3     4255     TIP3     H1       HT       0.417000       1.00800           0
     35147 TIP3     4255     TIP3     H2       HT       0.417000       1.00800           0
     35148 TIP3     4256     TIP3     OH2      OT      -0.834000       15.9994           0
     35149 TIP3     4256     TIP3     H1       HT       0.417000       1.00800           0
     35150 TIP3     4256     TIP3     H2       HT       0.417000       1.00800           0
     35151 TIP3     4257     TIP3     OH2      OT      -0.834000       15.9994           0
     35152 TIP3     4257     TIP3     H1       HT       0.417000       1.00800           0
     35153 TIP3     4257     TIP3     H2       HT       0.417000       1.00800           0
     35154 TIP3     4258     TIP3     OH2      OT      -0.834000       15.9994           0
     35155 TIP3     4258     TIP3     H1       HT       0.417000       1.00800           0
     35156 TIP3     4258     TIP3     H2       HT       0.417000       1.00800           0
     35157 TIP3     4259     TIP3     OH2      OT      -0.834000       15.9994           0
     35158 TIP3     4259     TIP3     H1       HT       0.417000       1.00800           0
     35159 TIP3     4259     TIP3     H2       HT       0.417000       1.00800           0
     35160 TIP3     4260     TIP3     OH2      OT      -0.834000       15.9994           0
     35161 TIP3     4260     TIP3     H1       HT       0.417000       1.00800           0
     35162 TIP3     4260     TIP3     H2       HT       0.417000       1.00800           0
     35163 TIP3     4261     TIP3     OH2      OT      -0.834000       15.9994           0
     35164 TIP3     4261     TIP3     H1       HT       0.417000       1.00800           0
     35165 TIP3     4261     TIP3     H2       HT       0.417000       1.00800           0
     35166 TIP3     4262     TIP3     OH2      OT      -0.834000       15.9994           0
     35167 TIP3     4262     TIP3     H1       HT       0.417000       1.00800           0
     35168 TIP3     4262     TIP3     H2       HT       0.417000       1.00800           0
     35169 TIP3     4263     TIP3     OH2      OT      -0.834000       15.9994           0
     35170 TIP3     4263     TIP3     H1       HT       0.417000       1.00800           0
     35171 TIP3     4263     TIP3     H2       HT       0.417000       1.00800           0
     35172 TIP3     4264     TIP3     OH2      OT      -0.834000       15.9994           0
     35173 TIP3     4264     TIP3     H1       HT       0.417000       1.00800           0
     35174 TIP3     4264     TIP3     H2       HT       0.417000       1.00800           0
     35175 TIP3     4265     TIP3     OH2      OT      -0.834000       15.9994           0
     35176 TIP3     4265     TIP3     H1       HT       0.417000       1.00800           0
     35177 TIP3     4265     TIP3     H2       HT       0.417000       1.00800           0
     35178 TIP3     4266     TIP3     OH2      OT      -0.834000       15.9994           0
     35179 TIP3     4266     TIP3     H1       HT       0.417000       1.00800           0
     35180 TIP3     4266     TIP3     H2       HT       0.417000       1.00800           0
     35181 TIP3     4267     TIP3     OH2      OT      -0.834000       15.9994           0
     35182 TIP3     4267     TIP3     H1       HT       0.417000       1.00800           0
     35183 TIP3     4267     TIP3     H2       HT       0.417000       1.00800           0
     35184 TIP3     4268     TIP3     OH2      OT      -0.834000       15.9994           0
     35185 TIP3     4268     TIP3     H1       HT       0.417000       1.00800           0
     35186 TIP3     4268     TIP3     H2       HT       0.417000       1.00800           0
     35187 TIP3     4269     TIP3     OH2      OT      -0.834000       15.9994           0
     35188 TIP3     4269     TIP3     H1       HT       0.417000       1.00800           0
     35189 TIP3     4269     TIP3     H2       HT       0.417000       1.00800           0
     35190 TIP3     4270     TIP3     OH2      OT      -0.834000       15.9994           0
     35191 TIP3     4270     TIP3     H1       HT       0.417000       1.00800           0
     35192 TIP3     4270     TIP3     H2       HT       0.417000       1.00800           0
     35193 TIP3     4271     TIP3     OH2      OT      -0.834000       15.9994           0
     35194 TIP3     4271     TIP3     H1       HT       0.417000       1.00800           0
     35195 TIP3     4271     TIP3     H2       HT       0.417000       1.00800           0
     35196 TIP3     4272     TIP3     OH2      OT      -0.834000       15.9994           0
     35197 TIP3     4272     TIP3     H1       HT       0.417000       1.00800           0
     35198 TIP3     4272     TIP3     H2       HT       0.417000       1.00800           0
     35199 TIP3     4273     TIP3     OH2      OT      -0.834000       15.9994           0
     35200 TIP3     4273     TIP3     H1       HT       0.417000       1.00800           0
     35201 TIP3     4273     TIP3     H2       HT       0.417000       1.00800           0
     35202 TIP3     4274     TIP3     OH2      OT      -0.834000       15.9994           0
     35203 TIP3     4274     TIP3     H1       HT       0.417000       1.00800           0
     35204 TIP3     4274     TIP3     H2       HT       0.417000       1.00800           0
     35205 TIP3     4275     TIP3     OH2      OT      -0.834000       15.9994           0
     35206 TIP3     4275     TIP3     H1       HT       0.417000       1.00800           0
     35207 TIP3     4275     TIP3     H2       HT       0.417000       1.00800           0
     35208 TIP3     4276     TIP3     OH2      OT      -0.834000       15.9994           0
     35209 TIP3     4276     TIP3     H1       HT       0.417000       1.00800           0
     35210 TIP3     4276     TIP3     H2       HT       0.417000       1.00800           0
     35211 TIP3     4277     TIP3     OH2      OT      -0.834000       15.9994           0
     35212 TIP3     4277     TIP3     H1       HT       0.417000       1.00800           0
     35213 TIP3     4277     TIP3     H2       HT       0.417000       1.00800           0
     35214 TIP3     4278     TIP3     OH2      OT      -0.834000       15.9994           0
     35215 TIP3     4278     TIP3     H1       HT       0.417000       1.00800           0
     35216 TIP3     4278     TIP3     H2       HT       0.417000       1.00800           0
     35217 TIP3     4279     TIP3     OH2      OT      -0.834000       15.9994           0
     35218 TIP3     4279     TIP3     H1       HT       0.417000       1.00800           0
     35219 TIP3     4279     TIP3     H2       HT       0.417000       1.00800           0
     35220 TIP3     4280     TIP3     OH2      OT      -0.834000       15.9994           0
     35221 TIP3     4280     TIP3     H1       HT       0.417000       1.00800           0
     35222 TIP3     4280     TIP3     H2       HT       0.417000       1.00800           0
     35223 TIP3     4281     TIP3     OH2      OT      -0.834000       15.9994           0
     35224 TIP3     4281     TIP3     H1       HT       0.417000       1.00800           0
     35225 TIP3     4281     TIP3     H2       HT       0.417000       1.00800           0
     35226 TIP3     4282     TIP3     OH2      OT      -0.834000       15.9994           0
     35227 TIP3     4282     TIP3     H1       HT       0.417000       1.00800           0
     35228 TIP3     4282     TIP3     H2       HT       0.417000       1.00800           0
     35229 TIP3     4283     TIP3     OH2      OT      -0.834000       15.9994           0
     35230 TIP3     4283     TIP3     H1       HT       0.417000       1.00800           0
     35231 TIP3     4283     TIP3     H2       HT       0.417000       1.00800           0
     35232 TIP3     4284     TIP3     OH2      OT      -0.834000       15.9994           0
     35233 TIP3     4284     TIP3     H1       HT       0.417000       1.00800           0
     35234 TIP3     4284     TIP3     H2       HT       0.417000       1.00800           0
     35235 TIP3     4285     TIP3     OH2      OT      -0.834000       15.9994           0
     35236 TIP3     4285     TIP3     H1       HT       0.417000       1.00800           0
     35237 TIP3     4285     TIP3     H2       HT       0.417000       1.00800           0
     35238 TIP3     4286     TIP3     OH2      OT      -0.834000       15.9994           0
     35239 TIP3     4286     TIP3     H1       HT       0.417000       1.00800           0
     35240 TIP3     4286     TIP3     H2       HT       0.417000       1.00800           0
     35241 TIP3     4287     TIP3     OH2      OT      -0.834000       15.9994           0
     35242 TIP3     4287     TIP3     H1       HT       0.417000       1.00800           0
     35243 TIP3     4287     TIP3     H2       HT       0.417000       1.00800           0
     35244 TIP3     4288     TIP3     OH2      OT      -0.834000       15.9994           0
     35245 TIP3     4288     TIP3     H1       HT       0.417000       1.00800           0
     35246 TIP3     4288     TIP3     H2       HT       0.417000       1.00800           0
     35247 TIP3     4289     TIP3     OH2      OT      -0.834000       15.9994           0
     35248 TIP3     4289     TIP3     H1       HT       0.417000       1.00800           0
     35249 TIP3     4289     TIP3     H2       HT       0.417000       1.00800           0
     35250 TIP3     4290     TIP3     OH2      OT      -0.834000       15.9994           0
     35251 TIP3     4290     TIP3     H1       HT       0.417000       1.00800           0
     35252 TIP3     4290     TIP3     H2       HT       0.417000       1.00800           0
     35253 TIP3     4291     TIP3     OH2      OT      -0.834000       15.9994           0
     35254 TIP3     4291     TIP3     H1       HT       0.417000       1.00800           0
     35255 TIP3     4291     TIP3     H2       HT       0.417000       1.00800           0
     35256 TIP3     4292     TIP3     OH2      OT      -0.834000       15.9994           0
     35257 TIP3     4292     TIP3     H1       HT       0.417000       1.00800           0
     35258 TIP3     4292     TIP3     H2       HT       0.417000       1.00800           0
     35259 TIP3     4293     TIP3     OH2      OT      -0.834000       15.9994           0
     35260 TIP3     4293     TIP3     H1       HT       0.417000       1.00800           0
     35261 TIP3     4293     TIP3     H2       HT       0.417000       1.00800           0
     35262 TIP3     4294     TIP3     OH2      OT      -0.834000       15.9994           0
     35263 TIP3     4294     TIP3     H1       HT       0.417000       1.00800           0
     35264 TIP3     4294     TIP3     H2       HT       0.417000       1.00800           0
     35265 TIP3     4295     TIP3     OH2      OT      -0.834000       15.9994           0
     35266 TIP3     4295     TIP3     H1       HT       0.417000       1.00800           0
     35267 TIP3     4295     TIP3     H2       HT       0.417000       1.00800           0
     35268 TIP3     4296     TIP3     OH2      OT      -0.834000       15.9994           0
     35269 TIP3     4296     TIP3     H1       HT       0.417000       1.00800           0
     35270 TIP3     4296     TIP3     H2       HT       0.417000       1.00800           0
     35271 TIP3     4297     TIP3     OH2      OT      -0.834000       15.9994           0
     35272 TIP3     4297     TIP3     H1       HT       0.417000       1.00800           0
     35273 TIP3     4297     TIP3     H2       HT       0.417000       1.00800           0
     35274 TIP3     4298     TIP3     OH2      OT      -0.834000       15.9994           0
     35275 TIP3     4298     TIP3     H1       HT       0.417000       1.00800           0
     35276 TIP3     4298     TIP3     H2       HT       0.417000       1.00800           0
     35277 TIP3     4299     TIP3     OH2      OT      -0.834000       15.9994           0
     35278 TIP3     4299     TIP3     H1       HT       0.417000       1.00800           0
     35279 TIP3     4299     TIP3     H2       HT       0.417000       1.00800           0
     35280 TIP3     4300     TIP3     OH2      OT      -0.834000       15.9994           0
     35281 TIP3     4300     TIP3     H1       HT       0.417000       1.00800           0
     35282 TIP3     4300     TIP3     H2       HT       0.417000       1.00800           0
     35283 TIP3     4301     TIP3     OH2      OT      -0.834000       15.9994           0
     35284 TIP3     4301     TIP3     H1       HT       0.417000       1.00800           0
     35285 TIP3     4301     TIP3     H2       HT       0.417000       1.00800           0
     35286 TIP3     4302     TIP3     OH2      OT      -0.834000       15.9994           0
     35287 TIP3     4302     TIP3     H1       HT       0.417000       1.00800           0
     35288 TIP3     4302     TIP3     H2       HT       0.417000       1.00800           0
     35289 TIP3     4303     TIP3     OH2      OT      -0.834000       15.9994           0
     35290 TIP3     4303     TIP3     H1       HT       0.417000       1.00800           0
     35291 TIP3     4303     TIP3     H2       HT       0.417000       1.00800           0
     35292 TIP3     4304     TIP3     OH2      OT      -0.834000       15.9994           0
     35293 TIP3     4304     TIP3     H1       HT       0.417000       1.00800           0
     35294 TIP3     4304     TIP3     H2       HT       0.417000       1.00800           0
     35295 TIP3     4305     TIP3     OH2      OT      -0.834000       15.9994           0
     35296 TIP3     4305     TIP3     H1       HT       0.417000       1.00800           0
     35297 TIP3     4305     TIP3     H2       HT       0.417000       1.00800           0
     35298 TIP3     4306     TIP3     OH2      OT      -0.834000       15.9994           0
     35299 TIP3     4306     TIP3     H1       HT       0.417000       1.00800           0
     35300 TIP3     4306     TIP3     H2       HT       0.417000       1.00800           0
     35301 TIP3     4307     TIP3     OH2      OT      -0.834000       15.9994           0
     35302 TIP3     4307     TIP3     H1       HT       0.417000       1.00800           0
     35303 TIP3     4307     TIP3     H2       HT       0.417000       1.00800           0
     35304 TIP3     4308     TIP3     OH2      OT      -0.834000       15.9994           0
     35305 TIP3     4308     TIP3     H1       HT       0.417000       1.00800           0
     35306 TIP3     4308     TIP3     H2       HT       0.417000       1.00800           0
     35307 TIP3     4309     TIP3     OH2      OT      -0.834000       15.9994           0
     35308 TIP3     4309     TIP3     H1       HT       0.417000       1.00800           0
     35309 TIP3     4309     TIP3     H2       HT       0.417000       1.00800           0
     35310 TIP3     4310     TIP3     OH2      OT      -0.834000       15.9994           0
     35311 TIP3     4310     TIP3     H1       HT       0.417000       1.00800           0
     35312 TIP3     4310     TIP3     H2       HT       0.417000       1.00800           0
     35313 TIP3     4311     TIP3     OH2      OT      -0.834000       15.9994           0
     35314 TIP3     4311     TIP3     H1       HT       0.417000       1.00800           0
     35315 TIP3     4311     TIP3     H2       HT       0.417000       1.00800           0
     35316 TIP3     4312     TIP3     OH2      OT      -0.834000       15.9994           0
     35317 TIP3     4312     TIP3     H1       HT       0.417000       1.00800           0
     35318 TIP3     4312     TIP3     H2       HT       0.417000       1.00800           0
     35319 TIP3     4313     TIP3     OH2      OT      -0.834000       15.9994           0
     35320 TIP3     4313     TIP3     H1       HT       0.417000       1.00800           0
     35321 TIP3     4313     TIP3     H2       HT       0.417000       1.00800           0
     35322 TIP3     4314     TIP3     OH2      OT      -0.834000       15.9994           0
     35323 TIP3     4314     TIP3     H1       HT       0.417000       1.00800           0
     35324 TIP3     4314     TIP3     H2       HT       0.417000       1.00800           0
     35325 TIP3     4315     TIP3     OH2      OT      -0.834000       15.9994           0
     35326 TIP3     4315     TIP3     H1       HT       0.417000       1.00800           0
     35327 TIP3     4315     TIP3     H2       HT       0.417000       1.00800           0
     35328 TIP3     4316     TIP3     OH2      OT      -0.834000       15.9994           0
     35329 TIP3     4316     TIP3     H1       HT       0.417000       1.00800           0
     35330 TIP3     4316     TIP3     H2       HT       0.417000       1.00800           0
     35331 TIP3     4317     TIP3     OH2      OT      -0.834000       15.9994           0
     35332 TIP3     4317     TIP3     H1       HT       0.417000       1.00800           0
     35333 TIP3     4317     TIP3     H2       HT       0.417000       1.00800           0
     35334 TIP3     4318     TIP3     OH2      OT      -0.834000       15.9994           0
     35335 TIP3     4318     TIP3     H1       HT       0.417000       1.00800           0
     35336 TIP3     4318     TIP3     H2       HT       0.417000       1.00800           0
     35337 TIP3     4319     TIP3     OH2      OT      -0.834000       15.9994           0
     35338 TIP3     4319     TIP3     H1       HT       0.417000       1.00800           0
     35339 TIP3     4319     TIP3     H2       HT       0.417000       1.00800           0
     35340 TIP3     4320     TIP3     OH2      OT      -0.834000       15.9994           0
     35341 TIP3     4320     TIP3     H1       HT       0.417000       1.00800           0
     35342 TIP3     4320     TIP3     H2       HT       0.417000       1.00800           0
     35343 TIP3     4321     TIP3     OH2      OT      -0.834000       15.9994           0
     35344 TIP3     4321     TIP3     H1       HT       0.417000       1.00800           0
     35345 TIP3     4321     TIP3     H2       HT       0.417000       1.00800           0
     35346 TIP3     4322     TIP3     OH2      OT      -0.834000       15.9994           0
     35347 TIP3     4322     TIP3     H1       HT       0.417000       1.00800           0
     35348 TIP3     4322     TIP3     H2       HT       0.417000       1.00800           0
     35349 TIP3     4323     TIP3     OH2      OT      -0.834000       15.9994           0
     35350 TIP3     4323     TIP3     H1       HT       0.417000       1.00800           0
     35351 TIP3     4323     TIP3     H2       HT       0.417000       1.00800           0
     35352 TIP3     4324     TIP3     OH2      OT      -0.834000       15.9994           0
     35353 TIP3     4324     TIP3     H1       HT       0.417000       1.00800           0
     35354 TIP3     4324     TIP3     H2       HT       0.417000       1.00800           0
     35355 TIP3     4325     TIP3     OH2      OT      -0.834000       15.9994           0
     35356 TIP3     4325     TIP3     H1       HT       0.417000       1.00800           0
     35357 TIP3     4325     TIP3     H2       HT       0.417000       1.00800           0
     35358 TIP3     4326     TIP3     OH2      OT      -0.834000       15.9994           0
     35359 TIP3     4326     TIP3     H1       HT       0.417000       1.00800           0
     35360 TIP3     4326     TIP3     H2       HT       0.417000       1.00800           0
     35361 TIP3     4327     TIP3     OH2      OT      -0.834000       15.9994           0
     35362 TIP3     4327     TIP3     H1       HT       0.417000       1.00800           0
     35363 TIP3     4327     TIP3     H2       HT       0.417000       1.00800           0
     35364 TIP3     4328     TIP3     OH2      OT      -0.834000       15.9994           0
     35365 TIP3     4328     TIP3     H1       HT       0.417000       1.00800           0
     35366 TIP3     4328     TIP3     H2       HT       0.417000       1.00800           0
     35367 TIP3     4329     TIP3     OH2      OT      -0.834000       15.9994           0
     35368 TIP3     4329     TIP3     H1       HT       0.417000       1.00800           0
     35369 TIP3     4329     TIP3     H2       HT       0.417000       1.00800           0
     35370 TIP3     4330     TIP3     OH2      OT      -0.834000       15.9994           0
     35371 TIP3     4330     TIP3     H1       HT       0.417000       1.00800           0
     35372 TIP3     4330     TIP3     H2       HT       0.417000       1.00800           0
     35373 TIP3     4331     TIP3     OH2      OT      -0.834000       15.9994           0
     35374 TIP3     4331     TIP3     H1       HT       0.417000       1.00800           0
     35375 TIP3     4331     TIP3     H2       HT       0.417000       1.00800           0
     35376 TIP3     4332     TIP3     OH2      OT      -0.834000       15.9994           0
     35377 TIP3     4332     TIP3     H1       HT       0.417000       1.00800           0
     35378 TIP3     4332     TIP3     H2       HT       0.417000       1.00800           0
     35379 TIP3     4333     TIP3     OH2      OT      -0.834000       15.9994           0
     35380 TIP3     4333     TIP3     H1       HT       0.417000       1.00800           0
     35381 TIP3     4333     TIP3     H2       HT       0.417000       1.00800           0
     35382 TIP3     4334     TIP3     OH2      OT      -0.834000       15.9994           0
     35383 TIP3     4334     TIP3     H1       HT       0.417000       1.00800           0
     35384 TIP3     4334     TIP3     H2       HT       0.417000       1.00800           0
     35385 TIP3     4335     TIP3     OH2      OT      -0.834000       15.9994           0
     35386 TIP3     4335     TIP3     H1       HT       0.417000       1.00800           0
     35387 TIP3     4335     TIP3     H2       HT       0.417000       1.00800           0
     35388 TIP3     4336     TIP3     OH2      OT      -0.834000       15.9994           0
     35389 TIP3     4336     TIP3     H1       HT       0.417000       1.00800           0
     35390 TIP3     4336     TIP3     H2       HT       0.417000       1.00800           0
     35391 TIP3     4337     TIP3     OH2      OT      -0.834000       15.9994           0
     35392 TIP3     4337     TIP3     H1       HT       0.417000       1.00800           0
     35393 TIP3     4337     TIP3     H2       HT       0.417000       1.00800           0
     35394 TIP3     4338     TIP3     OH2      OT      -0.834000       15.9994           0
     35395 TIP3     4338     TIP3     H1       HT       0.417000       1.00800           0
     35396 TIP3     4338     TIP3     H2       HT       0.417000       1.00800           0
     35397 TIP3     4339     TIP3     OH2      OT      -0.834000       15.9994           0
     35398 TIP3     4339     TIP3     H1       HT       0.417000       1.00800           0
     35399 TIP3     4339     TIP3     H2       HT       0.417000       1.00800           0
     35400 TIP3     4340     TIP3     OH2      OT      -0.834000       15.9994           0
     35401 TIP3     4340     TIP3     H1       HT       0.417000       1.00800           0
     35402 TIP3     4340     TIP3     H2       HT       0.417000       1.00800           0
     35403 TIP3     4341     TIP3     OH2      OT      -0.834000       15.9994           0
     35404 TIP3     4341     TIP3     H1       HT       0.417000       1.00800           0
     35405 TIP3     4341     TIP3     H2       HT       0.417000       1.00800           0
     35406 TIP3     4342     TIP3     OH2      OT      -0.834000       15.9994           0
     35407 TIP3     4342     TIP3     H1       HT       0.417000       1.00800           0
     35408 TIP3     4342     TIP3     H2       HT       0.417000       1.00800           0
     35409 TIP3     4343     TIP3     OH2      OT      -0.834000       15.9994           0
     35410 TIP3     4343     TIP3     H1       HT       0.417000       1.00800           0
     35411 TIP3     4343     TIP3     H2       HT       0.417000       1.00800           0
     35412 TIP3     4344     TIP3     OH2      OT      -0.834000       15.9994           0
     35413 TIP3     4344     TIP3     H1       HT       0.417000       1.00800           0
     35414 TIP3     4344     TIP3     H2       HT       0.417000       1.00800           0
     35415 TIP3     4345     TIP3     OH2      OT      -0.834000       15.9994           0
     35416 TIP3     4345     TIP3     H1       HT       0.417000       1.00800           0
     35417 TIP3     4345     TIP3     H2       HT       0.417000       1.00800           0
     35418 TIP3     4346     TIP3     OH2      OT      -0.834000       15.9994           0
     35419 TIP3     4346     TIP3     H1       HT       0.417000       1.00800           0
     35420 TIP3     4346     TIP3     H2       HT       0.417000       1.00800           0
     35421 TIP3     4347     TIP3     OH2      OT      -0.834000       15.9994           0
     35422 TIP3     4347     TIP3     H1       HT       0.417000       1.00800           0
     35423 TIP3     4347     TIP3     H2       HT       0.417000       1.00800           0
     35424 TIP3     4348     TIP3     OH2      OT      -0.834000       15.9994           0
     35425 TIP3     4348     TIP3     H1       HT       0.417000       1.00800           0
     35426 TIP3     4348     TIP3     H2       HT       0.417000       1.00800           0
     35427 TIP3     4349     TIP3     OH2      OT      -0.834000       15.9994           0
     35428 TIP3     4349     TIP3     H1       HT       0.417000       1.00800           0
     35429 TIP3     4349     TIP3     H2       HT       0.417000       1.00800           0
     35430 TIP3     4350     TIP3     OH2      OT      -0.834000       15.9994           0
     35431 TIP3     4350     TIP3     H1       HT       0.417000       1.00800           0
     35432 TIP3     4350     TIP3     H2       HT       0.417000       1.00800           0
     35433 TIP3     4351     TIP3     OH2      OT      -0.834000       15.9994           0
     35434 TIP3     4351     TIP3     H1       HT       0.417000       1.00800           0
     35435 TIP3     4351     TIP3     H2       HT       0.417000       1.00800           0
     35436 TIP3     4352     TIP3     OH2      OT      -0.834000       15.9994           0
     35437 TIP3     4352     TIP3     H1       HT       0.417000       1.00800           0
     35438 TIP3     4352     TIP3     H2       HT       0.417000       1.00800           0
     35439 TIP3     4353     TIP3     OH2      OT      -0.834000       15.9994           0
     35440 TIP3     4353     TIP3     H1       HT       0.417000       1.00800           0
     35441 TIP3     4353     TIP3     H2       HT       0.417000       1.00800           0
     35442 TIP3     4354     TIP3     OH2      OT      -0.834000       15.9994           0
     35443 TIP3     4354     TIP3     H1       HT       0.417000       1.00800           0
     35444 TIP3     4354     TIP3     H2       HT       0.417000       1.00800           0
     35445 TIP3     4355     TIP3     OH2      OT      -0.834000       15.9994           0
     35446 TIP3     4355     TIP3     H1       HT       0.417000       1.00800           0
     35447 TIP3     4355     TIP3     H2       HT       0.417000       1.00800           0
     35448 TIP3     4356     TIP3     OH2      OT      -0.834000       15.9994           0
     35449 TIP3     4356     TIP3     H1       HT       0.417000       1.00800           0
     35450 TIP3     4356     TIP3     H2       HT       0.417000       1.00800           0
     35451 TIP3     4357     TIP3     OH2      OT      -0.834000       15.9994           0
     35452 TIP3     4357     TIP3     H1       HT       0.417000       1.00800           0
     35453 TIP3     4357     TIP3     H2       HT       0.417000       1.00800           0
     35454 TIP3     4358     TIP3     OH2      OT      -0.834000       15.9994           0
     35455 TIP3     4358     TIP3     H1       HT       0.417000       1.00800           0
     35456 TIP3     4358     TIP3     H2       HT       0.417000       1.00800           0
     35457 TIP3     4359     TIP3     OH2      OT      -0.834000       15.9994           0
     35458 TIP3     4359     TIP3     H1       HT       0.417000       1.00800           0
     35459 TIP3     4359     TIP3     H2       HT       0.417000       1.00800           0
     35460 TIP3     4360     TIP3     OH2      OT      -0.834000       15.9994           0
     35461 TIP3     4360     TIP3     H1       HT       0.417000       1.00800           0
     35462 TIP3     4360     TIP3     H2       HT       0.417000       1.00800           0
     35463 TIP3     4361     TIP3     OH2      OT      -0.834000       15.9994           0
     35464 TIP3     4361     TIP3     H1       HT       0.417000       1.00800           0
     35465 TIP3     4361     TIP3     H2       HT       0.417000       1.00800           0
     35466 TIP3     4362     TIP3     OH2      OT      -0.834000       15.9994           0
     35467 TIP3     4362     TIP3     H1       HT       0.417000       1.00800           0
     35468 TIP3     4362     TIP3     H2       HT       0.417000       1.00800           0
     35469 TIP3     4363     TIP3     OH2      OT      -0.834000       15.9994           0
     35470 TIP3     4363     TIP3     H1       HT       0.417000       1.00800           0
     35471 TIP3     4363     TIP3     H2       HT       0.417000       1.00800           0
     35472 TIP3     4364     TIP3     OH2      OT      -0.834000       15.9994           0
     35473 TIP3     4364     TIP3     H1       HT       0.417000       1.00800           0
     35474 TIP3     4364     TIP3     H2       HT       0.417000       1.00800           0
     35475 TIP3     4365     TIP3     OH2      OT      -0.834000       15.9994           0
     35476 TIP3     4365     TIP3     H1       HT       0.417000       1.00800           0
     35477 TIP3     4365     TIP3     H2       HT       0.417000       1.00800           0
     35478 TIP3     4366     TIP3     OH2      OT      -0.834000       15.9994           0
     35479 TIP3     4366     TIP3     H1       HT       0.417000       1.00800           0
     35480 TIP3     4366     TIP3     H2       HT       0.417000       1.00800           0
     35481 TIP3     4367     TIP3     OH2      OT      -0.834000       15.9994           0
     35482 TIP3     4367     TIP3     H1       HT       0.417000       1.00800           0
     35483 TIP3     4367     TIP3     H2       HT       0.417000       1.00800           0
     35484 TIP3     4368     TIP3     OH2      OT      -0.834000       15.9994           0
     35485 TIP3     4368     TIP3     H1       HT       0.417000       1.00800           0
     35486 TIP3     4368     TIP3     H2       HT       0.417000       1.00800           0
     35487 TIP3     4369     TIP3     OH2      OT      -0.834000       15.9994           0
     35488 TIP3     4369     TIP3     H1       HT       0.417000       1.00800           0
     35489 TIP3     4369     TIP3     H2       HT       0.417000       1.00800           0
     35490 TIP3     4370     TIP3     OH2      OT      -0.834000       15.9994           0
     35491 TIP3     4370     TIP3     H1       HT       0.417000       1.00800           0
     35492 TIP3     4370     TIP3     H2       HT       0.417000       1.00800           0
     35493 TIP3     4371     TIP3     OH2      OT      -0.834000       15.9994           0
     35494 TIP3     4371     TIP3     H1       HT       0.417000       1.00800           0
     35495 TIP3     4371     TIP3     H2       HT       0.417000       1.00800           0
     35496 TIP3     4372     TIP3     OH2      OT      -0.834000       15.9994           0
     35497 TIP3     4372     TIP3     H1       HT       0.417000       1.00800           0
     35498 TIP3     4372     TIP3     H2       HT       0.417000       1.00800           0
     35499 TIP3     4373     TIP3     OH2      OT      -0.834000       15.9994           0
     35500 TIP3     4373     TIP3     H1       HT       0.417000       1.00800           0
     35501 TIP3     4373     TIP3     H2       HT       0.417000       1.00800           0
     35502 TIP3     4374     TIP3     OH2      OT      -0.834000       15.9994           0
     35503 TIP3     4374     TIP3     H1       HT       0.417000       1.00800           0
     35504 TIP3     4374     TIP3     H2       HT       0.417000       1.00800           0
     35505 TIP3     4375     TIP3     OH2      OT      -0.834000       15.9994           0
     35506 TIP3     4375     TIP3     H1       HT       0.417000       1.00800           0
     35507 TIP3     4375     TIP3     H2       HT       0.417000       1.00800           0
     35508 TIP3     4376     TIP3     OH2      OT      -0.834000       15.9994           0
     35509 TIP3     4376     TIP3     H1       HT       0.417000       1.00800           0
     35510 TIP3     4376     TIP3     H2       HT       0.417000       1.00800           0
     35511 TIP3     4377     TIP3     OH2      OT      -0.834000       15.9994           0
     35512 TIP3     4377     TIP3     H1       HT       0.417000       1.00800           0
     35513 TIP3     4377     TIP3     H2       HT       0.417000       1.00800           0
     35514 TIP3     4378     TIP3     OH2      OT      -0.834000       15.9994           0
     35515 TIP3     4378     TIP3     H1       HT       0.417000       1.00800           0
     35516 TIP3     4378     TIP3     H2       HT       0.417000       1.00800           0
     35517 TIP3     4379     TIP3     OH2      OT      -0.834000       15.9994           0
     35518 TIP3     4379     TIP3     H1       HT       0.417000       1.00800           0
     35519 TIP3     4379     TIP3     H2       HT       0.417000       1.00800           0
     35520 TIP3     4380     TIP3     OH2      OT      -0.834000       15.9994           0
     35521 TIP3     4380     TIP3     H1       HT       0.417000       1.00800           0
     35522 TIP3     4380     TIP3     H2       HT       0.417000       1.00800           0
     35523 TIP3     4381     TIP3     OH2      OT      -0.834000       15.9994           0
     35524 TIP3     4381     TIP3     H1       HT       0.417000       1.00800           0
     35525 TIP3     4381     TIP3     H2       HT       0.417000       1.00800           0
     35526 TIP3     4382     TIP3     OH2      OT      -0.834000       15.9994           0
     35527 TIP3     4382     TIP3     H1       HT       0.417000       1.00800           0
     35528 TIP3     4382     TIP3     H2       HT       0.417000       1.00800           0
     35529 TIP3     4383     TIP3     OH2      OT      -0.834000       15.9994           0
     35530 TIP3     4383     TIP3     H1       HT       0.417000       1.00800           0
     35531 TIP3     4383     TIP3     H2       HT       0.417000       1.00800           0
     35532 TIP3     4384     TIP3     OH2      OT      -0.834000       15.9994           0
     35533 TIP3     4384     TIP3     H1       HT       0.417000       1.00800           0
     35534 TIP3     4384     TIP3     H2       HT       0.417000       1.00800           0
     35535 TIP3     4385     TIP3     OH2      OT      -0.834000       15.9994           0
     35536 TIP3     4385     TIP3     H1       HT       0.417000       1.00800           0
     35537 TIP3     4385     TIP3     H2       HT       0.417000       1.00800           0
     35538 TIP3     4386     TIP3     OH2      OT      -0.834000       15.9994           0
     35539 TIP3     4386     TIP3     H1       HT       0.417000       1.00800           0
     35540 TIP3     4386     TIP3     H2       HT       0.417000       1.00800           0
     35541 TIP3     4387     TIP3     OH2      OT      -0.834000       15.9994           0
     35542 TIP3     4387     TIP3     H1       HT       0.417000       1.00800           0
     35543 TIP3     4387     TIP3     H2       HT       0.417000       1.00800           0
     35544 TIP3     4388     TIP3     OH2      OT      -0.834000       15.9994           0
     35545 TIP3     4388     TIP3     H1       HT       0.417000       1.00800           0
     35546 TIP3     4388     TIP3     H2       HT       0.417000       1.00800           0
     35547 TIP3     4389     TIP3     OH2      OT      -0.834000       15.9994           0
     35548 TIP3     4389     TIP3     H1       HT       0.417000       1.00800           0
     35549 TIP3     4389     TIP3     H2       HT       0.417000       1.00800           0
     35550 TIP3     4390     TIP3     OH2      OT      -0.834000       15.9994           0
     35551 TIP3     4390     TIP3     H1       HT       0.417000       1.00800           0
     35552 TIP3     4390     TIP3     H2       HT       0.417000       1.00800           0
     35553 TIP3     4391     TIP3     OH2      OT      -0.834000       15.9994           0
     35554 TIP3     4391     TIP3     H1       HT       0.417000       1.00800           0
     35555 TIP3     4391     TIP3     H2       HT       0.417000       1.00800           0
     35556 TIP3     4392     TIP3     OH2      OT      -0.834000       15.9994           0
     35557 TIP3     4392     TIP3     H1       HT       0.417000       1.00800           0
     35558 TIP3     4392     TIP3     H2       HT       0.417000       1.00800           0
     35559 TIP3     4393     TIP3     OH2      OT      -0.834000       15.9994           0
     35560 TIP3     4393     TIP3     H1       HT       0.417000       1.00800           0
     35561 TIP3     4393     TIP3     H2       HT       0.417000       1.00800           0
     35562 TIP3     4394     TIP3     OH2      OT      -0.834000       15.9994           0
     35563 TIP3     4394     TIP3     H1       HT       0.417000       1.00800           0
     35564 TIP3     4394     TIP3     H2       HT       0.417000       1.00800           0
     35565 TIP3     4395     TIP3     OH2      OT      -0.834000       15.9994           0
     35566 TIP3     4395     TIP3     H1       HT       0.417000       1.00800           0
     35567 TIP3     4395     TIP3     H2       HT       0.417000       1.00800           0
     35568 TIP3     4396     TIP3     OH2      OT      -0.834000       15.9994           0
     35569 TIP3     4396     TIP3     H1       HT       0.417000       1.00800           0
     35570 TIP3     4396     TIP3     H2       HT       0.417000       1.00800           0
     35571 TIP3     4397     TIP3     OH2      OT      -0.834000       15.9994           0
     35572 TIP3     4397     TIP3     H1       HT       0.417000       1.00800           0
     35573 TIP3     4397     TIP3     H2       HT       0.417000       1.00800           0
     35574 TIP3     4398     TIP3     OH2      OT      -0.834000       15.9994           0
     35575 TIP3     4398     TIP3     H1       HT       0.417000       1.00800           0
     35576 TIP3     4398     TIP3     H2       HT       0.417000       1.00800           0
     35577 TIP3     4399     TIP3     OH2      OT      -0.834000       15.9994           0
     35578 TIP3     4399     TIP3     H1       HT       0.417000       1.00800           0
     35579 TIP3     4399     TIP3     H2       HT       0.417000       1.00800           0
     35580 TIP3     4400     TIP3     OH2      OT      -0.834000       15.9994           0
     35581 TIP3     4400     TIP3     H1       HT       0.417000       1.00800           0
     35582 TIP3     4400     TIP3     H2       HT       0.417000       1.00800           0
     35583 TIP3     4401     TIP3     OH2      OT      -0.834000       15.9994           0
     35584 TIP3     4401     TIP3     H1       HT       0.417000       1.00800           0
     35585 TIP3     4401     TIP3     H2       HT       0.417000       1.00800           0
     35586 TIP3     4402     TIP3     OH2      OT      -0.834000       15.9994           0
     35587 TIP3     4402     TIP3     H1       HT       0.417000       1.00800           0
     35588 TIP3     4402     TIP3     H2       HT       0.417000       1.00800           0
     35589 TIP3     4403     TIP3     OH2      OT      -0.834000       15.9994           0
     35590 TIP3     4403     TIP3     H1       HT       0.417000       1.00800           0
     35591 TIP3     4403     TIP3     H2       HT       0.417000       1.00800           0
     35592 TIP3     4404     TIP3     OH2      OT      -0.834000       15.9994           0
     35593 TIP3     4404     TIP3     H1       HT       0.417000       1.00800           0
     35594 TIP3     4404     TIP3     H2       HT       0.417000       1.00800           0
     35595 TIP3     4405     TIP3     OH2      OT      -0.834000       15.9994           0
     35596 TIP3     4405     TIP3     H1       HT       0.417000       1.00800           0
     35597 TIP3     4405     TIP3     H2       HT       0.417000       1.00800           0
     35598 TIP3     4406     TIP3     OH2      OT      -0.834000       15.9994           0
     35599 TIP3     4406     TIP3     H1       HT       0.417000       1.00800           0
     35600 TIP3     4406     TIP3     H2       HT       0.417000       1.00800           0
     35601 TIP3     4407     TIP3     OH2      OT      -0.834000       15.9994           0
     35602 TIP3     4407     TIP3     H1       HT       0.417000       1.00800           0
     35603 TIP3     4407     TIP3     H2       HT       0.417000       1.00800           0
     35604 TIP3     4408     TIP3     OH2      OT      -0.834000       15.9994           0
     35605 TIP3     4408     TIP3     H1       HT       0.417000       1.00800           0
     35606 TIP3     4408     TIP3     H2       HT       0.417000       1.00800           0
     35607 TIP3     4409     TIP3     OH2      OT      -0.834000       15.9994           0
     35608 TIP3     4409     TIP3     H1       HT       0.417000       1.00800           0
     35609 TIP3     4409     TIP3     H2       HT       0.417000       1.00800           0
     35610 TIP3     4410     TIP3     OH2      OT      -0.834000       15.9994           0
     35611 TIP3     4410     TIP3     H1       HT       0.417000       1.00800           0
     35612 TIP3     4410     TIP3     H2       HT       0.417000       1.00800           0
     35613 TIP3     4411     TIP3     OH2      OT      -0.834000       15.9994           0
     35614 TIP3     4411     TIP3     H1       HT       0.417000       1.00800           0
     35615 TIP3     4411     TIP3     H2       HT       0.417000       1.00800           0
     35616 TIP3     4412     TIP3     OH2      OT      -0.834000       15.9994           0
     35617 TIP3     4412     TIP3     H1       HT       0.417000       1.00800           0
     35618 TIP3     4412     TIP3     H2       HT       0.417000       1.00800           0
     35619 TIP3     4413     TIP3     OH2      OT      -0.834000       15.9994           0
     35620 TIP3     4413     TIP3     H1       HT       0.417000       1.00800           0
     35621 TIP3     4413     TIP3     H2       HT       0.417000       1.00800           0
     35622 TIP3     4414     TIP3     OH2      OT      -0.834000       15.9994           0
     35623 TIP3     4414     TIP3     H1       HT       0.417000       1.00800           0
     35624 TIP3     4414     TIP3     H2       HT       0.417000       1.00800           0
     35625 TIP3     4415     TIP3     OH2      OT      -0.834000       15.9994           0
     35626 TIP3     4415     TIP3     H1       HT       0.417000       1.00800           0
     35627 TIP3     4415     TIP3     H2       HT       0.417000       1.00800           0
     35628 TIP3     4416     TIP3     OH2      OT      -0.834000       15.9994           0
     35629 TIP3     4416     TIP3     H1       HT       0.417000       1.00800           0
     35630 TIP3     4416     TIP3     H2       HT       0.417000       1.00800           0
     35631 TIP3     4417     TIP3     OH2      OT      -0.834000       15.9994           0
     35632 TIP3     4417     TIP3     H1       HT       0.417000       1.00800           0
     35633 TIP3     4417     TIP3     H2       HT       0.417000       1.00800           0
     35634 TIP3     4418     TIP3     OH2      OT      -0.834000       15.9994           0
     35635 TIP3     4418     TIP3     H1       HT       0.417000       1.00800           0
     35636 TIP3     4418     TIP3     H2       HT       0.417000       1.00800           0
     35637 TIP3     4419     TIP3     OH2      OT      -0.834000       15.9994           0
     35638 TIP3     4419     TIP3     H1       HT       0.417000       1.00800           0
     35639 TIP3     4419     TIP3     H2       HT       0.417000       1.00800           0
     35640 TIP3     4420     TIP3     OH2      OT      -0.834000       15.9994           0
     35641 TIP3     4420     TIP3     H1       HT       0.417000       1.00800           0
     35642 TIP3     4420     TIP3     H2       HT       0.417000       1.00800           0
     35643 TIP3     4421     TIP3     OH2      OT      -0.834000       15.9994           0
     35644 TIP3     4421     TIP3     H1       HT       0.417000       1.00800           0
     35645 TIP3     4421     TIP3     H2       HT       0.417000       1.00800           0
     35646 TIP3     4422     TIP3     OH2      OT      -0.834000       15.9994           0
     35647 TIP3     4422     TIP3     H1       HT       0.417000       1.00800           0
     35648 TIP3     4422     TIP3     H2       HT       0.417000       1.00800           0
     35649 TIP3     4423     TIP3     OH2      OT      -0.834000       15.9994           0
     35650 TIP3     4423     TIP3     H1       HT       0.417000       1.00800           0
     35651 TIP3     4423     TIP3     H2       HT       0.417000       1.00800           0
     35652 TIP3     4424     TIP3     OH2      OT      -0.834000       15.9994           0
     35653 TIP3     4424     TIP3     H1       HT       0.417000       1.00800           0
     35654 TIP3     4424     TIP3     H2       HT       0.417000       1.00800           0
     35655 TIP3     4425     TIP3     OH2      OT      -0.834000       15.9994           0
     35656 TIP3     4425     TIP3     H1       HT       0.417000       1.00800           0
     35657 TIP3     4425     TIP3     H2       HT       0.417000       1.00800           0
     35658 TIP3     4426     TIP3     OH2      OT      -0.834000       15.9994           0
     35659 TIP3     4426     TIP3     H1       HT       0.417000       1.00800           0
     35660 TIP3     4426     TIP3     H2       HT       0.417000       1.00800           0
     35661 TIP3     4427     TIP3     OH2      OT      -0.834000       15.9994           0
     35662 TIP3     4427     TIP3     H1       HT       0.417000       1.00800           0
     35663 TIP3     4427     TIP3     H2       HT       0.417000       1.00800           0
     35664 TIP3     4428     TIP3     OH2      OT      -0.834000       15.9994           0
     35665 TIP3     4428     TIP3     H1       HT       0.417000       1.00800           0
     35666 TIP3     4428     TIP3     H2       HT       0.417000       1.00800           0
     35667 TIP3     4429     TIP3     OH2      OT      -0.834000       15.9994           0
     35668 TIP3     4429     TIP3     H1       HT       0.417000       1.00800           0
     35669 TIP3     4429     TIP3     H2       HT       0.417000       1.00800           0
     35670 TIP3     4430     TIP3     OH2      OT      -0.834000       15.9994           0
     35671 TIP3     4430     TIP3     H1       HT       0.417000       1.00800           0
     35672 TIP3     4430     TIP3     H2       HT       0.417000       1.00800           0
     35673 TIP3     4431     TIP3     OH2      OT      -0.834000       15.9994           0
     35674 TIP3     4431     TIP3     H1       HT       0.417000       1.00800           0
     35675 TIP3     4431     TIP3     H2       HT       0.417000       1.00800           0
     35676 TIP3     4432     TIP3     OH2      OT      -0.834000       15.9994           0
     35677 TIP3     4432     TIP3     H1       HT       0.417000       1.00800           0
     35678 TIP3     4432     TIP3     H2       HT       0.417000       1.00800           0
     35679 TIP3     4433     TIP3     OH2      OT      -0.834000       15.9994           0
     35680 TIP3     4433     TIP3     H1       HT       0.417000       1.00800           0
     35681 TIP3     4433     TIP3     H2       HT       0.417000       1.00800           0
     35682 TIP3     4434     TIP3     OH2      OT      -0.834000       15.9994           0
     35683 TIP3     4434     TIP3     H1       HT       0.417000       1.00800           0
     35684 TIP3     4434     TIP3     H2       HT       0.417000       1.00800           0
     35685 TIP3     4435     TIP3     OH2      OT      -0.834000       15.9994           0
     35686 TIP3     4435     TIP3     H1       HT       0.417000       1.00800           0
     35687 TIP3     4435     TIP3     H2       HT       0.417000       1.00800           0
     35688 TIP3     4436     TIP3     OH2      OT      -0.834000       15.9994           0
     35689 TIP3     4436     TIP3     H1       HT       0.417000       1.00800           0
     35690 TIP3     4436     TIP3     H2       HT       0.417000       1.00800           0
     35691 TIP3     4437     TIP3     OH2      OT      -0.834000       15.9994           0
     35692 TIP3     4437     TIP3     H1       HT       0.417000       1.00800           0
     35693 TIP3     4437     TIP3     H2       HT       0.417000       1.00800           0
     35694 TIP3     4438     TIP3     OH2      OT      -0.834000       15.9994           0
     35695 TIP3     4438     TIP3     H1       HT       0.417000       1.00800           0
     35696 TIP3     4438     TIP3     H2       HT       0.417000       1.00800           0
     35697 TIP3     4439     TIP3     OH2      OT      -0.834000       15.9994           0
     35698 TIP3     4439     TIP3     H1       HT       0.417000       1.00800           0
     35699 TIP3     4439     TIP3     H2       HT       0.417000       1.00800           0
     35700 TIP3     4440     TIP3     OH2      OT      -0.834000       15.9994           0
     35701 TIP3     4440     TIP3     H1       HT       0.417000       1.00800           0
     35702 TIP3     4440     TIP3     H2       HT       0.417000       1.00800           0
     35703 TIP3     4441     TIP3     OH2      OT      -0.834000       15.9994           0
     35704 TIP3     4441     TIP3     H1       HT       0.417000       1.00800           0
     35705 TIP3     4441     TIP3     H2       HT       0.417000       1.00800           0
     35706 TIP3     4442     TIP3     OH2      OT      -0.834000       15.9994           0
     35707 TIP3     4442     TIP3     H1       HT       0.417000       1.00800           0
     35708 TIP3     4442     TIP3     H2       HT       0.417000       1.00800           0
     35709 TIP3     4443     TIP3     OH2      OT      -0.834000       15.9994           0
     35710 TIP3     4443     TIP3     H1       HT       0.417000       1.00800           0
     35711 TIP3     4443     TIP3     H2       HT       0.417000       1.00800           0
     35712 TIP3     4444     TIP3     OH2      OT      -0.834000       15.9994           0
     35713 TIP3     4444     TIP3     H1       HT       0.417000       1.00800           0
     35714 TIP3     4444     TIP3     H2       HT       0.417000       1.00800           0
     35715 TIP3     4445     TIP3     OH2      OT      -0.834000       15.9994           0
     35716 TIP3     4445     TIP3     H1       HT       0.417000       1.00800           0
     35717 TIP3     4445     TIP3     H2       HT       0.417000       1.00800           0
     35718 TIP3     4446     TIP3     OH2      OT      -0.834000       15.9994           0
     35719 TIP3     4446     TIP3     H1       HT       0.417000       1.00800           0
     35720 TIP3     4446     TIP3     H2       HT       0.417000       1.00800           0
     35721 TIP3     4447     TIP3     OH2      OT      -0.834000       15.9994           0
     35722 TIP3     4447     TIP3     H1       HT       0.417000       1.00800           0
     35723 TIP3     4447     TIP3     H2       HT       0.417000       1.00800           0
     35724 TIP3     4448     TIP3     OH2      OT      -0.834000       15.9994           0
     35725 TIP3     4448     TIP3     H1       HT       0.417000       1.00800           0
     35726 TIP3     4448     TIP3     H2       HT       0.417000       1.00800           0
     35727 TIP3     4449     TIP3     OH2      OT      -0.834000       15.9994           0
     35728 TIP3     4449     TIP3     H1       HT       0.417000       1.00800           0
     35729 TIP3     4449     TIP3     H2       HT       0.417000       1.00800           0
     35730 TIP3     4450     TIP3     OH2      OT      -0.834000       15.9994           0
     35731 TIP3     4450     TIP3     H1       HT       0.417000       1.00800           0
     35732 TIP3     4450     TIP3     H2       HT       0.417000       1.00800           0
     35733 TIP3     4451     TIP3     OH2      OT      -0.834000       15.9994           0
     35734 TIP3     4451     TIP3     H1       HT       0.417000       1.00800           0
     35735 TIP3     4451     TIP3     H2       HT       0.417000       1.00800           0
     35736 TIP3     4452     TIP3     OH2      OT      -0.834000       15.9994           0
     35737 TIP3     4452     TIP3     H1       HT       0.417000       1.00800           0
     35738 TIP3     4452     TIP3     H2       HT       0.417000       1.00800           0
     35739 TIP3     4453     TIP3     OH2      OT      -0.834000       15.9994           0
     35740 TIP3     4453     TIP3     H1       HT       0.417000       1.00800           0
     35741 TIP3     4453     TIP3     H2       HT       0.417000       1.00800           0
     35742 TIP3     4454     TIP3     OH2      OT      -0.834000       15.9994           0
     35743 TIP3     4454     TIP3     H1       HT       0.417000       1.00800           0
     35744 TIP3     4454     TIP3     H2       HT       0.417000       1.00800           0
     35745 TIP3     4455     TIP3     OH2      OT      -0.834000       15.9994           0
     35746 TIP3     4455     TIP3     H1       HT       0.417000       1.00800           0
     35747 TIP3     4455     TIP3     H2       HT       0.417000       1.00800           0
     35748 TIP3     4456     TIP3     OH2      OT      -0.834000       15.9994           0
     35749 TIP3     4456     TIP3     H1       HT       0.417000       1.00800           0
     35750 TIP3     4456     TIP3     H2       HT       0.417000       1.00800           0
     35751 TIP3     4457     TIP3     OH2      OT      -0.834000       15.9994           0
     35752 TIP3     4457     TIP3     H1       HT       0.417000       1.00800           0
     35753 TIP3     4457     TIP3     H2       HT       0.417000       1.00800           0
     35754 TIP3     4458     TIP3     OH2      OT      -0.834000       15.9994           0
     35755 TIP3     4458     TIP3     H1       HT       0.417000       1.00800           0
     35756 TIP3     4458     TIP3     H2       HT       0.417000       1.00800           0
     35757 TIP3     4459     TIP3     OH2      OT      -0.834000       15.9994           0
     35758 TIP3     4459     TIP3     H1       HT       0.417000       1.00800           0
     35759 TIP3     4459     TIP3     H2       HT       0.417000       1.00800           0
     35760 TIP3     4460     TIP3     OH2      OT      -0.834000       15.9994           0
     35761 TIP3     4460     TIP3     H1       HT       0.417000       1.00800           0
     35762 TIP3     4460     TIP3     H2       HT       0.417000       1.00800           0
     35763 TIP3     4461     TIP3     OH2      OT      -0.834000       15.9994           0
     35764 TIP3     4461     TIP3     H1       HT       0.417000       1.00800           0
     35765 TIP3     4461     TIP3     H2       HT       0.417000       1.00800           0
     35766 TIP3     4462     TIP3     OH2      OT      -0.834000       15.9994           0
     35767 TIP3     4462     TIP3     H1       HT       0.417000       1.00800           0
     35768 TIP3     4462     TIP3     H2       HT       0.417000       1.00800           0
     35769 TIP3     4463     TIP3     OH2      OT      -0.834000       15.9994           0
     35770 TIP3     4463     TIP3     H1       HT       0.417000       1.00800           0
     35771 TIP3     4463     TIP3     H2       HT       0.417000       1.00800           0
     35772 TIP3     4464     TIP3     OH2      OT      -0.834000       15.9994           0
     35773 TIP3     4464     TIP3     H1       HT       0.417000       1.00800           0
     35774 TIP3     4464     TIP3     H2       HT       0.417000       1.00800           0
     35775 TIP3     4465     TIP3     OH2      OT      -0.834000       15.9994           0
     35776 TIP3     4465     TIP3     H1       HT       0.417000       1.00800           0
     35777 TIP3     4465     TIP3     H2       HT       0.417000       1.00800           0
     35778 TIP3     4466     TIP3     OH2      OT      -0.834000       15.9994           0
     35779 TIP3     4466     TIP3     H1       HT       0.417000       1.00800           0
     35780 TIP3     4466     TIP3     H2       HT       0.417000       1.00800           0
     35781 TIP3     4467     TIP3     OH2      OT      -0.834000       15.9994           0
     35782 TIP3     4467     TIP3     H1       HT       0.417000       1.00800           0
     35783 TIP3     4467     TIP3     H2       HT       0.417000       1.00800           0
     35784 TIP3     4468     TIP3     OH2      OT      -0.834000       15.9994           0
     35785 TIP3     4468     TIP3     H1       HT       0.417000       1.00800           0
     35786 TIP3     4468     TIP3     H2       HT       0.417000       1.00800           0
     35787 TIP3     4469     TIP3     OH2      OT      -0.834000       15.9994           0
     35788 TIP3     4469     TIP3     H1       HT       0.417000       1.00800           0
     35789 TIP3     4469     TIP3     H2       HT       0.417000       1.00800           0
     35790 TIP3     4470     TIP3     OH2      OT      -0.834000       15.9994           0
     35791 TIP3     4470     TIP3     H1       HT       0.417000       1.00800           0
     35792 TIP3     4470     TIP3     H2       HT       0.417000       1.00800           0
     35793 TIP3     4471     TIP3     OH2      OT      -0.834000       15.9994           0
     35794 TIP3     4471     TIP3     H1       HT       0.417000       1.00800           0
     35795 TIP3     4471     TIP3     H2       HT       0.417000       1.00800           0
     35796 TIP3     4472     TIP3     OH2      OT      -0.834000       15.9994           0
     35797 TIP3     4472     TIP3     H1       HT       0.417000       1.00800           0
     35798 TIP3     4472     TIP3     H2       HT       0.417000       1.00800           0
     35799 TIP3     4473     TIP3     OH2      OT      -0.834000       15.9994           0
     35800 TIP3     4473     TIP3     H1       HT       0.417000       1.00800           0
     35801 TIP3     4473     TIP3     H2       HT       0.417000       1.00800           0
     35802 TIP3     4474     TIP3     OH2      OT      -0.834000       15.9994           0
     35803 TIP3     4474     TIP3     H1       HT       0.417000       1.00800           0
     35804 TIP3     4474     TIP3     H2       HT       0.417000       1.00800           0
     35805 TIP3     4475     TIP3     OH2      OT      -0.834000       15.9994           0
     35806 TIP3     4475     TIP3     H1       HT       0.417000       1.00800           0
     35807 TIP3     4475     TIP3     H2       HT       0.417000       1.00800           0
     35808 TIP3     4476     TIP3     OH2      OT      -0.834000       15.9994           0
     35809 TIP3     4476     TIP3     H1       HT       0.417000       1.00800           0
     35810 TIP3     4476     TIP3     H2       HT       0.417000       1.00800           0
     35811 TIP3     4477     TIP3     OH2      OT      -0.834000       15.9994           0
     35812 TIP3     4477     TIP3     H1       HT       0.417000       1.00800           0
     35813 TIP3     4477     TIP3     H2       HT       0.417000       1.00800           0
     35814 TIP3     4478     TIP3     OH2      OT      -0.834000       15.9994           0
     35815 TIP3     4478     TIP3     H1       HT       0.417000       1.00800           0
     35816 TIP3     4478     TIP3     H2       HT       0.417000       1.00800           0
     35817 TIP3     4479     TIP3     OH2      OT      -0.834000       15.9994           0
     35818 TIP3     4479     TIP3     H1       HT       0.417000       1.00800           0
     35819 TIP3     4479     TIP3     H2       HT       0.417000       1.00800           0
     35820 TIP3     4480     TIP3     OH2      OT      -0.834000       15.9994           0
     35821 TIP3     4480     TIP3     H1       HT       0.417000       1.00800           0
     35822 TIP3     4480     TIP3     H2       HT       0.417000       1.00800           0
     35823 TIP3     4481     TIP3     OH2      OT      -0.834000       15.9994           0
     35824 TIP3     4481     TIP3     H1       HT       0.417000       1.00800           0
     35825 TIP3     4481     TIP3     H2       HT       0.417000       1.00800           0
     35826 TIP3     4482     TIP3     OH2      OT      -0.834000       15.9994           0
     35827 TIP3     4482     TIP3     H1       HT       0.417000       1.00800           0
     35828 TIP3     4482     TIP3     H2       HT       0.417000       1.00800           0
     35829 TIP3     4483     TIP3     OH2      OT      -0.834000       15.9994           0
     35830 TIP3     4483     TIP3     H1       HT       0.417000       1.00800           0
     35831 TIP3     4483     TIP3     H2       HT       0.417000       1.00800           0
     35832 TIP3     4484     TIP3     OH2      OT      -0.834000       15.9994           0
     35833 TIP3     4484     TIP3     H1       HT       0.417000       1.00800           0
     35834 TIP3     4484     TIP3     H2       HT       0.417000       1.00800           0
     35835 TIP3     4485     TIP3     OH2      OT      -0.834000       15.9994           0
     35836 TIP3     4485     TIP3     H1       HT       0.417000       1.00800           0
     35837 TIP3     4485     TIP3     H2       HT       0.417000       1.00800           0
     35838 TIP3     4486     TIP3     OH2      OT      -0.834000       15.9994           0
     35839 TIP3     4486     TIP3     H1       HT       0.417000       1.00800           0
     35840 TIP3     4486     TIP3     H2       HT       0.417000       1.00800           0
     35841 TIP3     4487     TIP3     OH2      OT      -0.834000       15.9994           0
     35842 TIP3     4487     TIP3     H1       HT       0.417000       1.00800           0
     35843 TIP3     4487     TIP3     H2       HT       0.417000       1.00800           0
     35844 TIP3     4488     TIP3     OH2      OT      -0.834000       15.9994           0
     35845 TIP3     4488     TIP3     H1       HT       0.417000       1.00800           0
     35846 TIP3     4488     TIP3     H2       HT       0.417000       1.00800           0
     35847 TIP3     4489     TIP3     OH2      OT      -0.834000       15.9994           0
     35848 TIP3     4489     TIP3     H1       HT       0.417000       1.00800           0
     35849 TIP3     4489     TIP3     H2       HT       0.417000       1.00800           0
     35850 TIP3     4490     TIP3     OH2      OT      -0.834000       15.9994           0
     35851 TIP3     4490     TIP3     H1       HT       0.417000       1.00800           0
     35852 TIP3     4490     TIP3     H2       HT       0.417000       1.00800           0
     35853 TIP3     4491     TIP3     OH2      OT      -0.834000       15.9994           0
     35854 TIP3     4491     TIP3     H1       HT       0.417000       1.00800           0
     35855 TIP3     4491     TIP3     H2       HT       0.417000       1.00800           0
     35856 TIP3     4492     TIP3     OH2      OT      -0.834000       15.9994           0
     35857 TIP3     4492     TIP3     H1       HT       0.417000       1.00800           0
     35858 TIP3     4492     TIP3     H2       HT       0.417000       1.00800           0
     35859 TIP3     4493     TIP3     OH2      OT      -0.834000       15.9994           0
     35860 TIP3     4493     TIP3     H1       HT       0.417000       1.00800           0
     35861 TIP3     4493     TIP3     H2       HT       0.417000       1.00800           0
     35862 TIP3     4494     TIP3     OH2      OT      -0.834000       15.9994           0
     35863 TIP3     4494     TIP3     H1       HT       0.417000       1.00800           0
     35864 TIP3     4494     TIP3     H2       HT       0.417000       1.00800           0
     35865 TIP3     4495     TIP3     OH2      OT      -0.834000       15.9994           0
     35866 TIP3     4495     TIP3     H1       HT       0.417000       1.00800           0
     35867 TIP3     4495     TIP3     H2       HT       0.417000       1.00800           0
     35868 TIP3     4496     TIP3     OH2      OT      -0.834000       15.9994           0
     35869 TIP3     4496     TIP3     H1       HT       0.417000       1.00800           0
     35870 TIP3     4496     TIP3     H2       HT       0.417000       1.00800           0
     35871 TIP3     4497     TIP3     OH2      OT      -0.834000       15.9994           0
     35872 TIP3     4497     TIP3     H1       HT       0.417000       1.00800           0
     35873 TIP3     4497     TIP3     H2       HT       0.417000       1.00800           0
     35874 TIP3     4498     TIP3     OH2      OT      -0.834000       15.9994           0
     35875 TIP3     4498     TIP3     H1       HT       0.417000       1.00800           0
     35876 TIP3     4498     TIP3     H2       HT       0.417000       1.00800           0
     35877 TIP3     4499     TIP3     OH2      OT      -0.834000       15.9994           0
     35878 TIP3     4499     TIP3     H1       HT       0.417000       1.00800           0
     35879 TIP3     4499     TIP3     H2       HT       0.417000       1.00800           0
     35880 TIP3     4500     TIP3     OH2      OT      -0.834000       15.9994           0
     35881 TIP3     4500     TIP3     H1       HT       0.417000       1.00800           0
     35882 TIP3     4500     TIP3     H2       HT       0.417000       1.00800           0
     35883 TIP3     4501     TIP3     OH2      OT      -0.834000       15.9994           0
     35884 TIP3     4501     TIP3     H1       HT       0.417000       1.00800           0
     35885 TIP3     4501     TIP3     H2       HT       0.417000       1.00800           0
     35886 TIP3     4502     TIP3     OH2      OT      -0.834000       15.9994           0
     35887 TIP3     4502     TIP3     H1       HT       0.417000       1.00800           0
     35888 TIP3     4502     TIP3     H2       HT       0.417000       1.00800           0
     35889 TIP3     4503     TIP3     OH2      OT      -0.834000       15.9994           0
     35890 TIP3     4503     TIP3     H1       HT       0.417000       1.00800           0
     35891 TIP3     4503     TIP3     H2       HT       0.417000       1.00800           0
     35892 TIP3     4504     TIP3     OH2      OT      -0.834000       15.9994           0
     35893 TIP3     4504     TIP3     H1       HT       0.417000       1.00800           0
     35894 TIP3     4504     TIP3     H2       HT       0.417000       1.00800           0
     35895 TIP3     4505     TIP3     OH2      OT      -0.834000       15.9994           0
     35896 TIP3     4505     TIP3     H1       HT       0.417000       1.00800           0
     35897 TIP3     4505     TIP3     H2       HT       0.417000       1.00800           0
     35898 TIP3     4506     TIP3     OH2      OT      -0.834000       15.9994           0
     35899 TIP3     4506     TIP3     H1       HT       0.417000       1.00800           0
     35900 TIP3     4506     TIP3     H2       HT       0.417000       1.00800           0
     35901 TIP3     4507     TIP3     OH2      OT      -0.834000       15.9994           0
     35902 TIP3     4507     TIP3     H1       HT       0.417000       1.00800           0
     35903 TIP3     4507     TIP3     H2       HT       0.417000       1.00800           0
     35904 TIP3     4508     TIP3     OH2      OT      -0.834000       15.9994           0
     35905 TIP3     4508     TIP3     H1       HT       0.417000       1.00800           0
     35906 TIP3     4508     TIP3     H2       HT       0.417000       1.00800           0
     35907 TIP3     4509     TIP3     OH2      OT      -0.834000       15.9994           0
     35908 TIP3     4509     TIP3     H1       HT       0.417000       1.00800           0
     35909 TIP3     4509     TIP3     H2       HT       0.417000       1.00800           0
     35910 TIP3     4510     TIP3     OH2      OT      -0.834000       15.9994           0
     35911 TIP3     4510     TIP3     H1       HT       0.417000       1.00800           0
     35912 TIP3     4510     TIP3     H2       HT       0.417000       1.00800           0
     35913 TIP3     4511     TIP3     OH2      OT      -0.834000       15.9994           0
     35914 TIP3     4511     TIP3     H1       HT       0.417000       1.00800           0
     35915 TIP3     4511     TIP3     H2       HT       0.417000       1.00800           0
     35916 TIP3     4512     TIP3     OH2      OT      -0.834000       15.9994           0
     35917 TIP3     4512     TIP3     H1       HT       0.417000       1.00800           0
     35918 TIP3     4512     TIP3     H2       HT       0.417000       1.00800           0
     35919 TIP3     4513     TIP3     OH2      OT      -0.834000       15.9994           0
     35920 TIP3     4513     TIP3     H1       HT       0.417000       1.00800           0
     35921 TIP3     4513     TIP3     H2       HT       0.417000       1.00800           0
     35922 TIP3     4514     TIP3     OH2      OT      -0.834000       15.9994           0
     35923 TIP3     4514     TIP3     H1       HT       0.417000       1.00800           0
     35924 TIP3     4514     TIP3     H2       HT       0.417000       1.00800           0
     35925 TIP3     4515     TIP3     OH2      OT      -0.834000       15.9994           0
     35926 TIP3     4515     TIP3     H1       HT       0.417000       1.00800           0
     35927 TIP3     4515     TIP3     H2       HT       0.417000       1.00800           0
     35928 TIP3     4516     TIP3     OH2      OT      -0.834000       15.9994           0
     35929 TIP3     4516     TIP3     H1       HT       0.417000       1.00800           0
     35930 TIP3     4516     TIP3     H2       HT       0.417000       1.00800           0
     35931 TIP3     4517     TIP3     OH2      OT      -0.834000       15.9994           0
     35932 TIP3     4517     TIP3     H1       HT       0.417000       1.00800           0
     35933 TIP3     4517     TIP3     H2       HT       0.417000       1.00800           0
     35934 TIP3     4518     TIP3     OH2      OT      -0.834000       15.9994           0
     35935 TIP3     4518     TIP3     H1       HT       0.417000       1.00800           0
     35936 TIP3     4518     TIP3     H2       HT       0.417000       1.00800           0
     35937 TIP3     4519     TIP3     OH2      OT      -0.834000       15.9994           0
     35938 TIP3     4519     TIP3     H1       HT       0.417000       1.00800           0
     35939 TIP3     4519     TIP3     H2       HT       0.417000       1.00800           0
     35940 TIP3     4520     TIP3     OH2      OT      -0.834000       15.9994           0
     35941 TIP3     4520     TIP3     H1       HT       0.417000       1.00800           0
     35942 TIP3     4520     TIP3     H2       HT       0.417000       1.00800           0
     35943 TIP3     4521     TIP3     OH2      OT      -0.834000       15.9994           0
     35944 TIP3     4521     TIP3     H1       HT       0.417000       1.00800           0
     35945 TIP3     4521     TIP3     H2       HT       0.417000       1.00800           0
     35946 TIP3     4522     TIP3     OH2      OT      -0.834000       15.9994           0
     35947 TIP3     4522     TIP3     H1       HT       0.417000       1.00800           0
     35948 TIP3     4522     TIP3     H2       HT       0.417000       1.00800           0
     35949 TIP3     4523     TIP3     OH2      OT      -0.834000       15.9994           0
     35950 TIP3     4523     TIP3     H1       HT       0.417000       1.00800           0
     35951 TIP3     4523     TIP3     H2       HT       0.417000       1.00800           0
     35952 TIP3     4524     TIP3     OH2      OT      -0.834000       15.9994           0
     35953 TIP3     4524     TIP3     H1       HT       0.417000       1.00800           0
     35954 TIP3     4524     TIP3     H2       HT       0.417000       1.00800           0
     35955 TIP3     4525     TIP3     OH2      OT      -0.834000       15.9994           0
     35956 TIP3     4525     TIP3     H1       HT       0.417000       1.00800           0
     35957 TIP3     4525     TIP3     H2       HT       0.417000       1.00800           0
     35958 TIP3     4526     TIP3     OH2      OT      -0.834000       15.9994           0
     35959 TIP3     4526     TIP3     H1       HT       0.417000       1.00800           0
     35960 TIP3     4526     TIP3     H2       HT       0.417000       1.00800           0
     35961 TIP3     4527     TIP3     OH2      OT      -0.834000       15.9994           0
     35962 TIP3     4527     TIP3     H1       HT       0.417000       1.00800           0
     35963 TIP3     4527     TIP3     H2       HT       0.417000       1.00800           0
     35964 TIP3     4528     TIP3     OH2      OT      -0.834000       15.9994           0
     35965 TIP3     4528     TIP3     H1       HT       0.417000       1.00800           0
     35966 TIP3     4528     TIP3     H2       HT       0.417000       1.00800           0
     35967 TIP3     4529     TIP3     OH2      OT      -0.834000       15.9994           0
     35968 TIP3     4529     TIP3     H1       HT       0.417000       1.00800           0
     35969 TIP3     4529     TIP3     H2       HT       0.417000       1.00800           0
     35970 TIP3     4530     TIP3     OH2      OT      -0.834000       15.9994           0
     35971 TIP3     4530     TIP3     H1       HT       0.417000       1.00800           0
     35972 TIP3     4530     TIP3     H2       HT       0.417000       1.00800           0
     35973 TIP3     4531     TIP3     OH2      OT      -0.834000       15.9994           0
     35974 TIP3     4531     TIP3     H1       HT       0.417000       1.00800           0
     35975 TIP3     4531     TIP3     H2       HT       0.417000       1.00800           0
     35976 TIP3     4532     TIP3     OH2      OT      -0.834000       15.9994           0
     35977 TIP3     4532     TIP3     H1       HT       0.417000       1.00800           0
     35978 TIP3     4532     TIP3     H2       HT       0.417000       1.00800           0
     35979 TIP3     4533     TIP3     OH2      OT      -0.834000       15.9994           0
     35980 TIP3     4533     TIP3     H1       HT       0.417000       1.00800           0
     35981 TIP3     4533     TIP3     H2       HT       0.417000       1.00800           0
     35982 TIP3     4534     TIP3     OH2      OT      -0.834000       15.9994           0
     35983 TIP3     4534     TIP3     H1       HT       0.417000       1.00800           0
     35984 TIP3     4534     TIP3     H2       HT       0.417000       1.00800           0
     35985 TIP3     4535     TIP3     OH2      OT      -0.834000       15.9994           0
     35986 TIP3     4535     TIP3     H1       HT       0.417000       1.00800           0
     35987 TIP3     4535     TIP3     H2       HT       0.417000       1.00800           0
     35988 TIP3     4536     TIP3     OH2      OT      -0.834000       15.9994           0
     35989 TIP3     4536     TIP3     H1       HT       0.417000       1.00800           0
     35990 TIP3     4536     TIP3     H2       HT       0.417000       1.00800           0
     35991 TIP3     4537     TIP3     OH2      OT      -0.834000       15.9994           0
     35992 TIP3     4537     TIP3     H1       HT       0.417000       1.00800           0
     35993 TIP3     4537     TIP3     H2       HT       0.417000       1.00800           0
     35994 TIP3     4538     TIP3     OH2      OT      -0.834000       15.9994           0
     35995 TIP3     4538     TIP3     H1       HT       0.417000       1.00800           0
     35996 TIP3     4538     TIP3     H2       HT       0.417000       1.00800           0
     35997 TIP3     4539     TIP3     OH2      OT      -0.834000       15.9994           0
     35998 TIP3     4539     TIP3     H1       HT       0.417000       1.00800           0
     35999 TIP3     4539     TIP3     H2       HT       0.417000       1.00800           0
     36000 TIP3     4540     TIP3     OH2      OT      -0.834000       15.9994           0
     36001 TIP3     4540     TIP3     H1       HT       0.417000       1.00800           0
     36002 TIP3     4540     TIP3     H2       HT       0.417000       1.00800           0
     36003 TIP3     4541     TIP3     OH2      OT      -0.834000       15.9994           0
     36004 TIP3     4541     TIP3     H1       HT       0.417000       1.00800           0
     36005 TIP3     4541     TIP3     H2       HT       0.417000       1.00800           0
     36006 TIP3     4542     TIP3     OH2      OT      -0.834000       15.9994           0
     36007 TIP3     4542     TIP3     H1       HT       0.417000       1.00800           0
     36008 TIP3     4542     TIP3     H2       HT       0.417000       1.00800           0
     36009 TIP3     4543     TIP3     OH2      OT      -0.834000       15.9994           0
     36010 TIP3     4543     TIP3     H1       HT       0.417000       1.00800           0
     36011 TIP3     4543     TIP3     H2       HT       0.417000       1.00800           0
     36012 TIP3     4544     TIP3     OH2      OT      -0.834000       15.9994           0
     36013 TIP3     4544     TIP3     H1       HT       0.417000       1.00800           0
     36014 TIP3     4544     TIP3     H2       HT       0.417000       1.00800           0
     36015 TIP3     4545     TIP3     OH2      OT      -0.834000       15.9994           0
     36016 TIP3     4545     TIP3     H1       HT       0.417000       1.00800           0
     36017 TIP3     4545     TIP3     H2       HT       0.417000       1.00800           0
     36018 TIP3     4546     TIP3     OH2      OT      -0.834000       15.9994           0
     36019 TIP3     4546     TIP3     H1       HT       0.417000       1.00800           0
     36020 TIP3     4546     TIP3     H2       HT       0.417000       1.00800           0
     36021 TIP3     4547     TIP3     OH2      OT      -0.834000       15.9994           0
     36022 TIP3     4547     TIP3     H1       HT       0.417000       1.00800           0
     36023 TIP3     4547     TIP3     H2       HT       0.417000       1.00800           0
     36024 TIP3     4548     TIP3     OH2      OT      -0.834000       15.9994           0
     36025 TIP3     4548     TIP3     H1       HT       0.417000       1.00800           0
     36026 TIP3     4548     TIP3     H2       HT       0.417000       1.00800           0
     36027 TIP3     4549     TIP3     OH2      OT      -0.834000       15.9994           0
     36028 TIP3     4549     TIP3     H1       HT       0.417000       1.00800           0
     36029 TIP3     4549     TIP3     H2       HT       0.417000       1.00800           0
     36030 TIP3     4550     TIP3     OH2      OT      -0.834000       15.9994           0
     36031 TIP3     4550     TIP3     H1       HT       0.417000       1.00800           0
     36032 TIP3     4550     TIP3     H2       HT       0.417000       1.00800           0
     36033 TIP3     4551     TIP3     OH2      OT      -0.834000       15.9994           0
     36034 TIP3     4551     TIP3     H1       HT       0.417000       1.00800           0
     36035 TIP3     4551     TIP3     H2       HT       0.417000       1.00800           0
     36036 TIP3     4552     TIP3     OH2      OT      -0.834000       15.9994           0
     36037 TIP3     4552     TIP3     H1       HT       0.417000       1.00800           0
     36038 TIP3     4552     TIP3     H2       HT       0.417000       1.00800           0
     36039 TIP3     4553     TIP3     OH2      OT      -0.834000       15.9994           0
     36040 TIP3     4553     TIP3     H1       HT       0.417000       1.00800           0
     36041 TIP3     4553     TIP3     H2       HT       0.417000       1.00800           0
     36042 TIP3     4554     TIP3     OH2      OT      -0.834000       15.9994           0
     36043 TIP3     4554     TIP3     H1       HT       0.417000       1.00800           0
     36044 TIP3     4554     TIP3     H2       HT       0.417000       1.00800           0
     36045 TIP3     4555     TIP3     OH2      OT      -0.834000       15.9994           0
     36046 TIP3     4555     TIP3     H1       HT       0.417000       1.00800           0
     36047 TIP3     4555     TIP3     H2       HT       0.417000       1.00800           0
     36048 TIP3     4556     TIP3     OH2      OT      -0.834000       15.9994           0
     36049 TIP3     4556     TIP3     H1       HT       0.417000       1.00800           0
     36050 TIP3     4556     TIP3     H2       HT       0.417000       1.00800           0
     36051 TIP3     4557     TIP3     OH2      OT      -0.834000       15.9994           0
     36052 TIP3     4557     TIP3     H1       HT       0.417000       1.00800           0
     36053 TIP3     4557     TIP3     H2       HT       0.417000       1.00800           0
     36054 TIP3     4558     TIP3     OH2      OT      -0.834000       15.9994           0
     36055 TIP3     4558     TIP3     H1       HT       0.417000       1.00800           0
     36056 TIP3     4558     TIP3     H2       HT       0.417000       1.00800           0
     36057 TIP3     4559     TIP3     OH2      OT      -0.834000       15.9994           0
     36058 TIP3     4559     TIP3     H1       HT       0.417000       1.00800           0
     36059 TIP3     4559     TIP3     H2       HT       0.417000       1.00800           0
     36060 TIP3     4560     TIP3     OH2      OT      -0.834000       15.9994           0
     36061 TIP3     4560     TIP3     H1       HT       0.417000       1.00800           0
     36062 TIP3     4560     TIP3     H2       HT       0.417000       1.00800           0
     36063 TIP3     4561     TIP3     OH2      OT      -0.834000       15.9994           0
     36064 TIP3     4561     TIP3     H1       HT       0.417000       1.00800           0
     36065 TIP3     4561     TIP3     H2       HT       0.417000       1.00800           0
     36066 TIP3     4562     TIP3     OH2      OT      -0.834000       15.9994           0
     36067 TIP3     4562     TIP3     H1       HT       0.417000       1.00800           0
     36068 TIP3     4562     TIP3     H2       HT       0.417000       1.00800           0
     36069 TIP3     4563     TIP3     OH2      OT      -0.834000       15.9994           0
     36070 TIP3     4563     TIP3     H1       HT       0.417000       1.00800           0
     36071 TIP3     4563     TIP3     H2       HT       0.417000       1.00800           0
     36072 TIP3     4564     TIP3     OH2      OT      -0.834000       15.9994           0
     36073 TIP3     4564     TIP3     H1       HT       0.417000       1.00800           0
     36074 TIP3     4564     TIP3     H2       HT       0.417000       1.00800           0
     36075 TIP3     4565     TIP3     OH2      OT      -0.834000       15.9994           0
     36076 TIP3     4565     TIP3     H1       HT       0.417000       1.00800           0
     36077 TIP3     4565     TIP3     H2       HT       0.417000       1.00800           0
     36078 TIP3     4566     TIP3     OH2      OT      -0.834000       15.9994           0
     36079 TIP3     4566     TIP3     H1       HT       0.417000       1.00800           0
     36080 TIP3     4566     TIP3     H2       HT       0.417000       1.00800           0
     36081 TIP3     4567     TIP3     OH2      OT      -0.834000       15.9994           0
     36082 TIP3     4567     TIP3     H1       HT       0.417000       1.00800           0
     36083 TIP3     4567     TIP3     H2       HT       0.417000       1.00800           0
     36084 TIP3     4568     TIP3     OH2      OT      -0.834000       15.9994           0
     36085 TIP3     4568     TIP3     H1       HT       0.417000       1.00800           0
     36086 TIP3     4568     TIP3     H2       HT       0.417000       1.00800           0
     36087 TIP3     4569     TIP3     OH2      OT      -0.834000       15.9994           0
     36088 TIP3     4569     TIP3     H1       HT       0.417000       1.00800           0
     36089 TIP3     4569     TIP3     H2       HT       0.417000       1.00800           0
     36090 TIP3     4570     TIP3     OH2      OT      -0.834000       15.9994           0
     36091 TIP3     4570     TIP3     H1       HT       0.417000       1.00800           0
     36092 TIP3     4570     TIP3     H2       HT       0.417000       1.00800           0
     36093 TIP3     4571     TIP3     OH2      OT      -0.834000       15.9994           0
     36094 TIP3     4571     TIP3     H1       HT       0.417000       1.00800           0
     36095 TIP3     4571     TIP3     H2       HT       0.417000       1.00800           0
     36096 TIP3     4572     TIP3     OH2      OT      -0.834000       15.9994           0
     36097 TIP3     4572     TIP3     H1       HT       0.417000       1.00800           0
     36098 TIP3     4572     TIP3     H2       HT       0.417000       1.00800           0
     36099 TIP3     4573     TIP3     OH2      OT      -0.834000       15.9994           0
     36100 TIP3     4573     TIP3     H1       HT       0.417000       1.00800           0
     36101 TIP3     4573     TIP3     H2       HT       0.417000       1.00800           0
     36102 TIP3     4574     TIP3     OH2      OT      -0.834000       15.9994           0
     36103 TIP3     4574     TIP3     H1       HT       0.417000       1.00800           0
     36104 TIP3     4574     TIP3     H2       HT       0.417000       1.00800           0
     36105 TIP3     4575     TIP3     OH2      OT      -0.834000       15.9994           0
     36106 TIP3     4575     TIP3     H1       HT       0.417000       1.00800           0
     36107 TIP3     4575     TIP3     H2       HT       0.417000       1.00800           0
     36108 TIP3     4576     TIP3     OH2      OT      -0.834000       15.9994           0
     36109 TIP3     4576     TIP3     H1       HT       0.417000       1.00800           0
     36110 TIP3     4576     TIP3     H2       HT       0.417000       1.00800           0
     36111 TIP3     4577     TIP3     OH2      OT      -0.834000       15.9994           0
     36112 TIP3     4577     TIP3     H1       HT       0.417000       1.00800           0
     36113 TIP3     4577     TIP3     H2       HT       0.417000       1.00800           0
     36114 TIP3     4578     TIP3     OH2      OT      -0.834000       15.9994           0
     36115 TIP3     4578     TIP3     H1       HT       0.417000       1.00800           0
     36116 TIP3     4578     TIP3     H2       HT       0.417000       1.00800           0
     36117 TIP3     4579     TIP3     OH2      OT      -0.834000       15.9994           0
     36118 TIP3     4579     TIP3     H1       HT       0.417000       1.00800           0
     36119 TIP3     4579     TIP3     H2       HT       0.417000       1.00800           0
     36120 TIP3     4580     TIP3     OH2      OT      -0.834000       15.9994           0
     36121 TIP3     4580     TIP3     H1       HT       0.417000       1.00800           0
     36122 TIP3     4580     TIP3     H2       HT       0.417000       1.00800           0
     36123 TIP3     4581     TIP3     OH2      OT      -0.834000       15.9994           0
     36124 TIP3     4581     TIP3     H1       HT       0.417000       1.00800           0
     36125 TIP3     4581     TIP3     H2       HT       0.417000       1.00800           0
     36126 TIP3     4582     TIP3     OH2      OT      -0.834000       15.9994           0
     36127 TIP3     4582     TIP3     H1       HT       0.417000       1.00800           0
     36128 TIP3     4582     TIP3     H2       HT       0.417000       1.00800           0
     36129 TIP3     4583     TIP3     OH2      OT      -0.834000       15.9994           0
     36130 TIP3     4583     TIP3     H1       HT       0.417000       1.00800           0
     36131 TIP3     4583     TIP3     H2       HT       0.417000       1.00800           0
     36132 TIP3     4584     TIP3     OH2      OT      -0.834000       15.9994           0
     36133 TIP3     4584     TIP3     H1       HT       0.417000       1.00800           0
     36134 TIP3     4584     TIP3     H2       HT       0.417000       1.00800           0
     36135 TIP3     4585     TIP3     OH2      OT      -0.834000       15.9994           0
     36136 TIP3     4585     TIP3     H1       HT       0.417000       1.00800           0
     36137 TIP3     4585     TIP3     H2       HT       0.417000       1.00800           0
     36138 TIP3     4586     TIP3     OH2      OT      -0.834000       15.9994           0
     36139 TIP3     4586     TIP3     H1       HT       0.417000       1.00800           0
     36140 TIP3     4586     TIP3     H2       HT       0.417000       1.00800           0
     36141 TIP3     4587     TIP3     OH2      OT      -0.834000       15.9994           0
     36142 TIP3     4587     TIP3     H1       HT       0.417000       1.00800           0
     36143 TIP3     4587     TIP3     H2       HT       0.417000       1.00800           0
     36144 TIP3     4588     TIP3     OH2      OT      -0.834000       15.9994           0
     36145 TIP3     4588     TIP3     H1       HT       0.417000       1.00800           0
     36146 TIP3     4588     TIP3     H2       HT       0.417000       1.00800           0
     36147 TIP3     4589     TIP3     OH2      OT      -0.834000       15.9994           0
     36148 TIP3     4589     TIP3     H1       HT       0.417000       1.00800           0
     36149 TIP3     4589     TIP3     H2       HT       0.417000       1.00800           0
     36150 TIP3     4590     TIP3     OH2      OT      -0.834000       15.9994           0
     36151 TIP3     4590     TIP3     H1       HT       0.417000       1.00800           0
     36152 TIP3     4590     TIP3     H2       HT       0.417000       1.00800           0
     36153 TIP3     4591     TIP3     OH2      OT      -0.834000       15.9994           0
     36154 TIP3     4591     TIP3     H1       HT       0.417000       1.00800           0
     36155 TIP3     4591     TIP3     H2       HT       0.417000       1.00800           0
     36156 TIP3     4592     TIP3     OH2      OT      -0.834000       15.9994           0
     36157 TIP3     4592     TIP3     H1       HT       0.417000       1.00800           0
     36158 TIP3     4592     TIP3     H2       HT       0.417000       1.00800           0
     36159 TIP3     4593     TIP3     OH2      OT      -0.834000       15.9994           0
     36160 TIP3     4593     TIP3     H1       HT       0.417000       1.00800           0
     36161 TIP3     4593     TIP3     H2       HT       0.417000       1.00800           0
     36162 TIP3     4594     TIP3     OH2      OT      -0.834000       15.9994           0
     36163 TIP3     4594     TIP3     H1       HT       0.417000       1.00800           0
     36164 TIP3     4594     TIP3     H2       HT       0.417000       1.00800           0
     36165 TIP3     4595     TIP3     OH2      OT      -0.834000       15.9994           0
     36166 TIP3     4595     TIP3     H1       HT       0.417000       1.00800           0
     36167 TIP3     4595     TIP3     H2       HT       0.417000       1.00800           0
     36168 TIP3     4596     TIP3     OH2      OT      -0.834000       15.9994           0
     36169 TIP3     4596     TIP3     H1       HT       0.417000       1.00800           0
     36170 TIP3     4596     TIP3     H2       HT       0.417000       1.00800           0
     36171 TIP3     4597     TIP3     OH2      OT      -0.834000       15.9994           0
     36172 TIP3     4597     TIP3     H1       HT       0.417000       1.00800           0
     36173 TIP3     4597     TIP3     H2       HT       0.417000       1.00800           0
     36174 TIP3     4598     TIP3     OH2      OT      -0.834000       15.9994           0
     36175 TIP3     4598     TIP3     H1       HT       0.417000       1.00800           0
     36176 TIP3     4598     TIP3     H2       HT       0.417000       1.00800           0
     36177 TIP3     4599     TIP3     OH2      OT      -0.834000       15.9994           0
     36178 TIP3     4599     TIP3     H1       HT       0.417000       1.00800           0
     36179 TIP3     4599     TIP3     H2       HT       0.417000       1.00800           0
     36180 TIP3     4600     TIP3     OH2      OT      -0.834000       15.9994           0
     36181 TIP3     4600     TIP3     H1       HT       0.417000       1.00800           0
     36182 TIP3     4600     TIP3     H2       HT       0.417000       1.00800           0
     36183 TIP3     4601     TIP3     OH2      OT      -0.834000       15.9994           0
     36184 TIP3     4601     TIP3     H1       HT       0.417000       1.00800           0
     36185 TIP3     4601     TIP3     H2       HT       0.417000       1.00800           0
     36186 TIP3     4602     TIP3     OH2      OT      -0.834000       15.9994           0
     36187 TIP3     4602     TIP3     H1       HT       0.417000       1.00800           0
     36188 TIP3     4602     TIP3     H2       HT       0.417000       1.00800           0
     36189 TIP3     4603     TIP3     OH2      OT      -0.834000       15.9994           0
     36190 TIP3     4603     TIP3     H1       HT       0.417000       1.00800           0
     36191 TIP3     4603     TIP3     H2       HT       0.417000       1.00800           0
     36192 TIP3     4604     TIP3     OH2      OT      -0.834000       15.9994           0
     36193 TIP3     4604     TIP3     H1       HT       0.417000       1.00800           0
     36194 TIP3     4604     TIP3     H2       HT       0.417000       1.00800           0
     36195 TIP3     4605     TIP3     OH2      OT      -0.834000       15.9994           0
     36196 TIP3     4605     TIP3     H1       HT       0.417000       1.00800           0
     36197 TIP3     4605     TIP3     H2       HT       0.417000       1.00800           0
     36198 TIP3     4606     TIP3     OH2      OT      -0.834000       15.9994           0
     36199 TIP3     4606     TIP3     H1       HT       0.417000       1.00800           0
     36200 TIP3     4606     TIP3     H2       HT       0.417000       1.00800           0
     36201 TIP3     4607     TIP3     OH2      OT      -0.834000       15.9994           0
     36202 TIP3     4607     TIP3     H1       HT       0.417000       1.00800           0
     36203 TIP3     4607     TIP3     H2       HT       0.417000       1.00800           0
     36204 TIP3     4608     TIP3     OH2      OT      -0.834000       15.9994           0
     36205 TIP3     4608     TIP3     H1       HT       0.417000       1.00800           0
     36206 TIP3     4608     TIP3     H2       HT       0.417000       1.00800           0
     36207 TIP3     4609     TIP3     OH2      OT      -0.834000       15.9994           0
     36208 TIP3     4609     TIP3     H1       HT       0.417000       1.00800           0
     36209 TIP3     4609     TIP3     H2       HT       0.417000       1.00800           0
     36210 TIP3     4610     TIP3     OH2      OT      -0.834000       15.9994           0
     36211 TIP3     4610     TIP3     H1       HT       0.417000       1.00800           0
     36212 TIP3     4610     TIP3     H2       HT       0.417000       1.00800           0
     36213 TIP3     4611     TIP3     OH2      OT      -0.834000       15.9994           0
     36214 TIP3     4611     TIP3     H1       HT       0.417000       1.00800           0
     36215 TIP3     4611     TIP3     H2       HT       0.417000       1.00800           0
     36216 TIP3     4612     TIP3     OH2      OT      -0.834000       15.9994           0
     36217 TIP3     4612     TIP3     H1       HT       0.417000       1.00800           0
     36218 TIP3     4612     TIP3     H2       HT       0.417000       1.00800           0
     36219 TIP3     4613     TIP3     OH2      OT      -0.834000       15.9994           0
     36220 TIP3     4613     TIP3     H1       HT       0.417000       1.00800           0
     36221 TIP3     4613     TIP3     H2       HT       0.417000       1.00800           0
     36222 TIP3     4614     TIP3     OH2      OT      -0.834000       15.9994           0
     36223 TIP3     4614     TIP3     H1       HT       0.417000       1.00800           0
     36224 TIP3     4614     TIP3     H2       HT       0.417000       1.00800           0
     36225 TIP3     4615     TIP3     OH2      OT      -0.834000       15.9994           0
     36226 TIP3     4615     TIP3     H1       HT       0.417000       1.00800           0
     36227 TIP3     4615     TIP3     H2       HT       0.417000       1.00800           0
     36228 TIP3     4616     TIP3     OH2      OT      -0.834000       15.9994           0
     36229 TIP3     4616     TIP3     H1       HT       0.417000       1.00800           0
     36230 TIP3     4616     TIP3     H2       HT       0.417000       1.00800           0
     36231 TIP3     4617     TIP3     OH2      OT      -0.834000       15.9994           0
     36232 TIP3     4617     TIP3     H1       HT       0.417000       1.00800           0
     36233 TIP3     4617     TIP3     H2       HT       0.417000       1.00800           0
     36234 TIP3     4618     TIP3     OH2      OT      -0.834000       15.9994           0
     36235 TIP3     4618     TIP3     H1       HT       0.417000       1.00800           0
     36236 TIP3     4618     TIP3     H2       HT       0.417000       1.00800           0
     36237 TIP3     4619     TIP3     OH2      OT      -0.834000       15.9994           0
     36238 TIP3     4619     TIP3     H1       HT       0.417000       1.00800           0
     36239 TIP3     4619     TIP3     H2       HT       0.417000       1.00800           0
     36240 TIP3     4620     TIP3     OH2      OT      -0.834000       15.9994           0
     36241 TIP3     4620     TIP3     H1       HT       0.417000       1.00800           0
     36242 TIP3     4620     TIP3     H2       HT       0.417000       1.00800           0
     36243 TIP3     4621     TIP3     OH2      OT      -0.834000       15.9994           0
     36244 TIP3     4621     TIP3     H1       HT       0.417000       1.00800           0
     36245 TIP3     4621     TIP3     H2       HT       0.417000       1.00800           0
     36246 TIP3     4622     TIP3     OH2      OT      -0.834000       15.9994           0
     36247 TIP3     4622     TIP3     H1       HT       0.417000       1.00800           0
     36248 TIP3     4622     TIP3     H2       HT       0.417000       1.00800           0
     36249 TIP3     4623     TIP3     OH2      OT      -0.834000       15.9994           0
     36250 TIP3     4623     TIP3     H1       HT       0.417000       1.00800           0
     36251 TIP3     4623     TIP3     H2       HT       0.417000       1.00800           0
     36252 TIP3     4624     TIP3     OH2      OT      -0.834000       15.9994           0
     36253 TIP3     4624     TIP3     H1       HT       0.417000       1.00800           0
     36254 TIP3     4624     TIP3     H2       HT       0.417000       1.00800           0
     36255 TIP3     4625     TIP3     OH2      OT      -0.834000       15.9994           0
     36256 TIP3     4625     TIP3     H1       HT       0.417000       1.00800           0
     36257 TIP3     4625     TIP3     H2       HT       0.417000       1.00800           0
     36258 TIP3     4626     TIP3     OH2      OT      -0.834000       15.9994           0
     36259 TIP3     4626     TIP3     H1       HT       0.417000       1.00800           0
     36260 TIP3     4626     TIP3     H2       HT       0.417000       1.00800           0
     36261 TIP3     4627     TIP3     OH2      OT      -0.834000       15.9994           0
     36262 TIP3     4627     TIP3     H1       HT       0.417000       1.00800           0
     36263 TIP3     4627     TIP3     H2       HT       0.417000       1.00800           0
     36264 TIP3     4628     TIP3     OH2      OT      -0.834000       15.9994           0
     36265 TIP3     4628     TIP3     H1       HT       0.417000       1.00800           0
     36266 TIP3     4628     TIP3     H2       HT       0.417000       1.00800           0
     36267 TIP3     4629     TIP3     OH2      OT      -0.834000       15.9994           0
     36268 TIP3     4629     TIP3     H1       HT       0.417000       1.00800           0
     36269 TIP3     4629     TIP3     H2       HT       0.417000       1.00800           0
     36270 TIP3     4630     TIP3     OH2      OT      -0.834000       15.9994           0
     36271 TIP3     4630     TIP3     H1       HT       0.417000       1.00800           0
     36272 TIP3     4630     TIP3     H2       HT       0.417000       1.00800           0
     36273 TIP3     4631     TIP3     OH2      OT      -0.834000       15.9994           0
     36274 TIP3     4631     TIP3     H1       HT       0.417000       1.00800           0
     36275 TIP3     4631     TIP3     H2       HT       0.417000       1.00800           0
     36276 TIP3     4632     TIP3     OH2      OT      -0.834000       15.9994           0
     36277 TIP3     4632     TIP3     H1       HT       0.417000       1.00800           0
     36278 TIP3     4632     TIP3     H2       HT       0.417000       1.00800           0
     36279 TIP3     4633     TIP3     OH2      OT      -0.834000       15.9994           0
     36280 TIP3     4633     TIP3     H1       HT       0.417000       1.00800           0
     36281 TIP3     4633     TIP3     H2       HT       0.417000       1.00800           0
     36282 TIP3     4634     TIP3     OH2      OT      -0.834000       15.9994           0
     36283 TIP3     4634     TIP3     H1       HT       0.417000       1.00800           0
     36284 TIP3     4634     TIP3     H2       HT       0.417000       1.00800           0
     36285 TIP3     4635     TIP3     OH2      OT      -0.834000       15.9994           0
     36286 TIP3     4635     TIP3     H1       HT       0.417000       1.00800           0
     36287 TIP3     4635     TIP3     H2       HT       0.417000       1.00800           0
     36288 TIP3     4636     TIP3     OH2      OT      -0.834000       15.9994           0
     36289 TIP3     4636     TIP3     H1       HT       0.417000       1.00800           0
     36290 TIP3     4636     TIP3     H2       HT       0.417000       1.00800           0
     36291 TIP3     4637     TIP3     OH2      OT      -0.834000       15.9994           0
     36292 TIP3     4637     TIP3     H1       HT       0.417000       1.00800           0
     36293 TIP3     4637     TIP3     H2       HT       0.417000       1.00800           0
     36294 TIP3     4638     TIP3     OH2      OT      -0.834000       15.9994           0
     36295 TIP3     4638     TIP3     H1       HT       0.417000       1.00800           0
     36296 TIP3     4638     TIP3     H2       HT       0.417000       1.00800           0
     36297 TIP3     4639     TIP3     OH2      OT      -0.834000       15.9994           0
     36298 TIP3     4639     TIP3     H1       HT       0.417000       1.00800           0
     36299 TIP3     4639     TIP3     H2       HT       0.417000       1.00800           0
     36300 TIP3     4640     TIP3     OH2      OT      -0.834000       15.9994           0
     36301 TIP3     4640     TIP3     H1       HT       0.417000       1.00800           0
     36302 TIP3     4640     TIP3     H2       HT       0.417000       1.00800           0
     36303 TIP3     4641     TIP3     OH2      OT      -0.834000       15.9994           0
     36304 TIP3     4641     TIP3     H1       HT       0.417000       1.00800           0
     36305 TIP3     4641     TIP3     H2       HT       0.417000       1.00800           0
     36306 TIP3     4642     TIP3     OH2      OT      -0.834000       15.9994           0
     36307 TIP3     4642     TIP3     H1       HT       0.417000       1.00800           0
     36308 TIP3     4642     TIP3     H2       HT       0.417000       1.00800           0
     36309 TIP3     4643     TIP3     OH2      OT      -0.834000       15.9994           0
     36310 TIP3     4643     TIP3     H1       HT       0.417000       1.00800           0
     36311 TIP3     4643     TIP3     H2       HT       0.417000       1.00800           0
     36312 TIP3     4644     TIP3     OH2      OT      -0.834000       15.9994           0
     36313 TIP3     4644     TIP3     H1       HT       0.417000       1.00800           0
     36314 TIP3     4644     TIP3     H2       HT       0.417000       1.00800           0
     36315 TIP3     4645     TIP3     OH2      OT      -0.834000       15.9994           0
     36316 TIP3     4645     TIP3     H1       HT       0.417000       1.00800           0
     36317 TIP3     4645     TIP3     H2       HT       0.417000       1.00800           0
     36318 TIP3     4646     TIP3     OH2      OT      -0.834000       15.9994           0
     36319 TIP3     4646     TIP3     H1       HT       0.417000       1.00800           0
     36320 TIP3     4646     TIP3     H2       HT       0.417000       1.00800           0
     36321 TIP3     4647     TIP3     OH2      OT      -0.834000       15.9994           0
     36322 TIP3     4647     TIP3     H1       HT       0.417000       1.00800           0
     36323 TIP3     4647     TIP3     H2       HT       0.417000       1.00800           0
     36324 TIP3     4648     TIP3     OH2      OT      -0.834000       15.9994           0
     36325 TIP3     4648     TIP3     H1       HT       0.417000       1.00800           0
     36326 TIP3     4648     TIP3     H2       HT       0.417000       1.00800           0
     36327 TIP3     4649     TIP3     OH2      OT      -0.834000       15.9994           0
     36328 TIP3     4649     TIP3     H1       HT       0.417000       1.00800           0
     36329 TIP3     4649     TIP3     H2       HT       0.417000       1.00800           0
     36330 TIP3     4650     TIP3     OH2      OT      -0.834000       15.9994           0
     36331 TIP3     4650     TIP3     H1       HT       0.417000       1.00800           0
     36332 TIP3     4650     TIP3     H2       HT       0.417000       1.00800           0
     36333 TIP3     4651     TIP3     OH2      OT      -0.834000       15.9994           0
     36334 TIP3     4651     TIP3     H1       HT       0.417000       1.00800           0
     36335 TIP3     4651     TIP3     H2       HT       0.417000       1.00800           0
     36336 TIP3     4652     TIP3     OH2      OT      -0.834000       15.9994           0
     36337 TIP3     4652     TIP3     H1       HT       0.417000       1.00800           0
     36338 TIP3     4652     TIP3     H2       HT       0.417000       1.00800           0
     36339 TIP3     4653     TIP3     OH2      OT      -0.834000       15.9994           0
     36340 TIP3     4653     TIP3     H1       HT       0.417000       1.00800           0
     36341 TIP3     4653     TIP3     H2       HT       0.417000       1.00800           0
     36342 TIP3     4654     TIP3     OH2      OT      -0.834000       15.9994           0
     36343 TIP3     4654     TIP3     H1       HT       0.417000       1.00800           0
     36344 TIP3     4654     TIP3     H2       HT       0.417000       1.00800           0
     36345 TIP3     4655     TIP3     OH2      OT      -0.834000       15.9994           0
     36346 TIP3     4655     TIP3     H1       HT       0.417000       1.00800           0
     36347 TIP3     4655     TIP3     H2       HT       0.417000       1.00800           0
     36348 TIP3     4656     TIP3     OH2      OT      -0.834000       15.9994           0
     36349 TIP3     4656     TIP3     H1       HT       0.417000       1.00800           0
     36350 TIP3     4656     TIP3     H2       HT       0.417000       1.00800           0
     36351 TIP3     4657     TIP3     OH2      OT      -0.834000       15.9994           0
     36352 TIP3     4657     TIP3     H1       HT       0.417000       1.00800           0
     36353 TIP3     4657     TIP3     H2       HT       0.417000       1.00800           0
     36354 TIP3     4658     TIP3     OH2      OT      -0.834000       15.9994           0
     36355 TIP3     4658     TIP3     H1       HT       0.417000       1.00800           0
     36356 TIP3     4658     TIP3     H2       HT       0.417000       1.00800           0
     36357 TIP3     4659     TIP3     OH2      OT      -0.834000       15.9994           0
     36358 TIP3     4659     TIP3     H1       HT       0.417000       1.00800           0
     36359 TIP3     4659     TIP3     H2       HT       0.417000       1.00800           0
     36360 TIP3     4660     TIP3     OH2      OT      -0.834000       15.9994           0
     36361 TIP3     4660     TIP3     H1       HT       0.417000       1.00800           0
     36362 TIP3     4660     TIP3     H2       HT       0.417000       1.00800           0
     36363 TIP3     4661     TIP3     OH2      OT      -0.834000       15.9994           0
     36364 TIP3     4661     TIP3     H1       HT       0.417000       1.00800           0
     36365 TIP3     4661     TIP3     H2       HT       0.417000       1.00800           0
     36366 TIP3     4662     TIP3     OH2      OT      -0.834000       15.9994           0
     36367 TIP3     4662     TIP3     H1       HT       0.417000       1.00800           0
     36368 TIP3     4662     TIP3     H2       HT       0.417000       1.00800           0
     36369 TIP3     4663     TIP3     OH2      OT      -0.834000       15.9994           0
     36370 TIP3     4663     TIP3     H1       HT       0.417000       1.00800           0
     36371 TIP3     4663     TIP3     H2       HT       0.417000       1.00800           0
     36372 TIP3     4664     TIP3     OH2      OT      -0.834000       15.9994           0
     36373 TIP3     4664     TIP3     H1       HT       0.417000       1.00800           0
     36374 TIP3     4664     TIP3     H2       HT       0.417000       1.00800           0
     36375 TIP3     4665     TIP3     OH2      OT      -0.834000       15.9994           0
     36376 TIP3     4665     TIP3     H1       HT       0.417000       1.00800           0
     36377 TIP3     4665     TIP3     H2       HT       0.417000       1.00800           0
     36378 TIP3     4666     TIP3     OH2      OT      -0.834000       15.9994           0
     36379 TIP3     4666     TIP3     H1       HT       0.417000       1.00800           0
     36380 TIP3     4666     TIP3     H2       HT       0.417000       1.00800           0
     36381 TIP3     4667     TIP3     OH2      OT      -0.834000       15.9994           0
     36382 TIP3     4667     TIP3     H1       HT       0.417000       1.00800           0
     36383 TIP3     4667     TIP3     H2       HT       0.417000       1.00800           0
     36384 TIP3     4668     TIP3     OH2      OT      -0.834000       15.9994           0
     36385 TIP3     4668     TIP3     H1       HT       0.417000       1.00800           0
     36386 TIP3     4668     TIP3     H2       HT       0.417000       1.00800           0
     36387 TIP3     4669     TIP3     OH2      OT      -0.834000       15.9994           0
     36388 TIP3     4669     TIP3     H1       HT       0.417000       1.00800           0
     36389 TIP3     4669     TIP3     H2       HT       0.417000       1.00800           0
     36390 TIP3     4670     TIP3     OH2      OT      -0.834000       15.9994           0
     36391 TIP3     4670     TIP3     H1       HT       0.417000       1.00800           0
     36392 TIP3     4670     TIP3     H2       HT       0.417000       1.00800           0
     36393 TIP3     4671     TIP3     OH2      OT      -0.834000       15.9994           0
     36394 TIP3     4671     TIP3     H1       HT       0.417000       1.00800           0
     36395 TIP3     4671     TIP3     H2       HT       0.417000       1.00800           0
     36396 TIP3     4672     TIP3     OH2      OT      -0.834000       15.9994           0
     36397 TIP3     4672     TIP3     H1       HT       0.417000       1.00800           0
     36398 TIP3     4672     TIP3     H2       HT       0.417000       1.00800           0
     36399 TIP3     4673     TIP3     OH2      OT      -0.834000       15.9994           0
     36400 TIP3     4673     TIP3     H1       HT       0.417000       1.00800           0
     36401 TIP3     4673     TIP3     H2       HT       0.417000       1.00800           0
     36402 TIP3     4674     TIP3     OH2      OT      -0.834000       15.9994           0
     36403 TIP3     4674     TIP3     H1       HT       0.417000       1.00800           0
     36404 TIP3     4674     TIP3     H2       HT       0.417000       1.00800           0
     36405 TIP3     4675     TIP3     OH2      OT      -0.834000       15.9994           0
     36406 TIP3     4675     TIP3     H1       HT       0.417000       1.00800           0
     36407 TIP3     4675     TIP3     H2       HT       0.417000       1.00800           0
     36408 TIP3     4676     TIP3     OH2      OT      -0.834000       15.9994           0
     36409 TIP3     4676     TIP3     H1       HT       0.417000       1.00800           0
     36410 TIP3     4676     TIP3     H2       HT       0.417000       1.00800           0
     36411 TIP3     4677     TIP3     OH2      OT      -0.834000       15.9994           0
     36412 TIP3     4677     TIP3     H1       HT       0.417000       1.00800           0
     36413 TIP3     4677     TIP3     H2       HT       0.417000       1.00800           0
     36414 TIP3     4678     TIP3     OH2      OT      -0.834000       15.9994           0
     36415 TIP3     4678     TIP3     H1       HT       0.417000       1.00800           0
     36416 TIP3     4678     TIP3     H2       HT       0.417000       1.00800           0
     36417 TIP3     4679     TIP3     OH2      OT      -0.834000       15.9994           0
     36418 TIP3     4679     TIP3     H1       HT       0.417000       1.00800           0
     36419 TIP3     4679     TIP3     H2       HT       0.417000       1.00800           0
     36420 TIP3     4680     TIP3     OH2      OT      -0.834000       15.9994           0
     36421 TIP3     4680     TIP3     H1       HT       0.417000       1.00800           0
     36422 TIP3     4680     TIP3     H2       HT       0.417000       1.00800           0
     36423 TIP3     4681     TIP3     OH2      OT      -0.834000       15.9994           0
     36424 TIP3     4681     TIP3     H1       HT       0.417000       1.00800           0
     36425 TIP3     4681     TIP3     H2       HT       0.417000       1.00800           0
     36426 TIP3     4682     TIP3     OH2      OT      -0.834000       15.9994           0
     36427 TIP3     4682     TIP3     H1       HT       0.417000       1.00800           0
     36428 TIP3     4682     TIP3     H2       HT       0.417000       1.00800           0
     36429 TIP3     4683     TIP3     OH2      OT      -0.834000       15.9994           0
     36430 TIP3     4683     TIP3     H1       HT       0.417000       1.00800           0
     36431 TIP3     4683     TIP3     H2       HT       0.417000       1.00800           0
     36432 TIP3     4684     TIP3     OH2      OT      -0.834000       15.9994           0
     36433 TIP3     4684     TIP3     H1       HT       0.417000       1.00800           0
     36434 TIP3     4684     TIP3     H2       HT       0.417000       1.00800           0
     36435 TIP3     4685     TIP3     OH2      OT      -0.834000       15.9994           0
     36436 TIP3     4685     TIP3     H1       HT       0.417000       1.00800           0
     36437 TIP3     4685     TIP3     H2       HT       0.417000       1.00800           0
     36438 TIP3     4686     TIP3     OH2      OT      -0.834000       15.9994           0
     36439 TIP3     4686     TIP3     H1       HT       0.417000       1.00800           0
     36440 TIP3     4686     TIP3     H2       HT       0.417000       1.00800           0
     36441 TIP3     4687     TIP3     OH2      OT      -0.834000       15.9994           0
     36442 TIP3     4687     TIP3     H1       HT       0.417000       1.00800           0
     36443 TIP3     4687     TIP3     H2       HT       0.417000       1.00800           0
     36444 TIP3     4688     TIP3     OH2      OT      -0.834000       15.9994           0
     36445 TIP3     4688     TIP3     H1       HT       0.417000       1.00800           0
     36446 TIP3     4688     TIP3     H2       HT       0.417000       1.00800           0
     36447 TIP3     4689     TIP3     OH2      OT      -0.834000       15.9994           0
     36448 TIP3     4689     TIP3     H1       HT       0.417000       1.00800           0
     36449 TIP3     4689     TIP3     H2       HT       0.417000       1.00800           0
     36450 TIP3     4690     TIP3     OH2      OT      -0.834000       15.9994           0
     36451 TIP3     4690     TIP3     H1       HT       0.417000       1.00800           0
     36452 TIP3     4690     TIP3     H2       HT       0.417000       1.00800           0
     36453 TIP3     4691     TIP3     OH2      OT      -0.834000       15.9994           0
     36454 TIP3     4691     TIP3     H1       HT       0.417000       1.00800           0
     36455 TIP3     4691     TIP3     H2       HT       0.417000       1.00800           0
     36456 TIP3     4692     TIP3     OH2      OT      -0.834000       15.9994           0
     36457 TIP3     4692     TIP3     H1       HT       0.417000       1.00800           0
     36458 TIP3     4692     TIP3     H2       HT       0.417000       1.00800           0
     36459 TIP3     4693     TIP3     OH2      OT      -0.834000       15.9994           0
     36460 TIP3     4693     TIP3     H1       HT       0.417000       1.00800           0
     36461 TIP3     4693     TIP3     H2       HT       0.417000       1.00800           0
     36462 TIP3     4694     TIP3     OH2      OT      -0.834000       15.9994           0
     36463 TIP3     4694     TIP3     H1       HT       0.417000       1.00800           0
     36464 TIP3     4694     TIP3     H2       HT       0.417000       1.00800           0
     36465 TIP3     4695     TIP3     OH2      OT      -0.834000       15.9994           0
     36466 TIP3     4695     TIP3     H1       HT       0.417000       1.00800           0
     36467 TIP3     4695     TIP3     H2       HT       0.417000       1.00800           0
     36468 TIP3     4696     TIP3     OH2      OT      -0.834000       15.9994           0
     36469 TIP3     4696     TIP3     H1       HT       0.417000       1.00800           0
     36470 TIP3     4696     TIP3     H2       HT       0.417000       1.00800           0
     36471 TIP3     4697     TIP3     OH2      OT      -0.834000       15.9994           0
     36472 TIP3     4697     TIP3     H1       HT       0.417000       1.00800           0
     36473 TIP3     4697     TIP3     H2       HT       0.417000       1.00800           0
     36474 TIP3     4698     TIP3     OH2      OT      -0.834000       15.9994           0
     36475 TIP3     4698     TIP3     H1       HT       0.417000       1.00800           0
     36476 TIP3     4698     TIP3     H2       HT       0.417000       1.00800           0
     36477 TIP3     4699     TIP3     OH2      OT      -0.834000       15.9994           0
     36478 TIP3     4699     TIP3     H1       HT       0.417000       1.00800           0
     36479 TIP3     4699     TIP3     H2       HT       0.417000       1.00800           0
     36480 TIP3     4700     TIP3     OH2      OT      -0.834000       15.9994           0
     36481 TIP3     4700     TIP3     H1       HT       0.417000       1.00800           0
     36482 TIP3     4700     TIP3     H2       HT       0.417000       1.00800           0
     36483 TIP3     4701     TIP3     OH2      OT      -0.834000       15.9994           0
     36484 TIP3     4701     TIP3     H1       HT       0.417000       1.00800           0
     36485 TIP3     4701     TIP3     H2       HT       0.417000       1.00800           0
     36486 TIP3     4702     TIP3     OH2      OT      -0.834000       15.9994           0
     36487 TIP3     4702     TIP3     H1       HT       0.417000       1.00800           0
     36488 TIP3     4702     TIP3     H2       HT       0.417000       1.00800           0
     36489 TIP3     4703     TIP3     OH2      OT      -0.834000       15.9994           0
     36490 TIP3     4703     TIP3     H1       HT       0.417000       1.00800           0
     36491 TIP3     4703     TIP3     H2       HT       0.417000       1.00800           0
     36492 TIP3     4704     TIP3     OH2      OT      -0.834000       15.9994           0
     36493 TIP3     4704     TIP3     H1       HT       0.417000       1.00800           0
     36494 TIP3     4704     TIP3     H2       HT       0.417000       1.00800           0
     36495 TIP3     4705     TIP3     OH2      OT      -0.834000       15.9994           0
     36496 TIP3     4705     TIP3     H1       HT       0.417000       1.00800           0
     36497 TIP3     4705     TIP3     H2       HT       0.417000       1.00800           0
     36498 TIP3     4706     TIP3     OH2      OT      -0.834000       15.9994           0
     36499 TIP3     4706     TIP3     H1       HT       0.417000       1.00800           0
     36500 TIP3     4706     TIP3     H2       HT       0.417000       1.00800           0
     36501 TIP3     4707     TIP3     OH2      OT      -0.834000       15.9994           0
     36502 TIP3     4707     TIP3     H1       HT       0.417000       1.00800           0
     36503 TIP3     4707     TIP3     H2       HT       0.417000       1.00800           0
     36504 TIP3     4708     TIP3     OH2      OT      -0.834000       15.9994           0
     36505 TIP3     4708     TIP3     H1       HT       0.417000       1.00800           0
     36506 TIP3     4708     TIP3     H2       HT       0.417000       1.00800           0
     36507 TIP3     4709     TIP3     OH2      OT      -0.834000       15.9994           0
     36508 TIP3     4709     TIP3     H1       HT       0.417000       1.00800           0
     36509 TIP3     4709     TIP3     H2       HT       0.417000       1.00800           0
     36510 TIP3     4710     TIP3     OH2      OT      -0.834000       15.9994           0
     36511 TIP3     4710     TIP3     H1       HT       0.417000       1.00800           0
     36512 TIP3     4710     TIP3     H2       HT       0.417000       1.00800           0
     36513 TIP3     4711     TIP3     OH2      OT      -0.834000       15.9994           0
     36514 TIP3     4711     TIP3     H1       HT       0.417000       1.00800           0
     36515 TIP3     4711     TIP3     H2       HT       0.417000       1.00800           0
     36516 TIP3     4712     TIP3     OH2      OT      -0.834000       15.9994           0
     36517 TIP3     4712     TIP3     H1       HT       0.417000       1.00800           0
     36518 TIP3     4712     TIP3     H2       HT       0.417000       1.00800           0
     36519 TIP3     4713     TIP3     OH2      OT      -0.834000       15.9994           0
     36520 TIP3     4713     TIP3     H1       HT       0.417000       1.00800           0
     36521 TIP3     4713     TIP3     H2       HT       0.417000       1.00800           0
     36522 TIP3     4714     TIP3     OH2      OT      -0.834000       15.9994           0
     36523 TIP3     4714     TIP3     H1       HT       0.417000       1.00800           0
     36524 TIP3     4714     TIP3     H2       HT       0.417000       1.00800           0
     36525 TIP3     4715     TIP3     OH2      OT      -0.834000       15.9994           0
     36526 TIP3     4715     TIP3     H1       HT       0.417000       1.00800           0
     36527 TIP3     4715     TIP3     H2       HT       0.417000       1.00800           0
     36528 TIP3     4716     TIP3     OH2      OT      -0.834000       15.9994           0
     36529 TIP3     4716     TIP3     H1       HT       0.417000       1.00800           0
     36530 TIP3     4716     TIP3     H2       HT       0.417000       1.00800           0
     36531 TIP3     4717     TIP3     OH2      OT      -0.834000       15.9994           0
     36532 TIP3     4717     TIP3     H1       HT       0.417000       1.00800           0
     36533 TIP3     4717     TIP3     H2       HT       0.417000       1.00800           0
     36534 TIP3     4718     TIP3     OH2      OT      -0.834000       15.9994           0
     36535 TIP3     4718     TIP3     H1       HT       0.417000       1.00800           0
     36536 TIP3     4718     TIP3     H2       HT       0.417000       1.00800           0
     36537 TIP3     4719     TIP3     OH2      OT      -0.834000       15.9994           0
     36538 TIP3     4719     TIP3     H1       HT       0.417000       1.00800           0
     36539 TIP3     4719     TIP3     H2       HT       0.417000       1.00800           0
     36540 TIP3     4720     TIP3     OH2      OT      -0.834000       15.9994           0
     36541 TIP3     4720     TIP3     H1       HT       0.417000       1.00800           0
     36542 TIP3     4720     TIP3     H2       HT       0.417000       1.00800           0
     36543 TIP3     4721     TIP3     OH2      OT      -0.834000       15.9994           0
     36544 TIP3     4721     TIP3     H1       HT       0.417000       1.00800           0
     36545 TIP3     4721     TIP3     H2       HT       0.417000       1.00800           0
     36546 TIP3     4722     TIP3     OH2      OT      -0.834000       15.9994           0
     36547 TIP3     4722     TIP3     H1       HT       0.417000       1.00800           0
     36548 TIP3     4722     TIP3     H2       HT       0.417000       1.00800           0
     36549 TIP3     4723     TIP3     OH2      OT      -0.834000       15.9994           0
     36550 TIP3     4723     TIP3     H1       HT       0.417000       1.00800           0
     36551 TIP3     4723     TIP3     H2       HT       0.417000       1.00800           0
     36552 TIP3     4724     TIP3     OH2      OT      -0.834000       15.9994           0
     36553 TIP3     4724     TIP3     H1       HT       0.417000       1.00800           0
     36554 TIP3     4724     TIP3     H2       HT       0.417000       1.00800           0
     36555 TIP3     4725     TIP3     OH2      OT      -0.834000       15.9994           0
     36556 TIP3     4725     TIP3     H1       HT       0.417000       1.00800           0
     36557 TIP3     4725     TIP3     H2       HT       0.417000       1.00800           0
     36558 TIP3     4726     TIP3     OH2      OT      -0.834000       15.9994           0
     36559 TIP3     4726     TIP3     H1       HT       0.417000       1.00800           0
     36560 TIP3     4726     TIP3     H2       HT       0.417000       1.00800           0
     36561 TIP3     4727     TIP3     OH2      OT      -0.834000       15.9994           0
     36562 TIP3     4727     TIP3     H1       HT       0.417000       1.00800           0
     36563 TIP3     4727     TIP3     H2       HT       0.417000       1.00800           0
     36564 TIP3     4728     TIP3     OH2      OT      -0.834000       15.9994           0
     36565 TIP3     4728     TIP3     H1       HT       0.417000       1.00800           0
     36566 TIP3     4728     TIP3     H2       HT       0.417000       1.00800           0
     36567 TIP3     4729     TIP3     OH2      OT      -0.834000       15.9994           0
     36568 TIP3     4729     TIP3     H1       HT       0.417000       1.00800           0
     36569 TIP3     4729     TIP3     H2       HT       0.417000       1.00800           0
     36570 TIP3     4730     TIP3     OH2      OT      -0.834000       15.9994           0
     36571 TIP3     4730     TIP3     H1       HT       0.417000       1.00800           0
     36572 TIP3     4730     TIP3     H2       HT       0.417000       1.00800           0
     36573 TIP3     4731     TIP3     OH2      OT      -0.834000       15.9994           0
     36574 TIP3     4731     TIP3     H1       HT       0.417000       1.00800           0
     36575 TIP3     4731     TIP3     H2       HT       0.417000       1.00800           0
     36576 TIP3     4732     TIP3     OH2      OT      -0.834000       15.9994           0
     36577 TIP3     4732     TIP3     H1       HT       0.417000       1.00800           0
     36578 TIP3     4732     TIP3     H2       HT       0.417000       1.00800           0
     36579 TIP3     4733     TIP3     OH2      OT      -0.834000       15.9994           0
     36580 TIP3     4733     TIP3     H1       HT       0.417000       1.00800           0
     36581 TIP3     4733     TIP3     H2       HT       0.417000       1.00800           0
     36582 TIP3     4734     TIP3     OH2      OT      -0.834000       15.9994           0
     36583 TIP3     4734     TIP3     H1       HT       0.417000       1.00800           0
     36584 TIP3     4734     TIP3     H2       HT       0.417000       1.00800           0
     36585 TIP3     4735     TIP3     OH2      OT      -0.834000       15.9994           0
     36586 TIP3     4735     TIP3     H1       HT       0.417000       1.00800           0
     36587 TIP3     4735     TIP3     H2       HT       0.417000       1.00800           0
     36588 TIP3     4736     TIP3     OH2      OT      -0.834000       15.9994           0
     36589 TIP3     4736     TIP3     H1       HT       0.417000       1.00800           0
     36590 TIP3     4736     TIP3     H2       HT       0.417000       1.00800           0
     36591 TIP3     4737     TIP3     OH2      OT      -0.834000       15.9994           0
     36592 TIP3     4737     TIP3     H1       HT       0.417000       1.00800           0
     36593 TIP3     4737     TIP3     H2       HT       0.417000       1.00800           0
     36594 TIP3     4738     TIP3     OH2      OT      -0.834000       15.9994           0
     36595 TIP3     4738     TIP3     H1       HT       0.417000       1.00800           0
     36596 TIP3     4738     TIP3     H2       HT       0.417000       1.00800           0
     36597 TIP3     4739     TIP3     OH2      OT      -0.834000       15.9994           0
     36598 TIP3     4739     TIP3     H1       HT       0.417000       1.00800           0
     36599 TIP3     4739     TIP3     H2       HT       0.417000       1.00800           0
     36600 TIP3     4740     TIP3     OH2      OT      -0.834000       15.9994           0
     36601 TIP3     4740     TIP3     H1       HT       0.417000       1.00800           0
     36602 TIP3     4740     TIP3     H2       HT       0.417000       1.00800           0
     36603 TIP3     4741     TIP3     OH2      OT      -0.834000       15.9994           0
     36604 TIP3     4741     TIP3     H1       HT       0.417000       1.00800           0
     36605 TIP3     4741     TIP3     H2       HT       0.417000       1.00800           0
     36606 TIP3     4742     TIP3     OH2      OT      -0.834000       15.9994           0
     36607 TIP3     4742     TIP3     H1       HT       0.417000       1.00800           0
     36608 TIP3     4742     TIP3     H2       HT       0.417000       1.00800           0
     36609 TIP3     4743     TIP3     OH2      OT      -0.834000       15.9994           0
     36610 TIP3     4743     TIP3     H1       HT       0.417000       1.00800           0
     36611 TIP3     4743     TIP3     H2       HT       0.417000       1.00800           0
     36612 TIP3     4744     TIP3     OH2      OT      -0.834000       15.9994           0
     36613 TIP3     4744     TIP3     H1       HT       0.417000       1.00800           0
     36614 TIP3     4744     TIP3     H2       HT       0.417000       1.00800           0
     36615 TIP3     4745     TIP3     OH2      OT      -0.834000       15.9994           0
     36616 TIP3     4745     TIP3     H1       HT       0.417000       1.00800           0
     36617 TIP3     4745     TIP3     H2       HT       0.417000       1.00800           0
     36618 TIP3     4746     TIP3     OH2      OT      -0.834000       15.9994           0
     36619 TIP3     4746     TIP3     H1       HT       0.417000       1.00800           0
     36620 TIP3     4746     TIP3     H2       HT       0.417000       1.00800           0
     36621 TIP3     4747     TIP3     OH2      OT      -0.834000       15.9994           0
     36622 TIP3     4747     TIP3     H1       HT       0.417000       1.00800           0
     36623 TIP3     4747     TIP3     H2       HT       0.417000       1.00800           0
     36624 TIP3     4748     TIP3     OH2      OT      -0.834000       15.9994           0
     36625 TIP3     4748     TIP3     H1       HT       0.417000       1.00800           0
     36626 TIP3     4748     TIP3     H2       HT       0.417000       1.00800           0
     36627 TIP3     4749     TIP3     OH2      OT      -0.834000       15.9994           0
     36628 TIP3     4749     TIP3     H1       HT       0.417000       1.00800           0
     36629 TIP3     4749     TIP3     H2       HT       0.417000       1.00800           0
     36630 TIP3     4750     TIP3     OH2      OT      -0.834000       15.9994           0
     36631 TIP3     4750     TIP3     H1       HT       0.417000       1.00800           0
     36632 TIP3     4750     TIP3     H2       HT       0.417000       1.00800           0
     36633 TIP3     4751     TIP3     OH2      OT      -0.834000       15.9994           0
     36634 TIP3     4751     TIP3     H1       HT       0.417000       1.00800           0
     36635 TIP3     4751     TIP3     H2       HT       0.417000       1.00800           0
     36636 TIP3     4752     TIP3     OH2      OT      -0.834000       15.9994           0
     36637 TIP3     4752     TIP3     H1       HT       0.417000       1.00800           0
     36638 TIP3     4752     TIP3     H2       HT       0.417000       1.00800           0
     36639 TIP3     4753     TIP3     OH2      OT      -0.834000       15.9994           0
     36640 TIP3     4753     TIP3     H1       HT       0.417000       1.00800           0
     36641 TIP3     4753     TIP3     H2       HT       0.417000       1.00800           0
     36642 TIP3     4754     TIP3     OH2      OT      -0.834000       15.9994           0
     36643 TIP3     4754     TIP3     H1       HT       0.417000       1.00800           0
     36644 TIP3     4754     TIP3     H2       HT       0.417000       1.00800           0
     36645 TIP3     4755     TIP3     OH2      OT      -0.834000       15.9994           0
     36646 TIP3     4755     TIP3     H1       HT       0.417000       1.00800           0
     36647 TIP3     4755     TIP3     H2       HT       0.417000       1.00800           0
     36648 TIP3     4756     TIP3     OH2      OT      -0.834000       15.9994           0
     36649 TIP3     4756     TIP3     H1       HT       0.417000       1.00800           0
     36650 TIP3     4756     TIP3     H2       HT       0.417000       1.00800           0
     36651 TIP3     4757     TIP3     OH2      OT      -0.834000       15.9994           0
     36652 TIP3     4757     TIP3     H1       HT       0.417000       1.00800           0
     36653 TIP3     4757     TIP3     H2       HT       0.417000       1.00800           0
     36654 TIP3     4758     TIP3     OH2      OT      -0.834000       15.9994           0
     36655 TIP3     4758     TIP3     H1       HT       0.417000       1.00800           0
     36656 TIP3     4758     TIP3     H2       HT       0.417000       1.00800           0
     36657 TIP3     4759     TIP3     OH2      OT      -0.834000       15.9994           0
     36658 TIP3     4759     TIP3     H1       HT       0.417000       1.00800           0
     36659 TIP3     4759     TIP3     H2       HT       0.417000       1.00800           0
     36660 TIP3     4760     TIP3     OH2      OT      -0.834000       15.9994           0
     36661 TIP3     4760     TIP3     H1       HT       0.417000       1.00800           0
     36662 TIP3     4760     TIP3     H2       HT       0.417000       1.00800           0
     36663 TIP3     4761     TIP3     OH2      OT      -0.834000       15.9994           0
     36664 TIP3     4761     TIP3     H1       HT       0.417000       1.00800           0
     36665 TIP3     4761     TIP3     H2       HT       0.417000       1.00800           0
     36666 TIP3     4762     TIP3     OH2      OT      -0.834000       15.9994           0
     36667 TIP3     4762     TIP3     H1       HT       0.417000       1.00800           0
     36668 TIP3     4762     TIP3     H2       HT       0.417000       1.00800           0
     36669 TIP3     4763     TIP3     OH2      OT      -0.834000       15.9994           0
     36670 TIP3     4763     TIP3     H1       HT       0.417000       1.00800           0
     36671 TIP3     4763     TIP3     H2       HT       0.417000       1.00800           0
     36672 TIP3     4764     TIP3     OH2      OT      -0.834000       15.9994           0
     36673 TIP3     4764     TIP3     H1       HT       0.417000       1.00800           0
     36674 TIP3     4764     TIP3     H2       HT       0.417000       1.00800           0
     36675 TIP3     4765     TIP3     OH2      OT      -0.834000       15.9994           0
     36676 TIP3     4765     TIP3     H1       HT       0.417000       1.00800           0
     36677 TIP3     4765     TIP3     H2       HT       0.417000       1.00800           0
     36678 TIP3     4766     TIP3     OH2      OT      -0.834000       15.9994           0
     36679 TIP3     4766     TIP3     H1       HT       0.417000       1.00800           0
     36680 TIP3     4766     TIP3     H2       HT       0.417000       1.00800           0
     36681 TIP3     4767     TIP3     OH2      OT      -0.834000       15.9994           0
     36682 TIP3     4767     TIP3     H1       HT       0.417000       1.00800           0
     36683 TIP3     4767     TIP3     H2       HT       0.417000       1.00800           0
     36684 TIP3     4768     TIP3     OH2      OT      -0.834000       15.9994           0
     36685 TIP3     4768     TIP3     H1       HT       0.417000       1.00800           0
     36686 TIP3     4768     TIP3     H2       HT       0.417000       1.00800           0
     36687 TIP3     4769     TIP3     OH2      OT      -0.834000       15.9994           0
     36688 TIP3     4769     TIP3     H1       HT       0.417000       1.00800           0
     36689 TIP3     4769     TIP3     H2       HT       0.417000       1.00800           0
     36690 TIP3     4770     TIP3     OH2      OT      -0.834000       15.9994           0
     36691 TIP3     4770     TIP3     H1       HT       0.417000       1.00800           0
     36692 TIP3     4770     TIP3     H2       HT       0.417000       1.00800           0
     36693 TIP3     4771     TIP3     OH2      OT      -0.834000       15.9994           0
     36694 TIP3     4771     TIP3     H1       HT       0.417000       1.00800           0
     36695 TIP3     4771     TIP3     H2       HT       0.417000       1.00800           0
     36696 TIP3     4772     TIP3     OH2      OT      -0.834000       15.9994           0
     36697 TIP3     4772     TIP3     H1       HT       0.417000       1.00800           0
     36698 TIP3     4772     TIP3     H2       HT       0.417000       1.00800           0
     36699 TIP3     4773     TIP3     OH2      OT      -0.834000       15.9994           0
     36700 TIP3     4773     TIP3     H1       HT       0.417000       1.00800           0
     36701 TIP3     4773     TIP3     H2       HT       0.417000       1.00800           0
     36702 TIP3     4774     TIP3     OH2      OT      -0.834000       15.9994           0
     36703 TIP3     4774     TIP3     H1       HT       0.417000       1.00800           0
     36704 TIP3     4774     TIP3     H2       HT       0.417000       1.00800           0
     36705 TIP3     4775     TIP3     OH2      OT      -0.834000       15.9994           0
     36706 TIP3     4775     TIP3     H1       HT       0.417000       1.00800           0
     36707 TIP3     4775     TIP3     H2       HT       0.417000       1.00800           0
     36708 TIP3     4776     TIP3     OH2      OT      -0.834000       15.9994           0
     36709 TIP3     4776     TIP3     H1       HT       0.417000       1.00800           0
     36710 TIP3     4776     TIP3     H2       HT       0.417000       1.00800           0
     36711 TIP3     4777     TIP3     OH2      OT      -0.834000       15.9994           0
     36712 TIP3     4777     TIP3     H1       HT       0.417000       1.00800           0
     36713 TIP3     4777     TIP3     H2       HT       0.417000       1.00800           0
     36714 TIP3     4778     TIP3     OH2      OT      -0.834000       15.9994           0
     36715 TIP3     4778     TIP3     H1       HT       0.417000       1.00800           0
     36716 TIP3     4778     TIP3     H2       HT       0.417000       1.00800           0
     36717 TIP3     4779     TIP3     OH2      OT      -0.834000       15.9994           0
     36718 TIP3     4779     TIP3     H1       HT       0.417000       1.00800           0
     36719 TIP3     4779     TIP3     H2       HT       0.417000       1.00800           0
     36720 TIP3     4780     TIP3     OH2      OT      -0.834000       15.9994           0
     36721 TIP3     4780     TIP3     H1       HT       0.417000       1.00800           0
     36722 TIP3     4780     TIP3     H2       HT       0.417000       1.00800           0
     36723 TIP3     4781     TIP3     OH2      OT      -0.834000       15.9994           0
     36724 TIP3     4781     TIP3     H1       HT       0.417000       1.00800           0
     36725 TIP3     4781     TIP3     H2       HT       0.417000       1.00800           0
     36726 TIP3     4782     TIP3     OH2      OT      -0.834000       15.9994           0
     36727 TIP3     4782     TIP3     H1       HT       0.417000       1.00800           0
     36728 TIP3     4782     TIP3     H2       HT       0.417000       1.00800           0
     36729 TIP3     4783     TIP3     OH2      OT      -0.834000       15.9994           0
     36730 TIP3     4783     TIP3     H1       HT       0.417000       1.00800           0
     36731 TIP3     4783     TIP3     H2       HT       0.417000       1.00800           0
     36732 TIP3     4784     TIP3     OH2      OT      -0.834000       15.9994           0
     36733 TIP3     4784     TIP3     H1       HT       0.417000       1.00800           0
     36734 TIP3     4784     TIP3     H2       HT       0.417000       1.00800           0
     36735 TIP3     4785     TIP3     OH2      OT      -0.834000       15.9994           0
     36736 TIP3     4785     TIP3     H1       HT       0.417000       1.00800           0
     36737 TIP3     4785     TIP3     H2       HT       0.417000       1.00800           0
     36738 TIP3     4786     TIP3     OH2      OT      -0.834000       15.9994           0
     36739 TIP3     4786     TIP3     H1       HT       0.417000       1.00800           0
     36740 TIP3     4786     TIP3     H2       HT       0.417000       1.00800           0
     36741 TIP3     4787     TIP3     OH2      OT      -0.834000       15.9994           0
     36742 TIP3     4787     TIP3     H1       HT       0.417000       1.00800           0
     36743 TIP3     4787     TIP3     H2       HT       0.417000       1.00800           0
     36744 TIP3     4788     TIP3     OH2      OT      -0.834000       15.9994           0
     36745 TIP3     4788     TIP3     H1       HT       0.417000       1.00800           0
     36746 TIP3     4788     TIP3     H2       HT       0.417000       1.00800           0
     36747 TIP3     4789     TIP3     OH2      OT      -0.834000       15.9994           0
     36748 TIP3     4789     TIP3     H1       HT       0.417000       1.00800           0
     36749 TIP3     4789     TIP3     H2       HT       0.417000       1.00800           0
     36750 TIP3     4790     TIP3     OH2      OT      -0.834000       15.9994           0
     36751 TIP3     4790     TIP3     H1       HT       0.417000       1.00800           0
     36752 TIP3     4790     TIP3     H2       HT       0.417000       1.00800           0
     36753 TIP3     4791     TIP3     OH2      OT      -0.834000       15.9994           0
     36754 TIP3     4791     TIP3     H1       HT       0.417000       1.00800           0
     36755 TIP3     4791     TIP3     H2       HT       0.417000       1.00800           0
     36756 TIP3     4792     TIP3     OH2      OT      -0.834000       15.9994           0
     36757 TIP3     4792     TIP3     H1       HT       0.417000       1.00800           0
     36758 TIP3     4792     TIP3     H2       HT       0.417000       1.00800           0
     36759 TIP3     4793     TIP3     OH2      OT      -0.834000       15.9994           0
     36760 TIP3     4793     TIP3     H1       HT       0.417000       1.00800           0
     36761 TIP3     4793     TIP3     H2       HT       0.417000       1.00800           0
     36762 TIP3     4794     TIP3     OH2      OT      -0.834000       15.9994           0
     36763 TIP3     4794     TIP3     H1       HT       0.417000       1.00800           0
     36764 TIP3     4794     TIP3     H2       HT       0.417000       1.00800           0
     36765 TIP3     4795     TIP3     OH2      OT      -0.834000       15.9994           0
     36766 TIP3     4795     TIP3     H1       HT       0.417000       1.00800           0
     36767 TIP3     4795     TIP3     H2       HT       0.417000       1.00800           0
     36768 TIP3     4796     TIP3     OH2      OT      -0.834000       15.9994           0
     36769 TIP3     4796     TIP3     H1       HT       0.417000       1.00800           0
     36770 TIP3     4796     TIP3     H2       HT       0.417000       1.00800           0
     36771 TIP3     4797     TIP3     OH2      OT      -0.834000       15.9994           0
     36772 TIP3     4797     TIP3     H1       HT       0.417000       1.00800           0
     36773 TIP3     4797     TIP3     H2       HT       0.417000       1.00800           0
     36774 TIP3     4798     TIP3     OH2      OT      -0.834000       15.9994           0
     36775 TIP3     4798     TIP3     H1       HT       0.417000       1.00800           0
     36776 TIP3     4798     TIP3     H2       HT       0.417000       1.00800           0
     36777 TIP3     4799     TIP3     OH2      OT      -0.834000       15.9994           0
     36778 TIP3     4799     TIP3     H1       HT       0.417000       1.00800           0
     36779 TIP3     4799     TIP3     H2       HT       0.417000       1.00800           0
     36780 TIP3     4800     TIP3     OH2      OT      -0.834000       15.9994           0
     36781 TIP3     4800     TIP3     H1       HT       0.417000       1.00800           0
     36782 TIP3     4800     TIP3     H2       HT       0.417000       1.00800           0
     36783 TIP3     4801     TIP3     OH2      OT      -0.834000       15.9994           0
     36784 TIP3     4801     TIP3     H1       HT       0.417000       1.00800           0
     36785 TIP3     4801     TIP3     H2       HT       0.417000       1.00800           0
     36786 TIP3     4802     TIP3     OH2      OT      -0.834000       15.9994           0
     36787 TIP3     4802     TIP3     H1       HT       0.417000       1.00800           0
     36788 TIP3     4802     TIP3     H2       HT       0.417000       1.00800           0
     36789 TIP3     4803     TIP3     OH2      OT      -0.834000       15.9994           0
     36790 TIP3     4803     TIP3     H1       HT       0.417000       1.00800           0
     36791 TIP3     4803     TIP3     H2       HT       0.417000       1.00800           0
     36792 TIP3     4804     TIP3     OH2      OT      -0.834000       15.9994           0
     36793 TIP3     4804     TIP3     H1       HT       0.417000       1.00800           0
     36794 TIP3     4804     TIP3     H2       HT       0.417000       1.00800           0
     36795 TIP3     4805     TIP3     OH2      OT      -0.834000       15.9994           0
     36796 TIP3     4805     TIP3     H1       HT       0.417000       1.00800           0
     36797 TIP3     4805     TIP3     H2       HT       0.417000       1.00800           0
     36798 TIP3     4806     TIP3     OH2      OT      -0.834000       15.9994           0
     36799 TIP3     4806     TIP3     H1       HT       0.417000       1.00800           0
     36800 TIP3     4806     TIP3     H2       HT       0.417000       1.00800           0
     36801 TIP3     4807     TIP3     OH2      OT      -0.834000       15.9994           0
     36802 TIP3     4807     TIP3     H1       HT       0.417000       1.00800           0
     36803 TIP3     4807     TIP3     H2       HT       0.417000       1.00800           0
     36804 TIP3     4808     TIP3     OH2      OT      -0.834000       15.9994           0
     36805 TIP3     4808     TIP3     H1       HT       0.417000       1.00800           0
     36806 TIP3     4808     TIP3     H2       HT       0.417000       1.00800           0
     36807 TIP3     4809     TIP3     OH2      OT      -0.834000       15.9994           0
     36808 TIP3     4809     TIP3     H1       HT       0.417000       1.00800           0
     36809 TIP3     4809     TIP3     H2       HT       0.417000       1.00800           0
     36810 TIP3     4810     TIP3     OH2      OT      -0.834000       15.9994           0
     36811 TIP3     4810     TIP3     H1       HT       0.417000       1.00800           0
     36812 TIP3     4810     TIP3     H2       HT       0.417000       1.00800           0
     36813 TIP3     4811     TIP3     OH2      OT      -0.834000       15.9994           0
     36814 TIP3     4811     TIP3     H1       HT       0.417000       1.00800           0
     36815 TIP3     4811     TIP3     H2       HT       0.417000       1.00800           0
     36816 TIP3     4812     TIP3     OH2      OT      -0.834000       15.9994           0
     36817 TIP3     4812     TIP3     H1       HT       0.417000       1.00800           0
     36818 TIP3     4812     TIP3     H2       HT       0.417000       1.00800           0
     36819 TIP3     4813     TIP3     OH2      OT      -0.834000       15.9994           0
     36820 TIP3     4813     TIP3     H1       HT       0.417000       1.00800           0
     36821 TIP3     4813     TIP3     H2       HT       0.417000       1.00800           0
     36822 TIP3     4814     TIP3     OH2      OT      -0.834000       15.9994           0
     36823 TIP3     4814     TIP3     H1       HT       0.417000       1.00800           0
     36824 TIP3     4814     TIP3     H2       HT       0.417000       1.00800           0
     36825 TIP3     4815     TIP3     OH2      OT      -0.834000       15.9994           0
     36826 TIP3     4815     TIP3     H1       HT       0.417000       1.00800           0
     36827 TIP3     4815     TIP3     H2       HT       0.417000       1.00800           0
     36828 TIP3     4816     TIP3     OH2      OT      -0.834000       15.9994           0
     36829 TIP3     4816     TIP3     H1       HT       0.417000       1.00800           0
     36830 TIP3     4816     TIP3     H2       HT       0.417000       1.00800           0
     36831 TIP3     4817     TIP3     OH2      OT      -0.834000       15.9994           0
     36832 TIP3     4817     TIP3     H1       HT       0.417000       1.00800           0
     36833 TIP3     4817     TIP3     H2       HT       0.417000       1.00800           0
     36834 TIP3     4818     TIP3     OH2      OT      -0.834000       15.9994           0
     36835 TIP3     4818     TIP3     H1       HT       0.417000       1.00800           0
     36836 TIP3     4818     TIP3     H2       HT       0.417000       1.00800           0
     36837 TIP3     4819     TIP3     OH2      OT      -0.834000       15.9994           0
     36838 TIP3     4819     TIP3     H1       HT       0.417000       1.00800           0
     36839 TIP3     4819     TIP3     H2       HT       0.417000       1.00800           0
     36840 TIP3     4820     TIP3     OH2      OT      -0.834000       15.9994           0
     36841 TIP3     4820     TIP3     H1       HT       0.417000       1.00800           0
     36842 TIP3     4820     TIP3     H2       HT       0.417000       1.00800           0
     36843 TIP3     4821     TIP3     OH2      OT      -0.834000       15.9994           0
     36844 TIP3     4821     TIP3     H1       HT       0.417000       1.00800           0
     36845 TIP3     4821     TIP3     H2       HT       0.417000       1.00800           0
     36846 TIP3     4822     TIP3     OH2      OT      -0.834000       15.9994           0
     36847 TIP3     4822     TIP3     H1       HT       0.417000       1.00800           0
     36848 TIP3     4822     TIP3     H2       HT       0.417000       1.00800           0
     36849 TIP3     4823     TIP3     OH2      OT      -0.834000       15.9994           0
     36850 TIP3     4823     TIP3     H1       HT       0.417000       1.00800           0
     36851 TIP3     4823     TIP3     H2       HT       0.417000       1.00800           0
     36852 TIP3     4824     TIP3     OH2      OT      -0.834000       15.9994           0
     36853 TIP3     4824     TIP3     H1       HT       0.417000       1.00800           0
     36854 TIP3     4824     TIP3     H2       HT       0.417000       1.00800           0
     36855 TIP3     4825     TIP3     OH2      OT      -0.834000       15.9994           0
     36856 TIP3     4825     TIP3     H1       HT       0.417000       1.00800           0
     36857 TIP3     4825     TIP3     H2       HT       0.417000       1.00800           0
     36858 TIP3     4826     TIP3     OH2      OT      -0.834000       15.9994           0
     36859 TIP3     4826     TIP3     H1       HT       0.417000       1.00800           0
     36860 TIP3     4826     TIP3     H2       HT       0.417000       1.00800           0
     36861 TIP3     4827     TIP3     OH2      OT      -0.834000       15.9994           0
     36862 TIP3     4827     TIP3     H1       HT       0.417000       1.00800           0
     36863 TIP3     4827     TIP3     H2       HT       0.417000       1.00800           0
     36864 TIP3     4828     TIP3     OH2      OT      -0.834000       15.9994           0
     36865 TIP3     4828     TIP3     H1       HT       0.417000       1.00800           0
     36866 TIP3     4828     TIP3     H2       HT       0.417000       1.00800           0
     36867 TIP3     4829     TIP3     OH2      OT      -0.834000       15.9994           0
     36868 TIP3     4829     TIP3     H1       HT       0.417000       1.00800           0
     36869 TIP3     4829     TIP3     H2       HT       0.417000       1.00800           0
     36870 TIP3     4830     TIP3     OH2      OT      -0.834000       15.9994           0
     36871 TIP3     4830     TIP3     H1       HT       0.417000       1.00800           0
     36872 TIP3     4830     TIP3     H2       HT       0.417000       1.00800           0
     36873 TIP3     4831     TIP3     OH2      OT      -0.834000       15.9994           0
     36874 TIP3     4831     TIP3     H1       HT       0.417000       1.00800           0
     36875 TIP3     4831     TIP3     H2       HT       0.417000       1.00800           0
     36876 TIP3     4832     TIP3     OH2      OT      -0.834000       15.9994           0
     36877 TIP3     4832     TIP3     H1       HT       0.417000       1.00800           0
     36878 TIP3     4832     TIP3     H2       HT       0.417000       1.00800           0
     36879 TIP3     4833     TIP3     OH2      OT      -0.834000       15.9994           0
     36880 TIP3     4833     TIP3     H1       HT       0.417000       1.00800           0
     36881 TIP3     4833     TIP3     H2       HT       0.417000       1.00800           0
     36882 TIP3     4834     TIP3     OH2      OT      -0.834000       15.9994           0
     36883 TIP3     4834     TIP3     H1       HT       0.417000       1.00800           0
     36884 TIP3     4834     TIP3     H2       HT       0.417000       1.00800           0
     36885 TIP3     4835     TIP3     OH2      OT      -0.834000       15.9994           0
     36886 TIP3     4835     TIP3     H1       HT       0.417000       1.00800           0
     36887 TIP3     4835     TIP3     H2       HT       0.417000       1.00800           0
     36888 TIP3     4836     TIP3     OH2      OT      -0.834000       15.9994           0
     36889 TIP3     4836     TIP3     H1       HT       0.417000       1.00800           0
     36890 TIP3     4836     TIP3     H2       HT       0.417000       1.00800           0
     36891 TIP3     4837     TIP3     OH2      OT      -0.834000       15.9994           0
     36892 TIP3     4837     TIP3     H1       HT       0.417000       1.00800           0
     36893 TIP3     4837     TIP3     H2       HT       0.417000       1.00800           0
     36894 TIP3     4838     TIP3     OH2      OT      -0.834000       15.9994           0
     36895 TIP3     4838     TIP3     H1       HT       0.417000       1.00800           0
     36896 TIP3     4838     TIP3     H2       HT       0.417000       1.00800           0
     36897 TIP3     4839     TIP3     OH2      OT      -0.834000       15.9994           0
     36898 TIP3     4839     TIP3     H1       HT       0.417000       1.00800           0
     36899 TIP3     4839     TIP3     H2       HT       0.417000       1.00800           0
     36900 TIP3     4840     TIP3     OH2      OT      -0.834000       15.9994           0
     36901 TIP3     4840     TIP3     H1       HT       0.417000       1.00800           0
     36902 TIP3     4840     TIP3     H2       HT       0.417000       1.00800           0
     36903 TIP3     4841     TIP3     OH2      OT      -0.834000       15.9994           0
     36904 TIP3     4841     TIP3     H1       HT       0.417000       1.00800           0
     36905 TIP3     4841     TIP3     H2       HT       0.417000       1.00800           0
     36906 TIP3     4842     TIP3     OH2      OT      -0.834000       15.9994           0
     36907 TIP3     4842     TIP3     H1       HT       0.417000       1.00800           0
     36908 TIP3     4842     TIP3     H2       HT       0.417000       1.00800           0
     36909 TIP3     4843     TIP3     OH2      OT      -0.834000       15.9994           0
     36910 TIP3     4843     TIP3     H1       HT       0.417000       1.00800           0
     36911 TIP3     4843     TIP3     H2       HT       0.417000       1.00800           0
     36912 TIP3     4844     TIP3     OH2      OT      -0.834000       15.9994           0
     36913 TIP3     4844     TIP3     H1       HT       0.417000       1.00800           0
     36914 TIP3     4844     TIP3     H2       HT       0.417000       1.00800           0
     36915 TIP3     4845     TIP3     OH2      OT      -0.834000       15.9994           0
     36916 TIP3     4845     TIP3     H1       HT       0.417000       1.00800           0
     36917 TIP3     4845     TIP3     H2       HT       0.417000       1.00800           0
     36918 TIP3     4846     TIP3     OH2      OT      -0.834000       15.9994           0
     36919 TIP3     4846     TIP3     H1       HT       0.417000       1.00800           0
     36920 TIP3     4846     TIP3     H2       HT       0.417000       1.00800           0
     36921 TIP3     4847     TIP3     OH2      OT      -0.834000       15.9994           0
     36922 TIP3     4847     TIP3     H1       HT       0.417000       1.00800           0
     36923 TIP3     4847     TIP3     H2       HT       0.417000       1.00800           0
     36924 TIP3     4848     TIP3     OH2      OT      -0.834000       15.9994           0
     36925 TIP3     4848     TIP3     H1       HT       0.417000       1.00800           0
     36926 TIP3     4848     TIP3     H2       HT       0.417000       1.00800           0
     36927 TIP3     4849     TIP3     OH2      OT      -0.834000       15.9994           0
     36928 TIP3     4849     TIP3     H1       HT       0.417000       1.00800           0
     36929 TIP3     4849     TIP3     H2       HT       0.417000       1.00800           0
     36930 TIP3     4850     TIP3     OH2      OT      -0.834000       15.9994           0
     36931 TIP3     4850     TIP3     H1       HT       0.417000       1.00800           0
     36932 TIP3     4850     TIP3     H2       HT       0.417000       1.00800           0
     36933 TIP3     4851     TIP3     OH2      OT      -0.834000       15.9994           0
     36934 TIP3     4851     TIP3     H1       HT       0.417000       1.00800           0
     36935 TIP3     4851     TIP3     H2       HT       0.417000       1.00800           0
     36936 TIP3     4852     TIP3     OH2      OT      -0.834000       15.9994           0
     36937 TIP3     4852     TIP3     H1       HT       0.417000       1.00800           0
     36938 TIP3     4852     TIP3     H2       HT       0.417000       1.00800           0
     36939 TIP3     4853     TIP3     OH2      OT      -0.834000       15.9994           0
     36940 TIP3     4853     TIP3     H1       HT       0.417000       1.00800           0
     36941 TIP3     4853     TIP3     H2       HT       0.417000       1.00800           0
     36942 TIP3     4854     TIP3     OH2      OT      -0.834000       15.9994           0
     36943 TIP3     4854     TIP3     H1       HT       0.417000       1.00800           0
     36944 TIP3     4854     TIP3     H2       HT       0.417000       1.00800           0
     36945 TIP3     4855     TIP3     OH2      OT      -0.834000       15.9994           0
     36946 TIP3     4855     TIP3     H1       HT       0.417000       1.00800           0
     36947 TIP3     4855     TIP3     H2       HT       0.417000       1.00800           0
     36948 TIP3     4856     TIP3     OH2      OT      -0.834000       15.9994           0
     36949 TIP3     4856     TIP3     H1       HT       0.417000       1.00800           0
     36950 TIP3     4856     TIP3     H2       HT       0.417000       1.00800           0
     36951 TIP3     4857     TIP3     OH2      OT      -0.834000       15.9994           0
     36952 TIP3     4857     TIP3     H1       HT       0.417000       1.00800           0
     36953 TIP3     4857     TIP3     H2       HT       0.417000       1.00800           0
     36954 TIP3     4858     TIP3     OH2      OT      -0.834000       15.9994           0
     36955 TIP3     4858     TIP3     H1       HT       0.417000       1.00800           0
     36956 TIP3     4858     TIP3     H2       HT       0.417000       1.00800           0
     36957 TIP3     4859     TIP3     OH2      OT      -0.834000       15.9994           0
     36958 TIP3     4859     TIP3     H1       HT       0.417000       1.00800           0
     36959 TIP3     4859     TIP3     H2       HT       0.417000       1.00800           0
     36960 TIP3     4860     TIP3     OH2      OT      -0.834000       15.9994           0
     36961 TIP3     4860     TIP3     H1       HT       0.417000       1.00800           0
     36962 TIP3     4860     TIP3     H2       HT       0.417000       1.00800           0
     36963 TIP3     4861     TIP3     OH2      OT      -0.834000       15.9994           0
     36964 TIP3     4861     TIP3     H1       HT       0.417000       1.00800           0
     36965 TIP3     4861     TIP3     H2       HT       0.417000       1.00800           0
     36966 TIP3     4862     TIP3     OH2      OT      -0.834000       15.9994           0
     36967 TIP3     4862     TIP3     H1       HT       0.417000       1.00800           0
     36968 TIP3     4862     TIP3     H2       HT       0.417000       1.00800           0
     36969 TIP3     4863     TIP3     OH2      OT      -0.834000       15.9994           0
     36970 TIP3     4863     TIP3     H1       HT       0.417000       1.00800           0
     36971 TIP3     4863     TIP3     H2       HT       0.417000       1.00800           0
     36972 TIP3     4864     TIP3     OH2      OT      -0.834000       15.9994           0
     36973 TIP3     4864     TIP3     H1       HT       0.417000       1.00800           0
     36974 TIP3     4864     TIP3     H2       HT       0.417000       1.00800           0
     36975 TIP3     4865     TIP3     OH2      OT      -0.834000       15.9994           0
     36976 TIP3     4865     TIP3     H1       HT       0.417000       1.00800           0
     36977 TIP3     4865     TIP3     H2       HT       0.417000       1.00800           0
     36978 TIP3     4866     TIP3     OH2      OT      -0.834000       15.9994           0
     36979 TIP3     4866     TIP3     H1       HT       0.417000       1.00800           0
     36980 TIP3     4866     TIP3     H2       HT       0.417000       1.00800           0
     36981 TIP3     4867     TIP3     OH2      OT      -0.834000       15.9994           0
     36982 TIP3     4867     TIP3     H1       HT       0.417000       1.00800           0
     36983 TIP3     4867     TIP3     H2       HT       0.417000       1.00800           0
     36984 TIP3     4868     TIP3     OH2      OT      -0.834000       15.9994           0
     36985 TIP3     4868     TIP3     H1       HT       0.417000       1.00800           0
     36986 TIP3     4868     TIP3     H2       HT       0.417000       1.00800           0
     36987 TIP3     4869     TIP3     OH2      OT      -0.834000       15.9994           0
     36988 TIP3     4869     TIP3     H1       HT       0.417000       1.00800           0
     36989 TIP3     4869     TIP3     H2       HT       0.417000       1.00800           0
     36990 TIP3     4870     TIP3     OH2      OT      -0.834000       15.9994           0
     36991 TIP3     4870     TIP3     H1       HT       0.417000       1.00800           0
     36992 TIP3     4870     TIP3     H2       HT       0.417000       1.00800           0
     36993 TIP3     4871     TIP3     OH2      OT      -0.834000       15.9994           0
     36994 TIP3     4871     TIP3     H1       HT       0.417000       1.00800           0
     36995 TIP3     4871     TIP3     H2       HT       0.417000       1.00800           0
     36996 TIP3     4872     TIP3     OH2      OT      -0.834000       15.9994           0
     36997 TIP3     4872     TIP3     H1       HT       0.417000       1.00800           0
     36998 TIP3     4872     TIP3     H2       HT       0.417000       1.00800           0
     36999 TIP3     4873     TIP3     OH2      OT      -0.834000       15.9994           0
     37000 TIP3     4873     TIP3     H1       HT       0.417000       1.00800           0
     37001 TIP3     4873     TIP3     H2       HT       0.417000       1.00800           0
     37002 TIP3     4874     TIP3     OH2      OT      -0.834000       15.9994           0
     37003 TIP3     4874     TIP3     H1       HT       0.417000       1.00800           0
     37004 TIP3     4874     TIP3     H2       HT       0.417000       1.00800           0
     37005 TIP3     4875     TIP3     OH2      OT      -0.834000       15.9994           0
     37006 TIP3     4875     TIP3     H1       HT       0.417000       1.00800           0
     37007 TIP3     4875     TIP3     H2       HT       0.417000       1.00800           0
     37008 TIP3     4876     TIP3     OH2      OT      -0.834000       15.9994           0
     37009 TIP3     4876     TIP3     H1       HT       0.417000       1.00800           0
     37010 TIP3     4876     TIP3     H2       HT       0.417000       1.00800           0
     37011 TIP3     4877     TIP3     OH2      OT      -0.834000       15.9994           0
     37012 TIP3     4877     TIP3     H1       HT       0.417000       1.00800           0
     37013 TIP3     4877     TIP3     H2       HT       0.417000       1.00800           0
     37014 TIP3     4878     TIP3     OH2      OT      -0.834000       15.9994           0
     37015 TIP3     4878     TIP3     H1       HT       0.417000       1.00800           0
     37016 TIP3     4878     TIP3     H2       HT       0.417000       1.00800           0
     37017 TIP3     4879     TIP3     OH2      OT      -0.834000       15.9994           0
     37018 TIP3     4879     TIP3     H1       HT       0.417000       1.00800           0
     37019 TIP3     4879     TIP3     H2       HT       0.417000       1.00800           0
     37020 TIP3     4880     TIP3     OH2      OT      -0.834000       15.9994           0
     37021 TIP3     4880     TIP3     H1       HT       0.417000       1.00800           0
     37022 TIP3     4880     TIP3     H2       HT       0.417000       1.00800           0
     37023 TIP3     4881     TIP3     OH2      OT      -0.834000       15.9994           0
     37024 TIP3     4881     TIP3     H1       HT       0.417000       1.00800           0
     37025 TIP3     4881     TIP3     H2       HT       0.417000       1.00800           0
     37026 TIP3     4882     TIP3     OH2      OT      -0.834000       15.9994           0
     37027 TIP3     4882     TIP3     H1       HT       0.417000       1.00800           0
     37028 TIP3     4882     TIP3     H2       HT       0.417000       1.00800           0
     37029 TIP3     4883     TIP3     OH2      OT      -0.834000       15.9994           0
     37030 TIP3     4883     TIP3     H1       HT       0.417000       1.00800           0
     37031 TIP3     4883     TIP3     H2       HT       0.417000       1.00800           0
     37032 TIP3     4884     TIP3     OH2      OT      -0.834000       15.9994           0
     37033 TIP3     4884     TIP3     H1       HT       0.417000       1.00800           0
     37034 TIP3     4884     TIP3     H2       HT       0.417000       1.00800           0
     37035 TIP3     4885     TIP3     OH2      OT      -0.834000       15.9994           0
     37036 TIP3     4885     TIP3     H1       HT       0.417000       1.00800           0
     37037 TIP3     4885     TIP3     H2       HT       0.417000       1.00800           0
     37038 TIP3     4886     TIP3     OH2      OT      -0.834000       15.9994           0
     37039 TIP3     4886     TIP3     H1       HT       0.417000       1.00800           0
     37040 TIP3     4886     TIP3     H2       HT       0.417000       1.00800           0
     37041 TIP3     4887     TIP3     OH2      OT      -0.834000       15.9994           0
     37042 TIP3     4887     TIP3     H1       HT       0.417000       1.00800           0
     37043 TIP3     4887     TIP3     H2       HT       0.417000       1.00800           0
     37044 TIP3     4888     TIP3     OH2      OT      -0.834000       15.9994           0
     37045 TIP3     4888     TIP3     H1       HT       0.417000       1.00800           0
     37046 TIP3     4888     TIP3     H2       HT       0.417000       1.00800           0
     37047 TIP3     4889     TIP3     OH2      OT      -0.834000       15.9994           0
     37048 TIP3     4889     TIP3     H1       HT       0.417000       1.00800           0
     37049 TIP3     4889     TIP3     H2       HT       0.417000       1.00800           0
     37050 TIP3     4890     TIP3     OH2      OT      -0.834000       15.9994           0
     37051 TIP3     4890     TIP3     H1       HT       0.417000       1.00800           0
     37052 TIP3     4890     TIP3     H2       HT       0.417000       1.00800           0
     37053 TIP3     4891     TIP3     OH2      OT      -0.834000       15.9994           0
     37054 TIP3     4891     TIP3     H1       HT       0.417000       1.00800           0
     37055 TIP3     4891     TIP3     H2       HT       0.417000       1.00800           0
     37056 TIP3     4892     TIP3     OH2      OT      -0.834000       15.9994           0
     37057 TIP3     4892     TIP3     H1       HT       0.417000       1.00800           0
     37058 TIP3     4892     TIP3     H2       HT       0.417000       1.00800           0
     37059 TIP3     4893     TIP3     OH2      OT      -0.834000       15.9994           0
     37060 TIP3     4893     TIP3     H1       HT       0.417000       1.00800           0
     37061 TIP3     4893     TIP3     H2       HT       0.417000       1.00800           0
     37062 TIP3     4894     TIP3     OH2      OT      -0.834000       15.9994           0
     37063 TIP3     4894     TIP3     H1       HT       0.417000       1.00800           0
     37064 TIP3     4894     TIP3     H2       HT       0.417000       1.00800           0
     37065 TIP3     4895     TIP3     OH2      OT      -0.834000       15.9994           0
     37066 TIP3     4895     TIP3     H1       HT       0.417000       1.00800           0
     37067 TIP3     4895     TIP3     H2       HT       0.417000       1.00800           0
     37068 TIP3     4896     TIP3     OH2      OT      -0.834000       15.9994           0
     37069 TIP3     4896     TIP3     H1       HT       0.417000       1.00800           0
     37070 TIP3     4896     TIP3     H2       HT       0.417000       1.00800           0
     37071 TIP3     4897     TIP3     OH2      OT      -0.834000       15.9994           0
     37072 TIP3     4897     TIP3     H1       HT       0.417000       1.00800           0
     37073 TIP3     4897     TIP3     H2       HT       0.417000       1.00800           0
     37074 TIP3     4898     TIP3     OH2      OT      -0.834000       15.9994           0
     37075 TIP3     4898     TIP3     H1       HT       0.417000       1.00800           0
     37076 TIP3     4898     TIP3     H2       HT       0.417000       1.00800           0
     37077 TIP3     4899     TIP3     OH2      OT      -0.834000       15.9994           0
     37078 TIP3     4899     TIP3     H1       HT       0.417000       1.00800           0
     37079 TIP3     4899     TIP3     H2       HT       0.417000       1.00800           0
     37080 TIP3     4900     TIP3     OH2      OT      -0.834000       15.9994           0
     37081 TIP3     4900     TIP3     H1       HT       0.417000       1.00800           0
     37082 TIP3     4900     TIP3     H2       HT       0.417000       1.00800           0
     37083 TIP3     4901     TIP3     OH2      OT      -0.834000       15.9994           0
     37084 TIP3     4901     TIP3     H1       HT       0.417000       1.00800           0
     37085 TIP3     4901     TIP3     H2       HT       0.417000       1.00800           0
     37086 TIP3     4902     TIP3     OH2      OT      -0.834000       15.9994           0
     37087 TIP3     4902     TIP3     H1       HT       0.417000       1.00800           0
     37088 TIP3     4902     TIP3     H2       HT       0.417000       1.00800           0
     37089 TIP3     4903     TIP3     OH2      OT      -0.834000       15.9994           0
     37090 TIP3     4903     TIP3     H1       HT       0.417000       1.00800           0
     37091 TIP3     4903     TIP3     H2       HT       0.417000       1.00800           0
     37092 TIP3     4904     TIP3     OH2      OT      -0.834000       15.9994           0
     37093 TIP3     4904     TIP3     H1       HT       0.417000       1.00800           0
     37094 TIP3     4904     TIP3     H2       HT       0.417000       1.00800           0
     37095 TIP3     4905     TIP3     OH2      OT      -0.834000       15.9994           0
     37096 TIP3     4905     TIP3     H1       HT       0.417000       1.00800           0
     37097 TIP3     4905     TIP3     H2       HT       0.417000       1.00800           0
     37098 TIP3     4906     TIP3     OH2      OT      -0.834000       15.9994           0
     37099 TIP3     4906     TIP3     H1       HT       0.417000       1.00800           0
     37100 TIP3     4906     TIP3     H2       HT       0.417000       1.00800           0
     37101 TIP3     4907     TIP3     OH2      OT      -0.834000       15.9994           0
     37102 TIP3     4907     TIP3     H1       HT       0.417000       1.00800           0
     37103 TIP3     4907     TIP3     H2       HT       0.417000       1.00800           0
     37104 TIP3     4908     TIP3     OH2      OT      -0.834000       15.9994           0
     37105 TIP3     4908     TIP3     H1       HT       0.417000       1.00800           0
     37106 TIP3     4908     TIP3     H2       HT       0.417000       1.00800           0
     37107 TIP3     4909     TIP3     OH2      OT      -0.834000       15.9994           0
     37108 TIP3     4909     TIP3     H1       HT       0.417000       1.00800           0
     37109 TIP3     4909     TIP3     H2       HT       0.417000       1.00800           0
     37110 TIP3     4910     TIP3     OH2      OT      -0.834000       15.9994           0
     37111 TIP3     4910     TIP3     H1       HT       0.417000       1.00800           0
     37112 TIP3     4910     TIP3     H2       HT       0.417000       1.00800           0
     37113 TIP3     4911     TIP3     OH2      OT      -0.834000       15.9994           0
     37114 TIP3     4911     TIP3     H1       HT       0.417000       1.00800           0
     37115 TIP3     4911     TIP3     H2       HT       0.417000       1.00800           0
     37116 TIP3     4912     TIP3     OH2      OT      -0.834000       15.9994           0
     37117 TIP3     4912     TIP3     H1       HT       0.417000       1.00800           0
     37118 TIP3     4912     TIP3     H2       HT       0.417000       1.00800           0
     37119 TIP3     4913     TIP3     OH2      OT      -0.834000       15.9994           0
     37120 TIP3     4913     TIP3     H1       HT       0.417000       1.00800           0
     37121 TIP3     4913     TIP3     H2       HT       0.417000       1.00800           0
     37122 TIP3     4914     TIP3     OH2      OT      -0.834000       15.9994           0
     37123 TIP3     4914     TIP3     H1       HT       0.417000       1.00800           0
     37124 TIP3     4914     TIP3     H2       HT       0.417000       1.00800           0
     37125 TIP3     4915     TIP3     OH2      OT      -0.834000       15.9994           0
     37126 TIP3     4915     TIP3     H1       HT       0.417000       1.00800           0
     37127 TIP3     4915     TIP3     H2       HT       0.417000       1.00800           0
     37128 TIP3     4916     TIP3     OH2      OT      -0.834000       15.9994           0
     37129 TIP3     4916     TIP3     H1       HT       0.417000       1.00800           0
     37130 TIP3     4916     TIP3     H2       HT       0.417000       1.00800           0
     37131 TIP3     4917     TIP3     OH2      OT      -0.834000       15.9994           0
     37132 TIP3     4917     TIP3     H1       HT       0.417000       1.00800           0
     37133 TIP3     4917     TIP3     H2       HT       0.417000       1.00800           0
     37134 TIP3     4918     TIP3     OH2      OT      -0.834000       15.9994           0
     37135 TIP3     4918     TIP3     H1       HT       0.417000       1.00800           0
     37136 TIP3     4918     TIP3     H2       HT       0.417000       1.00800           0
     37137 TIP3     4919     TIP3     OH2      OT      -0.834000       15.9994           0
     37138 TIP3     4919     TIP3     H1       HT       0.417000       1.00800           0
     37139 TIP3     4919     TIP3     H2       HT       0.417000       1.00800           0
     37140 TIP3     4920     TIP3     OH2      OT      -0.834000       15.9994           0
     37141 TIP3     4920     TIP3     H1       HT       0.417000       1.00800           0
     37142 TIP3     4920     TIP3     H2       HT       0.417000       1.00800           0
     37143 TIP3     4921     TIP3     OH2      OT      -0.834000       15.9994           0
     37144 TIP3     4921     TIP3     H1       HT       0.417000       1.00800           0
     37145 TIP3     4921     TIP3     H2       HT       0.417000       1.00800           0
     37146 TIP3     4922     TIP3     OH2      OT      -0.834000       15.9994           0
     37147 TIP3     4922     TIP3     H1       HT       0.417000       1.00800           0
     37148 TIP3     4922     TIP3     H2       HT       0.417000       1.00800           0
     37149 TIP3     4923     TIP3     OH2      OT      -0.834000       15.9994           0
     37150 TIP3     4923     TIP3     H1       HT       0.417000       1.00800           0
     37151 TIP3     4923     TIP3     H2       HT       0.417000       1.00800           0
     37152 TIP3     4924     TIP3     OH2      OT      -0.834000       15.9994           0
     37153 TIP3     4924     TIP3     H1       HT       0.417000       1.00800           0
     37154 TIP3     4924     TIP3     H2       HT       0.417000       1.00800           0
     37155 TIP3     4925     TIP3     OH2      OT      -0.834000       15.9994           0
     37156 TIP3     4925     TIP3     H1       HT       0.417000       1.00800           0
     37157 TIP3     4925     TIP3     H2       HT       0.417000       1.00800           0
     37158 TIP3     4926     TIP3     OH2      OT      -0.834000       15.9994           0
     37159 TIP3     4926     TIP3     H1       HT       0.417000       1.00800           0
     37160 TIP3     4926     TIP3     H2       HT       0.417000       1.00800           0
     37161 TIP3     4927     TIP3     OH2      OT      -0.834000       15.9994           0
     37162 TIP3     4927     TIP3     H1       HT       0.417000       1.00800           0
     37163 TIP3     4927     TIP3     H2       HT       0.417000       1.00800           0
     37164 TIP3     4928     TIP3     OH2      OT      -0.834000       15.9994           0
     37165 TIP3     4928     TIP3     H1       HT       0.417000       1.00800           0
     37166 TIP3     4928     TIP3     H2       HT       0.417000       1.00800           0
     37167 TIP3     4929     TIP3     OH2      OT      -0.834000       15.9994           0
     37168 TIP3     4929     TIP3     H1       HT       0.417000       1.00800           0
     37169 TIP3     4929     TIP3     H2       HT       0.417000       1.00800           0
     37170 TIP3     4930     TIP3     OH2      OT      -0.834000       15.9994           0
     37171 TIP3     4930     TIP3     H1       HT       0.417000       1.00800           0
     37172 TIP3     4930     TIP3     H2       HT       0.417000       1.00800           0
     37173 TIP3     4931     TIP3     OH2      OT      -0.834000       15.9994           0
     37174 TIP3     4931     TIP3     H1       HT       0.417000       1.00800           0
     37175 TIP3     4931     TIP3     H2       HT       0.417000       1.00800           0
     37176 TIP3     4932     TIP3     OH2      OT      -0.834000       15.9994           0
     37177 TIP3     4932     TIP3     H1       HT       0.417000       1.00800           0
     37178 TIP3     4932     TIP3     H2       HT       0.417000       1.00800           0
     37179 TIP3     4933     TIP3     OH2      OT      -0.834000       15.9994           0
     37180 TIP3     4933     TIP3     H1       HT       0.417000       1.00800           0
     37181 TIP3     4933     TIP3     H2       HT       0.417000       1.00800           0
     37182 TIP3     4934     TIP3     OH2      OT      -0.834000       15.9994           0
     37183 TIP3     4934     TIP3     H1       HT       0.417000       1.00800           0
     37184 TIP3     4934     TIP3     H2       HT       0.417000       1.00800           0
     37185 TIP3     4935     TIP3     OH2      OT      -0.834000       15.9994           0
     37186 TIP3     4935     TIP3     H1       HT       0.417000       1.00800           0
     37187 TIP3     4935     TIP3     H2       HT       0.417000       1.00800           0
     37188 TIP3     4936     TIP3     OH2      OT      -0.834000       15.9994           0
     37189 TIP3     4936     TIP3     H1       HT       0.417000       1.00800           0
     37190 TIP3     4936     TIP3     H2       HT       0.417000       1.00800           0
     37191 TIP3     4937     TIP3     OH2      OT      -0.834000       15.9994           0
     37192 TIP3     4937     TIP3     H1       HT       0.417000       1.00800           0
     37193 TIP3     4937     TIP3     H2       HT       0.417000       1.00800           0
     37194 TIP3     4938     TIP3     OH2      OT      -0.834000       15.9994           0
     37195 TIP3     4938     TIP3     H1       HT       0.417000       1.00800           0
     37196 TIP3     4938     TIP3     H2       HT       0.417000       1.00800           0
     37197 TIP3     4939     TIP3     OH2      OT      -0.834000       15.9994           0
     37198 TIP3     4939     TIP3     H1       HT       0.417000       1.00800           0
     37199 TIP3     4939     TIP3     H2       HT       0.417000       1.00800           0
     37200 TIP3     4940     TIP3     OH2      OT      -0.834000       15.9994           0
     37201 TIP3     4940     TIP3     H1       HT       0.417000       1.00800           0
     37202 TIP3     4940     TIP3     H2       HT       0.417000       1.00800           0
     37203 TIP3     4941     TIP3     OH2      OT      -0.834000       15.9994           0
     37204 TIP3     4941     TIP3     H1       HT       0.417000       1.00800           0
     37205 TIP3     4941     TIP3     H2       HT       0.417000       1.00800           0
     37206 TIP3     4942     TIP3     OH2      OT      -0.834000       15.9994           0
     37207 TIP3     4942     TIP3     H1       HT       0.417000       1.00800           0
     37208 TIP3     4942     TIP3     H2       HT       0.417000       1.00800           0
     37209 TIP3     4943     TIP3     OH2      OT      -0.834000       15.9994           0
     37210 TIP3     4943     TIP3     H1       HT       0.417000       1.00800           0
     37211 TIP3     4943     TIP3     H2       HT       0.417000       1.00800           0
     37212 TIP3     4944     TIP3     OH2      OT      -0.834000       15.9994           0
     37213 TIP3     4944     TIP3     H1       HT       0.417000       1.00800           0
     37214 TIP3     4944     TIP3     H2       HT       0.417000       1.00800           0
     37215 TIP3     4945     TIP3     OH2      OT      -0.834000       15.9994           0
     37216 TIP3     4945     TIP3     H1       HT       0.417000       1.00800           0
     37217 TIP3     4945     TIP3     H2       HT       0.417000       1.00800           0
     37218 TIP3     4946     TIP3     OH2      OT      -0.834000       15.9994           0
     37219 TIP3     4946     TIP3     H1       HT       0.417000       1.00800           0
     37220 TIP3     4946     TIP3     H2       HT       0.417000       1.00800           0
     37221 TIP3     4947     TIP3     OH2      OT      -0.834000       15.9994           0
     37222 TIP3     4947     TIP3     H1       HT       0.417000       1.00800           0
     37223 TIP3     4947     TIP3     H2       HT       0.417000       1.00800           0
     37224 TIP3     4948     TIP3     OH2      OT      -0.834000       15.9994           0
     37225 TIP3     4948     TIP3     H1       HT       0.417000       1.00800           0
     37226 TIP3     4948     TIP3     H2       HT       0.417000       1.00800           0
     37227 TIP3     4949     TIP3     OH2      OT      -0.834000       15.9994           0
     37228 TIP3     4949     TIP3     H1       HT       0.417000       1.00800           0
     37229 TIP3     4949     TIP3     H2       HT       0.417000       1.00800           0
     37230 TIP3     4950     TIP3     OH2      OT      -0.834000       15.9994           0
     37231 TIP3     4950     TIP3     H1       HT       0.417000       1.00800           0
     37232 TIP3     4950     TIP3     H2       HT       0.417000       1.00800           0
     37233 TIP3     4951     TIP3     OH2      OT      -0.834000       15.9994           0
     37234 TIP3     4951     TIP3     H1       HT       0.417000       1.00800           0
     37235 TIP3     4951     TIP3     H2       HT       0.417000       1.00800           0
     37236 TIP3     4952     TIP3     OH2      OT      -0.834000       15.9994           0
     37237 TIP3     4952     TIP3     H1       HT       0.417000       1.00800           0
     37238 TIP3     4952     TIP3     H2       HT       0.417000       1.00800           0
     37239 TIP3     4953     TIP3     OH2      OT      -0.834000       15.9994           0
     37240 TIP3     4953     TIP3     H1       HT       0.417000       1.00800           0
     37241 TIP3     4953     TIP3     H2       HT       0.417000       1.00800           0
     37242 TIP3     4954     TIP3     OH2      OT      -0.834000       15.9994           0
     37243 TIP3     4954     TIP3     H1       HT       0.417000       1.00800           0
     37244 TIP3     4954     TIP3     H2       HT       0.417000       1.00800           0
     37245 TIP3     4955     TIP3     OH2      OT      -0.834000       15.9994           0
     37246 TIP3     4955     TIP3     H1       HT       0.417000       1.00800           0
     37247 TIP3     4955     TIP3     H2       HT       0.417000       1.00800           0
     37248 TIP3     4956     TIP3     OH2      OT      -0.834000       15.9994           0
     37249 TIP3     4956     TIP3     H1       HT       0.417000       1.00800           0
     37250 TIP3     4956     TIP3     H2       HT       0.417000       1.00800           0
     37251 TIP3     4957     TIP3     OH2      OT      -0.834000       15.9994           0
     37252 TIP3     4957     TIP3     H1       HT       0.417000       1.00800           0
     37253 TIP3     4957     TIP3     H2       HT       0.417000       1.00800           0
     37254 TIP3     4958     TIP3     OH2      OT      -0.834000       15.9994           0
     37255 TIP3     4958     TIP3     H1       HT       0.417000       1.00800           0
     37256 TIP3     4958     TIP3     H2       HT       0.417000       1.00800           0
     37257 TIP3     4959     TIP3     OH2      OT      -0.834000       15.9994           0
     37258 TIP3     4959     TIP3     H1       HT       0.417000       1.00800           0
     37259 TIP3     4959     TIP3     H2       HT       0.417000       1.00800           0
     37260 TIP3     4960     TIP3     OH2      OT      -0.834000       15.9994           0
     37261 TIP3     4960     TIP3     H1       HT       0.417000       1.00800           0
     37262 TIP3     4960     TIP3     H2       HT       0.417000       1.00800           0
     37263 TIP3     4961     TIP3     OH2      OT      -0.834000       15.9994           0
     37264 TIP3     4961     TIP3     H1       HT       0.417000       1.00800           0
     37265 TIP3     4961     TIP3     H2       HT       0.417000       1.00800           0
     37266 TIP3     4962     TIP3     OH2      OT      -0.834000       15.9994           0
     37267 TIP3     4962     TIP3     H1       HT       0.417000       1.00800           0
     37268 TIP3     4962     TIP3     H2       HT       0.417000       1.00800           0
     37269 TIP3     4963     TIP3     OH2      OT      -0.834000       15.9994           0
     37270 TIP3     4963     TIP3     H1       HT       0.417000       1.00800           0
     37271 TIP3     4963     TIP3     H2       HT       0.417000       1.00800           0
     37272 TIP3     4964     TIP3     OH2      OT      -0.834000       15.9994           0
     37273 TIP3     4964     TIP3     H1       HT       0.417000       1.00800           0
     37274 TIP3     4964     TIP3     H2       HT       0.417000       1.00800           0
     37275 TIP3     4965     TIP3     OH2      OT      -0.834000       15.9994           0
     37276 TIP3     4965     TIP3     H1       HT       0.417000       1.00800           0
     37277 TIP3     4965     TIP3     H2       HT       0.417000       1.00800           0
     37278 TIP3     4966     TIP3     OH2      OT      -0.834000       15.9994           0
     37279 TIP3     4966     TIP3     H1       HT       0.417000       1.00800           0
     37280 TIP3     4966     TIP3     H2       HT       0.417000       1.00800           0
     37281 TIP3     4967     TIP3     OH2      OT      -0.834000       15.9994           0
     37282 TIP3     4967     TIP3     H1       HT       0.417000       1.00800           0
     37283 TIP3     4967     TIP3     H2       HT       0.417000       1.00800           0
     37284 TIP3     4968     TIP3     OH2      OT      -0.834000       15.9994           0
     37285 TIP3     4968     TIP3     H1       HT       0.417000       1.00800           0
     37286 TIP3     4968     TIP3     H2       HT       0.417000       1.00800           0
     37287 TIP3     4969     TIP3     OH2      OT      -0.834000       15.9994           0
     37288 TIP3     4969     TIP3     H1       HT       0.417000       1.00800           0
     37289 TIP3     4969     TIP3     H2       HT       0.417000       1.00800           0
     37290 TIP3     4970     TIP3     OH2      OT      -0.834000       15.9994           0
     37291 TIP3     4970     TIP3     H1       HT       0.417000       1.00800           0
     37292 TIP3     4970     TIP3     H2       HT       0.417000       1.00800           0
     37293 TIP3     4971     TIP3     OH2      OT      -0.834000       15.9994           0
     37294 TIP3     4971     TIP3     H1       HT       0.417000       1.00800           0
     37295 TIP3     4971     TIP3     H2       HT       0.417000       1.00800           0
     37296 TIP3     4972     TIP3     OH2      OT      -0.834000       15.9994           0
     37297 TIP3     4972     TIP3     H1       HT       0.417000       1.00800           0
     37298 TIP3     4972     TIP3     H2       HT       0.417000       1.00800           0
     37299 TIP3     4973     TIP3     OH2      OT      -0.834000       15.9994           0
     37300 TIP3     4973     TIP3     H1       HT       0.417000       1.00800           0
     37301 TIP3     4973     TIP3     H2       HT       0.417000       1.00800           0
     37302 TIP3     4974     TIP3     OH2      OT      -0.834000       15.9994           0
     37303 TIP3     4974     TIP3     H1       HT       0.417000       1.00800           0
     37304 TIP3     4974     TIP3     H2       HT       0.417000       1.00800           0
     37305 TIP3     4975     TIP3     OH2      OT      -0.834000       15.9994           0
     37306 TIP3     4975     TIP3     H1       HT       0.417000       1.00800           0
     37307 TIP3     4975     TIP3     H2       HT       0.417000       1.00800           0
     37308 TIP3     4976     TIP3     OH2      OT      -0.834000       15.9994           0
     37309 TIP3     4976     TIP3     H1       HT       0.417000       1.00800           0
     37310 TIP3     4976     TIP3     H2       HT       0.417000       1.00800           0
     37311 TIP3     4977     TIP3     OH2      OT      -0.834000       15.9994           0
     37312 TIP3     4977     TIP3     H1       HT       0.417000       1.00800           0
     37313 TIP3     4977     TIP3     H2       HT       0.417000       1.00800           0
     37314 TIP3     4978     TIP3     OH2      OT      -0.834000       15.9994           0
     37315 TIP3     4978     TIP3     H1       HT       0.417000       1.00800           0
     37316 TIP3     4978     TIP3     H2       HT       0.417000       1.00800           0
     37317 TIP3     4979     TIP3     OH2      OT      -0.834000       15.9994           0
     37318 TIP3     4979     TIP3     H1       HT       0.417000       1.00800           0
     37319 TIP3     4979     TIP3     H2       HT       0.417000       1.00800           0
     37320 TIP3     4980     TIP3     OH2      OT      -0.834000       15.9994           0
     37321 TIP3     4980     TIP3     H1       HT       0.417000       1.00800           0
     37322 TIP3     4980     TIP3     H2       HT       0.417000       1.00800           0
     37323 TIP3     4981     TIP3     OH2      OT      -0.834000       15.9994           0
     37324 TIP3     4981     TIP3     H1       HT       0.417000       1.00800           0
     37325 TIP3     4981     TIP3     H2       HT       0.417000       1.00800           0
     37326 TIP3     4982     TIP3     OH2      OT      -0.834000       15.9994           0
     37327 TIP3     4982     TIP3     H1       HT       0.417000       1.00800           0
     37328 TIP3     4982     TIP3     H2       HT       0.417000       1.00800           0
     37329 TIP3     4983     TIP3     OH2      OT      -0.834000       15.9994           0
     37330 TIP3     4983     TIP3     H1       HT       0.417000       1.00800           0
     37331 TIP3     4983     TIP3     H2       HT       0.417000       1.00800           0
     37332 TIP3     4984     TIP3     OH2      OT      -0.834000       15.9994           0
     37333 TIP3     4984     TIP3     H1       HT       0.417000       1.00800           0
     37334 TIP3     4984     TIP3     H2       HT       0.417000       1.00800           0
     37335 TIP3     4985     TIP3     OH2      OT      -0.834000       15.9994           0
     37336 TIP3     4985     TIP3     H1       HT       0.417000       1.00800           0
     37337 TIP3     4985     TIP3     H2       HT       0.417000       1.00800           0
     37338 TIP3     4986     TIP3     OH2      OT      -0.834000       15.9994           0
     37339 TIP3     4986     TIP3     H1       HT       0.417000       1.00800           0
     37340 TIP3     4986     TIP3     H2       HT       0.417000       1.00800           0
     37341 TIP3     4987     TIP3     OH2      OT      -0.834000       15.9994           0
     37342 TIP3     4987     TIP3     H1       HT       0.417000       1.00800           0
     37343 TIP3     4987     TIP3     H2       HT       0.417000       1.00800           0
     37344 TIP3     4988     TIP3     OH2      OT      -0.834000       15.9994           0
     37345 TIP3     4988     TIP3     H1       HT       0.417000       1.00800           0
     37346 TIP3     4988     TIP3     H2       HT       0.417000       1.00800           0
     37347 TIP3     4989     TIP3     OH2      OT      -0.834000       15.9994           0
     37348 TIP3     4989     TIP3     H1       HT       0.417000       1.00800           0
     37349 TIP3     4989     TIP3     H2       HT       0.417000       1.00800           0
     37350 TIP3     4990     TIP3     OH2      OT      -0.834000       15.9994           0
     37351 TIP3     4990     TIP3     H1       HT       0.417000       1.00800           0
     37352 TIP3     4990     TIP3     H2       HT       0.417000       1.00800           0
     37353 TIP3     4991     TIP3     OH2      OT      -0.834000       15.9994           0
     37354 TIP3     4991     TIP3     H1       HT       0.417000       1.00800           0
     37355 TIP3     4991     TIP3     H2       HT       0.417000       1.00800           0
     37356 TIP3     4992     TIP3     OH2      OT      -0.834000       15.9994           0
     37357 TIP3     4992     TIP3     H1       HT       0.417000       1.00800           0
     37358 TIP3     4992     TIP3     H2       HT       0.417000       1.00800           0
     37359 TIP3     4993     TIP3     OH2      OT      -0.834000       15.9994           0
     37360 TIP3     4993     TIP3     H1       HT       0.417000       1.00800           0
     37361 TIP3     4993     TIP3     H2       HT       0.417000       1.00800           0
     37362 TIP3     4994     TIP3     OH2      OT      -0.834000       15.9994           0
     37363 TIP3     4994     TIP3     H1       HT       0.417000       1.00800           0
     37364 TIP3     4994     TIP3     H2       HT       0.417000       1.00800           0
     37365 TIP3     4995     TIP3     OH2      OT      -0.834000       15.9994           0
     37366 TIP3     4995     TIP3     H1       HT       0.417000       1.00800           0
     37367 TIP3     4995     TIP3     H2       HT       0.417000       1.00800           0
     37368 TIP3     4996     TIP3     OH2      OT      -0.834000       15.9994           0
     37369 TIP3     4996     TIP3     H1       HT       0.417000       1.00800           0
     37370 TIP3     4996     TIP3     H2       HT       0.417000       1.00800           0
     37371 TIP3     4997     TIP3     OH2      OT      -0.834000       15.9994           0
     37372 TIP3     4997     TIP3     H1       HT       0.417000       1.00800           0
     37373 TIP3     4997     TIP3     H2       HT       0.417000       1.00800           0
     37374 TIP3     4998     TIP3     OH2      OT      -0.834000       15.9994           0
     37375 TIP3     4998     TIP3     H1       HT       0.417000       1.00800           0
     37376 TIP3     4998     TIP3     H2       HT       0.417000       1.00800           0
     37377 TIP3     4999     TIP3     OH2      OT      -0.834000       15.9994           0
     37378 TIP3     4999     TIP3     H1       HT       0.417000       1.00800           0
     37379 TIP3     4999     TIP3     H2       HT       0.417000       1.00800           0
     37380 TIP3     5000     TIP3     OH2      OT      -0.834000       15.9994           0
     37381 TIP3     5000     TIP3     H1       HT       0.417000       1.00800           0
     37382 TIP3     5000     TIP3     H2       HT       0.417000       1.00800           0
     37383 TIP3     5001     TIP3     OH2      OT      -0.834000       15.9994           0
     37384 TIP3     5001     TIP3     H1       HT       0.417000       1.00800           0
     37385 TIP3     5001     TIP3     H2       HT       0.417000       1.00800           0
     37386 TIP3     5002     TIP3     OH2      OT      -0.834000       15.9994           0
     37387 TIP3     5002     TIP3     H1       HT       0.417000       1.00800           0
     37388 TIP3     5002     TIP3     H2       HT       0.417000       1.00800           0
     37389 TIP3     5003     TIP3     OH2      OT      -0.834000       15.9994           0
     37390 TIP3     5003     TIP3     H1       HT       0.417000       1.00800           0
     37391 TIP3     5003     TIP3     H2       HT       0.417000       1.00800           0
     37392 TIP3     5004     TIP3     OH2      OT      -0.834000       15.9994           0
     37393 TIP3     5004     TIP3     H1       HT       0.417000       1.00800           0
     37394 TIP3     5004     TIP3     H2       HT       0.417000       1.00800           0
     37395 TIP3     5005     TIP3     OH2      OT      -0.834000       15.9994           0
     37396 TIP3     5005     TIP3     H1       HT       0.417000       1.00800           0
     37397 TIP3     5005     TIP3     H2       HT       0.417000       1.00800           0
     37398 TIP3     5006     TIP3     OH2      OT      -0.834000       15.9994           0
     37399 TIP3     5006     TIP3     H1       HT       0.417000       1.00800           0
     37400 TIP3     5006     TIP3     H2       HT       0.417000       1.00800           0
     37401 TIP3     5007     TIP3     OH2      OT      -0.834000       15.9994           0
     37402 TIP3     5007     TIP3     H1       HT       0.417000       1.00800           0
     37403 TIP3     5007     TIP3     H2       HT       0.417000       1.00800           0
     37404 TIP3     5008     TIP3     OH2      OT      -0.834000       15.9994           0
     37405 TIP3     5008     TIP3     H1       HT       0.417000       1.00800           0
     37406 TIP3     5008     TIP3     H2       HT       0.417000       1.00800           0
     37407 TIP3     5009     TIP3     OH2      OT      -0.834000       15.9994           0
     37408 TIP3     5009     TIP3     H1       HT       0.417000       1.00800           0
     37409 TIP3     5009     TIP3     H2       HT       0.417000       1.00800           0
     37410 TIP3     5010     TIP3     OH2      OT      -0.834000       15.9994           0
     37411 TIP3     5010     TIP3     H1       HT       0.417000       1.00800           0
     37412 TIP3     5010     TIP3     H2       HT       0.417000       1.00800           0
     37413 TIP3     5011     TIP3     OH2      OT      -0.834000       15.9994           0
     37414 TIP3     5011     TIP3     H1       HT       0.417000       1.00800           0
     37415 TIP3     5011     TIP3     H2       HT       0.417000       1.00800           0
     37416 TIP3     5012     TIP3     OH2      OT      -0.834000       15.9994           0
     37417 TIP3     5012     TIP3     H1       HT       0.417000       1.00800           0
     37418 TIP3     5012     TIP3     H2       HT       0.417000       1.00800           0
     37419 TIP3     5013     TIP3     OH2      OT      -0.834000       15.9994           0
     37420 TIP3     5013     TIP3     H1       HT       0.417000       1.00800           0
     37421 TIP3     5013     TIP3     H2       HT       0.417000       1.00800           0
     37422 TIP3     5014     TIP3     OH2      OT      -0.834000       15.9994           0
     37423 TIP3     5014     TIP3     H1       HT       0.417000       1.00800           0
     37424 TIP3     5014     TIP3     H2       HT       0.417000       1.00800           0
     37425 TIP3     5015     TIP3     OH2      OT      -0.834000       15.9994           0
     37426 TIP3     5015     TIP3     H1       HT       0.417000       1.00800           0
     37427 TIP3     5015     TIP3     H2       HT       0.417000       1.00800           0
     37428 TIP3     5016     TIP3     OH2      OT      -0.834000       15.9994           0
     37429 TIP3     5016     TIP3     H1       HT       0.417000       1.00800           0
     37430 TIP3     5016     TIP3     H2       HT       0.417000       1.00800           0
     37431 TIP3     5017     TIP3     OH2      OT      -0.834000       15.9994           0
     37432 TIP3     5017     TIP3     H1       HT       0.417000       1.00800           0
     37433 TIP3     5017     TIP3     H2       HT       0.417000       1.00800           0
     37434 TIP3     5018     TIP3     OH2      OT      -0.834000       15.9994           0
     37435 TIP3     5018     TIP3     H1       HT       0.417000       1.00800           0
     37436 TIP3     5018     TIP3     H2       HT       0.417000       1.00800           0
     37437 TIP3     5019     TIP3     OH2      OT      -0.834000       15.9994           0
     37438 TIP3     5019     TIP3     H1       HT       0.417000       1.00800           0
     37439 TIP3     5019     TIP3     H2       HT       0.417000       1.00800           0
     37440 TIP3     5020     TIP3     OH2      OT      -0.834000       15.9994           0
     37441 TIP3     5020     TIP3     H1       HT       0.417000       1.00800           0
     37442 TIP3     5020     TIP3     H2       HT       0.417000       1.00800           0
     37443 TIP3     5021     TIP3     OH2      OT      -0.834000       15.9994           0
     37444 TIP3     5021     TIP3     H1       HT       0.417000       1.00800           0
     37445 TIP3     5021     TIP3     H2       HT       0.417000       1.00800           0
     37446 TIP3     5022     TIP3     OH2      OT      -0.834000       15.9994           0
     37447 TIP3     5022     TIP3     H1       HT       0.417000       1.00800           0
     37448 TIP3     5022     TIP3     H2       HT       0.417000       1.00800           0
     37449 TIP3     5023     TIP3     OH2      OT      -0.834000       15.9994           0
     37450 TIP3     5023     TIP3     H1       HT       0.417000       1.00800           0
     37451 TIP3     5023     TIP3     H2       HT       0.417000       1.00800           0
     37452 TIP3     5024     TIP3     OH2      OT      -0.834000       15.9994           0
     37453 TIP3     5024     TIP3     H1       HT       0.417000       1.00800           0
     37454 TIP3     5024     TIP3     H2       HT       0.417000       1.00800           0
     37455 TIP3     5025     TIP3     OH2      OT      -0.834000       15.9994           0
     37456 TIP3     5025     TIP3     H1       HT       0.417000       1.00800           0
     37457 TIP3     5025     TIP3     H2       HT       0.417000       1.00800           0
     37458 TIP3     5026     TIP3     OH2      OT      -0.834000       15.9994           0
     37459 TIP3     5026     TIP3     H1       HT       0.417000       1.00800           0
     37460 TIP3     5026     TIP3     H2       HT       0.417000       1.00800           0
     37461 TIP3     5027     TIP3     OH2      OT      -0.834000       15.9994           0
     37462 TIP3     5027     TIP3     H1       HT       0.417000       1.00800           0
     37463 TIP3     5027     TIP3     H2       HT       0.417000       1.00800           0
     37464 TIP3     5028     TIP3     OH2      OT      -0.834000       15.9994           0
     37465 TIP3     5028     TIP3     H1       HT       0.417000       1.00800           0
     37466 TIP3     5028     TIP3     H2       HT       0.417000       1.00800           0
     37467 TIP3     5029     TIP3     OH2      OT      -0.834000       15.9994           0
     37468 TIP3     5029     TIP3     H1       HT       0.417000       1.00800           0
     37469 TIP3     5029     TIP3     H2       HT       0.417000       1.00800           0
     37470 TIP3     5030     TIP3     OH2      OT      -0.834000       15.9994           0
     37471 TIP3     5030     TIP3     H1       HT       0.417000       1.00800           0
     37472 TIP3     5030     TIP3     H2       HT       0.417000       1.00800           0
     37473 TIP3     5031     TIP3     OH2      OT      -0.834000       15.9994           0
     37474 TIP3     5031     TIP3     H1       HT       0.417000       1.00800           0
     37475 TIP3     5031     TIP3     H2       HT       0.417000       1.00800           0
     37476 TIP3     5032     TIP3     OH2      OT      -0.834000       15.9994           0
     37477 TIP3     5032     TIP3     H1       HT       0.417000       1.00800           0
     37478 TIP3     5032     TIP3     H2       HT       0.417000       1.00800           0
     37479 TIP3     5033     TIP3     OH2      OT      -0.834000       15.9994           0
     37480 TIP3     5033     TIP3     H1       HT       0.417000       1.00800           0
     37481 TIP3     5033     TIP3     H2       HT       0.417000       1.00800           0
     37482 TIP3     5034     TIP3     OH2      OT      -0.834000       15.9994           0
     37483 TIP3     5034     TIP3     H1       HT       0.417000       1.00800           0
     37484 TIP3     5034     TIP3     H2       HT       0.417000       1.00800           0
     37485 TIP3     5035     TIP3     OH2      OT      -0.834000       15.9994           0
     37486 TIP3     5035     TIP3     H1       HT       0.417000       1.00800           0
     37487 TIP3     5035     TIP3     H2       HT       0.417000       1.00800           0
     37488 TIP3     5036     TIP3     OH2      OT      -0.834000       15.9994           0
     37489 TIP3     5036     TIP3     H1       HT       0.417000       1.00800           0
     37490 TIP3     5036     TIP3     H2       HT       0.417000       1.00800           0
     37491 TIP3     5037     TIP3     OH2      OT      -0.834000       15.9994           0
     37492 TIP3     5037     TIP3     H1       HT       0.417000       1.00800           0
     37493 TIP3     5037     TIP3     H2       HT       0.417000       1.00800           0
     37494 TIP3     5038     TIP3     OH2      OT      -0.834000       15.9994           0
     37495 TIP3     5038     TIP3     H1       HT       0.417000       1.00800           0
     37496 TIP3     5038     TIP3     H2       HT       0.417000       1.00800           0
     37497 TIP3     5039     TIP3     OH2      OT      -0.834000       15.9994           0
     37498 TIP3     5039     TIP3     H1       HT       0.417000       1.00800           0
     37499 TIP3     5039     TIP3     H2       HT       0.417000       1.00800           0
     37500 TIP3     5040     TIP3     OH2      OT      -0.834000       15.9994           0
     37501 TIP3     5040     TIP3     H1       HT       0.417000       1.00800           0
     37502 TIP3     5040     TIP3     H2       HT       0.417000       1.00800           0
     37503 TIP3     5041     TIP3     OH2      OT      -0.834000       15.9994           0
     37504 TIP3     5041     TIP3     H1       HT       0.417000       1.00800           0
     37505 TIP3     5041     TIP3     H2       HT       0.417000       1.00800           0
     37506 TIP3     5042     TIP3     OH2      OT      -0.834000       15.9994           0
     37507 TIP3     5042     TIP3     H1       HT       0.417000       1.00800           0
     37508 TIP3     5042     TIP3     H2       HT       0.417000       1.00800           0
     37509 TIP3     5043     TIP3     OH2      OT      -0.834000       15.9994           0
     37510 TIP3     5043     TIP3     H1       HT       0.417000       1.00800           0
     37511 TIP3     5043     TIP3     H2       HT       0.417000       1.00800           0
     37512 TIP3     5044     TIP3     OH2      OT      -0.834000       15.9994           0
     37513 TIP3     5044     TIP3     H1       HT       0.417000       1.00800           0
     37514 TIP3     5044     TIP3     H2       HT       0.417000       1.00800           0
     37515 TIP3     5045     TIP3     OH2      OT      -0.834000       15.9994           0
     37516 TIP3     5045     TIP3     H1       HT       0.417000       1.00800           0
     37517 TIP3     5045     TIP3     H2       HT       0.417000       1.00800           0
     37518 TIP3     5046     TIP3     OH2      OT      -0.834000       15.9994           0
     37519 TIP3     5046     TIP3     H1       HT       0.417000       1.00800           0
     37520 TIP3     5046     TIP3     H2       HT       0.417000       1.00800           0
     37521 TIP3     5047     TIP3     OH2      OT      -0.834000       15.9994           0
     37522 TIP3     5047     TIP3     H1       HT       0.417000       1.00800           0
     37523 TIP3     5047     TIP3     H2       HT       0.417000       1.00800           0
     37524 TIP3     5048     TIP3     OH2      OT      -0.834000       15.9994           0
     37525 TIP3     5048     TIP3     H1       HT       0.417000       1.00800           0
     37526 TIP3     5048     TIP3     H2       HT       0.417000       1.00800           0
     37527 TIP3     5049     TIP3     OH2      OT      -0.834000       15.9994           0
     37528 TIP3     5049     TIP3     H1       HT       0.417000       1.00800           0
     37529 TIP3     5049     TIP3     H2       HT       0.417000       1.00800           0
     37530 TIP3     5050     TIP3     OH2      OT      -0.834000       15.9994           0
     37531 TIP3     5050     TIP3     H1       HT       0.417000       1.00800           0
     37532 TIP3     5050     TIP3     H2       HT       0.417000       1.00800           0
     37533 TIP3     5051     TIP3     OH2      OT      -0.834000       15.9994           0
     37534 TIP3     5051     TIP3     H1       HT       0.417000       1.00800           0
     37535 TIP3     5051     TIP3     H2       HT       0.417000       1.00800           0
     37536 TIP3     5052     TIP3     OH2      OT      -0.834000       15.9994           0
     37537 TIP3     5052     TIP3     H1       HT       0.417000       1.00800           0
     37538 TIP3     5052     TIP3     H2       HT       0.417000       1.00800           0
     37539 TIP3     5053     TIP3     OH2      OT      -0.834000       15.9994           0
     37540 TIP3     5053     TIP3     H1       HT       0.417000       1.00800           0
     37541 TIP3     5053     TIP3     H2       HT       0.417000       1.00800           0
     37542 TIP3     5054     TIP3     OH2      OT      -0.834000       15.9994           0
     37543 TIP3     5054     TIP3     H1       HT       0.417000       1.00800           0
     37544 TIP3     5054     TIP3     H2       HT       0.417000       1.00800           0
     37545 TIP3     5055     TIP3     OH2      OT      -0.834000       15.9994           0
     37546 TIP3     5055     TIP3     H1       HT       0.417000       1.00800           0
     37547 TIP3     5055     TIP3     H2       HT       0.417000       1.00800           0
     37548 TIP3     5056     TIP3     OH2      OT      -0.834000       15.9994           0
     37549 TIP3     5056     TIP3     H1       HT       0.417000       1.00800           0
     37550 TIP3     5056     TIP3     H2       HT       0.417000       1.00800           0
     37551 TIP3     5057     TIP3     OH2      OT      -0.834000       15.9994           0
     37552 TIP3     5057     TIP3     H1       HT       0.417000       1.00800           0
     37553 TIP3     5057     TIP3     H2       HT       0.417000       1.00800           0
     37554 TIP3     5058     TIP3     OH2      OT      -0.834000       15.9994           0
     37555 TIP3     5058     TIP3     H1       HT       0.417000       1.00800           0
     37556 TIP3     5058     TIP3     H2       HT       0.417000       1.00800           0
     37557 TIP3     5059     TIP3     OH2      OT      -0.834000       15.9994           0
     37558 TIP3     5059     TIP3     H1       HT       0.417000       1.00800           0
     37559 TIP3     5059     TIP3     H2       HT       0.417000       1.00800           0
     37560 TIP3     5060     TIP3     OH2      OT      -0.834000       15.9994           0
     37561 TIP3     5060     TIP3     H1       HT       0.417000       1.00800           0
     37562 TIP3     5060     TIP3     H2       HT       0.417000       1.00800           0
     37563 TIP3     5061     TIP3     OH2      OT      -0.834000       15.9994           0
     37564 TIP3     5061     TIP3     H1       HT       0.417000       1.00800           0
     37565 TIP3     5061     TIP3     H2       HT       0.417000       1.00800           0
     37566 TIP3     5062     TIP3     OH2      OT      -0.834000       15.9994           0
     37567 TIP3     5062     TIP3     H1       HT       0.417000       1.00800           0
     37568 TIP3     5062     TIP3     H2       HT       0.417000       1.00800           0
     37569 TIP3     5063     TIP3     OH2      OT      -0.834000       15.9994           0
     37570 TIP3     5063     TIP3     H1       HT       0.417000       1.00800           0
     37571 TIP3     5063     TIP3     H2       HT       0.417000       1.00800           0
     37572 TIP3     5064     TIP3     OH2      OT      -0.834000       15.9994           0
     37573 TIP3     5064     TIP3     H1       HT       0.417000       1.00800           0
     37574 TIP3     5064     TIP3     H2       HT       0.417000       1.00800           0
     37575 TIP3     5065     TIP3     OH2      OT      -0.834000       15.9994           0
     37576 TIP3     5065     TIP3     H1       HT       0.417000       1.00800           0
     37577 TIP3     5065     TIP3     H2       HT       0.417000       1.00800           0
     37578 TIP3     5066     TIP3     OH2      OT      -0.834000       15.9994           0
     37579 TIP3     5066     TIP3     H1       HT       0.417000       1.00800           0
     37580 TIP3     5066     TIP3     H2       HT       0.417000       1.00800           0
     37581 TIP3     5067     TIP3     OH2      OT      -0.834000       15.9994           0
     37582 TIP3     5067     TIP3     H1       HT       0.417000       1.00800           0
     37583 TIP3     5067     TIP3     H2       HT       0.417000       1.00800           0
     37584 TIP3     5068     TIP3     OH2      OT      -0.834000       15.9994           0
     37585 TIP3     5068     TIP3     H1       HT       0.417000       1.00800           0
     37586 TIP3     5068     TIP3     H2       HT       0.417000       1.00800           0
     37587 TIP3     5069     TIP3     OH2      OT      -0.834000       15.9994           0
     37588 TIP3     5069     TIP3     H1       HT       0.417000       1.00800           0
     37589 TIP3     5069     TIP3     H2       HT       0.417000       1.00800           0
     37590 TIP3     5070     TIP3     OH2      OT      -0.834000       15.9994           0
     37591 TIP3     5070     TIP3     H1       HT       0.417000       1.00800           0
     37592 TIP3     5070     TIP3     H2       HT       0.417000       1.00800           0
     37593 TIP3     5071     TIP3     OH2      OT      -0.834000       15.9994           0
     37594 TIP3     5071     TIP3     H1       HT       0.417000       1.00800           0
     37595 TIP3     5071     TIP3     H2       HT       0.417000       1.00800           0
     37596 TIP3     5072     TIP3     OH2      OT      -0.834000       15.9994           0
     37597 TIP3     5072     TIP3     H1       HT       0.417000       1.00800           0
     37598 TIP3     5072     TIP3     H2       HT       0.417000       1.00800           0
     37599 TIP3     5073     TIP3     OH2      OT      -0.834000       15.9994           0
     37600 TIP3     5073     TIP3     H1       HT       0.417000       1.00800           0
     37601 TIP3     5073     TIP3     H2       HT       0.417000       1.00800           0
     37602 TIP3     5074     TIP3     OH2      OT      -0.834000       15.9994           0
     37603 TIP3     5074     TIP3     H1       HT       0.417000       1.00800           0
     37604 TIP3     5074     TIP3     H2       HT       0.417000       1.00800           0
     37605 TIP3     5075     TIP3     OH2      OT      -0.834000       15.9994           0
     37606 TIP3     5075     TIP3     H1       HT       0.417000       1.00800           0
     37607 TIP3     5075     TIP3     H2       HT       0.417000       1.00800           0
     37608 TIP3     5076     TIP3     OH2      OT      -0.834000       15.9994           0
     37609 TIP3     5076     TIP3     H1       HT       0.417000       1.00800           0
     37610 TIP3     5076     TIP3     H2       HT       0.417000       1.00800           0
     37611 TIP3     5077     TIP3     OH2      OT      -0.834000       15.9994           0
     37612 TIP3     5077     TIP3     H1       HT       0.417000       1.00800           0
     37613 TIP3     5077     TIP3     H2       HT       0.417000       1.00800           0
     37614 TIP3     5078     TIP3     OH2      OT      -0.834000       15.9994           0
     37615 TIP3     5078     TIP3     H1       HT       0.417000       1.00800           0
     37616 TIP3     5078     TIP3     H2       HT       0.417000       1.00800           0
     37617 TIP3     5079     TIP3     OH2      OT      -0.834000       15.9994           0
     37618 TIP3     5079     TIP3     H1       HT       0.417000       1.00800           0
     37619 TIP3     5079     TIP3     H2       HT       0.417000       1.00800           0
     37620 TIP3     5080     TIP3     OH2      OT      -0.834000       15.9994           0
     37621 TIP3     5080     TIP3     H1       HT       0.417000       1.00800           0
     37622 TIP3     5080     TIP3     H2       HT       0.417000       1.00800           0
     37623 TIP3     5081     TIP3     OH2      OT      -0.834000       15.9994           0
     37624 TIP3     5081     TIP3     H1       HT       0.417000       1.00800           0
     37625 TIP3     5081     TIP3     H2       HT       0.417000       1.00800           0
     37626 TIP3     5082     TIP3     OH2      OT      -0.834000       15.9994           0
     37627 TIP3     5082     TIP3     H1       HT       0.417000       1.00800           0
     37628 TIP3     5082     TIP3     H2       HT       0.417000       1.00800           0
     37629 TIP3     5083     TIP3     OH2      OT      -0.834000       15.9994           0
     37630 TIP3     5083     TIP3     H1       HT       0.417000       1.00800           0
     37631 TIP3     5083     TIP3     H2       HT       0.417000       1.00800           0
     37632 TIP3     5084     TIP3     OH2      OT      -0.834000       15.9994           0
     37633 TIP3     5084     TIP3     H1       HT       0.417000       1.00800           0
     37634 TIP3     5084     TIP3     H2       HT       0.417000       1.00800           0
     37635 TIP3     5085     TIP3     OH2      OT      -0.834000       15.9994           0
     37636 TIP3     5085     TIP3     H1       HT       0.417000       1.00800           0
     37637 TIP3     5085     TIP3     H2       HT       0.417000       1.00800           0
     37638 TIP3     5086     TIP3     OH2      OT      -0.834000       15.9994           0
     37639 TIP3     5086     TIP3     H1       HT       0.417000       1.00800           0
     37640 TIP3     5086     TIP3     H2       HT       0.417000       1.00800           0
     37641 TIP3     5087     TIP3     OH2      OT      -0.834000       15.9994           0
     37642 TIP3     5087     TIP3     H1       HT       0.417000       1.00800           0
     37643 TIP3     5087     TIP3     H2       HT       0.417000       1.00800           0
     37644 TIP3     5088     TIP3     OH2      OT      -0.834000       15.9994           0
     37645 TIP3     5088     TIP3     H1       HT       0.417000       1.00800           0
     37646 TIP3     5088     TIP3     H2       HT       0.417000       1.00800           0
     37647 TIP3     5089     TIP3     OH2      OT      -0.834000       15.9994           0
     37648 TIP3     5089     TIP3     H1       HT       0.417000       1.00800           0
     37649 TIP3     5089     TIP3     H2       HT       0.417000       1.00800           0
     37650 TIP3     5090     TIP3     OH2      OT      -0.834000       15.9994           0
     37651 TIP3     5090     TIP3     H1       HT       0.417000       1.00800           0
     37652 TIP3     5090     TIP3     H2       HT       0.417000       1.00800           0
     37653 TIP3     5091     TIP3     OH2      OT      -0.834000       15.9994           0
     37654 TIP3     5091     TIP3     H1       HT       0.417000       1.00800           0
     37655 TIP3     5091     TIP3     H2       HT       0.417000       1.00800           0
     37656 TIP3     5092     TIP3     OH2      OT      -0.834000       15.9994           0
     37657 TIP3     5092     TIP3     H1       HT       0.417000       1.00800           0
     37658 TIP3     5092     TIP3     H2       HT       0.417000       1.00800           0
     37659 TIP3     5093     TIP3     OH2      OT      -0.834000       15.9994           0
     37660 TIP3     5093     TIP3     H1       HT       0.417000       1.00800           0
     37661 TIP3     5093     TIP3     H2       HT       0.417000       1.00800           0
     37662 TIP3     5094     TIP3     OH2      OT      -0.834000       15.9994           0
     37663 TIP3     5094     TIP3     H1       HT       0.417000       1.00800           0
     37664 TIP3     5094     TIP3     H2       HT       0.417000       1.00800           0
     37665 TIP3     5095     TIP3     OH2      OT      -0.834000       15.9994           0
     37666 TIP3     5095     TIP3     H1       HT       0.417000       1.00800           0
     37667 TIP3     5095     TIP3     H2       HT       0.417000       1.00800           0
     37668 TIP3     5096     TIP3     OH2      OT      -0.834000       15.9994           0
     37669 TIP3     5096     TIP3     H1       HT       0.417000       1.00800           0
     37670 TIP3     5096     TIP3     H2       HT       0.417000       1.00800           0
     37671 TIP3     5097     TIP3     OH2      OT      -0.834000       15.9994           0
     37672 TIP3     5097     TIP3     H1       HT       0.417000       1.00800           0
     37673 TIP3     5097     TIP3     H2       HT       0.417000       1.00800           0
     37674 TIP3     5098     TIP3     OH2      OT      -0.834000       15.9994           0
     37675 TIP3     5098     TIP3     H1       HT       0.417000       1.00800           0
     37676 TIP3     5098     TIP3     H2       HT       0.417000       1.00800           0
     37677 TIP3     5099     TIP3     OH2      OT      -0.834000       15.9994           0
     37678 TIP3     5099     TIP3     H1       HT       0.417000       1.00800           0
     37679 TIP3     5099     TIP3     H2       HT       0.417000       1.00800           0
     37680 TIP3     5100     TIP3     OH2      OT      -0.834000       15.9994           0
     37681 TIP3     5100     TIP3     H1       HT       0.417000       1.00800           0
     37682 TIP3     5100     TIP3     H2       HT       0.417000       1.00800           0
     37683 TIP3     5101     TIP3     OH2      OT      -0.834000       15.9994           0
     37684 TIP3     5101     TIP3     H1       HT       0.417000       1.00800           0
     37685 TIP3     5101     TIP3     H2       HT       0.417000       1.00800           0
     37686 TIP3     5102     TIP3     OH2      OT      -0.834000       15.9994           0
     37687 TIP3     5102     TIP3     H1       HT       0.417000       1.00800           0
     37688 TIP3     5102     TIP3     H2       HT       0.417000       1.00800           0
     37689 TIP3     5103     TIP3     OH2      OT      -0.834000       15.9994           0
     37690 TIP3     5103     TIP3     H1       HT       0.417000       1.00800           0
     37691 TIP3     5103     TIP3     H2       HT       0.417000       1.00800           0
     37692 TIP3     5104     TIP3     OH2      OT      -0.834000       15.9994           0
     37693 TIP3     5104     TIP3     H1       HT       0.417000       1.00800           0
     37694 TIP3     5104     TIP3     H2       HT       0.417000       1.00800           0
     37695 TIP3     5105     TIP3     OH2      OT      -0.834000       15.9994           0
     37696 TIP3     5105     TIP3     H1       HT       0.417000       1.00800           0
     37697 TIP3     5105     TIP3     H2       HT       0.417000       1.00800           0
     37698 TIP3     5106     TIP3     OH2      OT      -0.834000       15.9994           0
     37699 TIP3     5106     TIP3     H1       HT       0.417000       1.00800           0
     37700 TIP3     5106     TIP3     H2       HT       0.417000       1.00800           0
     37701 TIP3     5107     TIP3     OH2      OT      -0.834000       15.9994           0
     37702 TIP3     5107     TIP3     H1       HT       0.417000       1.00800           0
     37703 TIP3     5107     TIP3     H2       HT       0.417000       1.00800           0
     37704 TIP3     5108     TIP3     OH2      OT      -0.834000       15.9994           0
     37705 TIP3     5108     TIP3     H1       HT       0.417000       1.00800           0
     37706 TIP3     5108     TIP3     H2       HT       0.417000       1.00800           0
     37707 TIP3     5109     TIP3     OH2      OT      -0.834000       15.9994           0
     37708 TIP3     5109     TIP3     H1       HT       0.417000       1.00800           0
     37709 TIP3     5109     TIP3     H2       HT       0.417000       1.00800           0
     37710 TIP3     5110     TIP3     OH2      OT      -0.834000       15.9994           0
     37711 TIP3     5110     TIP3     H1       HT       0.417000       1.00800           0
     37712 TIP3     5110     TIP3     H2       HT       0.417000       1.00800           0
     37713 TIP3     5111     TIP3     OH2      OT      -0.834000       15.9994           0
     37714 TIP3     5111     TIP3     H1       HT       0.417000       1.00800           0
     37715 TIP3     5111     TIP3     H2       HT       0.417000       1.00800           0
     37716 TIP3     5112     TIP3     OH2      OT      -0.834000       15.9994           0
     37717 TIP3     5112     TIP3     H1       HT       0.417000       1.00800           0
     37718 TIP3     5112     TIP3     H2       HT       0.417000       1.00800           0
     37719 TIP3     5113     TIP3     OH2      OT      -0.834000       15.9994           0
     37720 TIP3     5113     TIP3     H1       HT       0.417000       1.00800           0
     37721 TIP3     5113     TIP3     H2       HT       0.417000       1.00800           0
     37722 TIP3     5114     TIP3     OH2      OT      -0.834000       15.9994           0
     37723 TIP3     5114     TIP3     H1       HT       0.417000       1.00800           0
     37724 TIP3     5114     TIP3     H2       HT       0.417000       1.00800           0
     37725 TIP3     5115     TIP3     OH2      OT      -0.834000       15.9994           0
     37726 TIP3     5115     TIP3     H1       HT       0.417000       1.00800           0
     37727 TIP3     5115     TIP3     H2       HT       0.417000       1.00800           0
     37728 TIP3     5116     TIP3     OH2      OT      -0.834000       15.9994           0
     37729 TIP3     5116     TIP3     H1       HT       0.417000       1.00800           0
     37730 TIP3     5116     TIP3     H2       HT       0.417000       1.00800           0
     37731 TIP3     5117     TIP3     OH2      OT      -0.834000       15.9994           0
     37732 TIP3     5117     TIP3     H1       HT       0.417000       1.00800           0
     37733 TIP3     5117     TIP3     H2       HT       0.417000       1.00800           0
     37734 TIP3     5118     TIP3     OH2      OT      -0.834000       15.9994           0
     37735 TIP3     5118     TIP3     H1       HT       0.417000       1.00800           0
     37736 TIP3     5118     TIP3     H2       HT       0.417000       1.00800           0
     37737 TIP3     5119     TIP3     OH2      OT      -0.834000       15.9994           0
     37738 TIP3     5119     TIP3     H1       HT       0.417000       1.00800           0
     37739 TIP3     5119     TIP3     H2       HT       0.417000       1.00800           0
     37740 TIP3     5120     TIP3     OH2      OT      -0.834000       15.9994           0
     37741 TIP3     5120     TIP3     H1       HT       0.417000       1.00800           0
     37742 TIP3     5120     TIP3     H2       HT       0.417000       1.00800           0
     37743 TIP3     5121     TIP3     OH2      OT      -0.834000       15.9994           0
     37744 TIP3     5121     TIP3     H1       HT       0.417000       1.00800           0
     37745 TIP3     5121     TIP3     H2       HT       0.417000       1.00800           0
     37746 TIP3     5122     TIP3     OH2      OT      -0.834000       15.9994           0
     37747 TIP3     5122     TIP3     H1       HT       0.417000       1.00800           0
     37748 TIP3     5122     TIP3     H2       HT       0.417000       1.00800           0
     37749 TIP3     5123     TIP3     OH2      OT      -0.834000       15.9994           0
     37750 TIP3     5123     TIP3     H1       HT       0.417000       1.00800           0
     37751 TIP3     5123     TIP3     H2       HT       0.417000       1.00800           0
     37752 TIP3     5124     TIP3     OH2      OT      -0.834000       15.9994           0
     37753 TIP3     5124     TIP3     H1       HT       0.417000       1.00800           0
     37754 TIP3     5124     TIP3     H2       HT       0.417000       1.00800           0
     37755 TIP3     5125     TIP3     OH2      OT      -0.834000       15.9994           0
     37756 TIP3     5125     TIP3     H1       HT       0.417000       1.00800           0
     37757 TIP3     5125     TIP3     H2       HT       0.417000       1.00800           0
     37758 TIP3     5126     TIP3     OH2      OT      -0.834000       15.9994           0
     37759 TIP3     5126     TIP3     H1       HT       0.417000       1.00800           0
     37760 TIP3     5126     TIP3     H2       HT       0.417000       1.00800           0
     37761 TIP3     5127     TIP3     OH2      OT      -0.834000       15.9994           0
     37762 TIP3     5127     TIP3     H1       HT       0.417000       1.00800           0
     37763 TIP3     5127     TIP3     H2       HT       0.417000       1.00800           0
     37764 TIP3     5128     TIP3     OH2      OT      -0.834000       15.9994           0
     37765 TIP3     5128     TIP3     H1       HT       0.417000       1.00800           0
     37766 TIP3     5128     TIP3     H2       HT       0.417000       1.00800           0
     37767 TIP3     5129     TIP3     OH2      OT      -0.834000       15.9994           0
     37768 TIP3     5129     TIP3     H1       HT       0.417000       1.00800           0
     37769 TIP3     5129     TIP3     H2       HT       0.417000       1.00800           0
     37770 TIP3     5130     TIP3     OH2      OT      -0.834000       15.9994           0
     37771 TIP3     5130     TIP3     H1       HT       0.417000       1.00800           0
     37772 TIP3     5130     TIP3     H2       HT       0.417000       1.00800           0
     37773 TIP3     5131     TIP3     OH2      OT      -0.834000       15.9994           0
     37774 TIP3     5131     TIP3     H1       HT       0.417000       1.00800           0
     37775 TIP3     5131     TIP3     H2       HT       0.417000       1.00800           0
     37776 TIP3     5132     TIP3     OH2      OT      -0.834000       15.9994           0
     37777 TIP3     5132     TIP3     H1       HT       0.417000       1.00800           0
     37778 TIP3     5132     TIP3     H2       HT       0.417000       1.00800           0
     37779 TIP3     5133     TIP3     OH2      OT      -0.834000       15.9994           0
     37780 TIP3     5133     TIP3     H1       HT       0.417000       1.00800           0
     37781 TIP3     5133     TIP3     H2       HT       0.417000       1.00800           0
     37782 TIP3     5134     TIP3     OH2      OT      -0.834000       15.9994           0
     37783 TIP3     5134     TIP3     H1       HT       0.417000       1.00800           0
     37784 TIP3     5134     TIP3     H2       HT       0.417000       1.00800           0
     37785 TIP3     5135     TIP3     OH2      OT      -0.834000       15.9994           0
     37786 TIP3     5135     TIP3     H1       HT       0.417000       1.00800           0
     37787 TIP3     5135     TIP3     H2       HT       0.417000       1.00800           0
     37788 TIP3     5136     TIP3     OH2      OT      -0.834000       15.9994           0
     37789 TIP3     5136     TIP3     H1       HT       0.417000       1.00800           0
     37790 TIP3     5136     TIP3     H2       HT       0.417000       1.00800           0
     37791 TIP3     5137     TIP3     OH2      OT      -0.834000       15.9994           0
     37792 TIP3     5137     TIP3     H1       HT       0.417000       1.00800           0
     37793 TIP3     5137     TIP3     H2       HT       0.417000       1.00800           0
     37794 TIP3     5138     TIP3     OH2      OT      -0.834000       15.9994           0
     37795 TIP3     5138     TIP3     H1       HT       0.417000       1.00800           0
     37796 TIP3     5138     TIP3     H2       HT       0.417000       1.00800           0
     37797 TIP3     5139     TIP3     OH2      OT      -0.834000       15.9994           0
     37798 TIP3     5139     TIP3     H1       HT       0.417000       1.00800           0
     37799 TIP3     5139     TIP3     H2       HT       0.417000       1.00800           0
     37800 TIP3     5140     TIP3     OH2      OT      -0.834000       15.9994           0
     37801 TIP3     5140     TIP3     H1       HT       0.417000       1.00800           0
     37802 TIP3     5140     TIP3     H2       HT       0.417000       1.00800           0
     37803 TIP3     5141     TIP3     OH2      OT      -0.834000       15.9994           0
     37804 TIP3     5141     TIP3     H1       HT       0.417000       1.00800           0
     37805 TIP3     5141     TIP3     H2       HT       0.417000       1.00800           0
     37806 TIP3     5142     TIP3     OH2      OT      -0.834000       15.9994           0
     37807 TIP3     5142     TIP3     H1       HT       0.417000       1.00800           0
     37808 TIP3     5142     TIP3     H2       HT       0.417000       1.00800           0
     37809 TIP3     5143     TIP3     OH2      OT      -0.834000       15.9994           0
     37810 TIP3     5143     TIP3     H1       HT       0.417000       1.00800           0
     37811 TIP3     5143     TIP3     H2       HT       0.417000       1.00800           0
     37812 TIP3     5144     TIP3     OH2      OT      -0.834000       15.9994           0
     37813 TIP3     5144     TIP3     H1       HT       0.417000       1.00800           0
     37814 TIP3     5144     TIP3     H2       HT       0.417000       1.00800           0
     37815 TIP3     5145     TIP3     OH2      OT      -0.834000       15.9994           0
     37816 TIP3     5145     TIP3     H1       HT       0.417000       1.00800           0
     37817 TIP3     5145     TIP3     H2       HT       0.417000       1.00800           0
     37818 TIP3     5146     TIP3     OH2      OT      -0.834000       15.9994           0
     37819 TIP3     5146     TIP3     H1       HT       0.417000       1.00800           0
     37820 TIP3     5146     TIP3     H2       HT       0.417000       1.00800           0
     37821 TIP3     5147     TIP3     OH2      OT      -0.834000       15.9994           0
     37822 TIP3     5147     TIP3     H1       HT       0.417000       1.00800           0
     37823 TIP3     5147     TIP3     H2       HT       0.417000       1.00800           0
     37824 TIP3     5148     TIP3     OH2      OT      -0.834000       15.9994           0
     37825 TIP3     5148     TIP3     H1       HT       0.417000       1.00800           0
     37826 TIP3     5148     TIP3     H2       HT       0.417000       1.00800           0
     37827 TIP3     5149     TIP3     OH2      OT      -0.834000       15.9994           0
     37828 TIP3     5149     TIP3     H1       HT       0.417000       1.00800           0
     37829 TIP3     5149     TIP3     H2       HT       0.417000       1.00800           0
     37830 TIP3     5150     TIP3     OH2      OT      -0.834000       15.9994           0
     37831 TIP3     5150     TIP3     H1       HT       0.417000       1.00800           0
     37832 TIP3     5150     TIP3     H2       HT       0.417000       1.00800           0
     37833 TIP3     5151     TIP3     OH2      OT      -0.834000       15.9994           0
     37834 TIP3     5151     TIP3     H1       HT       0.417000       1.00800           0
     37835 TIP3     5151     TIP3     H2       HT       0.417000       1.00800           0
     37836 TIP3     5152     TIP3     OH2      OT      -0.834000       15.9994           0
     37837 TIP3     5152     TIP3     H1       HT       0.417000       1.00800           0
     37838 TIP3     5152     TIP3     H2       HT       0.417000       1.00800           0
     37839 TIP3     5153     TIP3     OH2      OT      -0.834000       15.9994           0
     37840 TIP3     5153     TIP3     H1       HT       0.417000       1.00800           0
     37841 TIP3     5153     TIP3     H2       HT       0.417000       1.00800           0
     37842 TIP3     5154     TIP3     OH2      OT      -0.834000       15.9994           0
     37843 TIP3     5154     TIP3     H1       HT       0.417000       1.00800           0
     37844 TIP3     5154     TIP3     H2       HT       0.417000       1.00800           0
     37845 TIP3     5155     TIP3     OH2      OT      -0.834000       15.9994           0
     37846 TIP3     5155     TIP3     H1       HT       0.417000       1.00800           0
     37847 TIP3     5155     TIP3     H2       HT       0.417000       1.00800           0
     37848 TIP3     5156     TIP3     OH2      OT      -0.834000       15.9994           0
     37849 TIP3     5156     TIP3     H1       HT       0.417000       1.00800           0
     37850 TIP3     5156     TIP3     H2       HT       0.417000       1.00800           0
     37851 TIP3     5157     TIP3     OH2      OT      -0.834000       15.9994           0
     37852 TIP3     5157     TIP3     H1       HT       0.417000       1.00800           0
     37853 TIP3     5157     TIP3     H2       HT       0.417000       1.00800           0
     37854 TIP3     5158     TIP3     OH2      OT      -0.834000       15.9994           0
     37855 TIP3     5158     TIP3     H1       HT       0.417000       1.00800           0
     37856 TIP3     5158     TIP3     H2       HT       0.417000       1.00800           0
     37857 TIP3     5159     TIP3     OH2      OT      -0.834000       15.9994           0
     37858 TIP3     5159     TIP3     H1       HT       0.417000       1.00800           0
     37859 TIP3     5159     TIP3     H2       HT       0.417000       1.00800           0
     37860 TIP3     5160     TIP3     OH2      OT      -0.834000       15.9994           0
     37861 TIP3     5160     TIP3     H1       HT       0.417000       1.00800           0
     37862 TIP3     5160     TIP3     H2       HT       0.417000       1.00800           0
     37863 TIP3     5161     TIP3     OH2      OT      -0.834000       15.9994           0
     37864 TIP3     5161     TIP3     H1       HT       0.417000       1.00800           0
     37865 TIP3     5161     TIP3     H2       HT       0.417000       1.00800           0
     37866 TIP3     5162     TIP3     OH2      OT      -0.834000       15.9994           0
     37867 TIP3     5162     TIP3     H1       HT       0.417000       1.00800           0
     37868 TIP3     5162     TIP3     H2       HT       0.417000       1.00800           0
     37869 TIP3     5163     TIP3     OH2      OT      -0.834000       15.9994           0
     37870 TIP3     5163     TIP3     H1       HT       0.417000       1.00800           0
     37871 TIP3     5163     TIP3     H2       HT       0.417000       1.00800           0
     37872 TIP3     5164     TIP3     OH2      OT      -0.834000       15.9994           0
     37873 TIP3     5164     TIP3     H1       HT       0.417000       1.00800           0
     37874 TIP3     5164     TIP3     H2       HT       0.417000       1.00800           0
     37875 TIP3     5165     TIP3     OH2      OT      -0.834000       15.9994           0
     37876 TIP3     5165     TIP3     H1       HT       0.417000       1.00800           0
     37877 TIP3     5165     TIP3     H2       HT       0.417000       1.00800           0
     37878 TIP3     5166     TIP3     OH2      OT      -0.834000       15.9994           0
     37879 TIP3     5166     TIP3     H1       HT       0.417000       1.00800           0
     37880 TIP3     5166     TIP3     H2       HT       0.417000       1.00800           0
     37881 TIP3     5167     TIP3     OH2      OT      -0.834000       15.9994           0
     37882 TIP3     5167     TIP3     H1       HT       0.417000       1.00800           0
     37883 TIP3     5167     TIP3     H2       HT       0.417000       1.00800           0
     37884 TIP3     5168     TIP3     OH2      OT      -0.834000       15.9994           0
     37885 TIP3     5168     TIP3     H1       HT       0.417000       1.00800           0
     37886 TIP3     5168     TIP3     H2       HT       0.417000       1.00800           0
     37887 TIP3     5169     TIP3     OH2      OT      -0.834000       15.9994           0
     37888 TIP3     5169     TIP3     H1       HT       0.417000       1.00800           0
     37889 TIP3     5169     TIP3     H2       HT       0.417000       1.00800           0
     37890 TIP3     5170     TIP3     OH2      OT      -0.834000       15.9994           0
     37891 TIP3     5170     TIP3     H1       HT       0.417000       1.00800           0
     37892 TIP3     5170     TIP3     H2       HT       0.417000       1.00800           0
     37893 TIP3     5171     TIP3     OH2      OT      -0.834000       15.9994           0
     37894 TIP3     5171     TIP3     H1       HT       0.417000       1.00800           0
     37895 TIP3     5171     TIP3     H2       HT       0.417000       1.00800           0
     37896 TIP3     5172     TIP3     OH2      OT      -0.834000       15.9994           0
     37897 TIP3     5172     TIP3     H1       HT       0.417000       1.00800           0
     37898 TIP3     5172     TIP3     H2       HT       0.417000       1.00800           0
     37899 TIP3     5173     TIP3     OH2      OT      -0.834000       15.9994           0
     37900 TIP3     5173     TIP3     H1       HT       0.417000       1.00800           0
     37901 TIP3     5173     TIP3     H2       HT       0.417000       1.00800           0
     37902 TIP3     5174     TIP3     OH2      OT      -0.834000       15.9994           0
     37903 TIP3     5174     TIP3     H1       HT       0.417000       1.00800           0
     37904 TIP3     5174     TIP3     H2       HT       0.417000       1.00800           0
     37905 TIP3     5175     TIP3     OH2      OT      -0.834000       15.9994           0
     37906 TIP3     5175     TIP3     H1       HT       0.417000       1.00800           0
     37907 TIP3     5175     TIP3     H2       HT       0.417000       1.00800           0
     37908 TIP3     5176     TIP3     OH2      OT      -0.834000       15.9994           0
     37909 TIP3     5176     TIP3     H1       HT       0.417000       1.00800           0
     37910 TIP3     5176     TIP3     H2       HT       0.417000       1.00800           0
     37911 TIP3     5177     TIP3     OH2      OT      -0.834000       15.9994           0
     37912 TIP3     5177     TIP3     H1       HT       0.417000       1.00800           0
     37913 TIP3     5177     TIP3     H2       HT       0.417000       1.00800           0
     37914 TIP3     5178     TIP3     OH2      OT      -0.834000       15.9994           0
     37915 TIP3     5178     TIP3     H1       HT       0.417000       1.00800           0
     37916 TIP3     5178     TIP3     H2       HT       0.417000       1.00800           0
     37917 TIP3     5179     TIP3     OH2      OT      -0.834000       15.9994           0
     37918 TIP3     5179     TIP3     H1       HT       0.417000       1.00800           0
     37919 TIP3     5179     TIP3     H2       HT       0.417000       1.00800           0
     37920 TIP3     5180     TIP3     OH2      OT      -0.834000       15.9994           0
     37921 TIP3     5180     TIP3     H1       HT       0.417000       1.00800           0
     37922 TIP3     5180     TIP3     H2       HT       0.417000       1.00800           0
     37923 TIP3     5181     TIP3     OH2      OT      -0.834000       15.9994           0
     37924 TIP3     5181     TIP3     H1       HT       0.417000       1.00800           0
     37925 TIP3     5181     TIP3     H2       HT       0.417000       1.00800           0
     37926 TIP3     5182     TIP3     OH2      OT      -0.834000       15.9994           0
     37927 TIP3     5182     TIP3     H1       HT       0.417000       1.00800           0
     37928 TIP3     5182     TIP3     H2       HT       0.417000       1.00800           0
     37929 TIP3     5183     TIP3     OH2      OT      -0.834000       15.9994           0
     37930 TIP3     5183     TIP3     H1       HT       0.417000       1.00800           0
     37931 TIP3     5183     TIP3     H2       HT       0.417000       1.00800           0
     37932 TIP3     5184     TIP3     OH2      OT      -0.834000       15.9994           0
     37933 TIP3     5184     TIP3     H1       HT       0.417000       1.00800           0
     37934 TIP3     5184     TIP3     H2       HT       0.417000       1.00800           0
     37935 TIP3     5185     TIP3     OH2      OT      -0.834000       15.9994           0
     37936 TIP3     5185     TIP3     H1       HT       0.417000       1.00800           0
     37937 TIP3     5185     TIP3     H2       HT       0.417000       1.00800           0
     37938 TIP3     5186     TIP3     OH2      OT      -0.834000       15.9994           0
     37939 TIP3     5186     TIP3     H1       HT       0.417000       1.00800           0
     37940 TIP3     5186     TIP3     H2       HT       0.417000       1.00800           0
     37941 TIP3     5187     TIP3     OH2      OT      -0.834000       15.9994           0
     37942 TIP3     5187     TIP3     H1       HT       0.417000       1.00800           0
     37943 TIP3     5187     TIP3     H2       HT       0.417000       1.00800           0
     37944 TIP3     5188     TIP3     OH2      OT      -0.834000       15.9994           0
     37945 TIP3     5188     TIP3     H1       HT       0.417000       1.00800           0
     37946 TIP3     5188     TIP3     H2       HT       0.417000       1.00800           0
     37947 TIP3     5189     TIP3     OH2      OT      -0.834000       15.9994           0
     37948 TIP3     5189     TIP3     H1       HT       0.417000       1.00800           0
     37949 TIP3     5189     TIP3     H2       HT       0.417000       1.00800           0
     37950 TIP3     5190     TIP3     OH2      OT      -0.834000       15.9994           0
     37951 TIP3     5190     TIP3     H1       HT       0.417000       1.00800           0
     37952 TIP3     5190     TIP3     H2       HT       0.417000       1.00800           0
     37953 TIP3     5191     TIP3     OH2      OT      -0.834000       15.9994           0
     37954 TIP3     5191     TIP3     H1       HT       0.417000       1.00800           0
     37955 TIP3     5191     TIP3     H2       HT       0.417000       1.00800           0
     37956 TIP3     5192     TIP3     OH2      OT      -0.834000       15.9994           0
     37957 TIP3     5192     TIP3     H1       HT       0.417000       1.00800           0
     37958 TIP3     5192     TIP3     H2       HT       0.417000       1.00800           0
     37959 TIP3     5193     TIP3     OH2      OT      -0.834000       15.9994           0
     37960 TIP3     5193     TIP3     H1       HT       0.417000       1.00800           0
     37961 TIP3     5193     TIP3     H2       HT       0.417000       1.00800           0
     37962 TIP3     5194     TIP3     OH2      OT      -0.834000       15.9994           0
     37963 TIP3     5194     TIP3     H1       HT       0.417000       1.00800           0
     37964 TIP3     5194     TIP3     H2       HT       0.417000       1.00800           0
     37965 TIP3     5195     TIP3     OH2      OT      -0.834000       15.9994           0
     37966 TIP3     5195     TIP3     H1       HT       0.417000       1.00800           0
     37967 TIP3     5195     TIP3     H2       HT       0.417000       1.00800           0
     37968 TIP3     5196     TIP3     OH2      OT      -0.834000       15.9994           0
     37969 TIP3     5196     TIP3     H1       HT       0.417000       1.00800           0
     37970 TIP3     5196     TIP3     H2       HT       0.417000       1.00800           0
     37971 TIP3     5197     TIP3     OH2      OT      -0.834000       15.9994           0
     37972 TIP3     5197     TIP3     H1       HT       0.417000       1.00800           0
     37973 TIP3     5197     TIP3     H2       HT       0.417000       1.00800           0
     37974 TIP3     5198     TIP3     OH2      OT      -0.834000       15.9994           0
     37975 TIP3     5198     TIP3     H1       HT       0.417000       1.00800           0
     37976 TIP3     5198     TIP3     H2       HT       0.417000       1.00800           0
     37977 TIP3     5199     TIP3     OH2      OT      -0.834000       15.9994           0
     37978 TIP3     5199     TIP3     H1       HT       0.417000       1.00800           0
     37979 TIP3     5199     TIP3     H2       HT       0.417000       1.00800           0
     37980 TIP3     5200     TIP3     OH2      OT      -0.834000       15.9994           0
     37981 TIP3     5200     TIP3     H1       HT       0.417000       1.00800           0
     37982 TIP3     5200     TIP3     H2       HT       0.417000       1.00800           0
     37983 TIP3     5201     TIP3     OH2      OT      -0.834000       15.9994           0
     37984 TIP3     5201     TIP3     H1       HT       0.417000       1.00800           0
     37985 TIP3     5201     TIP3     H2       HT       0.417000       1.00800           0
     37986 TIP3     5202     TIP3     OH2      OT      -0.834000       15.9994           0
     37987 TIP3     5202     TIP3     H1       HT       0.417000       1.00800           0
     37988 TIP3     5202     TIP3     H2       HT       0.417000       1.00800           0
     37989 TIP3     5203     TIP3     OH2      OT      -0.834000       15.9994           0
     37990 TIP3     5203     TIP3     H1       HT       0.417000       1.00800           0
     37991 TIP3     5203     TIP3     H2       HT       0.417000       1.00800           0
     37992 TIP3     5204     TIP3     OH2      OT      -0.834000       15.9994           0
     37993 TIP3     5204     TIP3     H1       HT       0.417000       1.00800           0
     37994 TIP3     5204     TIP3     H2       HT       0.417000       1.00800           0
     37995 TIP3     5205     TIP3     OH2      OT      -0.834000       15.9994           0
     37996 TIP3     5205     TIP3     H1       HT       0.417000       1.00800           0
     37997 TIP3     5205     TIP3     H2       HT       0.417000       1.00800           0
     37998 TIP3     5206     TIP3     OH2      OT      -0.834000       15.9994           0
     37999 TIP3     5206     TIP3     H1       HT       0.417000       1.00800           0
     38000 TIP3     5206     TIP3     H2       HT       0.417000       1.00800           0
     38001 TIP3     5207     TIP3     OH2      OT      -0.834000       15.9994           0
     38002 TIP3     5207     TIP3     H1       HT       0.417000       1.00800           0
     38003 TIP3     5207     TIP3     H2       HT       0.417000       1.00800           0
     38004 TIP3     5208     TIP3     OH2      OT      -0.834000       15.9994           0
     38005 TIP3     5208     TIP3     H1       HT       0.417000       1.00800           0
     38006 TIP3     5208     TIP3     H2       HT       0.417000       1.00800           0
     38007 TIP3     5209     TIP3     OH2      OT      -0.834000       15.9994           0
     38008 TIP3     5209     TIP3     H1       HT       0.417000       1.00800           0
     38009 TIP3     5209     TIP3     H2       HT       0.417000       1.00800           0
     38010 TIP3     5210     TIP3     OH2      OT      -0.834000       15.9994           0
     38011 TIP3     5210     TIP3     H1       HT       0.417000       1.00800           0
     38012 TIP3     5210     TIP3     H2       HT       0.417000       1.00800           0
     38013 TIP3     5211     TIP3     OH2      OT      -0.834000       15.9994           0
     38014 TIP3     5211     TIP3     H1       HT       0.417000       1.00800           0
     38015 TIP3     5211     TIP3     H2       HT       0.417000       1.00800           0
     38016 TIP3     5212     TIP3     OH2      OT      -0.834000       15.9994           0
     38017 TIP3     5212     TIP3     H1       HT       0.417000       1.00800           0
     38018 TIP3     5212     TIP3     H2       HT       0.417000       1.00800           0
     38019 TIP3     5213     TIP3     OH2      OT      -0.834000       15.9994           0
     38020 TIP3     5213     TIP3     H1       HT       0.417000       1.00800           0
     38021 TIP3     5213     TIP3     H2       HT       0.417000       1.00800           0
     38022 TIP3     5214     TIP3     OH2      OT      -0.834000       15.9994           0
     38023 TIP3     5214     TIP3     H1       HT       0.417000       1.00800           0
     38024 TIP3     5214     TIP3     H2       HT       0.417000       1.00800           0
     38025 TIP3     5215     TIP3     OH2      OT      -0.834000       15.9994           0
     38026 TIP3     5215     TIP3     H1       HT       0.417000       1.00800           0
     38027 TIP3     5215     TIP3     H2       HT       0.417000       1.00800           0
     38028 TIP3     5216     TIP3     OH2      OT      -0.834000       15.9994           0
     38029 TIP3     5216     TIP3     H1       HT       0.417000       1.00800           0
     38030 TIP3     5216     TIP3     H2       HT       0.417000       1.00800           0
     38031 TIP3     5217     TIP3     OH2      OT      -0.834000       15.9994           0
     38032 TIP3     5217     TIP3     H1       HT       0.417000       1.00800           0
     38033 TIP3     5217     TIP3     H2       HT       0.417000       1.00800           0
     38034 TIP3     5218     TIP3     OH2      OT      -0.834000       15.9994           0
     38035 TIP3     5218     TIP3     H1       HT       0.417000       1.00800           0
     38036 TIP3     5218     TIP3     H2       HT       0.417000       1.00800           0
     38037 TIP3     5219     TIP3     OH2      OT      -0.834000       15.9994           0
     38038 TIP3     5219     TIP3     H1       HT       0.417000       1.00800           0
     38039 TIP3     5219     TIP3     H2       HT       0.417000       1.00800           0
     38040 TIP3     5220     TIP3     OH2      OT      -0.834000       15.9994           0
     38041 TIP3     5220     TIP3     H1       HT       0.417000       1.00800           0
     38042 TIP3     5220     TIP3     H2       HT       0.417000       1.00800           0
     38043 TIP3     5221     TIP3     OH2      OT      -0.834000       15.9994           0
     38044 TIP3     5221     TIP3     H1       HT       0.417000       1.00800           0
     38045 TIP3     5221     TIP3     H2       HT       0.417000       1.00800           0
     38046 TIP3     5222     TIP3     OH2      OT      -0.834000       15.9994           0
     38047 TIP3     5222     TIP3     H1       HT       0.417000       1.00800           0
     38048 TIP3     5222     TIP3     H2       HT       0.417000       1.00800           0
     38049 TIP3     5223     TIP3     OH2      OT      -0.834000       15.9994           0
     38050 TIP3     5223     TIP3     H1       HT       0.417000       1.00800           0
     38051 TIP3     5223     TIP3     H2       HT       0.417000       1.00800           0
     38052 TIP3     5224     TIP3     OH2      OT      -0.834000       15.9994           0
     38053 TIP3     5224     TIP3     H1       HT       0.417000       1.00800           0
     38054 TIP3     5224     TIP3     H2       HT       0.417000       1.00800           0
     38055 TIP3     5225     TIP3     OH2      OT      -0.834000       15.9994           0
     38056 TIP3     5225     TIP3     H1       HT       0.417000       1.00800           0
     38057 TIP3     5225     TIP3     H2       HT       0.417000       1.00800           0
     38058 TIP3     5226     TIP3     OH2      OT      -0.834000       15.9994           0
     38059 TIP3     5226     TIP3     H1       HT       0.417000       1.00800           0
     38060 TIP3     5226     TIP3     H2       HT       0.417000       1.00800           0
     38061 TIP3     5227     TIP3     OH2      OT      -0.834000       15.9994           0
     38062 TIP3     5227     TIP3     H1       HT       0.417000       1.00800           0
     38063 TIP3     5227     TIP3     H2       HT       0.417000       1.00800           0
     38064 TIP3     5228     TIP3     OH2      OT      -0.834000       15.9994           0
     38065 TIP3     5228     TIP3     H1       HT       0.417000       1.00800           0
     38066 TIP3     5228     TIP3     H2       HT       0.417000       1.00800           0
     38067 TIP3     5229     TIP3     OH2      OT      -0.834000       15.9994           0
     38068 TIP3     5229     TIP3     H1       HT       0.417000       1.00800           0
     38069 TIP3     5229     TIP3     H2       HT       0.417000       1.00800           0
     38070 TIP3     5230     TIP3     OH2      OT      -0.834000       15.9994           0
     38071 TIP3     5230     TIP3     H1       HT       0.417000       1.00800           0
     38072 TIP3     5230     TIP3     H2       HT       0.417000       1.00800           0
     38073 TIP3     5231     TIP3     OH2      OT      -0.834000       15.9994           0
     38074 TIP3     5231     TIP3     H1       HT       0.417000       1.00800           0
     38075 TIP3     5231     TIP3     H2       HT       0.417000       1.00800           0
     38076 TIP3     5232     TIP3     OH2      OT      -0.834000       15.9994           0
     38077 TIP3     5232     TIP3     H1       HT       0.417000       1.00800           0
     38078 TIP3     5232     TIP3     H2       HT       0.417000       1.00800           0
     38079 TIP3     5233     TIP3     OH2      OT      -0.834000       15.9994           0
     38080 TIP3     5233     TIP3     H1       HT       0.417000       1.00800           0
     38081 TIP3     5233     TIP3     H2       HT       0.417000       1.00800           0
     38082 TIP3     5234     TIP3     OH2      OT      -0.834000       15.9994           0
     38083 TIP3     5234     TIP3     H1       HT       0.417000       1.00800           0
     38084 TIP3     5234     TIP3     H2       HT       0.417000       1.00800           0
     38085 TIP3     5235     TIP3     OH2      OT      -0.834000       15.9994           0
     38086 TIP3     5235     TIP3     H1       HT       0.417000       1.00800           0
     38087 TIP3     5235     TIP3     H2       HT       0.417000       1.00800           0
     38088 TIP3     5236     TIP3     OH2      OT      -0.834000       15.9994           0
     38089 TIP3     5236     TIP3     H1       HT       0.417000       1.00800           0
     38090 TIP3     5236     TIP3     H2       HT       0.417000       1.00800           0
     38091 TIP3     5237     TIP3     OH2      OT      -0.834000       15.9994           0
     38092 TIP3     5237     TIP3     H1       HT       0.417000       1.00800           0
     38093 TIP3     5237     TIP3     H2       HT       0.417000       1.00800           0
     38094 TIP3     5238     TIP3     OH2      OT      -0.834000       15.9994           0
     38095 TIP3     5238     TIP3     H1       HT       0.417000       1.00800           0
     38096 TIP3     5238     TIP3     H2       HT       0.417000       1.00800           0
     38097 TIP3     5239     TIP3     OH2      OT      -0.834000       15.9994           0
     38098 TIP3     5239     TIP3     H1       HT       0.417000       1.00800           0
     38099 TIP3     5239     TIP3     H2       HT       0.417000       1.00800           0
     38100 TIP3     5240     TIP3     OH2      OT      -0.834000       15.9994           0
     38101 TIP3     5240     TIP3     H1       HT       0.417000       1.00800           0
     38102 TIP3     5240     TIP3     H2       HT       0.417000       1.00800           0
     38103 TIP3     5241     TIP3     OH2      OT      -0.834000       15.9994           0
     38104 TIP3     5241     TIP3     H1       HT       0.417000       1.00800           0
     38105 TIP3     5241     TIP3     H2       HT       0.417000       1.00800           0
     38106 TIP3     5242     TIP3     OH2      OT      -0.834000       15.9994           0
     38107 TIP3     5242     TIP3     H1       HT       0.417000       1.00800           0
     38108 TIP3     5242     TIP3     H2       HT       0.417000       1.00800           0
     38109 TIP3     5243     TIP3     OH2      OT      -0.834000       15.9994           0
     38110 TIP3     5243     TIP3     H1       HT       0.417000       1.00800           0
     38111 TIP3     5243     TIP3     H2       HT       0.417000       1.00800           0
     38112 TIP3     5244     TIP3     OH2      OT      -0.834000       15.9994           0
     38113 TIP3     5244     TIP3     H1       HT       0.417000       1.00800           0
     38114 TIP3     5244     TIP3     H2       HT       0.417000       1.00800           0
     38115 TIP3     5245     TIP3     OH2      OT      -0.834000       15.9994           0
     38116 TIP3     5245     TIP3     H1       HT       0.417000       1.00800           0
     38117 TIP3     5245     TIP3     H2       HT       0.417000       1.00800           0
     38118 TIP3     5246     TIP3     OH2      OT      -0.834000       15.9994           0
     38119 TIP3     5246     TIP3     H1       HT       0.417000       1.00800           0
     38120 TIP3     5246     TIP3     H2       HT       0.417000       1.00800           0
     38121 TIP3     5247     TIP3     OH2      OT      -0.834000       15.9994           0
     38122 TIP3     5247     TIP3     H1       HT       0.417000       1.00800           0
     38123 TIP3     5247     TIP3     H2       HT       0.417000       1.00800           0
     38124 TIP3     5248     TIP3     OH2      OT      -0.834000       15.9994           0
     38125 TIP3     5248     TIP3     H1       HT       0.417000       1.00800           0
     38126 TIP3     5248     TIP3     H2       HT       0.417000       1.00800           0
     38127 TIP3     5249     TIP3     OH2      OT      -0.834000       15.9994           0
     38128 TIP3     5249     TIP3     H1       HT       0.417000       1.00800           0
     38129 TIP3     5249     TIP3     H2       HT       0.417000       1.00800           0
     38130 TIP3     5250     TIP3     OH2      OT      -0.834000       15.9994           0
     38131 TIP3     5250     TIP3     H1       HT       0.417000       1.00800           0
     38132 TIP3     5250     TIP3     H2       HT       0.417000       1.00800           0
     38133 TIP3     5251     TIP3     OH2      OT      -0.834000       15.9994           0
     38134 TIP3     5251     TIP3     H1       HT       0.417000       1.00800           0
     38135 TIP3     5251     TIP3     H2       HT       0.417000       1.00800           0
     38136 TIP3     5252     TIP3     OH2      OT      -0.834000       15.9994           0
     38137 TIP3     5252     TIP3     H1       HT       0.417000       1.00800           0
     38138 TIP3     5252     TIP3     H2       HT       0.417000       1.00800           0
     38139 TIP3     5253     TIP3     OH2      OT      -0.834000       15.9994           0
     38140 TIP3     5253     TIP3     H1       HT       0.417000       1.00800           0
     38141 TIP3     5253     TIP3     H2       HT       0.417000       1.00800           0
     38142 TIP3     5254     TIP3     OH2      OT      -0.834000       15.9994           0
     38143 TIP3     5254     TIP3     H1       HT       0.417000       1.00800           0
     38144 TIP3     5254     TIP3     H2       HT       0.417000       1.00800           0
     38145 TIP3     5255     TIP3     OH2      OT      -0.834000       15.9994           0
     38146 TIP3     5255     TIP3     H1       HT       0.417000       1.00800           0
     38147 TIP3     5255     TIP3     H2       HT       0.417000       1.00800           0
     38148 TIP3     5256     TIP3     OH2      OT      -0.834000       15.9994           0
     38149 TIP3     5256     TIP3     H1       HT       0.417000       1.00800           0
     38150 TIP3     5256     TIP3     H2       HT       0.417000       1.00800           0
     38151 TIP3     5257     TIP3     OH2      OT      -0.834000       15.9994           0
     38152 TIP3     5257     TIP3     H1       HT       0.417000       1.00800           0
     38153 TIP3     5257     TIP3     H2       HT       0.417000       1.00800           0
     38154 TIP3     5258     TIP3     OH2      OT      -0.834000       15.9994           0
     38155 TIP3     5258     TIP3     H1       HT       0.417000       1.00800           0
     38156 TIP3     5258     TIP3     H2       HT       0.417000       1.00800           0
     38157 TIP3     5259     TIP3     OH2      OT      -0.834000       15.9994           0
     38158 TIP3     5259     TIP3     H1       HT       0.417000       1.00800           0
     38159 TIP3     5259     TIP3     H2       HT       0.417000       1.00800           0
     38160 TIP3     5260     TIP3     OH2      OT      -0.834000       15.9994           0
     38161 TIP3     5260     TIP3     H1       HT       0.417000       1.00800           0
     38162 TIP3     5260     TIP3     H2       HT       0.417000       1.00800           0
     38163 TIP3     5261     TIP3     OH2      OT      -0.834000       15.9994           0
     38164 TIP3     5261     TIP3     H1       HT       0.417000       1.00800           0
     38165 TIP3     5261     TIP3     H2       HT       0.417000       1.00800           0
     38166 TIP3     5262     TIP3     OH2      OT      -0.834000       15.9994           0
     38167 TIP3     5262     TIP3     H1       HT       0.417000       1.00800           0
     38168 TIP3     5262     TIP3     H2       HT       0.417000       1.00800           0
     38169 TIP3     5263     TIP3     OH2      OT      -0.834000       15.9994           0
     38170 TIP3     5263     TIP3     H1       HT       0.417000       1.00800           0
     38171 TIP3     5263     TIP3     H2       HT       0.417000       1.00800           0
     38172 TIP3     5264     TIP3     OH2      OT      -0.834000       15.9994           0
     38173 TIP3     5264     TIP3     H1       HT       0.417000       1.00800           0
     38174 TIP3     5264     TIP3     H2       HT       0.417000       1.00800           0
     38175 TIP3     5265     TIP3     OH2      OT      -0.834000       15.9994           0
     38176 TIP3     5265     TIP3     H1       HT       0.417000       1.00800           0
     38177 TIP3     5265     TIP3     H2       HT       0.417000       1.00800           0
     38178 TIP3     5266     TIP3     OH2      OT      -0.834000       15.9994           0
     38179 TIP3     5266     TIP3     H1       HT       0.417000       1.00800           0
     38180 TIP3     5266     TIP3     H2       HT       0.417000       1.00800           0
     38181 TIP3     5267     TIP3     OH2      OT      -0.834000       15.9994           0
     38182 TIP3     5267     TIP3     H1       HT       0.417000       1.00800           0
     38183 TIP3     5267     TIP3     H2       HT       0.417000       1.00800           0
     38184 TIP3     5268     TIP3     OH2      OT      -0.834000       15.9994           0
     38185 TIP3     5268     TIP3     H1       HT       0.417000       1.00800           0
     38186 TIP3     5268     TIP3     H2       HT       0.417000       1.00800           0
     38187 TIP3     5269     TIP3     OH2      OT      -0.834000       15.9994           0
     38188 TIP3     5269     TIP3     H1       HT       0.417000       1.00800           0
     38189 TIP3     5269     TIP3     H2       HT       0.417000       1.00800           0
     38190 TIP3     5270     TIP3     OH2      OT      -0.834000       15.9994           0
     38191 TIP3     5270     TIP3     H1       HT       0.417000       1.00800           0
     38192 TIP3     5270     TIP3     H2       HT       0.417000       1.00800           0
     38193 TIP3     5271     TIP3     OH2      OT      -0.834000       15.9994           0
     38194 TIP3     5271     TIP3     H1       HT       0.417000       1.00800           0
     38195 TIP3     5271     TIP3     H2       HT       0.417000       1.00800           0
     38196 TIP3     5272     TIP3     OH2      OT      -0.834000       15.9994           0
     38197 TIP3     5272     TIP3     H1       HT       0.417000       1.00800           0
     38198 TIP3     5272     TIP3     H2       HT       0.417000       1.00800           0
     38199 TIP3     5273     TIP3     OH2      OT      -0.834000       15.9994           0
     38200 TIP3     5273     TIP3     H1       HT       0.417000       1.00800           0
     38201 TIP3     5273     TIP3     H2       HT       0.417000       1.00800           0
     38202 TIP3     5274     TIP3     OH2      OT      -0.834000       15.9994           0
     38203 TIP3     5274     TIP3     H1       HT       0.417000       1.00800           0
     38204 TIP3     5274     TIP3     H2       HT       0.417000       1.00800           0
     38205 TIP3     5275     TIP3     OH2      OT      -0.834000       15.9994           0
     38206 TIP3     5275     TIP3     H1       HT       0.417000       1.00800           0
     38207 TIP3     5275     TIP3     H2       HT       0.417000       1.00800           0
     38208 TIP3     5276     TIP3     OH2      OT      -0.834000       15.9994           0
     38209 TIP3     5276     TIP3     H1       HT       0.417000       1.00800           0
     38210 TIP3     5276     TIP3     H2       HT       0.417000       1.00800           0
     38211 TIP3     5277     TIP3     OH2      OT      -0.834000       15.9994           0
     38212 TIP3     5277     TIP3     H1       HT       0.417000       1.00800           0
     38213 TIP3     5277     TIP3     H2       HT       0.417000       1.00800           0
     38214 TIP3     5278     TIP3     OH2      OT      -0.834000       15.9994           0
     38215 TIP3     5278     TIP3     H1       HT       0.417000       1.00800           0
     38216 TIP3     5278     TIP3     H2       HT       0.417000       1.00800           0
     38217 TIP3     5279     TIP3     OH2      OT      -0.834000       15.9994           0
     38218 TIP3     5279     TIP3     H1       HT       0.417000       1.00800           0
     38219 TIP3     5279     TIP3     H2       HT       0.417000       1.00800           0
     38220 TIP3     5280     TIP3     OH2      OT      -0.834000       15.9994           0
     38221 TIP3     5280     TIP3     H1       HT       0.417000       1.00800           0
     38222 TIP3     5280     TIP3     H2       HT       0.417000       1.00800           0
     38223 TIP3     5281     TIP3     OH2      OT      -0.834000       15.9994           0
     38224 TIP3     5281     TIP3     H1       HT       0.417000       1.00800           0
     38225 TIP3     5281     TIP3     H2       HT       0.417000       1.00800           0
     38226 TIP3     5282     TIP3     OH2      OT      -0.834000       15.9994           0
     38227 TIP3     5282     TIP3     H1       HT       0.417000       1.00800           0
     38228 TIP3     5282     TIP3     H2       HT       0.417000       1.00800           0
     38229 TIP3     5283     TIP3     OH2      OT      -0.834000       15.9994           0
     38230 TIP3     5283     TIP3     H1       HT       0.417000       1.00800           0
     38231 TIP3     5283     TIP3     H2       HT       0.417000       1.00800           0
     38232 TIP3     5284     TIP3     OH2      OT      -0.834000       15.9994           0
     38233 TIP3     5284     TIP3     H1       HT       0.417000       1.00800           0
     38234 TIP3     5284     TIP3     H2       HT       0.417000       1.00800           0
     38235 TIP3     5285     TIP3     OH2      OT      -0.834000       15.9994           0
     38236 TIP3     5285     TIP3     H1       HT       0.417000       1.00800           0
     38237 TIP3     5285     TIP3     H2       HT       0.417000       1.00800           0
     38238 TIP3     5286     TIP3     OH2      OT      -0.834000       15.9994           0
     38239 TIP3     5286     TIP3     H1       HT       0.417000       1.00800           0
     38240 TIP3     5286     TIP3     H2       HT       0.417000       1.00800           0
     38241 TIP3     5287     TIP3     OH2      OT      -0.834000       15.9994           0
     38242 TIP3     5287     TIP3     H1       HT       0.417000       1.00800           0
     38243 TIP3     5287     TIP3     H2       HT       0.417000       1.00800           0
     38244 TIP3     5288     TIP3     OH2      OT      -0.834000       15.9994           0
     38245 TIP3     5288     TIP3     H1       HT       0.417000       1.00800           0
     38246 TIP3     5288     TIP3     H2       HT       0.417000       1.00800           0
     38247 TIP3     5289     TIP3     OH2      OT      -0.834000       15.9994           0
     38248 TIP3     5289     TIP3     H1       HT       0.417000       1.00800           0
     38249 TIP3     5289     TIP3     H2       HT       0.417000       1.00800           0
     38250 TIP3     5290     TIP3     OH2      OT      -0.834000       15.9994           0
     38251 TIP3     5290     TIP3     H1       HT       0.417000       1.00800           0
     38252 TIP3     5290     TIP3     H2       HT       0.417000       1.00800           0
     38253 TIP3     5291     TIP3     OH2      OT      -0.834000       15.9994           0
     38254 TIP3     5291     TIP3     H1       HT       0.417000       1.00800           0
     38255 TIP3     5291     TIP3     H2       HT       0.417000       1.00800           0
     38256 TIP3     5292     TIP3     OH2      OT      -0.834000       15.9994           0
     38257 TIP3     5292     TIP3     H1       HT       0.417000       1.00800           0
     38258 TIP3     5292     TIP3     H2       HT       0.417000       1.00800           0
     38259 TIP3     5293     TIP3     OH2      OT      -0.834000       15.9994           0
     38260 TIP3     5293     TIP3     H1       HT       0.417000       1.00800           0
     38261 TIP3     5293     TIP3     H2       HT       0.417000       1.00800           0
     38262 TIP3     5294     TIP3     OH2      OT      -0.834000       15.9994           0
     38263 TIP3     5294     TIP3     H1       HT       0.417000       1.00800           0
     38264 TIP3     5294     TIP3     H2       HT       0.417000       1.00800           0
     38265 TIP3     5295     TIP3     OH2      OT      -0.834000       15.9994           0
     38266 TIP3     5295     TIP3     H1       HT       0.417000       1.00800           0
     38267 TIP3     5295     TIP3     H2       HT       0.417000       1.00800           0
     38268 TIP3     5296     TIP3     OH2      OT      -0.834000       15.9994           0
     38269 TIP3     5296     TIP3     H1       HT       0.417000       1.00800           0
     38270 TIP3     5296     TIP3     H2       HT       0.417000       1.00800           0
     38271 TIP3     5297     TIP3     OH2      OT      -0.834000       15.9994           0
     38272 TIP3     5297     TIP3     H1       HT       0.417000       1.00800           0
     38273 TIP3     5297     TIP3     H2       HT       0.417000       1.00800           0
     38274 TIP3     5298     TIP3     OH2      OT      -0.834000       15.9994           0
     38275 TIP3     5298     TIP3     H1       HT       0.417000       1.00800           0
     38276 TIP3     5298     TIP3     H2       HT       0.417000       1.00800           0
     38277 TIP3     5299     TIP3     OH2      OT      -0.834000       15.9994           0
     38278 TIP3     5299     TIP3     H1       HT       0.417000       1.00800           0
     38279 TIP3     5299     TIP3     H2       HT       0.417000       1.00800           0
     38280 TIP3     5300     TIP3     OH2      OT      -0.834000       15.9994           0
     38281 TIP3     5300     TIP3     H1       HT       0.417000       1.00800           0
     38282 TIP3     5300     TIP3     H2       HT       0.417000       1.00800           0
     38283 TIP3     5301     TIP3     OH2      OT      -0.834000       15.9994           0
     38284 TIP3     5301     TIP3     H1       HT       0.417000       1.00800           0
     38285 TIP3     5301     TIP3     H2       HT       0.417000       1.00800           0
     38286 TIP3     5302     TIP3     OH2      OT      -0.834000       15.9994           0
     38287 TIP3     5302     TIP3     H1       HT       0.417000       1.00800           0
     38288 TIP3     5302     TIP3     H2       HT       0.417000       1.00800           0
     38289 TIP3     5303     TIP3     OH2      OT      -0.834000       15.9994           0
     38290 TIP3     5303     TIP3     H1       HT       0.417000       1.00800           0
     38291 TIP3     5303     TIP3     H2       HT       0.417000       1.00800           0
     38292 TIP3     5304     TIP3     OH2      OT      -0.834000       15.9994           0
     38293 TIP3     5304     TIP3     H1       HT       0.417000       1.00800           0
     38294 TIP3     5304     TIP3     H2       HT       0.417000       1.00800           0
     38295 TIP3     5305     TIP3     OH2      OT      -0.834000       15.9994           0
     38296 TIP3     5305     TIP3     H1       HT       0.417000       1.00800           0
     38297 TIP3     5305     TIP3     H2       HT       0.417000       1.00800           0
     38298 TIP3     5306     TIP3     OH2      OT      -0.834000       15.9994           0
     38299 TIP3     5306     TIP3     H1       HT       0.417000       1.00800           0
     38300 TIP3     5306     TIP3     H2       HT       0.417000       1.00800           0
     38301 TIP3     5307     TIP3     OH2      OT      -0.834000       15.9994           0
     38302 TIP3     5307     TIP3     H1       HT       0.417000       1.00800           0
     38303 TIP3     5307     TIP3     H2       HT       0.417000       1.00800           0
     38304 TIP3     5308     TIP3     OH2      OT      -0.834000       15.9994           0
     38305 TIP3     5308     TIP3     H1       HT       0.417000       1.00800           0
     38306 TIP3     5308     TIP3     H2       HT       0.417000       1.00800           0
     38307 TIP3     5309     TIP3     OH2      OT      -0.834000       15.9994           0
     38308 TIP3     5309     TIP3     H1       HT       0.417000       1.00800           0
     38309 TIP3     5309     TIP3     H2       HT       0.417000       1.00800           0
     38310 TIP3     5310     TIP3     OH2      OT      -0.834000       15.9994           0
     38311 TIP3     5310     TIP3     H1       HT       0.417000       1.00800           0
     38312 TIP3     5310     TIP3     H2       HT       0.417000       1.00800           0
     38313 TIP3     5311     TIP3     OH2      OT      -0.834000       15.9994           0
     38314 TIP3     5311     TIP3     H1       HT       0.417000       1.00800           0
     38315 TIP3     5311     TIP3     H2       HT       0.417000       1.00800           0
     38316 TIP3     5312     TIP3     OH2      OT      -0.834000       15.9994           0
     38317 TIP3     5312     TIP3     H1       HT       0.417000       1.00800           0
     38318 TIP3     5312     TIP3     H2       HT       0.417000       1.00800           0
     38319 TIP3     5313     TIP3     OH2      OT      -0.834000       15.9994           0
     38320 TIP3     5313     TIP3     H1       HT       0.417000       1.00800           0
     38321 TIP3     5313     TIP3     H2       HT       0.417000       1.00800           0
     38322 TIP3     5314     TIP3     OH2      OT      -0.834000       15.9994           0
     38323 TIP3     5314     TIP3     H1       HT       0.417000       1.00800           0
     38324 TIP3     5314     TIP3     H2       HT       0.417000       1.00800           0
     38325 TIP3     5315     TIP3     OH2      OT      -0.834000       15.9994           0
     38326 TIP3     5315     TIP3     H1       HT       0.417000       1.00800           0
     38327 TIP3     5315     TIP3     H2       HT       0.417000       1.00800           0
     38328 TIP3     5316     TIP3     OH2      OT      -0.834000       15.9994           0
     38329 TIP3     5316     TIP3     H1       HT       0.417000       1.00800           0
     38330 TIP3     5316     TIP3     H2       HT       0.417000       1.00800           0
     38331 TIP3     5317     TIP3     OH2      OT      -0.834000       15.9994           0
     38332 TIP3     5317     TIP3     H1       HT       0.417000       1.00800           0
     38333 TIP3     5317     TIP3     H2       HT       0.417000       1.00800           0
     38334 TIP3     5318     TIP3     OH2      OT      -0.834000       15.9994           0
     38335 TIP3     5318     TIP3     H1       HT       0.417000       1.00800           0
     38336 TIP3     5318     TIP3     H2       HT       0.417000       1.00800           0
     38337 TIP3     5319     TIP3     OH2      OT      -0.834000       15.9994           0
     38338 TIP3     5319     TIP3     H1       HT       0.417000       1.00800           0
     38339 TIP3     5319     TIP3     H2       HT       0.417000       1.00800           0
     38340 TIP3     5320     TIP3     OH2      OT      -0.834000       15.9994           0
     38341 TIP3     5320     TIP3     H1       HT       0.417000       1.00800           0
     38342 TIP3     5320     TIP3     H2       HT       0.417000       1.00800           0
     38343 TIP3     5321     TIP3     OH2      OT      -0.834000       15.9994           0
     38344 TIP3     5321     TIP3     H1       HT       0.417000       1.00800           0
     38345 TIP3     5321     TIP3     H2       HT       0.417000       1.00800           0
     38346 TIP3     5322     TIP3     OH2      OT      -0.834000       15.9994           0
     38347 TIP3     5322     TIP3     H1       HT       0.417000       1.00800           0
     38348 TIP3     5322     TIP3     H2       HT       0.417000       1.00800           0
     38349 TIP3     5323     TIP3     OH2      OT      -0.834000       15.9994           0
     38350 TIP3     5323     TIP3     H1       HT       0.417000       1.00800           0
     38351 TIP3     5323     TIP3     H2       HT       0.417000       1.00800           0
     38352 TIP3     5324     TIP3     OH2      OT      -0.834000       15.9994           0
     38353 TIP3     5324     TIP3     H1       HT       0.417000       1.00800           0
     38354 TIP3     5324     TIP3     H2       HT       0.417000       1.00800           0
     38355 TIP3     5325     TIP3     OH2      OT      -0.834000       15.9994           0
     38356 TIP3     5325     TIP3     H1       HT       0.417000       1.00800           0
     38357 TIP3     5325     TIP3     H2       HT       0.417000       1.00800           0
     38358 TIP3     5326     TIP3     OH2      OT      -0.834000       15.9994           0
     38359 TIP3     5326     TIP3     H1       HT       0.417000       1.00800           0
     38360 TIP3     5326     TIP3     H2       HT       0.417000       1.00800           0
     38361 TIP3     5327     TIP3     OH2      OT      -0.834000       15.9994           0
     38362 TIP3     5327     TIP3     H1       HT       0.417000       1.00800           0
     38363 TIP3     5327     TIP3     H2       HT       0.417000       1.00800           0
     38364 TIP3     5328     TIP3     OH2      OT      -0.834000       15.9994           0
     38365 TIP3     5328     TIP3     H1       HT       0.417000       1.00800           0
     38366 TIP3     5328     TIP3     H2       HT       0.417000       1.00800           0
     38367 TIP3     5329     TIP3     OH2      OT      -0.834000       15.9994           0
     38368 TIP3     5329     TIP3     H1       HT       0.417000       1.00800           0
     38369 TIP3     5329     TIP3     H2       HT       0.417000       1.00800           0
     38370 TIP3     5330     TIP3     OH2      OT      -0.834000       15.9994           0
     38371 TIP3     5330     TIP3     H1       HT       0.417000       1.00800           0
     38372 TIP3     5330     TIP3     H2       HT       0.417000       1.00800           0
     38373 TIP3     5331     TIP3     OH2      OT      -0.834000       15.9994           0
     38374 TIP3     5331     TIP3     H1       HT       0.417000       1.00800           0
     38375 TIP3     5331     TIP3     H2       HT       0.417000       1.00800           0
     38376 TIP3     5332     TIP3     OH2      OT      -0.834000       15.9994           0
     38377 TIP3     5332     TIP3     H1       HT       0.417000       1.00800           0
     38378 TIP3     5332     TIP3     H2       HT       0.417000       1.00800           0
     38379 TIP3     5333     TIP3     OH2      OT      -0.834000       15.9994           0
     38380 TIP3     5333     TIP3     H1       HT       0.417000       1.00800           0
     38381 TIP3     5333     TIP3     H2       HT       0.417000       1.00800           0
     38382 TIP3     5334     TIP3     OH2      OT      -0.834000       15.9994           0
     38383 TIP3     5334     TIP3     H1       HT       0.417000       1.00800           0
     38384 TIP3     5334     TIP3     H2       HT       0.417000       1.00800           0
     38385 TIP3     5335     TIP3     OH2      OT      -0.834000       15.9994           0
     38386 TIP3     5335     TIP3     H1       HT       0.417000       1.00800           0
     38387 TIP3     5335     TIP3     H2       HT       0.417000       1.00800           0
     38388 TIP3     5336     TIP3     OH2      OT      -0.834000       15.9994           0
     38389 TIP3     5336     TIP3     H1       HT       0.417000       1.00800           0
     38390 TIP3     5336     TIP3     H2       HT       0.417000       1.00800           0
     38391 TIP3     5337     TIP3     OH2      OT      -0.834000       15.9994           0
     38392 TIP3     5337     TIP3     H1       HT       0.417000       1.00800           0
     38393 TIP3     5337     TIP3     H2       HT       0.417000       1.00800           0
     38394 TIP3     5338     TIP3     OH2      OT      -0.834000       15.9994           0
     38395 TIP3     5338     TIP3     H1       HT       0.417000       1.00800           0
     38396 TIP3     5338     TIP3     H2       HT       0.417000       1.00800           0
     38397 TIP3     5339     TIP3     OH2      OT      -0.834000       15.9994           0
     38398 TIP3     5339     TIP3     H1       HT       0.417000       1.00800           0
     38399 TIP3     5339     TIP3     H2       HT       0.417000       1.00800           0
     38400 TIP3     5340     TIP3     OH2      OT      -0.834000       15.9994           0
     38401 TIP3     5340     TIP3     H1       HT       0.417000       1.00800           0
     38402 TIP3     5340     TIP3     H2       HT       0.417000       1.00800           0
     38403 TIP3     5341     TIP3     OH2      OT      -0.834000       15.9994           0
     38404 TIP3     5341     TIP3     H1       HT       0.417000       1.00800           0
     38405 TIP3     5341     TIP3     H2       HT       0.417000       1.00800           0
     38406 TIP3     5342     TIP3     OH2      OT      -0.834000       15.9994           0
     38407 TIP3     5342     TIP3     H1       HT       0.417000       1.00800           0
     38408 TIP3     5342     TIP3     H2       HT       0.417000       1.00800           0
     38409 TIP3     5343     TIP3     OH2      OT      -0.834000       15.9994           0
     38410 TIP3     5343     TIP3     H1       HT       0.417000       1.00800           0
     38411 TIP3     5343     TIP3     H2       HT       0.417000       1.00800           0
     38412 TIP3     5344     TIP3     OH2      OT      -0.834000       15.9994           0
     38413 TIP3     5344     TIP3     H1       HT       0.417000       1.00800           0
     38414 TIP3     5344     TIP3     H2       HT       0.417000       1.00800           0
     38415 TIP3     5345     TIP3     OH2      OT      -0.834000       15.9994           0
     38416 TIP3     5345     TIP3     H1       HT       0.417000       1.00800           0
     38417 TIP3     5345     TIP3     H2       HT       0.417000       1.00800           0
     38418 TIP3     5346     TIP3     OH2      OT      -0.834000       15.9994           0
     38419 TIP3     5346     TIP3     H1       HT       0.417000       1.00800           0
     38420 TIP3     5346     TIP3     H2       HT       0.417000       1.00800           0
     38421 TIP3     5347     TIP3     OH2      OT      -0.834000       15.9994           0
     38422 TIP3     5347     TIP3     H1       HT       0.417000       1.00800           0
     38423 TIP3     5347     TIP3     H2       HT       0.417000       1.00800           0
     38424 TIP3     5348     TIP3     OH2      OT      -0.834000       15.9994           0
     38425 TIP3     5348     TIP3     H1       HT       0.417000       1.00800           0
     38426 TIP3     5348     TIP3     H2       HT       0.417000       1.00800           0
     38427 TIP3     5349     TIP3     OH2      OT      -0.834000       15.9994           0
     38428 TIP3     5349     TIP3     H1       HT       0.417000       1.00800           0
     38429 TIP3     5349     TIP3     H2       HT       0.417000       1.00800           0
     38430 TIP3     5350     TIP3     OH2      OT      -0.834000       15.9994           0
     38431 TIP3     5350     TIP3     H1       HT       0.417000       1.00800           0
     38432 TIP3     5350     TIP3     H2       HT       0.417000       1.00800           0
     38433 TIP3     5351     TIP3     OH2      OT      -0.834000       15.9994           0
     38434 TIP3     5351     TIP3     H1       HT       0.417000       1.00800           0
     38435 TIP3     5351     TIP3     H2       HT       0.417000       1.00800           0
     38436 TIP3     5352     TIP3     OH2      OT      -0.834000       15.9994           0
     38437 TIP3     5352     TIP3     H1       HT       0.417000       1.00800           0
     38438 TIP3     5352     TIP3     H2       HT       0.417000       1.00800           0
     38439 TIP3     5353     TIP3     OH2      OT      -0.834000       15.9994           0
     38440 TIP3     5353     TIP3     H1       HT       0.417000       1.00800           0
     38441 TIP3     5353     TIP3     H2       HT       0.417000       1.00800           0
     38442 TIP3     5354     TIP3     OH2      OT      -0.834000       15.9994           0
     38443 TIP3     5354     TIP3     H1       HT       0.417000       1.00800           0
     38444 TIP3     5354     TIP3     H2       HT       0.417000       1.00800           0
     38445 TIP3     5355     TIP3     OH2      OT      -0.834000       15.9994           0
     38446 TIP3     5355     TIP3     H1       HT       0.417000       1.00800           0
     38447 TIP3     5355     TIP3     H2       HT       0.417000       1.00800           0
     38448 TIP3     5356     TIP3     OH2      OT      -0.834000       15.9994           0
     38449 TIP3     5356     TIP3     H1       HT       0.417000       1.00800           0
     38450 TIP3     5356     TIP3     H2       HT       0.417000       1.00800           0
     38451 TIP3     5357     TIP3     OH2      OT      -0.834000       15.9994           0
     38452 TIP3     5357     TIP3     H1       HT       0.417000       1.00800           0
     38453 TIP3     5357     TIP3     H2       HT       0.417000       1.00800           0
     38454 TIP3     5358     TIP3     OH2      OT      -0.834000       15.9994           0
     38455 TIP3     5358     TIP3     H1       HT       0.417000       1.00800           0
     38456 TIP3     5358     TIP3     H2       HT       0.417000       1.00800           0
     38457 TIP3     5359     TIP3     OH2      OT      -0.834000       15.9994           0
     38458 TIP3     5359     TIP3     H1       HT       0.417000       1.00800           0
     38459 TIP3     5359     TIP3     H2       HT       0.417000       1.00800           0
     38460 TIP3     5360     TIP3     OH2      OT      -0.834000       15.9994           0
     38461 TIP3     5360     TIP3     H1       HT       0.417000       1.00800           0
     38462 TIP3     5360     TIP3     H2       HT       0.417000       1.00800           0
     38463 TIP3     5361     TIP3     OH2      OT      -0.834000       15.9994           0
     38464 TIP3     5361     TIP3     H1       HT       0.417000       1.00800           0
     38465 TIP3     5361     TIP3     H2       HT       0.417000       1.00800           0
     38466 TIP3     5362     TIP3     OH2      OT      -0.834000       15.9994           0
     38467 TIP3     5362     TIP3     H1       HT       0.417000       1.00800           0
     38468 TIP3     5362     TIP3     H2       HT       0.417000       1.00800           0
     38469 TIP3     5363     TIP3     OH2      OT      -0.834000       15.9994           0
     38470 TIP3     5363     TIP3     H1       HT       0.417000       1.00800           0
     38471 TIP3     5363     TIP3     H2       HT       0.417000       1.00800           0
     38472 TIP3     5364     TIP3     OH2      OT      -0.834000       15.9994           0
     38473 TIP3     5364     TIP3     H1       HT       0.417000       1.00800           0
     38474 TIP3     5364     TIP3     H2       HT       0.417000       1.00800           0
     38475 TIP3     5365     TIP3     OH2      OT      -0.834000       15.9994           0
     38476 TIP3     5365     TIP3     H1       HT       0.417000       1.00800           0
     38477 TIP3     5365     TIP3     H2       HT       0.417000       1.00800           0
     38478 TIP3     5366     TIP3     OH2      OT      -0.834000       15.9994           0
     38479 TIP3     5366     TIP3     H1       HT       0.417000       1.00800           0
     38480 TIP3     5366     TIP3     H2       HT       0.417000       1.00800           0
     38481 TIP3     5367     TIP3     OH2      OT      -0.834000       15.9994           0
     38482 TIP3     5367     TIP3     H1       HT       0.417000       1.00800           0
     38483 TIP3     5367     TIP3     H2       HT       0.417000       1.00800           0
     38484 TIP3     5368     TIP3     OH2      OT      -0.834000       15.9994           0
     38485 TIP3     5368     TIP3     H1       HT       0.417000       1.00800           0
     38486 TIP3     5368     TIP3     H2       HT       0.417000       1.00800           0
     38487 TIP3     5369     TIP3     OH2      OT      -0.834000       15.9994           0
     38488 TIP3     5369     TIP3     H1       HT       0.417000       1.00800           0
     38489 TIP3     5369     TIP3     H2       HT       0.417000       1.00800           0
     38490 TIP3     5370     TIP3     OH2      OT      -0.834000       15.9994           0
     38491 TIP3     5370     TIP3     H1       HT       0.417000       1.00800           0
     38492 TIP3     5370     TIP3     H2       HT       0.417000       1.00800           0
     38493 TIP3     5371     TIP3     OH2      OT      -0.834000       15.9994           0
     38494 TIP3     5371     TIP3     H1       HT       0.417000       1.00800           0
     38495 TIP3     5371     TIP3     H2       HT       0.417000       1.00800           0
     38496 TIP3     5372     TIP3     OH2      OT      -0.834000       15.9994           0
     38497 TIP3     5372     TIP3     H1       HT       0.417000       1.00800           0
     38498 TIP3     5372     TIP3     H2       HT       0.417000       1.00800           0
     38499 TIP3     5373     TIP3     OH2      OT      -0.834000       15.9994           0
     38500 TIP3     5373     TIP3     H1       HT       0.417000       1.00800           0
     38501 TIP3     5373     TIP3     H2       HT       0.417000       1.00800           0
     38502 TIP3     5374     TIP3     OH2      OT      -0.834000       15.9994           0
     38503 TIP3     5374     TIP3     H1       HT       0.417000       1.00800           0
     38504 TIP3     5374     TIP3     H2       HT       0.417000       1.00800           0
     38505 TIP3     5375     TIP3     OH2      OT      -0.834000       15.9994           0
     38506 TIP3     5375     TIP3     H1       HT       0.417000       1.00800           0
     38507 TIP3     5375     TIP3     H2       HT       0.417000       1.00800           0
     38508 TIP3     5376     TIP3     OH2      OT      -0.834000       15.9994           0
     38509 TIP3     5376     TIP3     H1       HT       0.417000       1.00800           0
     38510 TIP3     5376     TIP3     H2       HT       0.417000       1.00800           0
     38511 TIP3     5377     TIP3     OH2      OT      -0.834000       15.9994           0
     38512 TIP3     5377     TIP3     H1       HT       0.417000       1.00800           0
     38513 TIP3     5377     TIP3     H2       HT       0.417000       1.00800           0
     38514 TIP3     5378     TIP3     OH2      OT      -0.834000       15.9994           0
     38515 TIP3     5378     TIP3     H1       HT       0.417000       1.00800           0
     38516 TIP3     5378     TIP3     H2       HT       0.417000       1.00800           0
     38517 TIP3     5379     TIP3     OH2      OT      -0.834000       15.9994           0
     38518 TIP3     5379     TIP3     H1       HT       0.417000       1.00800           0
     38519 TIP3     5379     TIP3     H2       HT       0.417000       1.00800           0
     38520 TIP3     5380     TIP3     OH2      OT      -0.834000       15.9994           0
     38521 TIP3     5380     TIP3     H1       HT       0.417000       1.00800           0
     38522 TIP3     5380     TIP3     H2       HT       0.417000       1.00800           0
     38523 TIP3     5381     TIP3     OH2      OT      -0.834000       15.9994           0
     38524 TIP3     5381     TIP3     H1       HT       0.417000       1.00800           0
     38525 TIP3     5381     TIP3     H2       HT       0.417000       1.00800           0
     38526 TIP3     5382     TIP3     OH2      OT      -0.834000       15.9994           0
     38527 TIP3     5382     TIP3     H1       HT       0.417000       1.00800           0
     38528 TIP3     5382     TIP3     H2       HT       0.417000       1.00800           0
     38529 TIP3     5383     TIP3     OH2      OT      -0.834000       15.9994           0
     38530 TIP3     5383     TIP3     H1       HT       0.417000       1.00800           0
     38531 TIP3     5383     TIP3     H2       HT       0.417000       1.00800           0
     38532 TIP3     5384     TIP3     OH2      OT      -0.834000       15.9994           0
     38533 TIP3     5384     TIP3     H1       HT       0.417000       1.00800           0
     38534 TIP3     5384     TIP3     H2       HT       0.417000       1.00800           0
     38535 TIP3     5385     TIP3     OH2      OT      -0.834000       15.9994           0
     38536 TIP3     5385     TIP3     H1       HT       0.417000       1.00800           0
     38537 TIP3     5385     TIP3     H2       HT       0.417000       1.00800           0
     38538 TIP3     5386     TIP3     OH2      OT      -0.834000       15.9994           0
     38539 TIP3     5386     TIP3     H1       HT       0.417000       1.00800           0
     38540 TIP3     5386     TIP3     H2       HT       0.417000       1.00800           0
     38541 TIP3     5387     TIP3     OH2      OT      -0.834000       15.9994           0
     38542 TIP3     5387     TIP3     H1       HT       0.417000       1.00800           0
     38543 TIP3     5387     TIP3     H2       HT       0.417000       1.00800           0
     38544 TIP3     5388     TIP3     OH2      OT      -0.834000       15.9994           0
     38545 TIP3     5388     TIP3     H1       HT       0.417000       1.00800           0
     38546 TIP3     5388     TIP3     H2       HT       0.417000       1.00800           0
     38547 TIP3     5389     TIP3     OH2      OT      -0.834000       15.9994           0
     38548 TIP3     5389     TIP3     H1       HT       0.417000       1.00800           0
     38549 TIP3     5389     TIP3     H2       HT       0.417000       1.00800           0
     38550 TIP3     5390     TIP3     OH2      OT      -0.834000       15.9994           0
     38551 TIP3     5390     TIP3     H1       HT       0.417000       1.00800           0
     38552 TIP3     5390     TIP3     H2       HT       0.417000       1.00800           0
     38553 TIP3     5391     TIP3     OH2      OT      -0.834000       15.9994           0
     38554 TIP3     5391     TIP3     H1       HT       0.417000       1.00800           0
     38555 TIP3     5391     TIP3     H2       HT       0.417000       1.00800           0
     38556 TIP3     5392     TIP3     OH2      OT      -0.834000       15.9994           0
     38557 TIP3     5392     TIP3     H1       HT       0.417000       1.00800           0
     38558 TIP3     5392     TIP3     H2       HT       0.417000       1.00800           0
     38559 TIP3     5393     TIP3     OH2      OT      -0.834000       15.9994           0
     38560 TIP3     5393     TIP3     H1       HT       0.417000       1.00800           0
     38561 TIP3     5393     TIP3     H2       HT       0.417000       1.00800           0
     38562 TIP3     5394     TIP3     OH2      OT      -0.834000       15.9994           0
     38563 TIP3     5394     TIP3     H1       HT       0.417000       1.00800           0
     38564 TIP3     5394     TIP3     H2       HT       0.417000       1.00800           0
     38565 TIP3     5395     TIP3     OH2      OT      -0.834000       15.9994           0
     38566 TIP3     5395     TIP3     H1       HT       0.417000       1.00800           0
     38567 TIP3     5395     TIP3     H2       HT       0.417000       1.00800           0
     38568 TIP3     5396     TIP3     OH2      OT      -0.834000       15.9994           0
     38569 TIP3     5396     TIP3     H1       HT       0.417000       1.00800           0
     38570 TIP3     5396     TIP3     H2       HT       0.417000       1.00800           0
     38571 TIP3     5397     TIP3     OH2      OT      -0.834000       15.9994           0
     38572 TIP3     5397     TIP3     H1       HT       0.417000       1.00800           0
     38573 TIP3     5397     TIP3     H2       HT       0.417000       1.00800           0
     38574 TIP3     5398     TIP3     OH2      OT      -0.834000       15.9994           0
     38575 TIP3     5398     TIP3     H1       HT       0.417000       1.00800           0
     38576 TIP3     5398     TIP3     H2       HT       0.417000       1.00800           0
     38577 TIP3     5399     TIP3     OH2      OT      -0.834000       15.9994           0
     38578 TIP3     5399     TIP3     H1       HT       0.417000       1.00800           0
     38579 TIP3     5399     TIP3     H2       HT       0.417000       1.00800           0
     38580 TIP3     5400     TIP3     OH2      OT      -0.834000       15.9994           0
     38581 TIP3     5400     TIP3     H1       HT       0.417000       1.00800           0
     38582 TIP3     5400     TIP3     H2       HT       0.417000       1.00800           0
     38583 TIP3     5401     TIP3     OH2      OT      -0.834000       15.9994           0
     38584 TIP3     5401     TIP3     H1       HT       0.417000       1.00800           0
     38585 TIP3     5401     TIP3     H2       HT       0.417000       1.00800           0
     38586 TIP3     5402     TIP3     OH2      OT      -0.834000       15.9994           0
     38587 TIP3     5402     TIP3     H1       HT       0.417000       1.00800           0
     38588 TIP3     5402     TIP3     H2       HT       0.417000       1.00800           0
     38589 TIP3     5403     TIP3     OH2      OT      -0.834000       15.9994           0
     38590 TIP3     5403     TIP3     H1       HT       0.417000       1.00800           0
     38591 TIP3     5403     TIP3     H2       HT       0.417000       1.00800           0
     38592 TIP3     5404     TIP3     OH2      OT      -0.834000       15.9994           0
     38593 TIP3     5404     TIP3     H1       HT       0.417000       1.00800           0
     38594 TIP3     5404     TIP3     H2       HT       0.417000       1.00800           0
     38595 TIP3     5405     TIP3     OH2      OT      -0.834000       15.9994           0
     38596 TIP3     5405     TIP3     H1       HT       0.417000       1.00800           0
     38597 TIP3     5405     TIP3     H2       HT       0.417000       1.00800           0
     38598 TIP3     5406     TIP3     OH2      OT      -0.834000       15.9994           0
     38599 TIP3     5406     TIP3     H1       HT       0.417000       1.00800           0
     38600 TIP3     5406     TIP3     H2       HT       0.417000       1.00800           0
     38601 TIP3     5407     TIP3     OH2      OT      -0.834000       15.9994           0
     38602 TIP3     5407     TIP3     H1       HT       0.417000       1.00800           0
     38603 TIP3     5407     TIP3     H2       HT       0.417000       1.00800           0
     38604 TIP3     5408     TIP3     OH2      OT      -0.834000       15.9994           0
     38605 TIP3     5408     TIP3     H1       HT       0.417000       1.00800           0
     38606 TIP3     5408     TIP3     H2       HT       0.417000       1.00800           0
     38607 TIP3     5409     TIP3     OH2      OT      -0.834000       15.9994           0
     38608 TIP3     5409     TIP3     H1       HT       0.417000       1.00800           0
     38609 TIP3     5409     TIP3     H2       HT       0.417000       1.00800           0
     38610 TIP3     5410     TIP3     OH2      OT      -0.834000       15.9994           0
     38611 TIP3     5410     TIP3     H1       HT       0.417000       1.00800           0
     38612 TIP3     5410     TIP3     H2       HT       0.417000       1.00800           0
     38613 TIP3     5411     TIP3     OH2      OT      -0.834000       15.9994           0
     38614 TIP3     5411     TIP3     H1       HT       0.417000       1.00800           0
     38615 TIP3     5411     TIP3     H2       HT       0.417000       1.00800           0
     38616 TIP3     5412     TIP3     OH2      OT      -0.834000       15.9994           0
     38617 TIP3     5412     TIP3     H1       HT       0.417000       1.00800           0
     38618 TIP3     5412     TIP3     H2       HT       0.417000       1.00800           0
     38619 TIP3     5413     TIP3     OH2      OT      -0.834000       15.9994           0
     38620 TIP3     5413     TIP3     H1       HT       0.417000       1.00800           0
     38621 TIP3     5413     TIP3     H2       HT       0.417000       1.00800           0
     38622 TIP3     5414     TIP3     OH2      OT      -0.834000       15.9994           0
     38623 TIP3     5414     TIP3     H1       HT       0.417000       1.00800           0
     38624 TIP3     5414     TIP3     H2       HT       0.417000       1.00800           0
     38625 TIP3     5415     TIP3     OH2      OT      -0.834000       15.9994           0
     38626 TIP3     5415     TIP3     H1       HT       0.417000       1.00800           0
     38627 TIP3     5415     TIP3     H2       HT       0.417000       1.00800           0
     38628 TIP3     5416     TIP3     OH2      OT      -0.834000       15.9994           0
     38629 TIP3     5416     TIP3     H1       HT       0.417000       1.00800           0
     38630 TIP3     5416     TIP3     H2       HT       0.417000       1.00800           0
     38631 TIP3     5417     TIP3     OH2      OT      -0.834000       15.9994           0
     38632 TIP3     5417     TIP3     H1       HT       0.417000       1.00800           0
     38633 TIP3     5417     TIP3     H2       HT       0.417000       1.00800           0
     38634 TIP3     5418     TIP3     OH2      OT      -0.834000       15.9994           0
     38635 TIP3     5418     TIP3     H1       HT       0.417000       1.00800           0
     38636 TIP3     5418     TIP3     H2       HT       0.417000       1.00800           0
     38637 TIP3     5419     TIP3     OH2      OT      -0.834000       15.9994           0
     38638 TIP3     5419     TIP3     H1       HT       0.417000       1.00800           0
     38639 TIP3     5419     TIP3     H2       HT       0.417000       1.00800           0
     38640 TIP3     5420     TIP3     OH2      OT      -0.834000       15.9994           0
     38641 TIP3     5420     TIP3     H1       HT       0.417000       1.00800           0
     38642 TIP3     5420     TIP3     H2       HT       0.417000       1.00800           0
     38643 TIP3     5421     TIP3     OH2      OT      -0.834000       15.9994           0
     38644 TIP3     5421     TIP3     H1       HT       0.417000       1.00800           0
     38645 TIP3     5421     TIP3     H2       HT       0.417000       1.00800           0
     38646 TIP3     5422     TIP3     OH2      OT      -0.834000       15.9994           0
     38647 TIP3     5422     TIP3     H1       HT       0.417000       1.00800           0
     38648 TIP3     5422     TIP3     H2       HT       0.417000       1.00800           0
     38649 TIP3     5423     TIP3     OH2      OT      -0.834000       15.9994           0
     38650 TIP3     5423     TIP3     H1       HT       0.417000       1.00800           0
     38651 TIP3     5423     TIP3     H2       HT       0.417000       1.00800           0
     38652 TIP3     5424     TIP3     OH2      OT      -0.834000       15.9994           0
     38653 TIP3     5424     TIP3     H1       HT       0.417000       1.00800           0
     38654 TIP3     5424     TIP3     H2       HT       0.417000       1.00800           0
     38655 TIP3     5425     TIP3     OH2      OT      -0.834000       15.9994           0
     38656 TIP3     5425     TIP3     H1       HT       0.417000       1.00800           0
     38657 TIP3     5425     TIP3     H2       HT       0.417000       1.00800           0
     38658 TIP3     5426     TIP3     OH2      OT      -0.834000       15.9994           0
     38659 TIP3     5426     TIP3     H1       HT       0.417000       1.00800           0
     38660 TIP3     5426     TIP3     H2       HT       0.417000       1.00800           0
     38661 TIP3     5427     TIP3     OH2      OT      -0.834000       15.9994           0
     38662 TIP3     5427     TIP3     H1       HT       0.417000       1.00800           0
     38663 TIP3     5427     TIP3     H2       HT       0.417000       1.00800           0
     38664 TIP3     5428     TIP3     OH2      OT      -0.834000       15.9994           0
     38665 TIP3     5428     TIP3     H1       HT       0.417000       1.00800           0
     38666 TIP3     5428     TIP3     H2       HT       0.417000       1.00800           0
     38667 TIP3     5429     TIP3     OH2      OT      -0.834000       15.9994           0
     38668 TIP3     5429     TIP3     H1       HT       0.417000       1.00800           0
     38669 TIP3     5429     TIP3     H2       HT       0.417000       1.00800           0
     38670 TIP3     5430     TIP3     OH2      OT      -0.834000       15.9994           0
     38671 TIP3     5430     TIP3     H1       HT       0.417000       1.00800           0
     38672 TIP3     5430     TIP3     H2       HT       0.417000       1.00800           0
     38673 TIP3     5431     TIP3     OH2      OT      -0.834000       15.9994           0
     38674 TIP3     5431     TIP3     H1       HT       0.417000       1.00800           0
     38675 TIP3     5431     TIP3     H2       HT       0.417000       1.00800           0
     38676 TIP3     5432     TIP3     OH2      OT      -0.834000       15.9994           0
     38677 TIP3     5432     TIP3     H1       HT       0.417000       1.00800           0
     38678 TIP3     5432     TIP3     H2       HT       0.417000       1.00800           0
     38679 TIP3     5433     TIP3     OH2      OT      -0.834000       15.9994           0
     38680 TIP3     5433     TIP3     H1       HT       0.417000       1.00800           0
     38681 TIP3     5433     TIP3     H2       HT       0.417000       1.00800           0
     38682 TIP3     5434     TIP3     OH2      OT      -0.834000       15.9994           0
     38683 TIP3     5434     TIP3     H1       HT       0.417000       1.00800           0
     38684 TIP3     5434     TIP3     H2       HT       0.417000       1.00800           0
     38685 TIP3     5435     TIP3     OH2      OT      -0.834000       15.9994           0
     38686 TIP3     5435     TIP3     H1       HT       0.417000       1.00800           0
     38687 TIP3     5435     TIP3     H2       HT       0.417000       1.00800           0
     38688 TIP3     5436     TIP3     OH2      OT      -0.834000       15.9994           0
     38689 TIP3     5436     TIP3     H1       HT       0.417000       1.00800           0
     38690 TIP3     5436     TIP3     H2       HT       0.417000       1.00800           0
     38691 TIP3     5437     TIP3     OH2      OT      -0.834000       15.9994           0
     38692 TIP3     5437     TIP3     H1       HT       0.417000       1.00800           0
     38693 TIP3     5437     TIP3     H2       HT       0.417000       1.00800           0
     38694 TIP3     5438     TIP3     OH2      OT      -0.834000       15.9994           0
     38695 TIP3     5438     TIP3     H1       HT       0.417000       1.00800           0
     38696 TIP3     5438     TIP3     H2       HT       0.417000       1.00800           0
     38697 TIP3     5439     TIP3     OH2      OT      -0.834000       15.9994           0
     38698 TIP3     5439     TIP3     H1       HT       0.417000       1.00800           0
     38699 TIP3     5439     TIP3     H2       HT       0.417000       1.00800           0
     38700 TIP3     5440     TIP3     OH2      OT      -0.834000       15.9994           0
     38701 TIP3     5440     TIP3     H1       HT       0.417000       1.00800           0
     38702 TIP3     5440     TIP3     H2       HT       0.417000       1.00800           0
     38703 TIP3     5441     TIP3     OH2      OT      -0.834000       15.9994           0
     38704 TIP3     5441     TIP3     H1       HT       0.417000       1.00800           0
     38705 TIP3     5441     TIP3     H2       HT       0.417000       1.00800           0
     38706 TIP3     5442     TIP3     OH2      OT      -0.834000       15.9994           0
     38707 TIP3     5442     TIP3     H1       HT       0.417000       1.00800           0
     38708 TIP3     5442     TIP3     H2       HT       0.417000       1.00800           0
     38709 TIP3     5443     TIP3     OH2      OT      -0.834000       15.9994           0
     38710 TIP3     5443     TIP3     H1       HT       0.417000       1.00800           0
     38711 TIP3     5443     TIP3     H2       HT       0.417000       1.00800           0
     38712 TIP3     5444     TIP3     OH2      OT      -0.834000       15.9994           0
     38713 TIP3     5444     TIP3     H1       HT       0.417000       1.00800           0
     38714 TIP3     5444     TIP3     H2       HT       0.417000       1.00800           0
     38715 TIP3     5445     TIP3     OH2      OT      -0.834000       15.9994           0
     38716 TIP3     5445     TIP3     H1       HT       0.417000       1.00800           0
     38717 TIP3     5445     TIP3     H2       HT       0.417000       1.00800           0
     38718 TIP3     5446     TIP3     OH2      OT      -0.834000       15.9994           0
     38719 TIP3     5446     TIP3     H1       HT       0.417000       1.00800           0
     38720 TIP3     5446     TIP3     H2       HT       0.417000       1.00800           0
     38721 TIP3     5447     TIP3     OH2      OT      -0.834000       15.9994           0
     38722 TIP3     5447     TIP3     H1       HT       0.417000       1.00800           0
     38723 TIP3     5447     TIP3     H2       HT       0.417000       1.00800           0
     38724 TIP3     5448     TIP3     OH2      OT      -0.834000       15.9994           0
     38725 TIP3     5448     TIP3     H1       HT       0.417000       1.00800           0
     38726 TIP3     5448     TIP3     H2       HT       0.417000       1.00800           0
     38727 TIP3     5449     TIP3     OH2      OT      -0.834000       15.9994           0
     38728 TIP3     5449     TIP3     H1       HT       0.417000       1.00800           0
     38729 TIP3     5449     TIP3     H2       HT       0.417000       1.00800           0
     38730 TIP3     5450     TIP3     OH2      OT      -0.834000       15.9994           0
     38731 TIP3     5450     TIP3     H1       HT       0.417000       1.00800           0
     38732 TIP3     5450     TIP3     H2       HT       0.417000       1.00800           0
     38733 TIP3     5451     TIP3     OH2      OT      -0.834000       15.9994           0
     38734 TIP3     5451     TIP3     H1       HT       0.417000       1.00800           0
     38735 TIP3     5451     TIP3     H2       HT       0.417000       1.00800           0
     38736 TIP3     5452     TIP3     OH2      OT      -0.834000       15.9994           0
     38737 TIP3     5452     TIP3     H1       HT       0.417000       1.00800           0
     38738 TIP3     5452     TIP3     H2       HT       0.417000       1.00800           0
     38739 TIP3     5453     TIP3     OH2      OT      -0.834000       15.9994           0
     38740 TIP3     5453     TIP3     H1       HT       0.417000       1.00800           0
     38741 TIP3     5453     TIP3     H2       HT       0.417000       1.00800           0
     38742 TIP3     5454     TIP3     OH2      OT      -0.834000       15.9994           0
     38743 TIP3     5454     TIP3     H1       HT       0.417000       1.00800           0
     38744 TIP3     5454     TIP3     H2       HT       0.417000       1.00800           0
     38745 TIP3     5455     TIP3     OH2      OT      -0.834000       15.9994           0
     38746 TIP3     5455     TIP3     H1       HT       0.417000       1.00800           0
     38747 TIP3     5455     TIP3     H2       HT       0.417000       1.00800           0
     38748 TIP3     5456     TIP3     OH2      OT      -0.834000       15.9994           0
     38749 TIP3     5456     TIP3     H1       HT       0.417000       1.00800           0
     38750 TIP3     5456     TIP3     H2       HT       0.417000       1.00800           0
     38751 TIP3     5457     TIP3     OH2      OT      -0.834000       15.9994           0
     38752 TIP3     5457     TIP3     H1       HT       0.417000       1.00800           0
     38753 TIP3     5457     TIP3     H2       HT       0.417000       1.00800           0
     38754 TIP3     5458     TIP3     OH2      OT      -0.834000       15.9994           0
     38755 TIP3     5458     TIP3     H1       HT       0.417000       1.00800           0
     38756 TIP3     5458     TIP3     H2       HT       0.417000       1.00800           0
     38757 TIP3     5459     TIP3     OH2      OT      -0.834000       15.9994           0
     38758 TIP3     5459     TIP3     H1       HT       0.417000       1.00800           0
     38759 TIP3     5459     TIP3     H2       HT       0.417000       1.00800           0
     38760 TIP3     5460     TIP3     OH2      OT      -0.834000       15.9994           0
     38761 TIP3     5460     TIP3     H1       HT       0.417000       1.00800           0
     38762 TIP3     5460     TIP3     H2       HT       0.417000       1.00800           0
     38763 TIP3     5461     TIP3     OH2      OT      -0.834000       15.9994           0
     38764 TIP3     5461     TIP3     H1       HT       0.417000       1.00800           0
     38765 TIP3     5461     TIP3     H2       HT       0.417000       1.00800           0
     38766 TIP3     5462     TIP3     OH2      OT      -0.834000       15.9994           0
     38767 TIP3     5462     TIP3     H1       HT       0.417000       1.00800           0
     38768 TIP3     5462     TIP3     H2       HT       0.417000       1.00800           0
     38769 TIP3     5463     TIP3     OH2      OT      -0.834000       15.9994           0
     38770 TIP3     5463     TIP3     H1       HT       0.417000       1.00800           0
     38771 TIP3     5463     TIP3     H2       HT       0.417000       1.00800           0
     38772 TIP3     5464     TIP3     OH2      OT      -0.834000       15.9994           0
     38773 TIP3     5464     TIP3     H1       HT       0.417000       1.00800           0
     38774 TIP3     5464     TIP3     H2       HT       0.417000       1.00800           0
     38775 TIP3     5465     TIP3     OH2      OT      -0.834000       15.9994           0
     38776 TIP3     5465     TIP3     H1       HT       0.417000       1.00800           0
     38777 TIP3     5465     TIP3     H2       HT       0.417000       1.00800           0
     38778 TIP3     5466     TIP3     OH2      OT      -0.834000       15.9994           0
     38779 TIP3     5466     TIP3     H1       HT       0.417000       1.00800           0
     38780 TIP3     5466     TIP3     H2       HT       0.417000       1.00800           0
     38781 TIP3     5467     TIP3     OH2      OT      -0.834000       15.9994           0
     38782 TIP3     5467     TIP3     H1       HT       0.417000       1.00800           0
     38783 TIP3     5467     TIP3     H2       HT       0.417000       1.00800           0
     38784 TIP3     5468     TIP3     OH2      OT      -0.834000       15.9994           0
     38785 TIP3     5468     TIP3     H1       HT       0.417000       1.00800           0
     38786 TIP3     5468     TIP3     H2       HT       0.417000       1.00800           0
     38787 TIP3     5469     TIP3     OH2      OT      -0.834000       15.9994           0
     38788 TIP3     5469     TIP3     H1       HT       0.417000       1.00800           0
     38789 TIP3     5469     TIP3     H2       HT       0.417000       1.00800           0
     38790 TIP3     5470     TIP3     OH2      OT      -0.834000       15.9994           0
     38791 TIP3     5470     TIP3     H1       HT       0.417000       1.00800           0
     38792 TIP3     5470     TIP3     H2       HT       0.417000       1.00800           0
     38793 TIP3     5471     TIP3     OH2      OT      -0.834000       15.9994           0
     38794 TIP3     5471     TIP3     H1       HT       0.417000       1.00800           0
     38795 TIP3     5471     TIP3     H2       HT       0.417000       1.00800           0
     38796 TIP3     5472     TIP3     OH2      OT      -0.834000       15.9994           0
     38797 TIP3     5472     TIP3     H1       HT       0.417000       1.00800           0
     38798 TIP3     5472     TIP3     H2       HT       0.417000       1.00800           0
     38799 TIP3     5473     TIP3     OH2      OT      -0.834000       15.9994           0
     38800 TIP3     5473     TIP3     H1       HT       0.417000       1.00800           0
     38801 TIP3     5473     TIP3     H2       HT       0.417000       1.00800           0
     38802 TIP3     5474     TIP3     OH2      OT      -0.834000       15.9994           0
     38803 TIP3     5474     TIP3     H1       HT       0.417000       1.00800           0
     38804 TIP3     5474     TIP3     H2       HT       0.417000       1.00800           0
     38805 TIP3     5475     TIP3     OH2      OT      -0.834000       15.9994           0
     38806 TIP3     5475     TIP3     H1       HT       0.417000       1.00800           0
     38807 TIP3     5475     TIP3     H2       HT       0.417000       1.00800           0
     38808 TIP3     5476     TIP3     OH2      OT      -0.834000       15.9994           0
     38809 TIP3     5476     TIP3     H1       HT       0.417000       1.00800           0
     38810 TIP3     5476     TIP3     H2       HT       0.417000       1.00800           0
     38811 TIP3     5477     TIP3     OH2      OT      -0.834000       15.9994           0
     38812 TIP3     5477     TIP3     H1       HT       0.417000       1.00800           0
     38813 TIP3     5477     TIP3     H2       HT       0.417000       1.00800           0
     38814 TIP3     5478     TIP3     OH2      OT      -0.834000       15.9994           0
     38815 TIP3     5478     TIP3     H1       HT       0.417000       1.00800           0
     38816 TIP3     5478     TIP3     H2       HT       0.417000       1.00800           0
     38817 TIP3     5479     TIP3     OH2      OT      -0.834000       15.9994           0
     38818 TIP3     5479     TIP3     H1       HT       0.417000       1.00800           0
     38819 TIP3     5479     TIP3     H2       HT       0.417000       1.00800           0
     38820 TIP3     5480     TIP3     OH2      OT      -0.834000       15.9994           0
     38821 TIP3     5480     TIP3     H1       HT       0.417000       1.00800           0
     38822 TIP3     5480     TIP3     H2       HT       0.417000       1.00800           0
     38823 TIP3     5481     TIP3     OH2      OT      -0.834000       15.9994           0
     38824 TIP3     5481     TIP3     H1       HT       0.417000       1.00800           0
     38825 TIP3     5481     TIP3     H2       HT       0.417000       1.00800           0
     38826 TIP3     5482     TIP3     OH2      OT      -0.834000       15.9994           0
     38827 TIP3     5482     TIP3     H1       HT       0.417000       1.00800           0
     38828 TIP3     5482     TIP3     H2       HT       0.417000       1.00800           0
     38829 TIP3     5483     TIP3     OH2      OT      -0.834000       15.9994           0
     38830 TIP3     5483     TIP3     H1       HT       0.417000       1.00800           0
     38831 TIP3     5483     TIP3     H2       HT       0.417000       1.00800           0
     38832 TIP3     5484     TIP3     OH2      OT      -0.834000       15.9994           0
     38833 TIP3     5484     TIP3     H1       HT       0.417000       1.00800           0
     38834 TIP3     5484     TIP3     H2       HT       0.417000       1.00800           0
     38835 TIP3     5485     TIP3     OH2      OT      -0.834000       15.9994           0
     38836 TIP3     5485     TIP3     H1       HT       0.417000       1.00800           0
     38837 TIP3     5485     TIP3     H2       HT       0.417000       1.00800           0
     38838 TIP3     5486     TIP3     OH2      OT      -0.834000       15.9994           0
     38839 TIP3     5486     TIP3     H1       HT       0.417000       1.00800           0
     38840 TIP3     5486     TIP3     H2       HT       0.417000       1.00800           0
     38841 TIP3     5487     TIP3     OH2      OT      -0.834000       15.9994           0
     38842 TIP3     5487     TIP3     H1       HT       0.417000       1.00800           0
     38843 TIP3     5487     TIP3     H2       HT       0.417000       1.00800           0
     38844 TIP3     5488     TIP3     OH2      OT      -0.834000       15.9994           0
     38845 TIP3     5488     TIP3     H1       HT       0.417000       1.00800           0
     38846 TIP3     5488     TIP3     H2       HT       0.417000       1.00800           0
     38847 TIP3     5489     TIP3     OH2      OT      -0.834000       15.9994           0
     38848 TIP3     5489     TIP3     H1       HT       0.417000       1.00800           0
     38849 TIP3     5489     TIP3     H2       HT       0.417000       1.00800           0
     38850 TIP3     5490     TIP3     OH2      OT      -0.834000       15.9994           0
     38851 TIP3     5490     TIP3     H1       HT       0.417000       1.00800           0
     38852 TIP3     5490     TIP3     H2       HT       0.417000       1.00800           0
     38853 TIP3     5491     TIP3     OH2      OT      -0.834000       15.9994           0
     38854 TIP3     5491     TIP3     H1       HT       0.417000       1.00800           0
     38855 TIP3     5491     TIP3     H2       HT       0.417000       1.00800           0
     38856 TIP3     5492     TIP3     OH2      OT      -0.834000       15.9994           0
     38857 TIP3     5492     TIP3     H1       HT       0.417000       1.00800           0
     38858 TIP3     5492     TIP3     H2       HT       0.417000       1.00800           0
     38859 TIP3     5493     TIP3     OH2      OT      -0.834000       15.9994           0
     38860 TIP3     5493     TIP3     H1       HT       0.417000       1.00800           0
     38861 TIP3     5493     TIP3     H2       HT       0.417000       1.00800           0
     38862 TIP3     5494     TIP3     OH2      OT      -0.834000       15.9994           0
     38863 TIP3     5494     TIP3     H1       HT       0.417000       1.00800           0
     38864 TIP3     5494     TIP3     H2       HT       0.417000       1.00800           0
     38865 TIP3     5495     TIP3     OH2      OT      -0.834000       15.9994           0
     38866 TIP3     5495     TIP3     H1       HT       0.417000       1.00800           0
     38867 TIP3     5495     TIP3     H2       HT       0.417000       1.00800           0
     38868 TIP3     5496     TIP3     OH2      OT      -0.834000       15.9994           0
     38869 TIP3     5496     TIP3     H1       HT       0.417000       1.00800           0
     38870 TIP3     5496     TIP3     H2       HT       0.417000       1.00800           0
     38871 TIP3     5497     TIP3     OH2      OT      -0.834000       15.9994           0
     38872 TIP3     5497     TIP3     H1       HT       0.417000       1.00800           0
     38873 TIP3     5497     TIP3     H2       HT       0.417000       1.00800           0
     38874 TIP3     5498     TIP3     OH2      OT      -0.834000       15.9994           0
     38875 TIP3     5498     TIP3     H1       HT       0.417000       1.00800           0
     38876 TIP3     5498     TIP3     H2       HT       0.417000       1.00800           0
     38877 TIP3     5499     TIP3     OH2      OT      -0.834000       15.9994           0
     38878 TIP3     5499     TIP3     H1       HT       0.417000       1.00800           0
     38879 TIP3     5499     TIP3     H2       HT       0.417000       1.00800           0
     38880 TIP3     5500     TIP3     OH2      OT      -0.834000       15.9994           0
     38881 TIP3     5500     TIP3     H1       HT       0.417000       1.00800           0
     38882 TIP3     5500     TIP3     H2       HT       0.417000       1.00800           0
     38883 TIP3     5501     TIP3     OH2      OT      -0.834000       15.9994           0
     38884 TIP3     5501     TIP3     H1       HT       0.417000       1.00800           0
     38885 TIP3     5501     TIP3     H2       HT       0.417000       1.00800           0
     38886 TIP3     5502     TIP3     OH2      OT      -0.834000       15.9994           0
     38887 TIP3     5502     TIP3     H1       HT       0.417000       1.00800           0
     38888 TIP3     5502     TIP3     H2       HT       0.417000       1.00800           0
     38889 TIP3     5503     TIP3     OH2      OT      -0.834000       15.9994           0
     38890 TIP3     5503     TIP3     H1       HT       0.417000       1.00800           0
     38891 TIP3     5503     TIP3     H2       HT       0.417000       1.00800           0
     38892 TIP3     5504     TIP3     OH2      OT      -0.834000       15.9994           0
     38893 TIP3     5504     TIP3     H1       HT       0.417000       1.00800           0
     38894 TIP3     5504     TIP3     H2       HT       0.417000       1.00800           0
     38895 TIP3     5505     TIP3     OH2      OT      -0.834000       15.9994           0
     38896 TIP3     5505     TIP3     H1       HT       0.417000       1.00800           0
     38897 TIP3     5505     TIP3     H2       HT       0.417000       1.00800           0
     38898 TIP3     5506     TIP3     OH2      OT      -0.834000       15.9994           0
     38899 TIP3     5506     TIP3     H1       HT       0.417000       1.00800           0
     38900 TIP3     5506     TIP3     H2       HT       0.417000       1.00800           0
     38901 TIP3     5507     TIP3     OH2      OT      -0.834000       15.9994           0
     38902 TIP3     5507     TIP3     H1       HT       0.417000       1.00800           0
     38903 TIP3     5507     TIP3     H2       HT       0.417000       1.00800           0
     38904 TIP3     5508     TIP3     OH2      OT      -0.834000       15.9994           0
     38905 TIP3     5508     TIP3     H1       HT       0.417000       1.00800           0
     38906 TIP3     5508     TIP3     H2       HT       0.417000       1.00800           0
     38907 TIP3     5509     TIP3     OH2      OT      -0.834000       15.9994           0
     38908 TIP3     5509     TIP3     H1       HT       0.417000       1.00800           0
     38909 TIP3     5509     TIP3     H2       HT       0.417000       1.00800           0
     38910 TIP3     5510     TIP3     OH2      OT      -0.834000       15.9994           0
     38911 TIP3     5510     TIP3     H1       HT       0.417000       1.00800           0
     38912 TIP3     5510     TIP3     H2       HT       0.417000       1.00800           0
     38913 TIP3     5511     TIP3     OH2      OT      -0.834000       15.9994           0
     38914 TIP3     5511     TIP3     H1       HT       0.417000       1.00800           0
     38915 TIP3     5511     TIP3     H2       HT       0.417000       1.00800           0
     38916 TIP3     5512     TIP3     OH2      OT      -0.834000       15.9994           0
     38917 TIP3     5512     TIP3     H1       HT       0.417000       1.00800           0
     38918 TIP3     5512     TIP3     H2       HT       0.417000       1.00800           0
     38919 TIP3     5513     TIP3     OH2      OT      -0.834000       15.9994           0
     38920 TIP3     5513     TIP3     H1       HT       0.417000       1.00800           0
     38921 TIP3     5513     TIP3     H2       HT       0.417000       1.00800           0
     38922 TIP3     5514     TIP3     OH2      OT      -0.834000       15.9994           0
     38923 TIP3     5514     TIP3     H1       HT       0.417000       1.00800           0
     38924 TIP3     5514     TIP3     H2       HT       0.417000       1.00800           0
     38925 TIP3     5515     TIP3     OH2      OT      -0.834000       15.9994           0
     38926 TIP3     5515     TIP3     H1       HT       0.417000       1.00800           0
     38927 TIP3     5515     TIP3     H2       HT       0.417000       1.00800           0
     38928 TIP3     5516     TIP3     OH2      OT      -0.834000       15.9994           0
     38929 TIP3     5516     TIP3     H1       HT       0.417000       1.00800           0
     38930 TIP3     5516     TIP3     H2       HT       0.417000       1.00800           0
     38931 TIP3     5517     TIP3     OH2      OT      -0.834000       15.9994           0
     38932 TIP3     5517     TIP3     H1       HT       0.417000       1.00800           0
     38933 TIP3     5517     TIP3     H2       HT       0.417000       1.00800           0
     38934 TIP3     5518     TIP3     OH2      OT      -0.834000       15.9994           0
     38935 TIP3     5518     TIP3     H1       HT       0.417000       1.00800           0
     38936 TIP3     5518     TIP3     H2       HT       0.417000       1.00800           0
     38937 TIP3     5519     TIP3     OH2      OT      -0.834000       15.9994           0
     38938 TIP3     5519     TIP3     H1       HT       0.417000       1.00800           0
     38939 TIP3     5519     TIP3     H2       HT       0.417000       1.00800           0
     38940 TIP3     5520     TIP3     OH2      OT      -0.834000       15.9994           0
     38941 TIP3     5520     TIP3     H1       HT       0.417000       1.00800           0
     38942 TIP3     5520     TIP3     H2       HT       0.417000       1.00800           0
     38943 TIP3     5521     TIP3     OH2      OT      -0.834000       15.9994           0
     38944 TIP3     5521     TIP3     H1       HT       0.417000       1.00800           0
     38945 TIP3     5521     TIP3     H2       HT       0.417000       1.00800           0
     38946 TIP3     5522     TIP3     OH2      OT      -0.834000       15.9994           0
     38947 TIP3     5522     TIP3     H1       HT       0.417000       1.00800           0
     38948 TIP3     5522     TIP3     H2       HT       0.417000       1.00800           0
     38949 TIP3     5523     TIP3     OH2      OT      -0.834000       15.9994           0
     38950 TIP3     5523     TIP3     H1       HT       0.417000       1.00800           0
     38951 TIP3     5523     TIP3     H2       HT       0.417000       1.00800           0
     38952 TIP3     5524     TIP3     OH2      OT      -0.834000       15.9994           0
     38953 TIP3     5524     TIP3     H1       HT       0.417000       1.00800           0
     38954 TIP3     5524     TIP3     H2       HT       0.417000       1.00800           0
     38955 TIP3     5525     TIP3     OH2      OT      -0.834000       15.9994           0
     38956 TIP3     5525     TIP3     H1       HT       0.417000       1.00800           0
     38957 TIP3     5525     TIP3     H2       HT       0.417000       1.00800           0
     38958 TIP3     5526     TIP3     OH2      OT      -0.834000       15.9994           0
     38959 TIP3     5526     TIP3     H1       HT       0.417000       1.00800           0
     38960 TIP3     5526     TIP3     H2       HT       0.417000       1.00800           0
     38961 TIP3     5527     TIP3     OH2      OT      -0.834000       15.9994           0
     38962 TIP3     5527     TIP3     H1       HT       0.417000       1.00800           0
     38963 TIP3     5527     TIP3     H2       HT       0.417000       1.00800           0
     38964 TIP3     5528     TIP3     OH2      OT      -0.834000       15.9994           0
     38965 TIP3     5528     TIP3     H1       HT       0.417000       1.00800           0
     38966 TIP3     5528     TIP3     H2       HT       0.417000       1.00800           0
     38967 TIP3     5529     TIP3     OH2      OT      -0.834000       15.9994           0
     38968 TIP3     5529     TIP3     H1       HT       0.417000       1.00800           0
     38969 TIP3     5529     TIP3     H2       HT       0.417000       1.00800           0
     38970 TIP3     5530     TIP3     OH2      OT      -0.834000       15.9994           0
     38971 TIP3     5530     TIP3     H1       HT       0.417000       1.00800           0
     38972 TIP3     5530     TIP3     H2       HT       0.417000       1.00800           0
     38973 TIP3     5531     TIP3     OH2      OT      -0.834000       15.9994           0
     38974 TIP3     5531     TIP3     H1       HT       0.417000       1.00800           0
     38975 TIP3     5531     TIP3     H2       HT       0.417000       1.00800           0
     38976 TIP3     5532     TIP3     OH2      OT      -0.834000       15.9994           0
     38977 TIP3     5532     TIP3     H1       HT       0.417000       1.00800           0
     38978 TIP3     5532     TIP3     H2       HT       0.417000       1.00800           0
     38979 TIP3     5533     TIP3     OH2      OT      -0.834000       15.9994           0
     38980 TIP3     5533     TIP3     H1       HT       0.417000       1.00800           0
     38981 TIP3     5533     TIP3     H2       HT       0.417000       1.00800           0
     38982 TIP3     5534     TIP3     OH2      OT      -0.834000       15.9994           0
     38983 TIP3     5534     TIP3     H1       HT       0.417000       1.00800           0
     38984 TIP3     5534     TIP3     H2       HT       0.417000       1.00800           0
     38985 TIP3     5535     TIP3     OH2      OT      -0.834000       15.9994           0
     38986 TIP3     5535     TIP3     H1       HT       0.417000       1.00800           0
     38987 TIP3     5535     TIP3     H2       HT       0.417000       1.00800           0
     38988 TIP3     5536     TIP3     OH2      OT      -0.834000       15.9994           0
     38989 TIP3     5536     TIP3     H1       HT       0.417000       1.00800           0
     38990 TIP3     5536     TIP3     H2       HT       0.417000       1.00800           0
     38991 TIP3     5537     TIP3     OH2      OT      -0.834000       15.9994           0
     38992 TIP3     5537     TIP3     H1       HT       0.417000       1.00800           0
     38993 TIP3     5537     TIP3     H2       HT       0.417000       1.00800           0
     38994 TIP3     5538     TIP3     OH2      OT      -0.834000       15.9994           0
     38995 TIP3     5538     TIP3     H1       HT       0.417000       1.00800           0
     38996 TIP3     5538     TIP3     H2       HT       0.417000       1.00800           0
     38997 TIP3     5539     TIP3     OH2      OT      -0.834000       15.9994           0
     38998 TIP3     5539     TIP3     H1       HT       0.417000       1.00800           0
     38999 TIP3     5539     TIP3     H2       HT       0.417000       1.00800           0
     39000 TIP3     5540     TIP3     OH2      OT      -0.834000       15.9994           0
     39001 TIP3     5540     TIP3     H1       HT       0.417000       1.00800           0
     39002 TIP3     5540     TIP3     H2       HT       0.417000       1.00800           0
     39003 TIP3     5541     TIP3     OH2      OT      -0.834000       15.9994           0
     39004 TIP3     5541     TIP3     H1       HT       0.417000       1.00800           0
     39005 TIP3     5541     TIP3     H2       HT       0.417000       1.00800           0
     39006 TIP3     5542     TIP3     OH2      OT      -0.834000       15.9994           0
     39007 TIP3     5542     TIP3     H1       HT       0.417000       1.00800           0
     39008 TIP3     5542     TIP3     H2       HT       0.417000       1.00800           0
     39009 TIP3     5543     TIP3     OH2      OT      -0.834000       15.9994           0
     39010 TIP3     5543     TIP3     H1       HT       0.417000       1.00800           0
     39011 TIP3     5543     TIP3     H2       HT       0.417000       1.00800           0
     39012 TIP3     5544     TIP3     OH2      OT      -0.834000       15.9994           0
     39013 TIP3     5544     TIP3     H1       HT       0.417000       1.00800           0
     39014 TIP3     5544     TIP3     H2       HT       0.417000       1.00800           0
     39015 TIP3     5545     TIP3     OH2      OT      -0.834000       15.9994           0
     39016 TIP3     5545     TIP3     H1       HT       0.417000       1.00800           0
     39017 TIP3     5545     TIP3     H2       HT       0.417000       1.00800           0
     39018 TIP3     5546     TIP3     OH2      OT      -0.834000       15.9994           0
     39019 TIP3     5546     TIP3     H1       HT       0.417000       1.00800           0
     39020 TIP3     5546     TIP3     H2       HT       0.417000       1.00800           0
     39021 TIP3     5547     TIP3     OH2      OT      -0.834000       15.9994           0
     39022 TIP3     5547     TIP3     H1       HT       0.417000       1.00800           0
     39023 TIP3     5547     TIP3     H2       HT       0.417000       1.00800           0
     39024 TIP3     5548     TIP3     OH2      OT      -0.834000       15.9994           0
     39025 TIP3     5548     TIP3     H1       HT       0.417000       1.00800           0
     39026 TIP3     5548     TIP3     H2       HT       0.417000       1.00800           0
     39027 TIP3     5549     TIP3     OH2      OT      -0.834000       15.9994           0
     39028 TIP3     5549     TIP3     H1       HT       0.417000       1.00800           0
     39029 TIP3     5549     TIP3     H2       HT       0.417000       1.00800           0
     39030 TIP3     5550     TIP3     OH2      OT      -0.834000       15.9994           0
     39031 TIP3     5550     TIP3     H1       HT       0.417000       1.00800           0
     39032 TIP3     5550     TIP3     H2       HT       0.417000       1.00800           0
     39033 TIP3     5551     TIP3     OH2      OT      -0.834000       15.9994           0
     39034 TIP3     5551     TIP3     H1       HT       0.417000       1.00800           0
     39035 TIP3     5551     TIP3     H2       HT       0.417000       1.00800           0
     39036 TIP3     5552     TIP3     OH2      OT      -0.834000       15.9994           0
     39037 TIP3     5552     TIP3     H1       HT       0.417000       1.00800           0
     39038 TIP3     5552     TIP3     H2       HT       0.417000       1.00800           0
     39039 TIP3     5553     TIP3     OH2      OT      -0.834000       15.9994           0
     39040 TIP3     5553     TIP3     H1       HT       0.417000       1.00800           0
     39041 TIP3     5553     TIP3     H2       HT       0.417000       1.00800           0
     39042 TIP3     5554     TIP3     OH2      OT      -0.834000       15.9994           0
     39043 TIP3     5554     TIP3     H1       HT       0.417000       1.00800           0
     39044 TIP3     5554     TIP3     H2       HT       0.417000       1.00800           0
     39045 TIP3     5555     TIP3     OH2      OT      -0.834000       15.9994           0
     39046 TIP3     5555     TIP3     H1       HT       0.417000       1.00800           0
     39047 TIP3     5555     TIP3     H2       HT       0.417000       1.00800           0
     39048 TIP3     5556     TIP3     OH2      OT      -0.834000       15.9994           0
     39049 TIP3     5556     TIP3     H1       HT       0.417000       1.00800           0
     39050 TIP3     5556     TIP3     H2       HT       0.417000       1.00800           0
     39051 TIP3     5557     TIP3     OH2      OT      -0.834000       15.9994           0
     39052 TIP3     5557     TIP3     H1       HT       0.417000       1.00800           0
     39053 TIP3     5557     TIP3     H2       HT       0.417000       1.00800           0
     39054 TIP3     5558     TIP3     OH2      OT      -0.834000       15.9994           0
     39055 TIP3     5558     TIP3     H1       HT       0.417000       1.00800           0
     39056 TIP3     5558     TIP3     H2       HT       0.417000       1.00800           0
     39057 TIP3     5559     TIP3     OH2      OT      -0.834000       15.9994           0
     39058 TIP3     5559     TIP3     H1       HT       0.417000       1.00800           0
     39059 TIP3     5559     TIP3     H2       HT       0.417000       1.00800           0
     39060 TIP3     5560     TIP3     OH2      OT      -0.834000       15.9994           0
     39061 TIP3     5560     TIP3     H1       HT       0.417000       1.00800           0
     39062 TIP3     5560     TIP3     H2       HT       0.417000       1.00800           0
     39063 TIP3     5561     TIP3     OH2      OT      -0.834000       15.9994           0
     39064 TIP3     5561     TIP3     H1       HT       0.417000       1.00800           0
     39065 TIP3     5561     TIP3     H2       HT       0.417000       1.00800           0
     39066 TIP3     5562     TIP3     OH2      OT      -0.834000       15.9994           0
     39067 TIP3     5562     TIP3     H1       HT       0.417000       1.00800           0
     39068 TIP3     5562     TIP3     H2       HT       0.417000       1.00800           0
     39069 TIP3     5563     TIP3     OH2      OT      -0.834000       15.9994           0
     39070 TIP3     5563     TIP3     H1       HT       0.417000       1.00800           0
     39071 TIP3     5563     TIP3     H2       HT       0.417000       1.00800           0
     39072 TIP3     5564     TIP3     OH2      OT      -0.834000       15.9994           0
     39073 TIP3     5564     TIP3     H1       HT       0.417000       1.00800           0
     39074 TIP3     5564     TIP3     H2       HT       0.417000       1.00800           0
     39075 TIP3     5565     TIP3     OH2      OT      -0.834000       15.9994           0
     39076 TIP3     5565     TIP3     H1       HT       0.417000       1.00800           0
     39077 TIP3     5565     TIP3     H2       HT       0.417000       1.00800           0
     39078 TIP3     5566     TIP3     OH2      OT      -0.834000       15.9994           0
     39079 TIP3     5566     TIP3     H1       HT       0.417000       1.00800           0
     39080 TIP3     5566     TIP3     H2       HT       0.417000       1.00800           0
     39081 TIP3     5567     TIP3     OH2      OT      -0.834000       15.9994           0
     39082 TIP3     5567     TIP3     H1       HT       0.417000       1.00800           0
     39083 TIP3     5567     TIP3     H2       HT       0.417000       1.00800           0
     39084 TIP3     5568     TIP3     OH2      OT      -0.834000       15.9994           0
     39085 TIP3     5568     TIP3     H1       HT       0.417000       1.00800           0
     39086 TIP3     5568     TIP3     H2       HT       0.417000       1.00800           0
     39087 TIP3     5569     TIP3     OH2      OT      -0.834000       15.9994           0
     39088 TIP3     5569     TIP3     H1       HT       0.417000       1.00800           0
     39089 TIP3     5569     TIP3     H2       HT       0.417000       1.00800           0
     39090 TIP3     5570     TIP3     OH2      OT      -0.834000       15.9994           0
     39091 TIP3     5570     TIP3     H1       HT       0.417000       1.00800           0
     39092 TIP3     5570     TIP3     H2       HT       0.417000       1.00800           0
     39093 TIP3     5571     TIP3     OH2      OT      -0.834000       15.9994           0
     39094 TIP3     5571     TIP3     H1       HT       0.417000       1.00800           0
     39095 TIP3     5571     TIP3     H2       HT       0.417000       1.00800           0
     39096 TIP3     5572     TIP3     OH2      OT      -0.834000       15.9994           0
     39097 TIP3     5572     TIP3     H1       HT       0.417000       1.00800           0
     39098 TIP3     5572     TIP3     H2       HT       0.417000       1.00800           0
     39099 TIP3     5573     TIP3     OH2      OT      -0.834000       15.9994           0
     39100 TIP3     5573     TIP3     H1       HT       0.417000       1.00800           0
     39101 TIP3     5573     TIP3     H2       HT       0.417000       1.00800           0
     39102 TIP3     5574     TIP3     OH2      OT      -0.834000       15.9994           0
     39103 TIP3     5574     TIP3     H1       HT       0.417000       1.00800           0
     39104 TIP3     5574     TIP3     H2       HT       0.417000       1.00800           0
     39105 TIP3     5575     TIP3     OH2      OT      -0.834000       15.9994           0
     39106 TIP3     5575     TIP3     H1       HT       0.417000       1.00800           0
     39107 TIP3     5575     TIP3     H2       HT       0.417000       1.00800           0
     39108 TIP3     5576     TIP3     OH2      OT      -0.834000       15.9994           0
     39109 TIP3     5576     TIP3     H1       HT       0.417000       1.00800           0
     39110 TIP3     5576     TIP3     H2       HT       0.417000       1.00800           0
     39111 TIP3     5577     TIP3     OH2      OT      -0.834000       15.9994           0
     39112 TIP3     5577     TIP3     H1       HT       0.417000       1.00800           0
     39113 TIP3     5577     TIP3     H2       HT       0.417000       1.00800           0
     39114 TIP3     5578     TIP3     OH2      OT      -0.834000       15.9994           0
     39115 TIP3     5578     TIP3     H1       HT       0.417000       1.00800           0
     39116 TIP3     5578     TIP3     H2       HT       0.417000       1.00800           0
     39117 TIP3     5579     TIP3     OH2      OT      -0.834000       15.9994           0
     39118 TIP3     5579     TIP3     H1       HT       0.417000       1.00800           0
     39119 TIP3     5579     TIP3     H2       HT       0.417000       1.00800           0
     39120 TIP3     5580     TIP3     OH2      OT      -0.834000       15.9994           0
     39121 TIP3     5580     TIP3     H1       HT       0.417000       1.00800           0
     39122 TIP3     5580     TIP3     H2       HT       0.417000       1.00800           0
     39123 TIP3     5581     TIP3     OH2      OT      -0.834000       15.9994           0
     39124 TIP3     5581     TIP3     H1       HT       0.417000       1.00800           0
     39125 TIP3     5581     TIP3     H2       HT       0.417000       1.00800           0
     39126 TIP3     5582     TIP3     OH2      OT      -0.834000       15.9994           0
     39127 TIP3     5582     TIP3     H1       HT       0.417000       1.00800           0
     39128 TIP3     5582     TIP3     H2       HT       0.417000       1.00800           0
     39129 TIP3     5583     TIP3     OH2      OT      -0.834000       15.9994           0
     39130 TIP3     5583     TIP3     H1       HT       0.417000       1.00800           0
     39131 TIP3     5583     TIP3     H2       HT       0.417000       1.00800           0
     39132 TIP3     5584     TIP3     OH2      OT      -0.834000       15.9994           0
     39133 TIP3     5584     TIP3     H1       HT       0.417000       1.00800           0
     39134 TIP3     5584     TIP3     H2       HT       0.417000       1.00800           0
     39135 TIP3     5585     TIP3     OH2      OT      -0.834000       15.9994           0
     39136 TIP3     5585     TIP3     H1       HT       0.417000       1.00800           0
     39137 TIP3     5585     TIP3     H2       HT       0.417000       1.00800           0
     39138 TIP3     5586     TIP3     OH2      OT      -0.834000       15.9994           0
     39139 TIP3     5586     TIP3     H1       HT       0.417000       1.00800           0
     39140 TIP3     5586     TIP3     H2       HT       0.417000       1.00800           0
     39141 TIP3     5587     TIP3     OH2      OT      -0.834000       15.9994           0
     39142 TIP3     5587     TIP3     H1       HT       0.417000       1.00800           0
     39143 TIP3     5587     TIP3     H2       HT       0.417000       1.00800           0
     39144 TIP3     5588     TIP3     OH2      OT      -0.834000       15.9994           0
     39145 TIP3     5588     TIP3     H1       HT       0.417000       1.00800           0
     39146 TIP3     5588     TIP3     H2       HT       0.417000       1.00800           0
     39147 TIP3     5589     TIP3     OH2      OT      -0.834000       15.9994           0
     39148 TIP3     5589     TIP3     H1       HT       0.417000       1.00800           0
     39149 TIP3     5589     TIP3     H2       HT       0.417000       1.00800           0
     39150 TIP3     5590     TIP3     OH2      OT      -0.834000       15.9994           0
     39151 TIP3     5590     TIP3     H1       HT       0.417000       1.00800           0
     39152 TIP3     5590     TIP3     H2       HT       0.417000       1.00800           0
     39153 TIP3     5591     TIP3     OH2      OT      -0.834000       15.9994           0
     39154 TIP3     5591     TIP3     H1       HT       0.417000       1.00800           0
     39155 TIP3     5591     TIP3     H2       HT       0.417000       1.00800           0
     39156 TIP3     5592     TIP3     OH2      OT      -0.834000       15.9994           0
     39157 TIP3     5592     TIP3     H1       HT       0.417000       1.00800           0
     39158 TIP3     5592     TIP3     H2       HT       0.417000       1.00800           0
     39159 TIP3     5593     TIP3     OH2      OT      -0.834000       15.9994           0
     39160 TIP3     5593     TIP3     H1       HT       0.417000       1.00800           0
     39161 TIP3     5593     TIP3     H2       HT       0.417000       1.00800           0
     39162 TIP3     5594     TIP3     OH2      OT      -0.834000       15.9994           0
     39163 TIP3     5594     TIP3     H1       HT       0.417000       1.00800           0
     39164 TIP3     5594     TIP3     H2       HT       0.417000       1.00800           0
     39165 TIP3     5595     TIP3     OH2      OT      -0.834000       15.9994           0
     39166 TIP3     5595     TIP3     H1       HT       0.417000       1.00800           0
     39167 TIP3     5595     TIP3     H2       HT       0.417000       1.00800           0
     39168 TIP3     5596     TIP3     OH2      OT      -0.834000       15.9994           0
     39169 TIP3     5596     TIP3     H1       HT       0.417000       1.00800           0
     39170 TIP3     5596     TIP3     H2       HT       0.417000       1.00800           0
     39171 TIP3     5597     TIP3     OH2      OT      -0.834000       15.9994           0
     39172 TIP3     5597     TIP3     H1       HT       0.417000       1.00800           0
     39173 TIP3     5597     TIP3     H2       HT       0.417000       1.00800           0
     39174 TIP3     5598     TIP3     OH2      OT      -0.834000       15.9994           0
     39175 TIP3     5598     TIP3     H1       HT       0.417000       1.00800           0
     39176 TIP3     5598     TIP3     H2       HT       0.417000       1.00800           0
     39177 TIP3     5599     TIP3     OH2      OT      -0.834000       15.9994           0
     39178 TIP3     5599     TIP3     H1       HT       0.417000       1.00800           0
     39179 TIP3     5599     TIP3     H2       HT       0.417000       1.00800           0
     39180 TIP3     5600     TIP3     OH2      OT      -0.834000       15.9994           0
     39181 TIP3     5600     TIP3     H1       HT       0.417000       1.00800           0
     39182 TIP3     5600     TIP3     H2       HT       0.417000       1.00800           0
     39183 TIP3     5601     TIP3     OH2      OT      -0.834000       15.9994           0
     39184 TIP3     5601     TIP3     H1       HT       0.417000       1.00800           0
     39185 TIP3     5601     TIP3     H2       HT       0.417000       1.00800           0
     39186 TIP3     5602     TIP3     OH2      OT      -0.834000       15.9994           0
     39187 TIP3     5602     TIP3     H1       HT       0.417000       1.00800           0
     39188 TIP3     5602     TIP3     H2       HT       0.417000       1.00800           0
     39189 TIP3     5603     TIP3     OH2      OT      -0.834000       15.9994           0
     39190 TIP3     5603     TIP3     H1       HT       0.417000       1.00800           0
     39191 TIP3     5603     TIP3     H2       HT       0.417000       1.00800           0
     39192 TIP3     5604     TIP3     OH2      OT      -0.834000       15.9994           0
     39193 TIP3     5604     TIP3     H1       HT       0.417000       1.00800           0
     39194 TIP3     5604     TIP3     H2       HT       0.417000       1.00800           0
     39195 TIP3     5605     TIP3     OH2      OT      -0.834000       15.9994           0
     39196 TIP3     5605     TIP3     H1       HT       0.417000       1.00800           0
     39197 TIP3     5605     TIP3     H2       HT       0.417000       1.00800           0
     39198 TIP3     5606     TIP3     OH2      OT      -0.834000       15.9994           0
     39199 TIP3     5606     TIP3     H1       HT       0.417000       1.00800           0
     39200 TIP3     5606     TIP3     H2       HT       0.417000       1.00800           0
     39201 TIP3     5607     TIP3     OH2      OT      -0.834000       15.9994           0
     39202 TIP3     5607     TIP3     H1       HT       0.417000       1.00800           0
     39203 TIP3     5607     TIP3     H2       HT       0.417000       1.00800           0
     39204 TIP3     5608     TIP3     OH2      OT      -0.834000       15.9994           0
     39205 TIP3     5608     TIP3     H1       HT       0.417000       1.00800           0
     39206 TIP3     5608     TIP3     H2       HT       0.417000       1.00800           0
     39207 TIP3     5609     TIP3     OH2      OT      -0.834000       15.9994           0
     39208 TIP3     5609     TIP3     H1       HT       0.417000       1.00800           0
     39209 TIP3     5609     TIP3     H2       HT       0.417000       1.00800           0
     39210 TIP3     5610     TIP3     OH2      OT      -0.834000       15.9994           0
     39211 TIP3     5610     TIP3     H1       HT       0.417000       1.00800           0
     39212 TIP3     5610     TIP3     H2       HT       0.417000       1.00800           0
     39213 TIP3     5611     TIP3     OH2      OT      -0.834000       15.9994           0
     39214 TIP3     5611     TIP3     H1       HT       0.417000       1.00800           0
     39215 TIP3     5611     TIP3     H2       HT       0.417000       1.00800           0
     39216 TIP3     5612     TIP3     OH2      OT      -0.834000       15.9994           0
     39217 TIP3     5612     TIP3     H1       HT       0.417000       1.00800           0
     39218 TIP3     5612     TIP3     H2       HT       0.417000       1.00800           0
     39219 TIP3     5613     TIP3     OH2      OT      -0.834000       15.9994           0
     39220 TIP3     5613     TIP3     H1       HT       0.417000       1.00800           0
     39221 TIP3     5613     TIP3     H2       HT       0.417000       1.00800           0
     39222 TIP3     5614     TIP3     OH2      OT      -0.834000       15.9994           0
     39223 TIP3     5614     TIP3     H1       HT       0.417000       1.00800           0
     39224 TIP3     5614     TIP3     H2       HT       0.417000       1.00800           0
     39225 TIP3     5615     TIP3     OH2      OT      -0.834000       15.9994           0
     39226 TIP3     5615     TIP3     H1       HT       0.417000       1.00800           0
     39227 TIP3     5615     TIP3     H2       HT       0.417000       1.00800           0
     39228 TIP3     5616     TIP3     OH2      OT      -0.834000       15.9994           0
     39229 TIP3     5616     TIP3     H1       HT       0.417000       1.00800           0
     39230 TIP3     5616     TIP3     H2       HT       0.417000       1.00800           0
     39231 TIP3     5617     TIP3     OH2      OT      -0.834000       15.9994           0
     39232 TIP3     5617     TIP3     H1       HT       0.417000       1.00800           0
     39233 TIP3     5617     TIP3     H2       HT       0.417000       1.00800           0
     39234 TIP3     5618     TIP3     OH2      OT      -0.834000       15.9994           0
     39235 TIP3     5618     TIP3     H1       HT       0.417000       1.00800           0
     39236 TIP3     5618     TIP3     H2       HT       0.417000       1.00800           0
     39237 TIP3     5619     TIP3     OH2      OT      -0.834000       15.9994           0
     39238 TIP3     5619     TIP3     H1       HT       0.417000       1.00800           0
     39239 TIP3     5619     TIP3     H2       HT       0.417000       1.00800           0
     39240 TIP3     5620     TIP3     OH2      OT      -0.834000       15.9994           0
     39241 TIP3     5620     TIP3     H1       HT       0.417000       1.00800           0
     39242 TIP3     5620     TIP3     H2       HT       0.417000       1.00800           0
     39243 TIP3     5621     TIP3     OH2      OT      -0.834000       15.9994           0
     39244 TIP3     5621     TIP3     H1       HT       0.417000       1.00800           0
     39245 TIP3     5621     TIP3     H2       HT       0.417000       1.00800           0
     39246 TIP3     5622     TIP3     OH2      OT      -0.834000       15.9994           0
     39247 TIP3     5622     TIP3     H1       HT       0.417000       1.00800           0
     39248 TIP3     5622     TIP3     H2       HT       0.417000       1.00800           0
     39249 TIP3     5623     TIP3     OH2      OT      -0.834000       15.9994           0
     39250 TIP3     5623     TIP3     H1       HT       0.417000       1.00800           0
     39251 TIP3     5623     TIP3     H2       HT       0.417000       1.00800           0
     39252 TIP3     5624     TIP3     OH2      OT      -0.834000       15.9994           0
     39253 TIP3     5624     TIP3     H1       HT       0.417000       1.00800           0
     39254 TIP3     5624     TIP3     H2       HT       0.417000       1.00800           0
     39255 TIP3     5625     TIP3     OH2      OT      -0.834000       15.9994           0
     39256 TIP3     5625     TIP3     H1       HT       0.417000       1.00800           0
     39257 TIP3     5625     TIP3     H2       HT       0.417000       1.00800           0
     39258 TIP3     5626     TIP3     OH2      OT      -0.834000       15.9994           0
     39259 TIP3     5626     TIP3     H1       HT       0.417000       1.00800           0
     39260 TIP3     5626     TIP3     H2       HT       0.417000       1.00800           0
     39261 TIP3     5627     TIP3     OH2      OT      -0.834000       15.9994           0
     39262 TIP3     5627     TIP3     H1       HT       0.417000       1.00800           0
     39263 TIP3     5627     TIP3     H2       HT       0.417000       1.00800           0
     39264 TIP3     5628     TIP3     OH2      OT      -0.834000       15.9994           0
     39265 TIP3     5628     TIP3     H1       HT       0.417000       1.00800           0
     39266 TIP3     5628     TIP3     H2       HT       0.417000       1.00800           0
     39267 TIP3     5629     TIP3     OH2      OT      -0.834000       15.9994           0
     39268 TIP3     5629     TIP3     H1       HT       0.417000       1.00800           0
     39269 TIP3     5629     TIP3     H2       HT       0.417000       1.00800           0
     39270 TIP3     5630     TIP3     OH2      OT      -0.834000       15.9994           0
     39271 TIP3     5630     TIP3     H1       HT       0.417000       1.00800           0
     39272 TIP3     5630     TIP3     H2       HT       0.417000       1.00800           0
     39273 TIP3     5631     TIP3     OH2      OT      -0.834000       15.9994           0
     39274 TIP3     5631     TIP3     H1       HT       0.417000       1.00800           0
     39275 TIP3     5631     TIP3     H2       HT       0.417000       1.00800           0
     39276 TIP3     5632     TIP3     OH2      OT      -0.834000       15.9994           0
     39277 TIP3     5632     TIP3     H1       HT       0.417000       1.00800           0
     39278 TIP3     5632     TIP3     H2       HT       0.417000       1.00800           0
     39279 TIP3     5633     TIP3     OH2      OT      -0.834000       15.9994           0
     39280 TIP3     5633     TIP3     H1       HT       0.417000       1.00800           0
     39281 TIP3     5633     TIP3     H2       HT       0.417000       1.00800           0
     39282 TIP3     5634     TIP3     OH2      OT      -0.834000       15.9994           0
     39283 TIP3     5634     TIP3     H1       HT       0.417000       1.00800           0
     39284 TIP3     5634     TIP3     H2       HT       0.417000       1.00800           0
     39285 TIP3     5635     TIP3     OH2      OT      -0.834000       15.9994           0
     39286 TIP3     5635     TIP3     H1       HT       0.417000       1.00800           0
     39287 TIP3     5635     TIP3     H2       HT       0.417000       1.00800           0
     39288 TIP3     5636     TIP3     OH2      OT      -0.834000       15.9994           0
     39289 TIP3     5636     TIP3     H1       HT       0.417000       1.00800           0
     39290 TIP3     5636     TIP3     H2       HT       0.417000       1.00800           0
     39291 TIP3     5637     TIP3     OH2      OT      -0.834000       15.9994           0
     39292 TIP3     5637     TIP3     H1       HT       0.417000       1.00800           0
     39293 TIP3     5637     TIP3     H2       HT       0.417000       1.00800           0
     39294 TIP3     5638     TIP3     OH2      OT      -0.834000       15.9994           0
     39295 TIP3     5638     TIP3     H1       HT       0.417000       1.00800           0
     39296 TIP3     5638     TIP3     H2       HT       0.417000       1.00800           0
     39297 TIP3     5639     TIP3     OH2      OT      -0.834000       15.9994           0
     39298 TIP3     5639     TIP3     H1       HT       0.417000       1.00800           0
     39299 TIP3     5639     TIP3     H2       HT       0.417000       1.00800           0
     39300 TIP3     5640     TIP3     OH2      OT      -0.834000       15.9994           0
     39301 TIP3     5640     TIP3     H1       HT       0.417000       1.00800           0
     39302 TIP3     5640     TIP3     H2       HT       0.417000       1.00800           0
     39303 TIP3     5641     TIP3     OH2      OT      -0.834000       15.9994           0
     39304 TIP3     5641     TIP3     H1       HT       0.417000       1.00800           0
     39305 TIP3     5641     TIP3     H2       HT       0.417000       1.00800           0
     39306 TIP3     5642     TIP3     OH2      OT      -0.834000       15.9994           0
     39307 TIP3     5642     TIP3     H1       HT       0.417000       1.00800           0
     39308 TIP3     5642     TIP3     H2       HT       0.417000       1.00800           0
     39309 TIP3     5643     TIP3     OH2      OT      -0.834000       15.9994           0
     39310 TIP3     5643     TIP3     H1       HT       0.417000       1.00800           0
     39311 TIP3     5643     TIP3     H2       HT       0.417000       1.00800           0
     39312 TIP3     5644     TIP3     OH2      OT      -0.834000       15.9994           0
     39313 TIP3     5644     TIP3     H1       HT       0.417000       1.00800           0
     39314 TIP3     5644     TIP3     H2       HT       0.417000       1.00800           0
     39315 TIP3     5645     TIP3     OH2      OT      -0.834000       15.9994           0
     39316 TIP3     5645     TIP3     H1       HT       0.417000       1.00800           0
     39317 TIP3     5645     TIP3     H2       HT       0.417000       1.00800           0
     39318 TIP3     5646     TIP3     OH2      OT      -0.834000       15.9994           0
     39319 TIP3     5646     TIP3     H1       HT       0.417000       1.00800           0
     39320 TIP3     5646     TIP3     H2       HT       0.417000       1.00800           0
     39321 TIP3     5647     TIP3     OH2      OT      -0.834000       15.9994           0
     39322 TIP3     5647     TIP3     H1       HT       0.417000       1.00800           0
     39323 TIP3     5647     TIP3     H2       HT       0.417000       1.00800           0
     39324 TIP3     5648     TIP3     OH2      OT      -0.834000       15.9994           0
     39325 TIP3     5648     TIP3     H1       HT       0.417000       1.00800           0
     39326 TIP3     5648     TIP3     H2       HT       0.417000       1.00800           0
     39327 TIP3     5649     TIP3     OH2      OT      -0.834000       15.9994           0
     39328 TIP3     5649     TIP3     H1       HT       0.417000       1.00800           0
     39329 TIP3     5649     TIP3     H2       HT       0.417000       1.00800           0
     39330 TIP3     5650     TIP3     OH2      OT      -0.834000       15.9994           0
     39331 TIP3     5650     TIP3     H1       HT       0.417000       1.00800           0
     39332 TIP3     5650     TIP3     H2       HT       0.417000       1.00800           0
     39333 TIP3     5651     TIP3     OH2      OT      -0.834000       15.9994           0
     39334 TIP3     5651     TIP3     H1       HT       0.417000       1.00800           0
     39335 TIP3     5651     TIP3     H2       HT       0.417000       1.00800           0
     39336 TIP3     5652     TIP3     OH2      OT      -0.834000       15.9994           0
     39337 TIP3     5652     TIP3     H1       HT       0.417000       1.00800           0
     39338 TIP3     5652     TIP3     H2       HT       0.417000       1.00800           0
     39339 TIP3     5653     TIP3     OH2      OT      -0.834000       15.9994           0
     39340 TIP3     5653     TIP3     H1       HT       0.417000       1.00800           0
     39341 TIP3     5653     TIP3     H2       HT       0.417000       1.00800           0
     39342 TIP3     5654     TIP3     OH2      OT      -0.834000       15.9994           0
     39343 TIP3     5654     TIP3     H1       HT       0.417000       1.00800           0
     39344 TIP3     5654     TIP3     H2       HT       0.417000       1.00800           0
     39345 TIP3     5655     TIP3     OH2      OT      -0.834000       15.9994           0
     39346 TIP3     5655     TIP3     H1       HT       0.417000       1.00800           0
     39347 TIP3     5655     TIP3     H2       HT       0.417000       1.00800           0
     39348 TIP3     5656     TIP3     OH2      OT      -0.834000       15.9994           0
     39349 TIP3     5656     TIP3     H1       HT       0.417000       1.00800           0
     39350 TIP3     5656     TIP3     H2       HT       0.417000       1.00800           0
     39351 TIP3     5657     TIP3     OH2      OT      -0.834000       15.9994           0
     39352 TIP3     5657     TIP3     H1       HT       0.417000       1.00800           0
     39353 TIP3     5657     TIP3     H2       HT       0.417000       1.00800           0
     39354 TIP3     5658     TIP3     OH2      OT      -0.834000       15.9994           0
     39355 TIP3     5658     TIP3     H1       HT       0.417000       1.00800           0
     39356 TIP3     5658     TIP3     H2       HT       0.417000       1.00800           0
     39357 TIP3     5659     TIP3     OH2      OT      -0.834000       15.9994           0
     39358 TIP3     5659     TIP3     H1       HT       0.417000       1.00800           0
     39359 TIP3     5659     TIP3     H2       HT       0.417000       1.00800           0
     39360 TIP3     5660     TIP3     OH2      OT      -0.834000       15.9994           0
     39361 TIP3     5660     TIP3     H1       HT       0.417000       1.00800           0
     39362 TIP3     5660     TIP3     H2       HT       0.417000       1.00800           0
     39363 TIP3     5661     TIP3     OH2      OT      -0.834000       15.9994           0
     39364 TIP3     5661     TIP3     H1       HT       0.417000       1.00800           0
     39365 TIP3     5661     TIP3     H2       HT       0.417000       1.00800           0
     39366 TIP3     5662     TIP3     OH2      OT      -0.834000       15.9994           0
     39367 TIP3     5662     TIP3     H1       HT       0.417000       1.00800           0
     39368 TIP3     5662     TIP3     H2       HT       0.417000       1.00800           0
     39369 TIP3     5663     TIP3     OH2      OT      -0.834000       15.9994           0
     39370 TIP3     5663     TIP3     H1       HT       0.417000       1.00800           0
     39371 TIP3     5663     TIP3     H2       HT       0.417000       1.00800           0
     39372 TIP3     5664     TIP3     OH2      OT      -0.834000       15.9994           0
     39373 TIP3     5664     TIP3     H1       HT       0.417000       1.00800           0
     39374 TIP3     5664     TIP3     H2       HT       0.417000       1.00800           0
     39375 TIP3     5665     TIP3     OH2      OT      -0.834000       15.9994           0
     39376 TIP3     5665     TIP3     H1       HT       0.417000       1.00800           0
     39377 TIP3     5665     TIP3     H2       HT       0.417000       1.00800           0
     39378 TIP3     5666     TIP3     OH2      OT      -0.834000       15.9994           0
     39379 TIP3     5666     TIP3     H1       HT       0.417000       1.00800           0
     39380 TIP3     5666     TIP3     H2       HT       0.417000       1.00800           0
     39381 TIP3     5667     TIP3     OH2      OT      -0.834000       15.9994           0
     39382 TIP3     5667     TIP3     H1       HT       0.417000       1.00800           0
     39383 TIP3     5667     TIP3     H2       HT       0.417000       1.00800           0
     39384 TIP3     5668     TIP3     OH2      OT      -0.834000       15.9994           0
     39385 TIP3     5668     TIP3     H1       HT       0.417000       1.00800           0
     39386 TIP3     5668     TIP3     H2       HT       0.417000       1.00800           0
     39387 TIP3     5669     TIP3     OH2      OT      -0.834000       15.9994           0
     39388 TIP3     5669     TIP3     H1       HT       0.417000       1.00800           0
     39389 TIP3     5669     TIP3     H2       HT       0.417000       1.00800           0
     39390 TIP3     5670     TIP3     OH2      OT      -0.834000       15.9994           0
     39391 TIP3     5670     TIP3     H1       HT       0.417000       1.00800           0
     39392 TIP3     5670     TIP3     H2       HT       0.417000       1.00800           0
     39393 TIP3     5671     TIP3     OH2      OT      -0.834000       15.9994           0
     39394 TIP3     5671     TIP3     H1       HT       0.417000       1.00800           0
     39395 TIP3     5671     TIP3     H2       HT       0.417000       1.00800           0
     39396 TIP3     5672     TIP3     OH2      OT      -0.834000       15.9994           0
     39397 TIP3     5672     TIP3     H1       HT       0.417000       1.00800           0
     39398 TIP3     5672     TIP3     H2       HT       0.417000       1.00800           0
     39399 TIP3     5673     TIP3     OH2      OT      -0.834000       15.9994           0
     39400 TIP3     5673     TIP3     H1       HT       0.417000       1.00800           0
     39401 TIP3     5673     TIP3     H2       HT       0.417000       1.00800           0
     39402 TIP3     5674     TIP3     OH2      OT      -0.834000       15.9994           0
     39403 TIP3     5674     TIP3     H1       HT       0.417000       1.00800           0
     39404 TIP3     5674     TIP3     H2       HT       0.417000       1.00800           0
     39405 TIP3     5675     TIP3     OH2      OT      -0.834000       15.9994           0
     39406 TIP3     5675     TIP3     H1       HT       0.417000       1.00800           0
     39407 TIP3     5675     TIP3     H2       HT       0.417000       1.00800           0
     39408 TIP3     5676     TIP3     OH2      OT      -0.834000       15.9994           0
     39409 TIP3     5676     TIP3     H1       HT       0.417000       1.00800           0
     39410 TIP3     5676     TIP3     H2       HT       0.417000       1.00800           0
     39411 TIP3     5677     TIP3     OH2      OT      -0.834000       15.9994           0
     39412 TIP3     5677     TIP3     H1       HT       0.417000       1.00800           0
     39413 TIP3     5677     TIP3     H2       HT       0.417000       1.00800           0
     39414 TIP3     5678     TIP3     OH2      OT      -0.834000       15.9994           0
     39415 TIP3     5678     TIP3     H1       HT       0.417000       1.00800           0
     39416 TIP3     5678     TIP3     H2       HT       0.417000       1.00800           0
     39417 TIP3     5679     TIP3     OH2      OT      -0.834000       15.9994           0
     39418 TIP3     5679     TIP3     H1       HT       0.417000       1.00800           0
     39419 TIP3     5679     TIP3     H2       HT       0.417000       1.00800           0
     39420 TIP3     5680     TIP3     OH2      OT      -0.834000       15.9994           0
     39421 TIP3     5680     TIP3     H1       HT       0.417000       1.00800           0
     39422 TIP3     5680     TIP3     H2       HT       0.417000       1.00800           0
     39423 TIP3     5681     TIP3     OH2      OT      -0.834000       15.9994           0
     39424 TIP3     5681     TIP3     H1       HT       0.417000       1.00800           0
     39425 TIP3     5681     TIP3     H2       HT       0.417000       1.00800           0
     39426 TIP3     5682     TIP3     OH2      OT      -0.834000       15.9994           0
     39427 TIP3     5682     TIP3     H1       HT       0.417000       1.00800           0
     39428 TIP3     5682     TIP3     H2       HT       0.417000       1.00800           0
     39429 TIP3     5683     TIP3     OH2      OT      -0.834000       15.9994           0
     39430 TIP3     5683     TIP3     H1       HT       0.417000       1.00800           0
     39431 TIP3     5683     TIP3     H2       HT       0.417000       1.00800           0
     39432 TIP3     5684     TIP3     OH2      OT      -0.834000       15.9994           0
     39433 TIP3     5684     TIP3     H1       HT       0.417000       1.00800           0
     39434 TIP3     5684     TIP3     H2       HT       0.417000       1.00800           0
     39435 TIP3     5685     TIP3     OH2      OT      -0.834000       15.9994           0
     39436 TIP3     5685     TIP3     H1       HT       0.417000       1.00800           0
     39437 TIP3     5685     TIP3     H2       HT       0.417000       1.00800           0
     39438 TIP3     5686     TIP3     OH2      OT      -0.834000       15.9994           0
     39439 TIP3     5686     TIP3     H1       HT       0.417000       1.00800           0
     39440 TIP3     5686     TIP3     H2       HT       0.417000       1.00800           0
     39441 TIP3     5687     TIP3     OH2      OT      -0.834000       15.9994           0
     39442 TIP3     5687     TIP3     H1       HT       0.417000       1.00800           0
     39443 TIP3     5687     TIP3     H2       HT       0.417000       1.00800           0
     39444 TIP3     5688     TIP3     OH2      OT      -0.834000       15.9994           0
     39445 TIP3     5688     TIP3     H1       HT       0.417000       1.00800           0
     39446 TIP3     5688     TIP3     H2       HT       0.417000       1.00800           0
     39447 TIP3     5689     TIP3     OH2      OT      -0.834000       15.9994           0
     39448 TIP3     5689     TIP3     H1       HT       0.417000       1.00800           0
     39449 TIP3     5689     TIP3     H2       HT       0.417000       1.00800           0
     39450 TIP3     5690     TIP3     OH2      OT      -0.834000       15.9994           0
     39451 TIP3     5690     TIP3     H1       HT       0.417000       1.00800           0
     39452 TIP3     5690     TIP3     H2       HT       0.417000       1.00800           0
     39453 TIP3     5691     TIP3     OH2      OT      -0.834000       15.9994           0
     39454 TIP3     5691     TIP3     H1       HT       0.417000       1.00800           0
     39455 TIP3     5691     TIP3     H2       HT       0.417000       1.00800           0
     39456 TIP3     5692     TIP3     OH2      OT      -0.834000       15.9994           0
     39457 TIP3     5692     TIP3     H1       HT       0.417000       1.00800           0
     39458 TIP3     5692     TIP3     H2       HT       0.417000       1.00800           0
     39459 TIP3     5693     TIP3     OH2      OT      -0.834000       15.9994           0
     39460 TIP3     5693     TIP3     H1       HT       0.417000       1.00800           0
     39461 TIP3     5693     TIP3     H2       HT       0.417000       1.00800           0
     39462 TIP3     5694     TIP3     OH2      OT      -0.834000       15.9994           0
     39463 TIP3     5694     TIP3     H1       HT       0.417000       1.00800           0
     39464 TIP3     5694     TIP3     H2       HT       0.417000       1.00800           0
     39465 TIP3     5695     TIP3     OH2      OT      -0.834000       15.9994           0
     39466 TIP3     5695     TIP3     H1       HT       0.417000       1.00800           0
     39467 TIP3     5695     TIP3     H2       HT       0.417000       1.00800           0
     39468 TIP3     5696     TIP3     OH2      OT      -0.834000       15.9994           0
     39469 TIP3     5696     TIP3     H1       HT       0.417000       1.00800           0
     39470 TIP3     5696     TIP3     H2       HT       0.417000       1.00800           0
     39471 TIP3     5697     TIP3     OH2      OT      -0.834000       15.9994           0
     39472 TIP3     5697     TIP3     H1       HT       0.417000       1.00800           0
     39473 TIP3     5697     TIP3     H2       HT       0.417000       1.00800           0
     39474 TIP3     5698     TIP3     OH2      OT      -0.834000       15.9994           0
     39475 TIP3     5698     TIP3     H1       HT       0.417000       1.00800           0
     39476 TIP3     5698     TIP3     H2       HT       0.417000       1.00800           0
     39477 TIP3     5699     TIP3     OH2      OT      -0.834000       15.9994           0
     39478 TIP3     5699     TIP3     H1       HT       0.417000       1.00800           0
     39479 TIP3     5699     TIP3     H2       HT       0.417000       1.00800           0
     39480 TIP3     5700     TIP3     OH2      OT      -0.834000       15.9994           0
     39481 TIP3     5700     TIP3     H1       HT       0.417000       1.00800           0
     39482 TIP3     5700     TIP3     H2       HT       0.417000       1.00800           0
     39483 TIP3     5701     TIP3     OH2      OT      -0.834000       15.9994           0
     39484 TIP3     5701     TIP3     H1       HT       0.417000       1.00800           0
     39485 TIP3     5701     TIP3     H2       HT       0.417000       1.00800           0
     39486 TIP3     5702     TIP3     OH2      OT      -0.834000       15.9994           0
     39487 TIP3     5702     TIP3     H1       HT       0.417000       1.00800           0
     39488 TIP3     5702     TIP3     H2       HT       0.417000       1.00800           0
     39489 TIP3     5703     TIP3     OH2      OT      -0.834000       15.9994           0
     39490 TIP3     5703     TIP3     H1       HT       0.417000       1.00800           0
     39491 TIP3     5703     TIP3     H2       HT       0.417000       1.00800           0
     39492 TIP3     5704     TIP3     OH2      OT      -0.834000       15.9994           0
     39493 TIP3     5704     TIP3     H1       HT       0.417000       1.00800           0
     39494 TIP3     5704     TIP3     H2       HT       0.417000       1.00800           0
     39495 TIP3     5705     TIP3     OH2      OT      -0.834000       15.9994           0
     39496 TIP3     5705     TIP3     H1       HT       0.417000       1.00800           0
     39497 TIP3     5705     TIP3     H2       HT       0.417000       1.00800           0
     39498 TIP3     5706     TIP3     OH2      OT      -0.834000       15.9994           0
     39499 TIP3     5706     TIP3     H1       HT       0.417000       1.00800           0
     39500 TIP3     5706     TIP3     H2       HT       0.417000       1.00800           0
     39501 TIP3     5707     TIP3     OH2      OT      -0.834000       15.9994           0
     39502 TIP3     5707     TIP3     H1       HT       0.417000       1.00800           0
     39503 TIP3     5707     TIP3     H2       HT       0.417000       1.00800           0
     39504 TIP3     5708     TIP3     OH2      OT      -0.834000       15.9994           0
     39505 TIP3     5708     TIP3     H1       HT       0.417000       1.00800           0
     39506 TIP3     5708     TIP3     H2       HT       0.417000       1.00800           0
     39507 TIP3     5709     TIP3     OH2      OT      -0.834000       15.9994           0
     39508 TIP3     5709     TIP3     H1       HT       0.417000       1.00800           0
     39509 TIP3     5709     TIP3     H2       HT       0.417000       1.00800           0
     39510 TIP3     5710     TIP3     OH2      OT      -0.834000       15.9994           0
     39511 TIP3     5710     TIP3     H1       HT       0.417000       1.00800           0
     39512 TIP3     5710     TIP3     H2       HT       0.417000       1.00800           0
     39513 TIP3     5711     TIP3     OH2      OT      -0.834000       15.9994           0
     39514 TIP3     5711     TIP3     H1       HT       0.417000       1.00800           0
     39515 TIP3     5711     TIP3     H2       HT       0.417000       1.00800           0
     39516 TIP3     5712     TIP3     OH2      OT      -0.834000       15.9994           0
     39517 TIP3     5712     TIP3     H1       HT       0.417000       1.00800           0
     39518 TIP3     5712     TIP3     H2       HT       0.417000       1.00800           0
     39519 TIP3     5713     TIP3     OH2      OT      -0.834000       15.9994           0
     39520 TIP3     5713     TIP3     H1       HT       0.417000       1.00800           0
     39521 TIP3     5713     TIP3     H2       HT       0.417000       1.00800           0
     39522 TIP3     5714     TIP3     OH2      OT      -0.834000       15.9994           0
     39523 TIP3     5714     TIP3     H1       HT       0.417000       1.00800           0
     39524 TIP3     5714     TIP3     H2       HT       0.417000       1.00800           0
     39525 TIP3     5715     TIP3     OH2      OT      -0.834000       15.9994           0
     39526 TIP3     5715     TIP3     H1       HT       0.417000       1.00800           0
     39527 TIP3     5715     TIP3     H2       HT       0.417000       1.00800           0
     39528 TIP3     5716     TIP3     OH2      OT      -0.834000       15.9994           0
     39529 TIP3     5716     TIP3     H1       HT       0.417000       1.00800           0
     39530 TIP3     5716     TIP3     H2       HT       0.417000       1.00800           0
     39531 TIP3     5717     TIP3     OH2      OT      -0.834000       15.9994           0
     39532 TIP3     5717     TIP3     H1       HT       0.417000       1.00800           0
     39533 TIP3     5717     TIP3     H2       HT       0.417000       1.00800           0
     39534 TIP3     5718     TIP3     OH2      OT      -0.834000       15.9994           0
     39535 TIP3     5718     TIP3     H1       HT       0.417000       1.00800           0
     39536 TIP3     5718     TIP3     H2       HT       0.417000       1.00800           0
     39537 TIP3     5719     TIP3     OH2      OT      -0.834000       15.9994           0
     39538 TIP3     5719     TIP3     H1       HT       0.417000       1.00800           0
     39539 TIP3     5719     TIP3     H2       HT       0.417000       1.00800           0
     39540 TIP3     5720     TIP3     OH2      OT      -0.834000       15.9994           0
     39541 TIP3     5720     TIP3     H1       HT       0.417000       1.00800           0
     39542 TIP3     5720     TIP3     H2       HT       0.417000       1.00800           0
     39543 TIP3     5721     TIP3     OH2      OT      -0.834000       15.9994           0
     39544 TIP3     5721     TIP3     H1       HT       0.417000       1.00800           0
     39545 TIP3     5721     TIP3     H2       HT       0.417000       1.00800           0
     39546 TIP3     5722     TIP3     OH2      OT      -0.834000       15.9994           0
     39547 TIP3     5722     TIP3     H1       HT       0.417000       1.00800           0
     39548 TIP3     5722     TIP3     H2       HT       0.417000       1.00800           0
     39549 TIP3     5723     TIP3     OH2      OT      -0.834000       15.9994           0
     39550 TIP3     5723     TIP3     H1       HT       0.417000       1.00800           0
     39551 TIP3     5723     TIP3     H2       HT       0.417000       1.00800           0
     39552 TIP3     5724     TIP3     OH2      OT      -0.834000       15.9994           0
     39553 TIP3     5724     TIP3     H1       HT       0.417000       1.00800           0
     39554 TIP3     5724     TIP3     H2       HT       0.417000       1.00800           0
     39555 TIP3     5725     TIP3     OH2      OT      -0.834000       15.9994           0
     39556 TIP3     5725     TIP3     H1       HT       0.417000       1.00800           0
     39557 TIP3     5725     TIP3     H2       HT       0.417000       1.00800           0
     39558 TIP3     5726     TIP3     OH2      OT      -0.834000       15.9994           0
     39559 TIP3     5726     TIP3     H1       HT       0.417000       1.00800           0
     39560 TIP3     5726     TIP3     H2       HT       0.417000       1.00800           0
     39561 TIP3     5727     TIP3     OH2      OT      -0.834000       15.9994           0
     39562 TIP3     5727     TIP3     H1       HT       0.417000       1.00800           0
     39563 TIP3     5727     TIP3     H2       HT       0.417000       1.00800           0
     39564 TIP3     5728     TIP3     OH2      OT      -0.834000       15.9994           0
     39565 TIP3     5728     TIP3     H1       HT       0.417000       1.00800           0
     39566 TIP3     5728     TIP3     H2       HT       0.417000       1.00800           0
     39567 TIP3     5729     TIP3     OH2      OT      -0.834000       15.9994           0
     39568 TIP3     5729     TIP3     H1       HT       0.417000       1.00800           0
     39569 TIP3     5729     TIP3     H2       HT       0.417000       1.00800           0
     39570 TIP3     5730     TIP3     OH2      OT      -0.834000       15.9994           0
     39571 TIP3     5730     TIP3     H1       HT       0.417000       1.00800           0
     39572 TIP3     5730     TIP3     H2       HT       0.417000       1.00800           0
     39573 TIP3     5731     TIP3     OH2      OT      -0.834000       15.9994           0
     39574 TIP3     5731     TIP3     H1       HT       0.417000       1.00800           0
     39575 TIP3     5731     TIP3     H2       HT       0.417000       1.00800           0
     39576 TIP3     5732     TIP3     OH2      OT      -0.834000       15.9994           0
     39577 TIP3     5732     TIP3     H1       HT       0.417000       1.00800           0
     39578 TIP3     5732     TIP3     H2       HT       0.417000       1.00800           0
     39579 TIP3     5733     TIP3     OH2      OT      -0.834000       15.9994           0
     39580 TIP3     5733     TIP3     H1       HT       0.417000       1.00800           0
     39581 TIP3     5733     TIP3     H2       HT       0.417000       1.00800           0
     39582 TIP3     5734     TIP3     OH2      OT      -0.834000       15.9994           0
     39583 TIP3     5734     TIP3     H1       HT       0.417000       1.00800           0
     39584 TIP3     5734     TIP3     H2       HT       0.417000       1.00800           0
     39585 TIP3     5735     TIP3     OH2      OT      -0.834000       15.9994           0
     39586 TIP3     5735     TIP3     H1       HT       0.417000       1.00800           0
     39587 TIP3     5735     TIP3     H2       HT       0.417000       1.00800           0
     39588 TIP3     5736     TIP3     OH2      OT      -0.834000       15.9994           0
     39589 TIP3     5736     TIP3     H1       HT       0.417000       1.00800           0
     39590 TIP3     5736     TIP3     H2       HT       0.417000       1.00800           0
     39591 TIP3     5737     TIP3     OH2      OT      -0.834000       15.9994           0
     39592 TIP3     5737     TIP3     H1       HT       0.417000       1.00800           0
     39593 TIP3     5737     TIP3     H2       HT       0.417000       1.00800           0
     39594 TIP3     5738     TIP3     OH2      OT      -0.834000       15.9994           0
     39595 TIP3     5738     TIP3     H1       HT       0.417000       1.00800           0
     39596 TIP3     5738     TIP3     H2       HT       0.417000       1.00800           0
     39597 TIP3     5739     TIP3     OH2      OT      -0.834000       15.9994           0
     39598 TIP3     5739     TIP3     H1       HT       0.417000       1.00800           0
     39599 TIP3     5739     TIP3     H2       HT       0.417000       1.00800           0
     39600 TIP3     5740     TIP3     OH2      OT      -0.834000       15.9994           0
     39601 TIP3     5740     TIP3     H1       HT       0.417000       1.00800           0
     39602 TIP3     5740     TIP3     H2       HT       0.417000       1.00800           0
     39603 TIP3     5741     TIP3     OH2      OT      -0.834000       15.9994           0
     39604 TIP3     5741     TIP3     H1       HT       0.417000       1.00800           0
     39605 TIP3     5741     TIP3     H2       HT       0.417000       1.00800           0
     39606 TIP3     5742     TIP3     OH2      OT      -0.834000       15.9994           0
     39607 TIP3     5742     TIP3     H1       HT       0.417000       1.00800           0
     39608 TIP3     5742     TIP3     H2       HT       0.417000       1.00800           0
     39609 TIP3     5743     TIP3     OH2      OT      -0.834000       15.9994           0
     39610 TIP3     5743     TIP3     H1       HT       0.417000       1.00800           0
     39611 TIP3     5743     TIP3     H2       HT       0.417000       1.00800           0
     39612 TIP3     5744     TIP3     OH2      OT      -0.834000       15.9994           0
     39613 TIP3     5744     TIP3     H1       HT       0.417000       1.00800           0
     39614 TIP3     5744     TIP3     H2       HT       0.417000       1.00800           0
     39615 TIP3     5745     TIP3     OH2      OT      -0.834000       15.9994           0
     39616 TIP3     5745     TIP3     H1       HT       0.417000       1.00800           0
     39617 TIP3     5745     TIP3     H2       HT       0.417000       1.00800           0
     39618 TIP3     5746     TIP3     OH2      OT      -0.834000       15.9994           0
     39619 TIP3     5746     TIP3     H1       HT       0.417000       1.00800           0
     39620 TIP3     5746     TIP3     H2       HT       0.417000       1.00800           0
     39621 TIP3     5747     TIP3     OH2      OT      -0.834000       15.9994           0
     39622 TIP3     5747     TIP3     H1       HT       0.417000       1.00800           0
     39623 TIP3     5747     TIP3     H2       HT       0.417000       1.00800           0
     39624 TIP3     5748     TIP3     OH2      OT      -0.834000       15.9994           0
     39625 TIP3     5748     TIP3     H1       HT       0.417000       1.00800           0
     39626 TIP3     5748     TIP3     H2       HT       0.417000       1.00800           0
     39627 TIP3     5749     TIP3     OH2      OT      -0.834000       15.9994           0
     39628 TIP3     5749     TIP3     H1       HT       0.417000       1.00800           0
     39629 TIP3     5749     TIP3     H2       HT       0.417000       1.00800           0
     39630 TIP3     5750     TIP3     OH2      OT      -0.834000       15.9994           0
     39631 TIP3     5750     TIP3     H1       HT       0.417000       1.00800           0
     39632 TIP3     5750     TIP3     H2       HT       0.417000       1.00800           0
     39633 TIP3     5751     TIP3     OH2      OT      -0.834000       15.9994           0
     39634 TIP3     5751     TIP3     H1       HT       0.417000       1.00800           0
     39635 TIP3     5751     TIP3     H2       HT       0.417000       1.00800           0
     39636 TIP3     5752     TIP3     OH2      OT      -0.834000       15.9994           0
     39637 TIP3     5752     TIP3     H1       HT       0.417000       1.00800           0
     39638 TIP3     5752     TIP3     H2       HT       0.417000       1.00800           0
     39639 TIP3     5753     TIP3     OH2      OT      -0.834000       15.9994           0
     39640 TIP3     5753     TIP3     H1       HT       0.417000       1.00800           0
     39641 TIP3     5753     TIP3     H2       HT       0.417000       1.00800           0
     39642 TIP3     5754     TIP3     OH2      OT      -0.834000       15.9994           0
     39643 TIP3     5754     TIP3     H1       HT       0.417000       1.00800           0
     39644 TIP3     5754     TIP3     H2       HT       0.417000       1.00800           0
     39645 TIP3     5755     TIP3     OH2      OT      -0.834000       15.9994           0
     39646 TIP3     5755     TIP3     H1       HT       0.417000       1.00800           0
     39647 TIP3     5755     TIP3     H2       HT       0.417000       1.00800           0
     39648 TIP3     5756     TIP3     OH2      OT      -0.834000       15.9994           0
     39649 TIP3     5756     TIP3     H1       HT       0.417000       1.00800           0
     39650 TIP3     5756     TIP3     H2       HT       0.417000       1.00800           0
     39651 TIP3     5757     TIP3     OH2      OT      -0.834000       15.9994           0
     39652 TIP3     5757     TIP3     H1       HT       0.417000       1.00800           0
     39653 TIP3     5757     TIP3     H2       HT       0.417000       1.00800           0
     39654 TIP3     5758     TIP3     OH2      OT      -0.834000       15.9994           0
     39655 TIP3     5758     TIP3     H1       HT       0.417000       1.00800           0
     39656 TIP3     5758     TIP3     H2       HT       0.417000       1.00800           0
     39657 TIP3     5759     TIP3     OH2      OT      -0.834000       15.9994           0
     39658 TIP3     5759     TIP3     H1       HT       0.417000       1.00800           0
     39659 TIP3     5759     TIP3     H2       HT       0.417000       1.00800           0
     39660 TIP3     5760     TIP3     OH2      OT      -0.834000       15.9994           0
     39661 TIP3     5760     TIP3     H1       HT       0.417000       1.00800           0
     39662 TIP3     5760     TIP3     H2       HT       0.417000       1.00800           0
     39663 TIP3     5761     TIP3     OH2      OT      -0.834000       15.9994           0
     39664 TIP3     5761     TIP3     H1       HT       0.417000       1.00800           0
     39665 TIP3     5761     TIP3     H2       HT       0.417000       1.00800           0
     39666 TIP3     5762     TIP3     OH2      OT      -0.834000       15.9994           0
     39667 TIP3     5762     TIP3     H1       HT       0.417000       1.00800           0
     39668 TIP3     5762     TIP3     H2       HT       0.417000       1.00800           0
     39669 TIP3     5763     TIP3     OH2      OT      -0.834000       15.9994           0
     39670 TIP3     5763     TIP3     H1       HT       0.417000       1.00800           0
     39671 TIP3     5763     TIP3     H2       HT       0.417000       1.00800           0
     39672 TIP3     5764     TIP3     OH2      OT      -0.834000       15.9994           0
     39673 TIP3     5764     TIP3     H1       HT       0.417000       1.00800           0
     39674 TIP3     5764     TIP3     H2       HT       0.417000       1.00800           0
     39675 TIP3     5765     TIP3     OH2      OT      -0.834000       15.9994           0
     39676 TIP3     5765     TIP3     H1       HT       0.417000       1.00800           0
     39677 TIP3     5765     TIP3     H2       HT       0.417000       1.00800           0
     39678 TIP3     5766     TIP3     OH2      OT      -0.834000       15.9994           0
     39679 TIP3     5766     TIP3     H1       HT       0.417000       1.00800           0
     39680 TIP3     5766     TIP3     H2       HT       0.417000       1.00800           0
     39681 TIP3     5767     TIP3     OH2      OT      -0.834000       15.9994           0
     39682 TIP3     5767     TIP3     H1       HT       0.417000       1.00800           0
     39683 TIP3     5767     TIP3     H2       HT       0.417000       1.00800           0
     39684 TIP3     5768     TIP3     OH2      OT      -0.834000       15.9994           0
     39685 TIP3     5768     TIP3     H1       HT       0.417000       1.00800           0
     39686 TIP3     5768     TIP3     H2       HT       0.417000       1.00800           0
     39687 TIP3     5769     TIP3     OH2      OT      -0.834000       15.9994           0
     39688 TIP3     5769     TIP3     H1       HT       0.417000       1.00800           0
     39689 TIP3     5769     TIP3     H2       HT       0.417000       1.00800           0
     39690 TIP3     5770     TIP3     OH2      OT      -0.834000       15.9994           0
     39691 TIP3     5770     TIP3     H1       HT       0.417000       1.00800           0
     39692 TIP3     5770     TIP3     H2       HT       0.417000       1.00800           0
     39693 TIP3     5771     TIP3     OH2      OT      -0.834000       15.9994           0
     39694 TIP3     5771     TIP3     H1       HT       0.417000       1.00800           0
     39695 TIP3     5771     TIP3     H2       HT       0.417000       1.00800           0
     39696 TIP3     5772     TIP3     OH2      OT      -0.834000       15.9994           0
     39697 TIP3     5772     TIP3     H1       HT       0.417000       1.00800           0
     39698 TIP3     5772     TIP3     H2       HT       0.417000       1.00800           0
     39699 TIP3     5773     TIP3     OH2      OT      -0.834000       15.9994           0
     39700 TIP3     5773     TIP3     H1       HT       0.417000       1.00800           0
     39701 TIP3     5773     TIP3     H2       HT       0.417000       1.00800           0
     39702 TIP3     5774     TIP3     OH2      OT      -0.834000       15.9994           0
     39703 TIP3     5774     TIP3     H1       HT       0.417000       1.00800           0
     39704 TIP3     5774     TIP3     H2       HT       0.417000       1.00800           0
     39705 TIP3     5775     TIP3     OH2      OT      -0.834000       15.9994           0
     39706 TIP3     5775     TIP3     H1       HT       0.417000       1.00800           0
     39707 TIP3     5775     TIP3     H2       HT       0.417000       1.00800           0
     39708 TIP3     5776     TIP3     OH2      OT      -0.834000       15.9994           0
     39709 TIP3     5776     TIP3     H1       HT       0.417000       1.00800           0
     39710 TIP3     5776     TIP3     H2       HT       0.417000       1.00800           0
     39711 TIP3     5777     TIP3     OH2      OT      -0.834000       15.9994           0
     39712 TIP3     5777     TIP3     H1       HT       0.417000       1.00800           0
     39713 TIP3     5777     TIP3     H2       HT       0.417000       1.00800           0
     39714 TIP3     5778     TIP3     OH2      OT      -0.834000       15.9994           0
     39715 TIP3     5778     TIP3     H1       HT       0.417000       1.00800           0
     39716 TIP3     5778     TIP3     H2       HT       0.417000       1.00800           0
     39717 TIP3     5779     TIP3     OH2      OT      -0.834000       15.9994           0
     39718 TIP3     5779     TIP3     H1       HT       0.417000       1.00800           0
     39719 TIP3     5779     TIP3     H2       HT       0.417000       1.00800           0
     39720 TIP3     5780     TIP3     OH2      OT      -0.834000       15.9994           0
     39721 TIP3     5780     TIP3     H1       HT       0.417000       1.00800           0
     39722 TIP3     5780     TIP3     H2       HT       0.417000       1.00800           0
     39723 TIP3     5781     TIP3     OH2      OT      -0.834000       15.9994           0
     39724 TIP3     5781     TIP3     H1       HT       0.417000       1.00800           0
     39725 TIP3     5781     TIP3     H2       HT       0.417000       1.00800           0
     39726 TIP3     5782     TIP3     OH2      OT      -0.834000       15.9994           0
     39727 TIP3     5782     TIP3     H1       HT       0.417000       1.00800           0
     39728 TIP3     5782     TIP3     H2       HT       0.417000       1.00800           0
     39729 TIP3     5783     TIP3     OH2      OT      -0.834000       15.9994           0
     39730 TIP3     5783     TIP3     H1       HT       0.417000       1.00800           0
     39731 TIP3     5783     TIP3     H2       HT       0.417000       1.00800           0
     39732 TIP3     5784     TIP3     OH2      OT      -0.834000       15.9994           0
     39733 TIP3     5784     TIP3     H1       HT       0.417000       1.00800           0
     39734 TIP3     5784     TIP3     H2       HT       0.417000       1.00800           0
     39735 TIP3     5785     TIP3     OH2      OT      -0.834000       15.9994           0
     39736 TIP3     5785     TIP3     H1       HT       0.417000       1.00800           0
     39737 TIP3     5785     TIP3     H2       HT       0.417000       1.00800           0
     39738 TIP3     5786     TIP3     OH2      OT      -0.834000       15.9994           0
     39739 TIP3     5786     TIP3     H1       HT       0.417000       1.00800           0
     39740 TIP3     5786     TIP3     H2       HT       0.417000       1.00800           0
     39741 TIP3     5787     TIP3     OH2      OT      -0.834000       15.9994           0
     39742 TIP3     5787     TIP3     H1       HT       0.417000       1.00800           0
     39743 TIP3     5787     TIP3     H2       HT       0.417000       1.00800           0
     39744 TIP3     5788     TIP3     OH2      OT      -0.834000       15.9994           0
     39745 TIP3     5788     TIP3     H1       HT       0.417000       1.00800           0
     39746 TIP3     5788     TIP3     H2       HT       0.417000       1.00800           0
     39747 TIP3     5789     TIP3     OH2      OT      -0.834000       15.9994           0
     39748 TIP3     5789     TIP3     H1       HT       0.417000       1.00800           0
     39749 TIP3     5789     TIP3     H2       HT       0.417000       1.00800           0
     39750 TIP3     5790     TIP3     OH2      OT      -0.834000       15.9994           0
     39751 TIP3     5790     TIP3     H1       HT       0.417000       1.00800           0
     39752 TIP3     5790     TIP3     H2       HT       0.417000       1.00800           0
     39753 TIP3     5791     TIP3     OH2      OT      -0.834000       15.9994           0
     39754 TIP3     5791     TIP3     H1       HT       0.417000       1.00800           0
     39755 TIP3     5791     TIP3     H2       HT       0.417000       1.00800           0
     39756 TIP3     5792     TIP3     OH2      OT      -0.834000       15.9994           0
     39757 TIP3     5792     TIP3     H1       HT       0.417000       1.00800           0
     39758 TIP3     5792     TIP3     H2       HT       0.417000       1.00800           0
     39759 TIP3     5793     TIP3     OH2      OT      -0.834000       15.9994           0
     39760 TIP3     5793     TIP3     H1       HT       0.417000       1.00800           0
     39761 TIP3     5793     TIP3     H2       HT       0.417000       1.00800           0
     39762 TIP3     5794     TIP3     OH2      OT      -0.834000       15.9994           0
     39763 TIP3     5794     TIP3     H1       HT       0.417000       1.00800           0
     39764 TIP3     5794     TIP3     H2       HT       0.417000       1.00800           0
     39765 TIP3     5795     TIP3     OH2      OT      -0.834000       15.9994           0
     39766 TIP3     5795     TIP3     H1       HT       0.417000       1.00800           0
     39767 TIP3     5795     TIP3     H2       HT       0.417000       1.00800           0
     39768 TIP3     5796     TIP3     OH2      OT      -0.834000       15.9994           0
     39769 TIP3     5796     TIP3     H1       HT       0.417000       1.00800           0
     39770 TIP3     5796     TIP3     H2       HT       0.417000       1.00800           0
     39771 TIP3     5797     TIP3     OH2      OT      -0.834000       15.9994           0
     39772 TIP3     5797     TIP3     H1       HT       0.417000       1.00800           0
     39773 TIP3     5797     TIP3     H2       HT       0.417000       1.00800           0
     39774 TIP3     5798     TIP3     OH2      OT      -0.834000       15.9994           0
     39775 TIP3     5798     TIP3     H1       HT       0.417000       1.00800           0
     39776 TIP3     5798     TIP3     H2       HT       0.417000       1.00800           0
     39777 TIP3     5799     TIP3     OH2      OT      -0.834000       15.9994           0
     39778 TIP3     5799     TIP3     H1       HT       0.417000       1.00800           0
     39779 TIP3     5799     TIP3     H2       HT       0.417000       1.00800           0
     39780 TIP3     5800     TIP3     OH2      OT      -0.834000       15.9994           0
     39781 TIP3     5800     TIP3     H1       HT       0.417000       1.00800           0
     39782 TIP3     5800     TIP3     H2       HT       0.417000       1.00800           0
     39783 TIP3     5801     TIP3     OH2      OT      -0.834000       15.9994           0
     39784 TIP3     5801     TIP3     H1       HT       0.417000       1.00800           0
     39785 TIP3     5801     TIP3     H2       HT       0.417000       1.00800           0
     39786 TIP3     5802     TIP3     OH2      OT      -0.834000       15.9994           0
     39787 TIP3     5802     TIP3     H1       HT       0.417000       1.00800           0
     39788 TIP3     5802     TIP3     H2       HT       0.417000       1.00800           0
     39789 TIP3     5803     TIP3     OH2      OT      -0.834000       15.9994           0
     39790 TIP3     5803     TIP3     H1       HT       0.417000       1.00800           0
     39791 TIP3     5803     TIP3     H2       HT       0.417000       1.00800           0
     39792 TIP3     5804     TIP3     OH2      OT      -0.834000       15.9994           0
     39793 TIP3     5804     TIP3     H1       HT       0.417000       1.00800           0
     39794 TIP3     5804     TIP3     H2       HT       0.417000       1.00800           0
     39795 TIP3     5805     TIP3     OH2      OT      -0.834000       15.9994           0
     39796 TIP3     5805     TIP3     H1       HT       0.417000       1.00800           0
     39797 TIP3     5805     TIP3     H2       HT       0.417000       1.00800           0
     39798 TIP3     5806     TIP3     OH2      OT      -0.834000       15.9994           0
     39799 TIP3     5806     TIP3     H1       HT       0.417000       1.00800           0
     39800 TIP3     5806     TIP3     H2       HT       0.417000       1.00800           0
     39801 TIP3     5807     TIP3     OH2      OT      -0.834000       15.9994           0
     39802 TIP3     5807     TIP3     H1       HT       0.417000       1.00800           0
     39803 TIP3     5807     TIP3     H2       HT       0.417000       1.00800           0
     39804 TIP3     5808     TIP3     OH2      OT      -0.834000       15.9994           0
     39805 TIP3     5808     TIP3     H1       HT       0.417000       1.00800           0
     39806 TIP3     5808     TIP3     H2       HT       0.417000       1.00800           0
     39807 TIP3     5809     TIP3     OH2      OT      -0.834000       15.9994           0
     39808 TIP3     5809     TIP3     H1       HT       0.417000       1.00800           0
     39809 TIP3     5809     TIP3     H2       HT       0.417000       1.00800           0
     39810 TIP3     5810     TIP3     OH2      OT      -0.834000       15.9994           0
     39811 TIP3     5810     TIP3     H1       HT       0.417000       1.00800           0
     39812 TIP3     5810     TIP3     H2       HT       0.417000       1.00800           0
     39813 TIP3     5811     TIP3     OH2      OT      -0.834000       15.9994           0
     39814 TIP3     5811     TIP3     H1       HT       0.417000       1.00800           0
     39815 TIP3     5811     TIP3     H2       HT       0.417000       1.00800           0
     39816 TIP3     5812     TIP3     OH2      OT      -0.834000       15.9994           0
     39817 TIP3     5812     TIP3     H1       HT       0.417000       1.00800           0
     39818 TIP3     5812     TIP3     H2       HT       0.417000       1.00800           0
     39819 TIP3     5813     TIP3     OH2      OT      -0.834000       15.9994           0
     39820 TIP3     5813     TIP3     H1       HT       0.417000       1.00800           0
     39821 TIP3     5813     TIP3     H2       HT       0.417000       1.00800           0
     39822 TIP3     5814     TIP3     OH2      OT      -0.834000       15.9994           0
     39823 TIP3     5814     TIP3     H1       HT       0.417000       1.00800           0
     39824 TIP3     5814     TIP3     H2       HT       0.417000       1.00800           0
     39825 TIP3     5815     TIP3     OH2      OT      -0.834000       15.9994           0
     39826 TIP3     5815     TIP3     H1       HT       0.417000       1.00800           0
     39827 TIP3     5815     TIP3     H2       HT       0.417000       1.00800           0
     39828 TIP3     5816     TIP3     OH2      OT      -0.834000       15.9994           0
     39829 TIP3     5816     TIP3     H1       HT       0.417000       1.00800           0
     39830 TIP3     5816     TIP3     H2       HT       0.417000       1.00800           0
     39831 TIP3     5817     TIP3     OH2      OT      -0.834000       15.9994           0
     39832 TIP3     5817     TIP3     H1       HT       0.417000       1.00800           0
     39833 TIP3     5817     TIP3     H2       HT       0.417000       1.00800           0
     39834 TIP3     5818     TIP3     OH2      OT      -0.834000       15.9994           0
     39835 TIP3     5818     TIP3     H1       HT       0.417000       1.00800           0
     39836 TIP3     5818     TIP3     H2       HT       0.417000       1.00800           0
     39837 TIP3     5819     TIP3     OH2      OT      -0.834000       15.9994           0
     39838 TIP3     5819     TIP3     H1       HT       0.417000       1.00800           0
     39839 TIP3     5819     TIP3     H2       HT       0.417000       1.00800           0
     39840 TIP3     5820     TIP3     OH2      OT      -0.834000       15.9994           0
     39841 TIP3     5820     TIP3     H1       HT       0.417000       1.00800           0
     39842 TIP3     5820     TIP3     H2       HT       0.417000       1.00800           0
     39843 TIP3     5821     TIP3     OH2      OT      -0.834000       15.9994           0
     39844 TIP3     5821     TIP3     H1       HT       0.417000       1.00800           0
     39845 TIP3     5821     TIP3     H2       HT       0.417000       1.00800           0
     39846 TIP3     5822     TIP3     OH2      OT      -0.834000       15.9994           0
     39847 TIP3     5822     TIP3     H1       HT       0.417000       1.00800           0
     39848 TIP3     5822     TIP3     H2       HT       0.417000       1.00800           0
     39849 TIP3     5823     TIP3     OH2      OT      -0.834000       15.9994           0
     39850 TIP3     5823     TIP3     H1       HT       0.417000       1.00800           0
     39851 TIP3     5823     TIP3     H2       HT       0.417000       1.00800           0
     39852 TIP3     5824     TIP3     OH2      OT      -0.834000       15.9994           0
     39853 TIP3     5824     TIP3     H1       HT       0.417000       1.00800           0
     39854 TIP3     5824     TIP3     H2       HT       0.417000       1.00800           0
     39855 TIP3     5825     TIP3     OH2      OT      -0.834000       15.9994           0
     39856 TIP3     5825     TIP3     H1       HT       0.417000       1.00800           0
     39857 TIP3     5825     TIP3     H2       HT       0.417000       1.00800           0
     39858 TIP3     5826     TIP3     OH2      OT      -0.834000       15.9994           0
     39859 TIP3     5826     TIP3     H1       HT       0.417000       1.00800           0
     39860 TIP3     5826     TIP3     H2       HT       0.417000       1.00800           0
     39861 TIP3     5827     TIP3     OH2      OT      -0.834000       15.9994           0
     39862 TIP3     5827     TIP3     H1       HT       0.417000       1.00800           0
     39863 TIP3     5827     TIP3     H2       HT       0.417000       1.00800           0
     39864 TIP3     5828     TIP3     OH2      OT      -0.834000       15.9994           0
     39865 TIP3     5828     TIP3     H1       HT       0.417000       1.00800           0
     39866 TIP3     5828     TIP3     H2       HT       0.417000       1.00800           0
     39867 TIP3     5829     TIP3     OH2      OT      -0.834000       15.9994           0
     39868 TIP3     5829     TIP3     H1       HT       0.417000       1.00800           0
     39869 TIP3     5829     TIP3     H2       HT       0.417000       1.00800           0
     39870 TIP3     5830     TIP3     OH2      OT      -0.834000       15.9994           0
     39871 TIP3     5830     TIP3     H1       HT       0.417000       1.00800           0
     39872 TIP3     5830     TIP3     H2       HT       0.417000       1.00800           0
     39873 TIP3     5831     TIP3     OH2      OT      -0.834000       15.9994           0
     39874 TIP3     5831     TIP3     H1       HT       0.417000       1.00800           0
     39875 TIP3     5831     TIP3     H2       HT       0.417000       1.00800           0
     39876 TIP3     5832     TIP3     OH2      OT      -0.834000       15.9994           0
     39877 TIP3     5832     TIP3     H1       HT       0.417000       1.00800           0
     39878 TIP3     5832     TIP3     H2       HT       0.417000       1.00800           0
     39879 TIP3     5833     TIP3     OH2      OT      -0.834000       15.9994           0
     39880 TIP3     5833     TIP3     H1       HT       0.417000       1.00800           0
     39881 TIP3     5833     TIP3     H2       HT       0.417000       1.00800           0
     39882 TIP3     5834     TIP3     OH2      OT      -0.834000       15.9994           0
     39883 TIP3     5834     TIP3     H1       HT       0.417000       1.00800           0
     39884 TIP3     5834     TIP3     H2       HT       0.417000       1.00800           0
     39885 TIP3     5835     TIP3     OH2      OT      -0.834000       15.9994           0
     39886 TIP3     5835     TIP3     H1       HT       0.417000       1.00800           0
     39887 TIP3     5835     TIP3     H2       HT       0.417000       1.00800           0
     39888 TIP3     5836     TIP3     OH2      OT      -0.834000       15.9994           0
     39889 TIP3     5836     TIP3     H1       HT       0.417000       1.00800           0
     39890 TIP3     5836     TIP3     H2       HT       0.417000       1.00800           0
     39891 TIP3     5837     TIP3     OH2      OT      -0.834000       15.9994           0
     39892 TIP3     5837     TIP3     H1       HT       0.417000       1.00800           0
     39893 TIP3     5837     TIP3     H2       HT       0.417000       1.00800           0
     39894 TIP3     5838     TIP3     OH2      OT      -0.834000       15.9994           0
     39895 TIP3     5838     TIP3     H1       HT       0.417000       1.00800           0
     39896 TIP3     5838     TIP3     H2       HT       0.417000       1.00800           0
     39897 TIP3     5839     TIP3     OH2      OT      -0.834000       15.9994           0
     39898 TIP3     5839     TIP3     H1       HT       0.417000       1.00800           0
     39899 TIP3     5839     TIP3     H2       HT       0.417000       1.00800           0
     39900 TIP3     5840     TIP3     OH2      OT      -0.834000       15.9994           0
     39901 TIP3     5840     TIP3     H1       HT       0.417000       1.00800           0
     39902 TIP3     5840     TIP3     H2       HT       0.417000       1.00800           0
     39903 TIP3     5841     TIP3     OH2      OT      -0.834000       15.9994           0
     39904 TIP3     5841     TIP3     H1       HT       0.417000       1.00800           0
     39905 TIP3     5841     TIP3     H2       HT       0.417000       1.00800           0
     39906 TIP3     5842     TIP3     OH2      OT      -0.834000       15.9994           0
     39907 TIP3     5842     TIP3     H1       HT       0.417000       1.00800           0
     39908 TIP3     5842     TIP3     H2       HT       0.417000       1.00800           0
     39909 TIP3     5843     TIP3     OH2      OT      -0.834000       15.9994           0
     39910 TIP3     5843     TIP3     H1       HT       0.417000       1.00800           0
     39911 TIP3     5843     TIP3     H2       HT       0.417000       1.00800           0
     39912 TIP3     5844     TIP3     OH2      OT      -0.834000       15.9994           0
     39913 TIP3     5844     TIP3     H1       HT       0.417000       1.00800           0
     39914 TIP3     5844     TIP3     H2       HT       0.417000       1.00800           0
     39915 TIP3     5845     TIP3     OH2      OT      -0.834000       15.9994           0
     39916 TIP3     5845     TIP3     H1       HT       0.417000       1.00800           0
     39917 TIP3     5845     TIP3     H2       HT       0.417000       1.00800           0
     39918 TIP3     5846     TIP3     OH2      OT      -0.834000       15.9994           0
     39919 TIP3     5846     TIP3     H1       HT       0.417000       1.00800           0
     39920 TIP3     5846     TIP3     H2       HT       0.417000       1.00800           0
     39921 TIP3     5847     TIP3     OH2      OT      -0.834000       15.9994           0
     39922 TIP3     5847     TIP3     H1       HT       0.417000       1.00800           0
     39923 TIP3     5847     TIP3     H2       HT       0.417000       1.00800           0
     39924 TIP3     5848     TIP3     OH2      OT      -0.834000       15.9994           0
     39925 TIP3     5848     TIP3     H1       HT       0.417000       1.00800           0
     39926 TIP3     5848     TIP3     H2       HT       0.417000       1.00800           0
     39927 TIP3     5849     TIP3     OH2      OT      -0.834000       15.9994           0
     39928 TIP3     5849     TIP3     H1       HT       0.417000       1.00800           0
     39929 TIP3     5849     TIP3     H2       HT       0.417000       1.00800           0
     39930 TIP3     5850     TIP3     OH2      OT      -0.834000       15.9994           0
     39931 TIP3     5850     TIP3     H1       HT       0.417000       1.00800           0
     39932 TIP3     5850     TIP3     H2       HT       0.417000       1.00800           0
     39933 TIP3     5851     TIP3     OH2      OT      -0.834000       15.9994           0
     39934 TIP3     5851     TIP3     H1       HT       0.417000       1.00800           0
     39935 TIP3     5851     TIP3     H2       HT       0.417000       1.00800           0
     39936 TIP3     5852     TIP3     OH2      OT      -0.834000       15.9994           0
     39937 TIP3     5852     TIP3     H1       HT       0.417000       1.00800           0
     39938 TIP3     5852     TIP3     H2       HT       0.417000       1.00800           0
     39939 TIP3     5853     TIP3     OH2      OT      -0.834000       15.9994           0
     39940 TIP3     5853     TIP3     H1       HT       0.417000       1.00800           0
     39941 TIP3     5853     TIP3     H2       HT       0.417000       1.00800           0
     39942 TIP3     5854     TIP3     OH2      OT      -0.834000       15.9994           0
     39943 TIP3     5854     TIP3     H1       HT       0.417000       1.00800           0
     39944 TIP3     5854     TIP3     H2       HT       0.417000       1.00800           0
     39945 TIP3     5855     TIP3     OH2      OT      -0.834000       15.9994           0
     39946 TIP3     5855     TIP3     H1       HT       0.417000       1.00800           0
     39947 TIP3     5855     TIP3     H2       HT       0.417000       1.00800           0
     39948 TIP3     5856     TIP3     OH2      OT      -0.834000       15.9994           0
     39949 TIP3     5856     TIP3     H1       HT       0.417000       1.00800           0
     39950 TIP3     5856     TIP3     H2       HT       0.417000       1.00800           0
     39951 TIP3     5857     TIP3     OH2      OT      -0.834000       15.9994           0
     39952 TIP3     5857     TIP3     H1       HT       0.417000       1.00800           0
     39953 TIP3     5857     TIP3     H2       HT       0.417000       1.00800           0
     39954 TIP3     5858     TIP3     OH2      OT      -0.834000       15.9994           0
     39955 TIP3     5858     TIP3     H1       HT       0.417000       1.00800           0
     39956 TIP3     5858     TIP3     H2       HT       0.417000       1.00800           0
     39957 TIP3     5859     TIP3     OH2      OT      -0.834000       15.9994           0
     39958 TIP3     5859     TIP3     H1       HT       0.417000       1.00800           0
     39959 TIP3     5859     TIP3     H2       HT       0.417000       1.00800           0
     39960 TIP3     5860     TIP3     OH2      OT      -0.834000       15.9994           0
     39961 TIP3     5860     TIP3     H1       HT       0.417000       1.00800           0
     39962 TIP3     5860     TIP3     H2       HT       0.417000       1.00800           0
     39963 TIP3     5861     TIP3     OH2      OT      -0.834000       15.9994           0
     39964 TIP3     5861     TIP3     H1       HT       0.417000       1.00800           0
     39965 TIP3     5861     TIP3     H2       HT       0.417000       1.00800           0
     39966 TIP3     5862     TIP3     OH2      OT      -0.834000       15.9994           0
     39967 TIP3     5862     TIP3     H1       HT       0.417000       1.00800           0
     39968 TIP3     5862     TIP3     H2       HT       0.417000       1.00800           0
     39969 TIP3     5863     TIP3     OH2      OT      -0.834000       15.9994           0
     39970 TIP3     5863     TIP3     H1       HT       0.417000       1.00800           0
     39971 TIP3     5863     TIP3     H2       HT       0.417000       1.00800           0
     39972 TIP3     5864     TIP3     OH2      OT      -0.834000       15.9994           0
     39973 TIP3     5864     TIP3     H1       HT       0.417000       1.00800           0
     39974 TIP3     5864     TIP3     H2       HT       0.417000       1.00800           0
     39975 TIP3     5865     TIP3     OH2      OT      -0.834000       15.9994           0
     39976 TIP3     5865     TIP3     H1       HT       0.417000       1.00800           0
     39977 TIP3     5865     TIP3     H2       HT       0.417000       1.00800           0
     39978 TIP3     5866     TIP3     OH2      OT      -0.834000       15.9994           0
     39979 TIP3     5866     TIP3     H1       HT       0.417000       1.00800           0
     39980 TIP3     5866     TIP3     H2       HT       0.417000       1.00800           0
     39981 TIP3     5867     TIP3     OH2      OT      -0.834000       15.9994           0
     39982 TIP3     5867     TIP3     H1       HT       0.417000       1.00800           0
     39983 TIP3     5867     TIP3     H2       HT       0.417000       1.00800           0
     39984 TIP3     5868     TIP3     OH2      OT      -0.834000       15.9994           0
     39985 TIP3     5868     TIP3     H1       HT       0.417000       1.00800           0
     39986 TIP3     5868     TIP3     H2       HT       0.417000       1.00800           0
     39987 TIP3     5869     TIP3     OH2      OT      -0.834000       15.9994           0
     39988 TIP3     5869     TIP3     H1       HT       0.417000       1.00800           0
     39989 TIP3     5869     TIP3     H2       HT       0.417000       1.00800           0
     39990 TIP3     5870     TIP3     OH2      OT      -0.834000       15.9994           0
     39991 TIP3     5870     TIP3     H1       HT       0.417000       1.00800           0
     39992 TIP3     5870     TIP3     H2       HT       0.417000       1.00800           0
     39993 TIP3     5871     TIP3     OH2      OT      -0.834000       15.9994           0
     39994 TIP3     5871     TIP3     H1       HT       0.417000       1.00800           0
     39995 TIP3     5871     TIP3     H2       HT       0.417000       1.00800           0
     39996 TIP3     5872     TIP3     OH2      OT      -0.834000       15.9994           0
     39997 TIP3     5872     TIP3     H1       HT       0.417000       1.00800           0
     39998 TIP3     5872     TIP3     H2       HT       0.417000       1.00800           0
     39999 TIP3     5873     TIP3     OH2      OT      -0.834000       15.9994           0
     40000 TIP3     5873     TIP3     H1       HT       0.417000       1.00800           0
     40001 TIP3     5873     TIP3     H2       HT       0.417000       1.00800           0
     40002 TIP3     5874     TIP3     OH2      OT      -0.834000       15.9994           0
     40003 TIP3     5874     TIP3     H1       HT       0.417000       1.00800           0
     40004 TIP3     5874     TIP3     H2       HT       0.417000       1.00800           0
     40005 TIP3     5875     TIP3     OH2      OT      -0.834000       15.9994           0
     40006 TIP3     5875     TIP3     H1       HT       0.417000       1.00800           0
     40007 TIP3     5875     TIP3     H2       HT       0.417000       1.00800           0
     40008 TIP3     5876     TIP3     OH2      OT      -0.834000       15.9994           0
     40009 TIP3     5876     TIP3     H1       HT       0.417000       1.00800           0
     40010 TIP3     5876     TIP3     H2       HT       0.417000       1.00800           0
     40011 TIP3     5877     TIP3     OH2      OT      -0.834000       15.9994           0
     40012 TIP3     5877     TIP3     H1       HT       0.417000       1.00800           0
     40013 TIP3     5877     TIP3     H2       HT       0.417000       1.00800           0
     40014 TIP3     5878     TIP3     OH2      OT      -0.834000       15.9994           0
     40015 TIP3     5878     TIP3     H1       HT       0.417000       1.00800           0
     40016 TIP3     5878     TIP3     H2       HT       0.417000       1.00800           0
     40017 TIP3     5879     TIP3     OH2      OT      -0.834000       15.9994           0
     40018 TIP3     5879     TIP3     H1       HT       0.417000       1.00800           0
     40019 TIP3     5879     TIP3     H2       HT       0.417000       1.00800           0
     40020 TIP3     5880     TIP3     OH2      OT      -0.834000       15.9994           0
     40021 TIP3     5880     TIP3     H1       HT       0.417000       1.00800           0
     40022 TIP3     5880     TIP3     H2       HT       0.417000       1.00800           0
     40023 TIP3     5881     TIP3     OH2      OT      -0.834000       15.9994           0
     40024 TIP3     5881     TIP3     H1       HT       0.417000       1.00800           0
     40025 TIP3     5881     TIP3     H2       HT       0.417000       1.00800           0
     40026 TIP3     5882     TIP3     OH2      OT      -0.834000       15.9994           0
     40027 TIP3     5882     TIP3     H1       HT       0.417000       1.00800           0
     40028 TIP3     5882     TIP3     H2       HT       0.417000       1.00800           0
     40029 TIP3     5883     TIP3     OH2      OT      -0.834000       15.9994           0
     40030 TIP3     5883     TIP3     H1       HT       0.417000       1.00800           0
     40031 TIP3     5883     TIP3     H2       HT       0.417000       1.00800           0
     40032 TIP3     5884     TIP3     OH2      OT      -0.834000       15.9994           0
     40033 TIP3     5884     TIP3     H1       HT       0.417000       1.00800           0
     40034 TIP3     5884     TIP3     H2       HT       0.417000       1.00800           0
     40035 TIP3     5885     TIP3     OH2      OT      -0.834000       15.9994           0
     40036 TIP3     5885     TIP3     H1       HT       0.417000       1.00800           0
     40037 TIP3     5885     TIP3     H2       HT       0.417000       1.00800           0
     40038 TIP3     5886     TIP3     OH2      OT      -0.834000       15.9994           0
     40039 TIP3     5886     TIP3     H1       HT       0.417000       1.00800           0
     40040 TIP3     5886     TIP3     H2       HT       0.417000       1.00800           0
     40041 TIP3     5887     TIP3     OH2      OT      -0.834000       15.9994           0
     40042 TIP3     5887     TIP3     H1       HT       0.417000       1.00800           0
     40043 TIP3     5887     TIP3     H2       HT       0.417000       1.00800           0
     40044 TIP3     5888     TIP3     OH2      OT      -0.834000       15.9994           0
     40045 TIP3     5888     TIP3     H1       HT       0.417000       1.00800           0
     40046 TIP3     5888     TIP3     H2       HT       0.417000       1.00800           0
     40047 TIP3     5889     TIP3     OH2      OT      -0.834000       15.9994           0
     40048 TIP3     5889     TIP3     H1       HT       0.417000       1.00800           0
     40049 TIP3     5889     TIP3     H2       HT       0.417000       1.00800           0
     40050 TIP3     5890     TIP3     OH2      OT      -0.834000       15.9994           0
     40051 TIP3     5890     TIP3     H1       HT       0.417000       1.00800           0
     40052 TIP3     5890     TIP3     H2       HT       0.417000       1.00800           0
     40053 TIP3     5891     TIP3     OH2      OT      -0.834000       15.9994           0
     40054 TIP3     5891     TIP3     H1       HT       0.417000       1.00800           0
     40055 TIP3     5891     TIP3     H2       HT       0.417000       1.00800           0
     40056 TIP3     5892     TIP3     OH2      OT      -0.834000       15.9994           0
     40057 TIP3     5892     TIP3     H1       HT       0.417000       1.00800           0
     40058 TIP3     5892     TIP3     H2       HT       0.417000       1.00800           0
     40059 TIP3     5893     TIP3     OH2      OT      -0.834000       15.9994           0
     40060 TIP3     5893     TIP3     H1       HT       0.417000       1.00800           0
     40061 TIP3     5893     TIP3     H2       HT       0.417000       1.00800           0
     40062 TIP3     5894     TIP3     OH2      OT      -0.834000       15.9994           0
     40063 TIP3     5894     TIP3     H1       HT       0.417000       1.00800           0
     40064 TIP3     5894     TIP3     H2       HT       0.417000       1.00800           0
     40065 TIP3     5895     TIP3     OH2      OT      -0.834000       15.9994           0
     40066 TIP3     5895     TIP3     H1       HT       0.417000       1.00800           0
     40067 TIP3     5895     TIP3     H2       HT       0.417000       1.00800           0
     40068 TIP3     5896     TIP3     OH2      OT      -0.834000       15.9994           0
     40069 TIP3     5896     TIP3     H1       HT       0.417000       1.00800           0
     40070 TIP3     5896     TIP3     H2       HT       0.417000       1.00800           0
     40071 TIP3     5897     TIP3     OH2      OT      -0.834000       15.9994           0
     40072 TIP3     5897     TIP3     H1       HT       0.417000       1.00800           0
     40073 TIP3     5897     TIP3     H2       HT       0.417000       1.00800           0
     40074 TIP3     5898     TIP3     OH2      OT      -0.834000       15.9994           0
     40075 TIP3     5898     TIP3     H1       HT       0.417000       1.00800           0
     40076 TIP3     5898     TIP3     H2       HT       0.417000       1.00800           0
     40077 TIP3     5899     TIP3     OH2      OT      -0.834000       15.9994           0
     40078 TIP3     5899     TIP3     H1       HT       0.417000       1.00800           0
     40079 TIP3     5899     TIP3     H2       HT       0.417000       1.00800           0
     40080 TIP3     5900     TIP3     OH2      OT      -0.834000       15.9994           0
     40081 TIP3     5900     TIP3     H1       HT       0.417000       1.00800           0
     40082 TIP3     5900     TIP3     H2       HT       0.417000       1.00800           0
     40083 TIP3     5901     TIP3     OH2      OT      -0.834000       15.9994           0
     40084 TIP3     5901     TIP3     H1       HT       0.417000       1.00800           0
     40085 TIP3     5901     TIP3     H2       HT       0.417000       1.00800           0
     40086 TIP3     5902     TIP3     OH2      OT      -0.834000       15.9994           0
     40087 TIP3     5902     TIP3     H1       HT       0.417000       1.00800           0
     40088 TIP3     5902     TIP3     H2       HT       0.417000       1.00800           0
     40089 TIP3     5903     TIP3     OH2      OT      -0.834000       15.9994           0
     40090 TIP3     5903     TIP3     H1       HT       0.417000       1.00800           0
     40091 TIP3     5903     TIP3     H2       HT       0.417000       1.00800           0
     40092 TIP3     5904     TIP3     OH2      OT      -0.834000       15.9994           0
     40093 TIP3     5904     TIP3     H1       HT       0.417000       1.00800           0
     40094 TIP3     5904     TIP3     H2       HT       0.417000       1.00800           0
     40095 TIP3     5905     TIP3     OH2      OT      -0.834000       15.9994           0
     40096 TIP3     5905     TIP3     H1       HT       0.417000       1.00800           0
     40097 TIP3     5905     TIP3     H2       HT       0.417000       1.00800           0
     40098 TIP3     5906     TIP3     OH2      OT      -0.834000       15.9994           0
     40099 TIP3     5906     TIP3     H1       HT       0.417000       1.00800           0
     40100 TIP3     5906     TIP3     H2       HT       0.417000       1.00800           0
     40101 TIP3     5907     TIP3     OH2      OT      -0.834000       15.9994           0
     40102 TIP3     5907     TIP3     H1       HT       0.417000       1.00800           0
     40103 TIP3     5907     TIP3     H2       HT       0.417000       1.00800           0
     40104 TIP3     5908     TIP3     OH2      OT      -0.834000       15.9994           0
     40105 TIP3     5908     TIP3     H1       HT       0.417000       1.00800           0
     40106 TIP3     5908     TIP3     H2       HT       0.417000       1.00800           0
     40107 TIP3     5909     TIP3     OH2      OT      -0.834000       15.9994           0
     40108 TIP3     5909     TIP3     H1       HT       0.417000       1.00800           0
     40109 TIP3     5909     TIP3     H2       HT       0.417000       1.00800           0
     40110 TIP3     5910     TIP3     OH2      OT      -0.834000       15.9994           0
     40111 TIP3     5910     TIP3     H1       HT       0.417000       1.00800           0
     40112 TIP3     5910     TIP3     H2       HT       0.417000       1.00800           0
     40113 TIP3     5911     TIP3     OH2      OT      -0.834000       15.9994           0
     40114 TIP3     5911     TIP3     H1       HT       0.417000       1.00800           0
     40115 TIP3     5911     TIP3     H2       HT       0.417000       1.00800           0
     40116 TIP3     5912     TIP3     OH2      OT      -0.834000       15.9994           0
     40117 TIP3     5912     TIP3     H1       HT       0.417000       1.00800           0
     40118 TIP3     5912     TIP3     H2       HT       0.417000       1.00800           0
     40119 TIP3     5913     TIP3     OH2      OT      -0.834000       15.9994           0
     40120 TIP3     5913     TIP3     H1       HT       0.417000       1.00800           0
     40121 TIP3     5913     TIP3     H2       HT       0.417000       1.00800           0
     40122 TIP3     5914     TIP3     OH2      OT      -0.834000       15.9994           0
     40123 TIP3     5914     TIP3     H1       HT       0.417000       1.00800           0
     40124 TIP3     5914     TIP3     H2       HT       0.417000       1.00800           0
     40125 TIP3     5915     TIP3     OH2      OT      -0.834000       15.9994           0
     40126 TIP3     5915     TIP3     H1       HT       0.417000       1.00800           0
     40127 TIP3     5915     TIP3     H2       HT       0.417000       1.00800           0
     40128 TIP3     5916     TIP3     OH2      OT      -0.834000       15.9994           0
     40129 TIP3     5916     TIP3     H1       HT       0.417000       1.00800           0
     40130 TIP3     5916     TIP3     H2       HT       0.417000       1.00800           0
     40131 TIP3     5917     TIP3     OH2      OT      -0.834000       15.9994           0
     40132 TIP3     5917     TIP3     H1       HT       0.417000       1.00800           0
     40133 TIP3     5917     TIP3     H2       HT       0.417000       1.00800           0
     40134 TIP3     5918     TIP3     OH2      OT      -0.834000       15.9994           0
     40135 TIP3     5918     TIP3     H1       HT       0.417000       1.00800           0
     40136 TIP3     5918     TIP3     H2       HT       0.417000       1.00800           0
     40137 TIP3     5919     TIP3     OH2      OT      -0.834000       15.9994           0
     40138 TIP3     5919     TIP3     H1       HT       0.417000       1.00800           0
     40139 TIP3     5919     TIP3     H2       HT       0.417000       1.00800           0
     40140 TIP3     5920     TIP3     OH2      OT      -0.834000       15.9994           0
     40141 TIP3     5920     TIP3     H1       HT       0.417000       1.00800           0
     40142 TIP3     5920     TIP3     H2       HT       0.417000       1.00800           0
     40143 TIP3     5921     TIP3     OH2      OT      -0.834000       15.9994           0
     40144 TIP3     5921     TIP3     H1       HT       0.417000       1.00800           0
     40145 TIP3     5921     TIP3     H2       HT       0.417000       1.00800           0
     40146 TIP3     5922     TIP3     OH2      OT      -0.834000       15.9994           0
     40147 TIP3     5922     TIP3     H1       HT       0.417000       1.00800           0
     40148 TIP3     5922     TIP3     H2       HT       0.417000       1.00800           0
     40149 TIP3     5923     TIP3     OH2      OT      -0.834000       15.9994           0
     40150 TIP3     5923     TIP3     H1       HT       0.417000       1.00800           0
     40151 TIP3     5923     TIP3     H2       HT       0.417000       1.00800           0
     40152 TIP3     5924     TIP3     OH2      OT      -0.834000       15.9994           0
     40153 TIP3     5924     TIP3     H1       HT       0.417000       1.00800           0
     40154 TIP3     5924     TIP3     H2       HT       0.417000       1.00800           0
     40155 TIP3     5925     TIP3     OH2      OT      -0.834000       15.9994           0
     40156 TIP3     5925     TIP3     H1       HT       0.417000       1.00800           0
     40157 TIP3     5925     TIP3     H2       HT       0.417000       1.00800           0
     40158 TIP3     5926     TIP3     OH2      OT      -0.834000       15.9994           0
     40159 TIP3     5926     TIP3     H1       HT       0.417000       1.00800           0
     40160 TIP3     5926     TIP3     H2       HT       0.417000       1.00800           0
     40161 TIP3     5927     TIP3     OH2      OT      -0.834000       15.9994           0
     40162 TIP3     5927     TIP3     H1       HT       0.417000       1.00800           0
     40163 TIP3     5927     TIP3     H2       HT       0.417000       1.00800           0
     40164 TIP3     5928     TIP3     OH2      OT      -0.834000       15.9994           0
     40165 TIP3     5928     TIP3     H1       HT       0.417000       1.00800           0
     40166 TIP3     5928     TIP3     H2       HT       0.417000       1.00800           0
     40167 TIP3     5929     TIP3     OH2      OT      -0.834000       15.9994           0
     40168 TIP3     5929     TIP3     H1       HT       0.417000       1.00800           0
     40169 TIP3     5929     TIP3     H2       HT       0.417000       1.00800           0
     40170 TIP3     5930     TIP3     OH2      OT      -0.834000       15.9994           0
     40171 TIP3     5930     TIP3     H1       HT       0.417000       1.00800           0
     40172 TIP3     5930     TIP3     H2       HT       0.417000       1.00800           0
     40173 TIP3     5931     TIP3     OH2      OT      -0.834000       15.9994           0
     40174 TIP3     5931     TIP3     H1       HT       0.417000       1.00800           0
     40175 TIP3     5931     TIP3     H2       HT       0.417000       1.00800           0
     40176 TIP3     5932     TIP3     OH2      OT      -0.834000       15.9994           0
     40177 TIP3     5932     TIP3     H1       HT       0.417000       1.00800           0
     40178 TIP3     5932     TIP3     H2       HT       0.417000       1.00800           0
     40179 TIP3     5933     TIP3     OH2      OT      -0.834000       15.9994           0
     40180 TIP3     5933     TIP3     H1       HT       0.417000       1.00800           0
     40181 TIP3     5933     TIP3     H2       HT       0.417000       1.00800           0
     40182 TIP3     5934     TIP3     OH2      OT      -0.834000       15.9994           0
     40183 TIP3     5934     TIP3     H1       HT       0.417000       1.00800           0
     40184 TIP3     5934     TIP3     H2       HT       0.417000       1.00800           0
     40185 TIP3     5935     TIP3     OH2      OT      -0.834000       15.9994           0
     40186 TIP3     5935     TIP3     H1       HT       0.417000       1.00800           0
     40187 TIP3     5935     TIP3     H2       HT       0.417000       1.00800           0
     40188 TIP3     5936     TIP3     OH2      OT      -0.834000       15.9994           0
     40189 TIP3     5936     TIP3     H1       HT       0.417000       1.00800           0
     40190 TIP3     5936     TIP3     H2       HT       0.417000       1.00800           0
     40191 TIP3     5937     TIP3     OH2      OT      -0.834000       15.9994           0
     40192 TIP3     5937     TIP3     H1       HT       0.417000       1.00800           0
     40193 TIP3     5937     TIP3     H2       HT       0.417000       1.00800           0
     40194 TIP3     5938     TIP3     OH2      OT      -0.834000       15.9994           0
     40195 TIP3     5938     TIP3     H1       HT       0.417000       1.00800           0
     40196 TIP3     5938     TIP3     H2       HT       0.417000       1.00800           0
     40197 TIP3     5939     TIP3     OH2      OT      -0.834000       15.9994           0
     40198 TIP3     5939     TIP3     H1       HT       0.417000       1.00800           0
     40199 TIP3     5939     TIP3     H2       HT       0.417000       1.00800           0
     40200 TIP3     5940     TIP3     OH2      OT      -0.834000       15.9994           0
     40201 TIP3     5940     TIP3     H1       HT       0.417000       1.00800           0
     40202 TIP3     5940     TIP3     H2       HT       0.417000       1.00800           0
     40203 TIP3     5941     TIP3     OH2      OT      -0.834000       15.9994           0
     40204 TIP3     5941     TIP3     H1       HT       0.417000       1.00800           0
     40205 TIP3     5941     TIP3     H2       HT       0.417000       1.00800           0
     40206 TIP3     5942     TIP3     OH2      OT      -0.834000       15.9994           0
     40207 TIP3     5942     TIP3     H1       HT       0.417000       1.00800           0
     40208 TIP3     5942     TIP3     H2       HT       0.417000       1.00800           0
     40209 TIP3     5943     TIP3     OH2      OT      -0.834000       15.9994           0
     40210 TIP3     5943     TIP3     H1       HT       0.417000       1.00800           0
     40211 TIP3     5943     TIP3     H2       HT       0.417000       1.00800           0
     40212 TIP3     5944     TIP3     OH2      OT      -0.834000       15.9994           0
     40213 TIP3     5944     TIP3     H1       HT       0.417000       1.00800           0
     40214 TIP3     5944     TIP3     H2       HT       0.417000       1.00800           0
     40215 TIP3     5945     TIP3     OH2      OT      -0.834000       15.9994           0
     40216 TIP3     5945     TIP3     H1       HT       0.417000       1.00800           0
     40217 TIP3     5945     TIP3     H2       HT       0.417000       1.00800           0
     40218 TIP3     5946     TIP3     OH2      OT      -0.834000       15.9994           0
     40219 TIP3     5946     TIP3     H1       HT       0.417000       1.00800           0
     40220 TIP3     5946     TIP3     H2       HT       0.417000       1.00800           0
     40221 TIP3     5947     TIP3     OH2      OT      -0.834000       15.9994           0
     40222 TIP3     5947     TIP3     H1       HT       0.417000       1.00800           0
     40223 TIP3     5947     TIP3     H2       HT       0.417000       1.00800           0
     40224 TIP3     5948     TIP3     OH2      OT      -0.834000       15.9994           0
     40225 TIP3     5948     TIP3     H1       HT       0.417000       1.00800           0
     40226 TIP3     5948     TIP3     H2       HT       0.417000       1.00800           0
     40227 TIP3     5949     TIP3     OH2      OT      -0.834000       15.9994           0
     40228 TIP3     5949     TIP3     H1       HT       0.417000       1.00800           0
     40229 TIP3     5949     TIP3     H2       HT       0.417000       1.00800           0
     40230 TIP3     5950     TIP3     OH2      OT      -0.834000       15.9994           0
     40231 TIP3     5950     TIP3     H1       HT       0.417000       1.00800           0
     40232 TIP3     5950     TIP3     H2       HT       0.417000       1.00800           0
     40233 TIP3     5951     TIP3     OH2      OT      -0.834000       15.9994           0
     40234 TIP3     5951     TIP3     H1       HT       0.417000       1.00800           0
     40235 TIP3     5951     TIP3     H2       HT       0.417000       1.00800           0
     40236 TIP3     5952     TIP3     OH2      OT      -0.834000       15.9994           0
     40237 TIP3     5952     TIP3     H1       HT       0.417000       1.00800           0
     40238 TIP3     5952     TIP3     H2       HT       0.417000       1.00800           0
     40239 TIP3     5953     TIP3     OH2      OT      -0.834000       15.9994           0
     40240 TIP3     5953     TIP3     H1       HT       0.417000       1.00800           0
     40241 TIP3     5953     TIP3     H2       HT       0.417000       1.00800           0
     40242 TIP3     5954     TIP3     OH2      OT      -0.834000       15.9994           0
     40243 TIP3     5954     TIP3     H1       HT       0.417000       1.00800           0
     40244 TIP3     5954     TIP3     H2       HT       0.417000       1.00800           0
     40245 TIP3     5955     TIP3     OH2      OT      -0.834000       15.9994           0
     40246 TIP3     5955     TIP3     H1       HT       0.417000       1.00800           0
     40247 TIP3     5955     TIP3     H2       HT       0.417000       1.00800           0
     40248 TIP3     5956     TIP3     OH2      OT      -0.834000       15.9994           0
     40249 TIP3     5956     TIP3     H1       HT       0.417000       1.00800           0
     40250 TIP3     5956     TIP3     H2       HT       0.417000       1.00800           0
     40251 TIP3     5957     TIP3     OH2      OT      -0.834000       15.9994           0
     40252 TIP3     5957     TIP3     H1       HT       0.417000       1.00800           0
     40253 TIP3     5957     TIP3     H2       HT       0.417000       1.00800           0
     40254 TIP3     5958     TIP3     OH2      OT      -0.834000       15.9994           0
     40255 TIP3     5958     TIP3     H1       HT       0.417000       1.00800           0
     40256 TIP3     5958     TIP3     H2       HT       0.417000       1.00800           0
     40257 TIP3     5959     TIP3     OH2      OT      -0.834000       15.9994           0
     40258 TIP3     5959     TIP3     H1       HT       0.417000       1.00800           0
     40259 TIP3     5959     TIP3     H2       HT       0.417000       1.00800           0
     40260 TIP3     5960     TIP3     OH2      OT      -0.834000       15.9994           0
     40261 TIP3     5960     TIP3     H1       HT       0.417000       1.00800           0
     40262 TIP3     5960     TIP3     H2       HT       0.417000       1.00800           0
     40263 TIP3     5961     TIP3     OH2      OT      -0.834000       15.9994           0
     40264 TIP3     5961     TIP3     H1       HT       0.417000       1.00800           0
     40265 TIP3     5961     TIP3     H2       HT       0.417000       1.00800           0
     40266 TIP3     5962     TIP3     OH2      OT      -0.834000       15.9994           0
     40267 TIP3     5962     TIP3     H1       HT       0.417000       1.00800           0
     40268 TIP3     5962     TIP3     H2       HT       0.417000       1.00800           0
     40269 TIP3     5963     TIP3     OH2      OT      -0.834000       15.9994           0
     40270 TIP3     5963     TIP3     H1       HT       0.417000       1.00800           0
     40271 TIP3     5963     TIP3     H2       HT       0.417000       1.00800           0
     40272 TIP3     5964     TIP3     OH2      OT      -0.834000       15.9994           0
     40273 TIP3     5964     TIP3     H1       HT       0.417000       1.00800           0
     40274 TIP3     5964     TIP3     H2       HT       0.417000       1.00800           0
     40275 TIP3     5965     TIP3     OH2      OT      -0.834000       15.9994           0
     40276 TIP3     5965     TIP3     H1       HT       0.417000       1.00800           0
     40277 TIP3     5965     TIP3     H2       HT       0.417000       1.00800           0
     40278 TIP3     5966     TIP3     OH2      OT      -0.834000       15.9994           0
     40279 TIP3     5966     TIP3     H1       HT       0.417000       1.00800           0
     40280 TIP3     5966     TIP3     H2       HT       0.417000       1.00800           0
     40281 TIP3     5967     TIP3     OH2      OT      -0.834000       15.9994           0
     40282 TIP3     5967     TIP3     H1       HT       0.417000       1.00800           0
     40283 TIP3     5967     TIP3     H2       HT       0.417000       1.00800           0
     40284 TIP3     5968     TIP3     OH2      OT      -0.834000       15.9994           0
     40285 TIP3     5968     TIP3     H1       HT       0.417000       1.00800           0
     40286 TIP3     5968     TIP3     H2       HT       0.417000       1.00800           0
     40287 TIP3     5969     TIP3     OH2      OT      -0.834000       15.9994           0
     40288 TIP3     5969     TIP3     H1       HT       0.417000       1.00800           0
     40289 TIP3     5969     TIP3     H2       HT       0.417000       1.00800           0
     40290 TIP3     5970     TIP3     OH2      OT      -0.834000       15.9994           0
     40291 TIP3     5970     TIP3     H1       HT       0.417000       1.00800           0
     40292 TIP3     5970     TIP3     H2       HT       0.417000       1.00800           0
     40293 TIP3     5971     TIP3     OH2      OT      -0.834000       15.9994           0
     40294 TIP3     5971     TIP3     H1       HT       0.417000       1.00800           0
     40295 TIP3     5971     TIP3     H2       HT       0.417000       1.00800           0
     40296 TIP3     5972     TIP3     OH2      OT      -0.834000       15.9994           0
     40297 TIP3     5972     TIP3     H1       HT       0.417000       1.00800           0
     40298 TIP3     5972     TIP3     H2       HT       0.417000       1.00800           0
     40299 TIP3     5973     TIP3     OH2      OT      -0.834000       15.9994           0
     40300 TIP3     5973     TIP3     H1       HT       0.417000       1.00800           0
     40301 TIP3     5973     TIP3     H2       HT       0.417000       1.00800           0
     40302 TIP3     5974     TIP3     OH2      OT      -0.834000       15.9994           0
     40303 TIP3     5974     TIP3     H1       HT       0.417000       1.00800           0
     40304 TIP3     5974     TIP3     H2       HT       0.417000       1.00800           0
     40305 TIP3     5975     TIP3     OH2      OT      -0.834000       15.9994           0
     40306 TIP3     5975     TIP3     H1       HT       0.417000       1.00800           0
     40307 TIP3     5975     TIP3     H2       HT       0.417000       1.00800           0
     40308 TIP3     5976     TIP3     OH2      OT      -0.834000       15.9994           0
     40309 TIP3     5976     TIP3     H1       HT       0.417000       1.00800           0
     40310 TIP3     5976     TIP3     H2       HT       0.417000       1.00800           0
     40311 TIP3     5977     TIP3     OH2      OT      -0.834000       15.9994           0
     40312 TIP3     5977     TIP3     H1       HT       0.417000       1.00800           0
     40313 TIP3     5977     TIP3     H2       HT       0.417000       1.00800           0
     40314 TIP3     5978     TIP3     OH2      OT      -0.834000       15.9994           0
     40315 TIP3     5978     TIP3     H1       HT       0.417000       1.00800           0
     40316 TIP3     5978     TIP3     H2       HT       0.417000       1.00800           0
     40317 TIP3     5979     TIP3     OH2      OT      -0.834000       15.9994           0
     40318 TIP3     5979     TIP3     H1       HT       0.417000       1.00800           0
     40319 TIP3     5979     TIP3     H2       HT       0.417000       1.00800           0
     40320 TIP3     5980     TIP3     OH2      OT      -0.834000       15.9994           0
     40321 TIP3     5980     TIP3     H1       HT       0.417000       1.00800           0
     40322 TIP3     5980     TIP3     H2       HT       0.417000       1.00800           0
     40323 TIP3     5981     TIP3     OH2      OT      -0.834000       15.9994           0
     40324 TIP3     5981     TIP3     H1       HT       0.417000       1.00800           0
     40325 TIP3     5981     TIP3     H2       HT       0.417000       1.00800           0
     40326 TIP3     5982     TIP3     OH2      OT      -0.834000       15.9994           0
     40327 TIP3     5982     TIP3     H1       HT       0.417000       1.00800           0
     40328 TIP3     5982     TIP3     H2       HT       0.417000       1.00800           0
     40329 TIP3     5983     TIP3     OH2      OT      -0.834000       15.9994           0
     40330 TIP3     5983     TIP3     H1       HT       0.417000       1.00800           0
     40331 TIP3     5983     TIP3     H2       HT       0.417000       1.00800           0
     40332 TIP3     5984     TIP3     OH2      OT      -0.834000       15.9994           0
     40333 TIP3     5984     TIP3     H1       HT       0.417000       1.00800           0
     40334 TIP3     5984     TIP3     H2       HT       0.417000       1.00800           0
     40335 TIP3     5985     TIP3     OH2      OT      -0.834000       15.9994           0
     40336 TIP3     5985     TIP3     H1       HT       0.417000       1.00800           0
     40337 TIP3     5985     TIP3     H2       HT       0.417000       1.00800           0
     40338 TIP3     5986     TIP3     OH2      OT      -0.834000       15.9994           0
     40339 TIP3     5986     TIP3     H1       HT       0.417000       1.00800           0
     40340 TIP3     5986     TIP3     H2       HT       0.417000       1.00800           0
     40341 TIP3     5987     TIP3     OH2      OT      -0.834000       15.9994           0
     40342 TIP3     5987     TIP3     H1       HT       0.417000       1.00800           0
     40343 TIP3     5987     TIP3     H2       HT       0.417000       1.00800           0
     40344 TIP3     5988     TIP3     OH2      OT      -0.834000       15.9994           0
     40345 TIP3     5988     TIP3     H1       HT       0.417000       1.00800           0
     40346 TIP3     5988     TIP3     H2       HT       0.417000       1.00800           0
     40347 TIP3     5989     TIP3     OH2      OT      -0.834000       15.9994           0
     40348 TIP3     5989     TIP3     H1       HT       0.417000       1.00800           0
     40349 TIP3     5989     TIP3     H2       HT       0.417000       1.00800           0
     40350 TIP3     5990     TIP3     OH2      OT      -0.834000       15.9994           0
     40351 TIP3     5990     TIP3     H1       HT       0.417000       1.00800           0
     40352 TIP3     5990     TIP3     H2       HT       0.417000       1.00800           0
     40353 TIP3     5991     TIP3     OH2      OT      -0.834000       15.9994           0
     40354 TIP3     5991     TIP3     H1       HT       0.417000       1.00800           0
     40355 TIP3     5991     TIP3     H2       HT       0.417000       1.00800           0
     40356 TIP3     5992     TIP3     OH2      OT      -0.834000       15.9994           0
     40357 TIP3     5992     TIP3     H1       HT       0.417000       1.00800           0
     40358 TIP3     5992     TIP3     H2       HT       0.417000       1.00800           0
     40359 TIP3     5993     TIP3     OH2      OT      -0.834000       15.9994           0
     40360 TIP3     5993     TIP3     H1       HT       0.417000       1.00800           0
     40361 TIP3     5993     TIP3     H2       HT       0.417000       1.00800           0
     40362 TIP3     5994     TIP3     OH2      OT      -0.834000       15.9994           0
     40363 TIP3     5994     TIP3     H1       HT       0.417000       1.00800           0
     40364 TIP3     5994     TIP3     H2       HT       0.417000       1.00800           0
     40365 TIP3     5995     TIP3     OH2      OT      -0.834000       15.9994           0
     40366 TIP3     5995     TIP3     H1       HT       0.417000       1.00800           0
     40367 TIP3     5995     TIP3     H2       HT       0.417000       1.00800           0
     40368 TIP3     5996     TIP3     OH2      OT      -0.834000       15.9994           0
     40369 TIP3     5996     TIP3     H1       HT       0.417000       1.00800           0
     40370 TIP3     5996     TIP3     H2       HT       0.417000       1.00800           0
     40371 TIP3     5997     TIP3     OH2      OT      -0.834000       15.9994           0
     40372 TIP3     5997     TIP3     H1       HT       0.417000       1.00800           0
     40373 TIP3     5997     TIP3     H2       HT       0.417000       1.00800           0
     40374 TIP3     5998     TIP3     OH2      OT      -0.834000       15.9994           0
     40375 TIP3     5998     TIP3     H1       HT       0.417000       1.00800           0
     40376 TIP3     5998     TIP3     H2       HT       0.417000       1.00800           0
     40377 TIP3     5999     TIP3     OH2      OT      -0.834000       15.9994           0
     40378 TIP3     5999     TIP3     H1       HT       0.417000       1.00800           0
     40379 TIP3     5999     TIP3     H2       HT       0.417000       1.00800           0
     40380 TIP3     6000     TIP3     OH2      OT      -0.834000       15.9994           0
     40381 TIP3     6000     TIP3     H1       HT       0.417000       1.00800           0
     40382 TIP3     6000     TIP3     H2       HT       0.417000       1.00800           0
     40383 TIP3     6001     TIP3     OH2      OT      -0.834000       15.9994           0
     40384 TIP3     6001     TIP3     H1       HT       0.417000       1.00800           0
     40385 TIP3     6001     TIP3     H2       HT       0.417000       1.00800           0
     40386 TIP3     6002     TIP3     OH2      OT      -0.834000       15.9994           0
     40387 TIP3     6002     TIP3     H1       HT       0.417000       1.00800           0
     40388 TIP3     6002     TIP3     H2       HT       0.417000       1.00800           0
     40389 TIP3     6003     TIP3     OH2      OT      -0.834000       15.9994           0
     40390 TIP3     6003     TIP3     H1       HT       0.417000       1.00800           0
     40391 TIP3     6003     TIP3     H2       HT       0.417000       1.00800           0
     40392 TIP3     6004     TIP3     OH2      OT      -0.834000       15.9994           0
     40393 TIP3     6004     TIP3     H1       HT       0.417000       1.00800           0
     40394 TIP3     6004     TIP3     H2       HT       0.417000       1.00800           0
     40395 TIP3     6005     TIP3     OH2      OT      -0.834000       15.9994           0
     40396 TIP3     6005     TIP3     H1       HT       0.417000       1.00800           0
     40397 TIP3     6005     TIP3     H2       HT       0.417000       1.00800           0
     40398 TIP3     6006     TIP3     OH2      OT      -0.834000       15.9994           0
     40399 TIP3     6006     TIP3     H1       HT       0.417000       1.00800           0
     40400 TIP3     6006     TIP3     H2       HT       0.417000       1.00800           0
     40401 TIP3     6007     TIP3     OH2      OT      -0.834000       15.9994           0
     40402 TIP3     6007     TIP3     H1       HT       0.417000       1.00800           0
     40403 TIP3     6007     TIP3     H2       HT       0.417000       1.00800           0
     40404 TIP3     6008     TIP3     OH2      OT      -0.834000       15.9994           0
     40405 TIP3     6008     TIP3     H1       HT       0.417000       1.00800           0
     40406 TIP3     6008     TIP3     H2       HT       0.417000       1.00800           0
     40407 TIP3     6009     TIP3     OH2      OT      -0.834000       15.9994           0
     40408 TIP3     6009     TIP3     H1       HT       0.417000       1.00800           0
     40409 TIP3     6009     TIP3     H2       HT       0.417000       1.00800           0
     40410 TIP3     6010     TIP3     OH2      OT      -0.834000       15.9994           0
     40411 TIP3     6010     TIP3     H1       HT       0.417000       1.00800           0
     40412 TIP3     6010     TIP3     H2       HT       0.417000       1.00800           0
     40413 TIP3     6011     TIP3     OH2      OT      -0.834000       15.9994           0
     40414 TIP3     6011     TIP3     H1       HT       0.417000       1.00800           0
     40415 TIP3     6011     TIP3     H2       HT       0.417000       1.00800           0
     40416 TIP3     6012     TIP3     OH2      OT      -0.834000       15.9994           0
     40417 TIP3     6012     TIP3     H1       HT       0.417000       1.00800           0
     40418 TIP3     6012     TIP3     H2       HT       0.417000       1.00800           0
     40419 TIP3     6013     TIP3     OH2      OT      -0.834000       15.9994           0
     40420 TIP3     6013     TIP3     H1       HT       0.417000       1.00800           0
     40421 TIP3     6013     TIP3     H2       HT       0.417000       1.00800           0
     40422 TIP3     6014     TIP3     OH2      OT      -0.834000       15.9994           0
     40423 TIP3     6014     TIP3     H1       HT       0.417000       1.00800           0
     40424 TIP3     6014     TIP3     H2       HT       0.417000       1.00800           0
     40425 TIP3     6015     TIP3     OH2      OT      -0.834000       15.9994           0
     40426 TIP3     6015     TIP3     H1       HT       0.417000       1.00800           0
     40427 TIP3     6015     TIP3     H2       HT       0.417000       1.00800           0
     40428 TIP3     6016     TIP3     OH2      OT      -0.834000       15.9994           0
     40429 TIP3     6016     TIP3     H1       HT       0.417000       1.00800           0
     40430 TIP3     6016     TIP3     H2       HT       0.417000       1.00800           0
     40431 TIP3     6017     TIP3     OH2      OT      -0.834000       15.9994           0
     40432 TIP3     6017     TIP3     H1       HT       0.417000       1.00800           0
     40433 TIP3     6017     TIP3     H2       HT       0.417000       1.00800           0
     40434 TIP3     6018     TIP3     OH2      OT      -0.834000       15.9994           0
     40435 TIP3     6018     TIP3     H1       HT       0.417000       1.00800           0
     40436 TIP3     6018     TIP3     H2       HT       0.417000       1.00800           0
     40437 TIP3     6019     TIP3     OH2      OT      -0.834000       15.9994           0
     40438 TIP3     6019     TIP3     H1       HT       0.417000       1.00800           0
     40439 TIP3     6019     TIP3     H2       HT       0.417000       1.00800           0
     40440 TIP3     6020     TIP3     OH2      OT      -0.834000       15.9994           0
     40441 TIP3     6020     TIP3     H1       HT       0.417000       1.00800           0
     40442 TIP3     6020     TIP3     H2       HT       0.417000       1.00800           0
     40443 TIP3     6021     TIP3     OH2      OT      -0.834000       15.9994           0
     40444 TIP3     6021     TIP3     H1       HT       0.417000       1.00800           0
     40445 TIP3     6021     TIP3     H2       HT       0.417000       1.00800           0
     40446 TIP3     6022     TIP3     OH2      OT      -0.834000       15.9994           0
     40447 TIP3     6022     TIP3     H1       HT       0.417000       1.00800           0
     40448 TIP3     6022     TIP3     H2       HT       0.417000       1.00800           0
     40449 TIP3     6023     TIP3     OH2      OT      -0.834000       15.9994           0
     40450 TIP3     6023     TIP3     H1       HT       0.417000       1.00800           0
     40451 TIP3     6023     TIP3     H2       HT       0.417000       1.00800           0
     40452 TIP3     6024     TIP3     OH2      OT      -0.834000       15.9994           0
     40453 TIP3     6024     TIP3     H1       HT       0.417000       1.00800           0
     40454 TIP3     6024     TIP3     H2       HT       0.417000       1.00800           0
     40455 TIP3     6025     TIP3     OH2      OT      -0.834000       15.9994           0
     40456 TIP3     6025     TIP3     H1       HT       0.417000       1.00800           0
     40457 TIP3     6025     TIP3     H2       HT       0.417000       1.00800           0
     40458 TIP3     6026     TIP3     OH2      OT      -0.834000       15.9994           0
     40459 TIP3     6026     TIP3     H1       HT       0.417000       1.00800           0
     40460 TIP3     6026     TIP3     H2       HT       0.417000       1.00800           0
     40461 TIP3     6027     TIP3     OH2      OT      -0.834000       15.9994           0
     40462 TIP3     6027     TIP3     H1       HT       0.417000       1.00800           0
     40463 TIP3     6027     TIP3     H2       HT       0.417000       1.00800           0
     40464 TIP3     6028     TIP3     OH2      OT      -0.834000       15.9994           0
     40465 TIP3     6028     TIP3     H1       HT       0.417000       1.00800           0
     40466 TIP3     6028     TIP3     H2       HT       0.417000       1.00800           0
     40467 TIP3     6029     TIP3     OH2      OT      -0.834000       15.9994           0
     40468 TIP3     6029     TIP3     H1       HT       0.417000       1.00800           0
     40469 TIP3     6029     TIP3     H2       HT       0.417000       1.00800           0
     40470 TIP3     6030     TIP3     OH2      OT      -0.834000       15.9994           0
     40471 TIP3     6030     TIP3     H1       HT       0.417000       1.00800           0
     40472 TIP3     6030     TIP3     H2       HT       0.417000       1.00800           0
     40473 TIP3     6031     TIP3     OH2      OT      -0.834000       15.9994           0
     40474 TIP3     6031     TIP3     H1       HT       0.417000       1.00800           0
     40475 TIP3     6031     TIP3     H2       HT       0.417000       1.00800           0
     40476 TIP3     6032     TIP3     OH2      OT      -0.834000       15.9994           0
     40477 TIP3     6032     TIP3     H1       HT       0.417000       1.00800           0
     40478 TIP3     6032     TIP3     H2       HT       0.417000       1.00800           0
     40479 TIP3     6033     TIP3     OH2      OT      -0.834000       15.9994           0
     40480 TIP3     6033     TIP3     H1       HT       0.417000       1.00800           0
     40481 TIP3     6033     TIP3     H2       HT       0.417000       1.00800           0
     40482 TIP3     6034     TIP3     OH2      OT      -0.834000       15.9994           0
     40483 TIP3     6034     TIP3     H1       HT       0.417000       1.00800           0
     40484 TIP3     6034     TIP3     H2       HT       0.417000       1.00800           0
     40485 TIP3     6035     TIP3     OH2      OT      -0.834000       15.9994           0
     40486 TIP3     6035     TIP3     H1       HT       0.417000       1.00800           0
     40487 TIP3     6035     TIP3     H2       HT       0.417000       1.00800           0
     40488 TIP3     6036     TIP3     OH2      OT      -0.834000       15.9994           0
     40489 TIP3     6036     TIP3     H1       HT       0.417000       1.00800           0
     40490 TIP3     6036     TIP3     H2       HT       0.417000       1.00800           0
     40491 TIP3     6037     TIP3     OH2      OT      -0.834000       15.9994           0
     40492 TIP3     6037     TIP3     H1       HT       0.417000       1.00800           0
     40493 TIP3     6037     TIP3     H2       HT       0.417000       1.00800           0
     40494 TIP3     6038     TIP3     OH2      OT      -0.834000       15.9994           0
     40495 TIP3     6038     TIP3     H1       HT       0.417000       1.00800           0
     40496 TIP3     6038     TIP3     H2       HT       0.417000       1.00800           0
     40497 TIP3     6039     TIP3     OH2      OT      -0.834000       15.9994           0
     40498 TIP3     6039     TIP3     H1       HT       0.417000       1.00800           0
     40499 TIP3     6039     TIP3     H2       HT       0.417000       1.00800           0
     40500 TIP3     6040     TIP3     OH2      OT      -0.834000       15.9994           0
     40501 TIP3     6040     TIP3     H1       HT       0.417000       1.00800           0
     40502 TIP3     6040     TIP3     H2       HT       0.417000       1.00800           0
     40503 TIP3     6041     TIP3     OH2      OT      -0.834000       15.9994           0
     40504 TIP3     6041     TIP3     H1       HT       0.417000       1.00800           0
     40505 TIP3     6041     TIP3     H2       HT       0.417000       1.00800           0
     40506 TIP3     6042     TIP3     OH2      OT      -0.834000       15.9994           0
     40507 TIP3     6042     TIP3     H1       HT       0.417000       1.00800           0
     40508 TIP3     6042     TIP3     H2       HT       0.417000       1.00800           0
     40509 TIP3     6043     TIP3     OH2      OT      -0.834000       15.9994           0
     40510 TIP3     6043     TIP3     H1       HT       0.417000       1.00800           0
     40511 TIP3     6043     TIP3     H2       HT       0.417000       1.00800           0
     40512 TIP3     6044     TIP3     OH2      OT      -0.834000       15.9994           0
     40513 TIP3     6044     TIP3     H1       HT       0.417000       1.00800           0
     40514 TIP3     6044     TIP3     H2       HT       0.417000       1.00800           0
     40515 TIP3     6045     TIP3     OH2      OT      -0.834000       15.9994           0
     40516 TIP3     6045     TIP3     H1       HT       0.417000       1.00800           0
     40517 TIP3     6045     TIP3     H2       HT       0.417000       1.00800           0
     40518 TIP3     6046     TIP3     OH2      OT      -0.834000       15.9994           0
     40519 TIP3     6046     TIP3     H1       HT       0.417000       1.00800           0
     40520 TIP3     6046     TIP3     H2       HT       0.417000       1.00800           0
     40521 TIP3     6047     TIP3     OH2      OT      -0.834000       15.9994           0
     40522 TIP3     6047     TIP3     H1       HT       0.417000       1.00800           0
     40523 TIP3     6047     TIP3     H2       HT       0.417000       1.00800           0
     40524 TIP3     6048     TIP3     OH2      OT      -0.834000       15.9994           0
     40525 TIP3     6048     TIP3     H1       HT       0.417000       1.00800           0
     40526 TIP3     6048     TIP3     H2       HT       0.417000       1.00800           0
     40527 TIP3     6049     TIP3     OH2      OT      -0.834000       15.9994           0
     40528 TIP3     6049     TIP3     H1       HT       0.417000       1.00800           0
     40529 TIP3     6049     TIP3     H2       HT       0.417000       1.00800           0
     40530 TIP3     6050     TIP3     OH2      OT      -0.834000       15.9994           0
     40531 TIP3     6050     TIP3     H1       HT       0.417000       1.00800           0
     40532 TIP3     6050     TIP3     H2       HT       0.417000       1.00800           0
     40533 TIP3     6051     TIP3     OH2      OT      -0.834000       15.9994           0
     40534 TIP3     6051     TIP3     H1       HT       0.417000       1.00800           0
     40535 TIP3     6051     TIP3     H2       HT       0.417000       1.00800           0
     40536 TIP3     6052     TIP3     OH2      OT      -0.834000       15.9994           0
     40537 TIP3     6052     TIP3     H1       HT       0.417000       1.00800           0
     40538 TIP3     6052     TIP3     H2       HT       0.417000       1.00800           0
     40539 TIP3     6053     TIP3     OH2      OT      -0.834000       15.9994           0
     40540 TIP3     6053     TIP3     H1       HT       0.417000       1.00800           0
     40541 TIP3     6053     TIP3     H2       HT       0.417000       1.00800           0
     40542 TIP3     6054     TIP3     OH2      OT      -0.834000       15.9994           0
     40543 TIP3     6054     TIP3     H1       HT       0.417000       1.00800           0
     40544 TIP3     6054     TIP3     H2       HT       0.417000       1.00800           0
     40545 TIP3     6055     TIP3     OH2      OT      -0.834000       15.9994           0
     40546 TIP3     6055     TIP3     H1       HT       0.417000       1.00800           0
     40547 TIP3     6055     TIP3     H2       HT       0.417000       1.00800           0
     40548 TIP3     6056     TIP3     OH2      OT      -0.834000       15.9994           0
     40549 TIP3     6056     TIP3     H1       HT       0.417000       1.00800           0
     40550 TIP3     6056     TIP3     H2       HT       0.417000       1.00800           0
     40551 TIP3     6057     TIP3     OH2      OT      -0.834000       15.9994           0
     40552 TIP3     6057     TIP3     H1       HT       0.417000       1.00800           0
     40553 TIP3     6057     TIP3     H2       HT       0.417000       1.00800           0
     40554 TIP3     6058     TIP3     OH2      OT      -0.834000       15.9994           0
     40555 TIP3     6058     TIP3     H1       HT       0.417000       1.00800           0
     40556 TIP3     6058     TIP3     H2       HT       0.417000       1.00800           0
     40557 TIP3     6059     TIP3     OH2      OT      -0.834000       15.9994           0
     40558 TIP3     6059     TIP3     H1       HT       0.417000       1.00800           0
     40559 TIP3     6059     TIP3     H2       HT       0.417000       1.00800           0
     40560 TIP3     6060     TIP3     OH2      OT      -0.834000       15.9994           0
     40561 TIP3     6060     TIP3     H1       HT       0.417000       1.00800           0
     40562 TIP3     6060     TIP3     H2       HT       0.417000       1.00800           0
     40563 TIP3     6061     TIP3     OH2      OT      -0.834000       15.9994           0
     40564 TIP3     6061     TIP3     H1       HT       0.417000       1.00800           0
     40565 TIP3     6061     TIP3     H2       HT       0.417000       1.00800           0
     40566 TIP3     6062     TIP3     OH2      OT      -0.834000       15.9994           0
     40567 TIP3     6062     TIP3     H1       HT       0.417000       1.00800           0
     40568 TIP3     6062     TIP3     H2       HT       0.417000       1.00800           0
     40569 TIP3     6063     TIP3     OH2      OT      -0.834000       15.9994           0
     40570 TIP3     6063     TIP3     H1       HT       0.417000       1.00800           0
     40571 TIP3     6063     TIP3     H2       HT       0.417000       1.00800           0
     40572 TIP3     6064     TIP3     OH2      OT      -0.834000       15.9994           0
     40573 TIP3     6064     TIP3     H1       HT       0.417000       1.00800           0
     40574 TIP3     6064     TIP3     H2       HT       0.417000       1.00800           0
     40575 TIP3     6065     TIP3     OH2      OT      -0.834000       15.9994           0
     40576 TIP3     6065     TIP3     H1       HT       0.417000       1.00800           0
     40577 TIP3     6065     TIP3     H2       HT       0.417000       1.00800           0
     40578 TIP3     6066     TIP3     OH2      OT      -0.834000       15.9994           0
     40579 TIP3     6066     TIP3     H1       HT       0.417000       1.00800           0
     40580 TIP3     6066     TIP3     H2       HT       0.417000       1.00800           0
     40581 TIP3     6067     TIP3     OH2      OT      -0.834000       15.9994           0
     40582 TIP3     6067     TIP3     H1       HT       0.417000       1.00800           0
     40583 TIP3     6067     TIP3     H2       HT       0.417000       1.00800           0
     40584 TIP3     6068     TIP3     OH2      OT      -0.834000       15.9994           0
     40585 TIP3     6068     TIP3     H1       HT       0.417000       1.00800           0
     40586 TIP3     6068     TIP3     H2       HT       0.417000       1.00800           0
     40587 TIP3     6069     TIP3     OH2      OT      -0.834000       15.9994           0
     40588 TIP3     6069     TIP3     H1       HT       0.417000       1.00800           0
     40589 TIP3     6069     TIP3     H2       HT       0.417000       1.00800           0
     40590 TIP3     6070     TIP3     OH2      OT      -0.834000       15.9994           0
     40591 TIP3     6070     TIP3     H1       HT       0.417000       1.00800           0
     40592 TIP3     6070     TIP3     H2       HT       0.417000       1.00800           0
     40593 TIP3     6071     TIP3     OH2      OT      -0.834000       15.9994           0
     40594 TIP3     6071     TIP3     H1       HT       0.417000       1.00800           0
     40595 TIP3     6071     TIP3     H2       HT       0.417000       1.00800           0
     40596 TIP3     6072     TIP3     OH2      OT      -0.834000       15.9994           0
     40597 TIP3     6072     TIP3     H1       HT       0.417000       1.00800           0
     40598 TIP3     6072     TIP3     H2       HT       0.417000       1.00800           0
     40599 TIP3     6073     TIP3     OH2      OT      -0.834000       15.9994           0
     40600 TIP3     6073     TIP3     H1       HT       0.417000       1.00800           0
     40601 TIP3     6073     TIP3     H2       HT       0.417000       1.00800           0
     40602 TIP3     6074     TIP3     OH2      OT      -0.834000       15.9994           0
     40603 TIP3     6074     TIP3     H1       HT       0.417000       1.00800           0
     40604 TIP3     6074     TIP3     H2       HT       0.417000       1.00800           0
     40605 TIP3     6075     TIP3     OH2      OT      -0.834000       15.9994           0
     40606 TIP3     6075     TIP3     H1       HT       0.417000       1.00800           0
     40607 TIP3     6075     TIP3     H2       HT       0.417000       1.00800           0
     40608 TIP3     6076     TIP3     OH2      OT      -0.834000       15.9994           0
     40609 TIP3     6076     TIP3     H1       HT       0.417000       1.00800           0
     40610 TIP3     6076     TIP3     H2       HT       0.417000       1.00800           0
     40611 TIP3     6077     TIP3     OH2      OT      -0.834000       15.9994           0
     40612 TIP3     6077     TIP3     H1       HT       0.417000       1.00800           0
     40613 TIP3     6077     TIP3     H2       HT       0.417000       1.00800           0
     40614 TIP3     6078     TIP3     OH2      OT      -0.834000       15.9994           0
     40615 TIP3     6078     TIP3     H1       HT       0.417000       1.00800           0
     40616 TIP3     6078     TIP3     H2       HT       0.417000       1.00800           0
     40617 TIP3     6079     TIP3     OH2      OT      -0.834000       15.9994           0
     40618 TIP3     6079     TIP3     H1       HT       0.417000       1.00800           0
     40619 TIP3     6079     TIP3     H2       HT       0.417000       1.00800           0
     40620 TIP3     6080     TIP3     OH2      OT      -0.834000       15.9994           0
     40621 TIP3     6080     TIP3     H1       HT       0.417000       1.00800           0
     40622 TIP3     6080     TIP3     H2       HT       0.417000       1.00800           0
     40623 TIP3     6081     TIP3     OH2      OT      -0.834000       15.9994           0
     40624 TIP3     6081     TIP3     H1       HT       0.417000       1.00800           0
     40625 TIP3     6081     TIP3     H2       HT       0.417000       1.00800           0
     40626 TIP3     6082     TIP3     OH2      OT      -0.834000       15.9994           0
     40627 TIP3     6082     TIP3     H1       HT       0.417000       1.00800           0
     40628 TIP3     6082     TIP3     H2       HT       0.417000       1.00800           0
     40629 TIP3     6083     TIP3     OH2      OT      -0.834000       15.9994           0
     40630 TIP3     6083     TIP3     H1       HT       0.417000       1.00800           0
     40631 TIP3     6083     TIP3     H2       HT       0.417000       1.00800           0
     40632 TIP3     6084     TIP3     OH2      OT      -0.834000       15.9994           0
     40633 TIP3     6084     TIP3     H1       HT       0.417000       1.00800           0
     40634 TIP3     6084     TIP3     H2       HT       0.417000       1.00800           0
     40635 TIP3     6085     TIP3     OH2      OT      -0.834000       15.9994           0
     40636 TIP3     6085     TIP3     H1       HT       0.417000       1.00800           0
     40637 TIP3     6085     TIP3     H2       HT       0.417000       1.00800           0
     40638 TIP3     6086     TIP3     OH2      OT      -0.834000       15.9994           0
     40639 TIP3     6086     TIP3     H1       HT       0.417000       1.00800           0
     40640 TIP3     6086     TIP3     H2       HT       0.417000       1.00800           0
     40641 TIP3     6087     TIP3     OH2      OT      -0.834000       15.9994           0
     40642 TIP3     6087     TIP3     H1       HT       0.417000       1.00800           0
     40643 TIP3     6087     TIP3     H2       HT       0.417000       1.00800           0
     40644 TIP3     6088     TIP3     OH2      OT      -0.834000       15.9994           0
     40645 TIP3     6088     TIP3     H1       HT       0.417000       1.00800           0
     40646 TIP3     6088     TIP3     H2       HT       0.417000       1.00800           0
     40647 TIP3     6089     TIP3     OH2      OT      -0.834000       15.9994           0
     40648 TIP3     6089     TIP3     H1       HT       0.417000       1.00800           0
     40649 TIP3     6089     TIP3     H2       HT       0.417000       1.00800           0
     40650 TIP3     6090     TIP3     OH2      OT      -0.834000       15.9994           0
     40651 TIP3     6090     TIP3     H1       HT       0.417000       1.00800           0
     40652 TIP3     6090     TIP3     H2       HT       0.417000       1.00800           0
     40653 TIP3     6091     TIP3     OH2      OT      -0.834000       15.9994           0
     40654 TIP3     6091     TIP3     H1       HT       0.417000       1.00800           0
     40655 TIP3     6091     TIP3     H2       HT       0.417000       1.00800           0
     40656 TIP3     6092     TIP3     OH2      OT      -0.834000       15.9994           0
     40657 TIP3     6092     TIP3     H1       HT       0.417000       1.00800           0
     40658 TIP3     6092     TIP3     H2       HT       0.417000       1.00800           0
     40659 TIP3     6093     TIP3     OH2      OT      -0.834000       15.9994           0
     40660 TIP3     6093     TIP3     H1       HT       0.417000       1.00800           0
     40661 TIP3     6093     TIP3     H2       HT       0.417000       1.00800           0
     40662 TIP3     6094     TIP3     OH2      OT      -0.834000       15.9994           0
     40663 TIP3     6094     TIP3     H1       HT       0.417000       1.00800           0
     40664 TIP3     6094     TIP3     H2       HT       0.417000       1.00800           0
     40665 TIP3     6095     TIP3     OH2      OT      -0.834000       15.9994           0
     40666 TIP3     6095     TIP3     H1       HT       0.417000       1.00800           0
     40667 TIP3     6095     TIP3     H2       HT       0.417000       1.00800           0
     40668 TIP3     6096     TIP3     OH2      OT      -0.834000       15.9994           0
     40669 TIP3     6096     TIP3     H1       HT       0.417000       1.00800           0
     40670 TIP3     6096     TIP3     H2       HT       0.417000       1.00800           0
     40671 TIP3     6097     TIP3     OH2      OT      -0.834000       15.9994           0
     40672 TIP3     6097     TIP3     H1       HT       0.417000       1.00800           0
     40673 TIP3     6097     TIP3     H2       HT       0.417000       1.00800           0
     40674 TIP3     6098     TIP3     OH2      OT      -0.834000       15.9994           0
     40675 TIP3     6098     TIP3     H1       HT       0.417000       1.00800           0
     40676 TIP3     6098     TIP3     H2       HT       0.417000       1.00800           0
     40677 TIP3     6099     TIP3     OH2      OT      -0.834000       15.9994           0
     40678 TIP3     6099     TIP3     H1       HT       0.417000       1.00800           0
     40679 TIP3     6099     TIP3     H2       HT       0.417000       1.00800           0
     40680 TIP3     6100     TIP3     OH2      OT      -0.834000       15.9994           0
     40681 TIP3     6100     TIP3     H1       HT       0.417000       1.00800           0
     40682 TIP3     6100     TIP3     H2       HT       0.417000       1.00800           0
     40683 TIP3     6101     TIP3     OH2      OT      -0.834000       15.9994           0
     40684 TIP3     6101     TIP3     H1       HT       0.417000       1.00800           0
     40685 TIP3     6101     TIP3     H2       HT       0.417000       1.00800           0
     40686 TIP3     6102     TIP3     OH2      OT      -0.834000       15.9994           0
     40687 TIP3     6102     TIP3     H1       HT       0.417000       1.00800           0
     40688 TIP3     6102     TIP3     H2       HT       0.417000       1.00800           0
     40689 TIP3     6103     TIP3     OH2      OT      -0.834000       15.9994           0
     40690 TIP3     6103     TIP3     H1       HT       0.417000       1.00800           0
     40691 TIP3     6103     TIP3     H2       HT       0.417000       1.00800           0
     40692 TIP3     6104     TIP3     OH2      OT      -0.834000       15.9994           0
     40693 TIP3     6104     TIP3     H1       HT       0.417000       1.00800           0
     40694 TIP3     6104     TIP3     H2       HT       0.417000       1.00800           0
     40695 TIP3     6105     TIP3     OH2      OT      -0.834000       15.9994           0
     40696 TIP3     6105     TIP3     H1       HT       0.417000       1.00800           0
     40697 TIP3     6105     TIP3     H2       HT       0.417000       1.00800           0
     40698 TIP3     6106     TIP3     OH2      OT      -0.834000       15.9994           0
     40699 TIP3     6106     TIP3     H1       HT       0.417000       1.00800           0
     40700 TIP3     6106     TIP3     H2       HT       0.417000       1.00800           0
     40701 TIP3     6107     TIP3     OH2      OT      -0.834000       15.9994           0
     40702 TIP3     6107     TIP3     H1       HT       0.417000       1.00800           0
     40703 TIP3     6107     TIP3     H2       HT       0.417000       1.00800           0
     40704 TIP3     6108     TIP3     OH2      OT      -0.834000       15.9994           0
     40705 TIP3     6108     TIP3     H1       HT       0.417000       1.00800           0
     40706 TIP3     6108     TIP3     H2       HT       0.417000       1.00800           0
     40707 TIP3     6109     TIP3     OH2      OT      -0.834000       15.9994           0
     40708 TIP3     6109     TIP3     H1       HT       0.417000       1.00800           0
     40709 TIP3     6109     TIP3     H2       HT       0.417000       1.00800           0
     40710 TIP3     6110     TIP3     OH2      OT      -0.834000       15.9994           0
     40711 TIP3     6110     TIP3     H1       HT       0.417000       1.00800           0
     40712 TIP3     6110     TIP3     H2       HT       0.417000       1.00800           0
     40713 TIP3     6111     TIP3     OH2      OT      -0.834000       15.9994           0
     40714 TIP3     6111     TIP3     H1       HT       0.417000       1.00800           0
     40715 TIP3     6111     TIP3     H2       HT       0.417000       1.00800           0
     40716 TIP3     6112     TIP3     OH2      OT      -0.834000       15.9994           0
     40717 TIP3     6112     TIP3     H1       HT       0.417000       1.00800           0
     40718 TIP3     6112     TIP3     H2       HT       0.417000       1.00800           0
     40719 TIP3     6113     TIP3     OH2      OT      -0.834000       15.9994           0
     40720 TIP3     6113     TIP3     H1       HT       0.417000       1.00800           0
     40721 TIP3     6113     TIP3     H2       HT       0.417000       1.00800           0
     40722 TIP3     6114     TIP3     OH2      OT      -0.834000       15.9994           0
     40723 TIP3     6114     TIP3     H1       HT       0.417000       1.00800           0
     40724 TIP3     6114     TIP3     H2       HT       0.417000       1.00800           0
     40725 TIP3     6115     TIP3     OH2      OT      -0.834000       15.9994           0
     40726 TIP3     6115     TIP3     H1       HT       0.417000       1.00800           0
     40727 TIP3     6115     TIP3     H2       HT       0.417000       1.00800           0
     40728 TIP3     6116     TIP3     OH2      OT      -0.834000       15.9994           0
     40729 TIP3     6116     TIP3     H1       HT       0.417000       1.00800           0
     40730 TIP3     6116     TIP3     H2       HT       0.417000       1.00800           0
     40731 TIP3     6117     TIP3     OH2      OT      -0.834000       15.9994           0
     40732 TIP3     6117     TIP3     H1       HT       0.417000       1.00800           0
     40733 TIP3     6117     TIP3     H2       HT       0.417000       1.00800           0
     40734 TIP3     6118     TIP3     OH2      OT      -0.834000       15.9994           0
     40735 TIP3     6118     TIP3     H1       HT       0.417000       1.00800           0
     40736 TIP3     6118     TIP3     H2       HT       0.417000       1.00800           0
     40737 TIP3     6119     TIP3     OH2      OT      -0.834000       15.9994           0
     40738 TIP3     6119     TIP3     H1       HT       0.417000       1.00800           0
     40739 TIP3     6119     TIP3     H2       HT       0.417000       1.00800           0
     40740 TIP3     6120     TIP3     OH2      OT      -0.834000       15.9994           0
     40741 TIP3     6120     TIP3     H1       HT       0.417000       1.00800           0
     40742 TIP3     6120     TIP3     H2       HT       0.417000       1.00800           0
     40743 TIP3     6121     TIP3     OH2      OT      -0.834000       15.9994           0
     40744 TIP3     6121     TIP3     H1       HT       0.417000       1.00800           0
     40745 TIP3     6121     TIP3     H2       HT       0.417000       1.00800           0
     40746 TIP3     6122     TIP3     OH2      OT      -0.834000       15.9994           0
     40747 TIP3     6122     TIP3     H1       HT       0.417000       1.00800           0
     40748 TIP3     6122     TIP3     H2       HT       0.417000       1.00800           0
     40749 TIP3     6123     TIP3     OH2      OT      -0.834000       15.9994           0
     40750 TIP3     6123     TIP3     H1       HT       0.417000       1.00800           0
     40751 TIP3     6123     TIP3     H2       HT       0.417000       1.00800           0
     40752 TIP3     6124     TIP3     OH2      OT      -0.834000       15.9994           0
     40753 TIP3     6124     TIP3     H1       HT       0.417000       1.00800           0
     40754 TIP3     6124     TIP3     H2       HT       0.417000       1.00800           0
     40755 TIP3     6125     TIP3     OH2      OT      -0.834000       15.9994           0
     40756 TIP3     6125     TIP3     H1       HT       0.417000       1.00800           0
     40757 TIP3     6125     TIP3     H2       HT       0.417000       1.00800           0
     40758 TIP3     6126     TIP3     OH2      OT      -0.834000       15.9994           0
     40759 TIP3     6126     TIP3     H1       HT       0.417000       1.00800           0
     40760 TIP3     6126     TIP3     H2       HT       0.417000       1.00800           0
     40761 TIP3     6127     TIP3     OH2      OT      -0.834000       15.9994           0
     40762 TIP3     6127     TIP3     H1       HT       0.417000       1.00800           0
     40763 TIP3     6127     TIP3     H2       HT       0.417000       1.00800           0
     40764 TIP3     6128     TIP3     OH2      OT      -0.834000       15.9994           0
     40765 TIP3     6128     TIP3     H1       HT       0.417000       1.00800           0
     40766 TIP3     6128     TIP3     H2       HT       0.417000       1.00800           0
     40767 TIP3     6129     TIP3     OH2      OT      -0.834000       15.9994           0
     40768 TIP3     6129     TIP3     H1       HT       0.417000       1.00800           0
     40769 TIP3     6129     TIP3     H2       HT       0.417000       1.00800           0
     40770 TIP3     6130     TIP3     OH2      OT      -0.834000       15.9994           0
     40771 TIP3     6130     TIP3     H1       HT       0.417000       1.00800           0
     40772 TIP3     6130     TIP3     H2       HT       0.417000       1.00800           0
     40773 TIP3     6131     TIP3     OH2      OT      -0.834000       15.9994           0
     40774 TIP3     6131     TIP3     H1       HT       0.417000       1.00800           0
     40775 TIP3     6131     TIP3     H2       HT       0.417000       1.00800           0
     40776 TIP3     6132     TIP3     OH2      OT      -0.834000       15.9994           0
     40777 TIP3     6132     TIP3     H1       HT       0.417000       1.00800           0
     40778 TIP3     6132     TIP3     H2       HT       0.417000       1.00800           0
     40779 TIP3     6133     TIP3     OH2      OT      -0.834000       15.9994           0
     40780 TIP3     6133     TIP3     H1       HT       0.417000       1.00800           0
     40781 TIP3     6133     TIP3     H2       HT       0.417000       1.00800           0
     40782 TIP3     6134     TIP3     OH2      OT      -0.834000       15.9994           0
     40783 TIP3     6134     TIP3     H1       HT       0.417000       1.00800           0
     40784 TIP3     6134     TIP3     H2       HT       0.417000       1.00800           0
     40785 TIP3     6135     TIP3     OH2      OT      -0.834000       15.9994           0
     40786 TIP3     6135     TIP3     H1       HT       0.417000       1.00800           0
     40787 TIP3     6135     TIP3     H2       HT       0.417000       1.00800           0
     40788 TIP3     6136     TIP3     OH2      OT      -0.834000       15.9994           0
     40789 TIP3     6136     TIP3     H1       HT       0.417000       1.00800           0
     40790 TIP3     6136     TIP3     H2       HT       0.417000       1.00800           0
     40791 TIP3     6137     TIP3     OH2      OT      -0.834000       15.9994           0
     40792 TIP3     6137     TIP3     H1       HT       0.417000       1.00800           0
     40793 TIP3     6137     TIP3     H2       HT       0.417000       1.00800           0
     40794 TIP3     6138     TIP3     OH2      OT      -0.834000       15.9994           0
     40795 TIP3     6138     TIP3     H1       HT       0.417000       1.00800           0
     40796 TIP3     6138     TIP3     H2       HT       0.417000       1.00800           0
     40797 TIP3     6139     TIP3     OH2      OT      -0.834000       15.9994           0
     40798 TIP3     6139     TIP3     H1       HT       0.417000       1.00800           0
     40799 TIP3     6139     TIP3     H2       HT       0.417000       1.00800           0
     40800 TIP3     6140     TIP3     OH2      OT      -0.834000       15.9994           0
     40801 TIP3     6140     TIP3     H1       HT       0.417000       1.00800           0
     40802 TIP3     6140     TIP3     H2       HT       0.417000       1.00800           0
     40803 TIP3     6141     TIP3     OH2      OT      -0.834000       15.9994           0
     40804 TIP3     6141     TIP3     H1       HT       0.417000       1.00800           0
     40805 TIP3     6141     TIP3     H2       HT       0.417000       1.00800           0
     40806 TIP3     6142     TIP3     OH2      OT      -0.834000       15.9994           0
     40807 TIP3     6142     TIP3     H1       HT       0.417000       1.00800           0
     40808 TIP3     6142     TIP3     H2       HT       0.417000       1.00800           0
     40809 TIP3     6143     TIP3     OH2      OT      -0.834000       15.9994           0
     40810 TIP3     6143     TIP3     H1       HT       0.417000       1.00800           0
     40811 TIP3     6143     TIP3     H2       HT       0.417000       1.00800           0
     40812 TIP3     6144     TIP3     OH2      OT      -0.834000       15.9994           0
     40813 TIP3     6144     TIP3     H1       HT       0.417000       1.00800           0
     40814 TIP3     6144     TIP3     H2       HT       0.417000       1.00800           0
     40815 TIP3     6145     TIP3     OH2      OT      -0.834000       15.9994           0
     40816 TIP3     6145     TIP3     H1       HT       0.417000       1.00800           0
     40817 TIP3     6145     TIP3     H2       HT       0.417000       1.00800           0
     40818 TIP3     6146     TIP3     OH2      OT      -0.834000       15.9994           0
     40819 TIP3     6146     TIP3     H1       HT       0.417000       1.00800           0
     40820 TIP3     6146     TIP3     H2       HT       0.417000       1.00800           0
     40821 TIP3     6147     TIP3     OH2      OT      -0.834000       15.9994           0
     40822 TIP3     6147     TIP3     H1       HT       0.417000       1.00800           0
     40823 TIP3     6147     TIP3     H2       HT       0.417000       1.00800           0
     40824 TIP3     6148     TIP3     OH2      OT      -0.834000       15.9994           0
     40825 TIP3     6148     TIP3     H1       HT       0.417000       1.00800           0
     40826 TIP3     6148     TIP3     H2       HT       0.417000       1.00800           0
     40827 TIP3     6149     TIP3     OH2      OT      -0.834000       15.9994           0
     40828 TIP3     6149     TIP3     H1       HT       0.417000       1.00800           0
     40829 TIP3     6149     TIP3     H2       HT       0.417000       1.00800           0
     40830 TIP3     6150     TIP3     OH2      OT      -0.834000       15.9994           0
     40831 TIP3     6150     TIP3     H1       HT       0.417000       1.00800           0
     40832 TIP3     6150     TIP3     H2       HT       0.417000       1.00800           0
     40833 TIP3     6151     TIP3     OH2      OT      -0.834000       15.9994           0
     40834 TIP3     6151     TIP3     H1       HT       0.417000       1.00800           0
     40835 TIP3     6151     TIP3     H2       HT       0.417000       1.00800           0
     40836 TIP3     6152     TIP3     OH2      OT      -0.834000       15.9994           0
     40837 TIP3     6152     TIP3     H1       HT       0.417000       1.00800           0
     40838 TIP3     6152     TIP3     H2       HT       0.417000       1.00800           0
     40839 TIP3     6153     TIP3     OH2      OT      -0.834000       15.9994           0
     40840 TIP3     6153     TIP3     H1       HT       0.417000       1.00800           0
     40841 TIP3     6153     TIP3     H2       HT       0.417000       1.00800           0
     40842 TIP3     6154     TIP3     OH2      OT      -0.834000       15.9994           0
     40843 TIP3     6154     TIP3     H1       HT       0.417000       1.00800           0
     40844 TIP3     6154     TIP3     H2       HT       0.417000       1.00800           0
     40845 TIP3     6155     TIP3     OH2      OT      -0.834000       15.9994           0
     40846 TIP3     6155     TIP3     H1       HT       0.417000       1.00800           0
     40847 TIP3     6155     TIP3     H2       HT       0.417000       1.00800           0
     40848 TIP3     6156     TIP3     OH2      OT      -0.834000       15.9994           0
     40849 TIP3     6156     TIP3     H1       HT       0.417000       1.00800           0
     40850 TIP3     6156     TIP3     H2       HT       0.417000       1.00800           0
     40851 TIP3     6157     TIP3     OH2      OT      -0.834000       15.9994           0
     40852 TIP3     6157     TIP3     H1       HT       0.417000       1.00800           0
     40853 TIP3     6157     TIP3     H2       HT       0.417000       1.00800           0
     40854 TIP3     6158     TIP3     OH2      OT      -0.834000       15.9994           0
     40855 TIP3     6158     TIP3     H1       HT       0.417000       1.00800           0
     40856 TIP3     6158     TIP3     H2       HT       0.417000       1.00800           0
     40857 TIP3     6159     TIP3     OH2      OT      -0.834000       15.9994           0
     40858 TIP3     6159     TIP3     H1       HT       0.417000       1.00800           0
     40859 TIP3     6159     TIP3     H2       HT       0.417000       1.00800           0
     40860 TIP3     6160     TIP3     OH2      OT      -0.834000       15.9994           0
     40861 TIP3     6160     TIP3     H1       HT       0.417000       1.00800           0
     40862 TIP3     6160     TIP3     H2       HT       0.417000       1.00800           0
     40863 TIP3     6161     TIP3     OH2      OT      -0.834000       15.9994           0
     40864 TIP3     6161     TIP3     H1       HT       0.417000       1.00800           0
     40865 TIP3     6161     TIP3     H2       HT       0.417000       1.00800           0
     40866 TIP3     6162     TIP3     OH2      OT      -0.834000       15.9994           0
     40867 TIP3     6162     TIP3     H1       HT       0.417000       1.00800           0
     40868 TIP3     6162     TIP3     H2       HT       0.417000       1.00800           0
     40869 TIP3     6163     TIP3     OH2      OT      -0.834000       15.9994           0
     40870 TIP3     6163     TIP3     H1       HT       0.417000       1.00800           0
     40871 TIP3     6163     TIP3     H2       HT       0.417000       1.00800           0
     40872 TIP3     6164     TIP3     OH2      OT      -0.834000       15.9994           0
     40873 TIP3     6164     TIP3     H1       HT       0.417000       1.00800           0
     40874 TIP3     6164     TIP3     H2       HT       0.417000       1.00800           0
     40875 TIP3     6165     TIP3     OH2      OT      -0.834000       15.9994           0
     40876 TIP3     6165     TIP3     H1       HT       0.417000       1.00800           0
     40877 TIP3     6165     TIP3     H2       HT       0.417000       1.00800           0
     40878 TIP3     6166     TIP3     OH2      OT      -0.834000       15.9994           0
     40879 TIP3     6166     TIP3     H1       HT       0.417000       1.00800           0
     40880 TIP3     6166     TIP3     H2       HT       0.417000       1.00800           0
     40881 TIP3     6167     TIP3     OH2      OT      -0.834000       15.9994           0
     40882 TIP3     6167     TIP3     H1       HT       0.417000       1.00800           0
     40883 TIP3     6167     TIP3     H2       HT       0.417000       1.00800           0
     40884 TIP3     6168     TIP3     OH2      OT      -0.834000       15.9994           0
     40885 TIP3     6168     TIP3     H1       HT       0.417000       1.00800           0
     40886 TIP3     6168     TIP3     H2       HT       0.417000       1.00800           0
     40887 TIP3     6169     TIP3     OH2      OT      -0.834000       15.9994           0
     40888 TIP3     6169     TIP3     H1       HT       0.417000       1.00800           0
     40889 TIP3     6169     TIP3     H2       HT       0.417000       1.00800           0
     40890 TIP3     6170     TIP3     OH2      OT      -0.834000       15.9994           0
     40891 TIP3     6170     TIP3     H1       HT       0.417000       1.00800           0
     40892 TIP3     6170     TIP3     H2       HT       0.417000       1.00800           0
     40893 TIP3     6171     TIP3     OH2      OT      -0.834000       15.9994           0
     40894 TIP3     6171     TIP3     H1       HT       0.417000       1.00800           0
     40895 TIP3     6171     TIP3     H2       HT       0.417000       1.00800           0
     40896 TIP3     6172     TIP3     OH2      OT      -0.834000       15.9994           0
     40897 TIP3     6172     TIP3     H1       HT       0.417000       1.00800           0
     40898 TIP3     6172     TIP3     H2       HT       0.417000       1.00800           0
     40899 TIP3     6173     TIP3     OH2      OT      -0.834000       15.9994           0
     40900 TIP3     6173     TIP3     H1       HT       0.417000       1.00800           0
     40901 TIP3     6173     TIP3     H2       HT       0.417000       1.00800           0
     40902 TIP3     6174     TIP3     OH2      OT      -0.834000       15.9994           0
     40903 TIP3     6174     TIP3     H1       HT       0.417000       1.00800           0
     40904 TIP3     6174     TIP3     H2       HT       0.417000       1.00800           0
     40905 TIP3     6175     TIP3     OH2      OT      -0.834000       15.9994           0
     40906 TIP3     6175     TIP3     H1       HT       0.417000       1.00800           0
     40907 TIP3     6175     TIP3     H2       HT       0.417000       1.00800           0
     40908 TIP3     6176     TIP3     OH2      OT      -0.834000       15.9994           0
     40909 TIP3     6176     TIP3     H1       HT       0.417000       1.00800           0
     40910 TIP3     6176     TIP3     H2       HT       0.417000       1.00800           0
     40911 TIP3     6177     TIP3     OH2      OT      -0.834000       15.9994           0
     40912 TIP3     6177     TIP3     H1       HT       0.417000       1.00800           0
     40913 TIP3     6177     TIP3     H2       HT       0.417000       1.00800           0
     40914 TIP3     6178     TIP3     OH2      OT      -0.834000       15.9994           0
     40915 TIP3     6178     TIP3     H1       HT       0.417000       1.00800           0
     40916 TIP3     6178     TIP3     H2       HT       0.417000       1.00800           0
     40917 TIP3     6179     TIP3     OH2      OT      -0.834000       15.9994           0
     40918 TIP3     6179     TIP3     H1       HT       0.417000       1.00800           0
     40919 TIP3     6179     TIP3     H2       HT       0.417000       1.00800           0
     40920 TIP3     6180     TIP3     OH2      OT      -0.834000       15.9994           0
     40921 TIP3     6180     TIP3     H1       HT       0.417000       1.00800           0
     40922 TIP3     6180     TIP3     H2       HT       0.417000       1.00800           0
     40923 TIP3     6181     TIP3     OH2      OT      -0.834000       15.9994           0
     40924 TIP3     6181     TIP3     H1       HT       0.417000       1.00800           0
     40925 TIP3     6181     TIP3     H2       HT       0.417000       1.00800           0
     40926 TIP3     6182     TIP3     OH2      OT      -0.834000       15.9994           0
     40927 TIP3     6182     TIP3     H1       HT       0.417000       1.00800           0
     40928 TIP3     6182     TIP3     H2       HT       0.417000       1.00800           0
     40929 TIP3     6183     TIP3     OH2      OT      -0.834000       15.9994           0
     40930 TIP3     6183     TIP3     H1       HT       0.417000       1.00800           0
     40931 TIP3     6183     TIP3     H2       HT       0.417000       1.00800           0
     40932 TIP3     6184     TIP3     OH2      OT      -0.834000       15.9994           0
     40933 TIP3     6184     TIP3     H1       HT       0.417000       1.00800           0
     40934 TIP3     6184     TIP3     H2       HT       0.417000       1.00800           0
     40935 TIP3     6185     TIP3     OH2      OT      -0.834000       15.9994           0
     40936 TIP3     6185     TIP3     H1       HT       0.417000       1.00800           0
     40937 TIP3     6185     TIP3     H2       HT       0.417000       1.00800           0
     40938 TIP3     6186     TIP3     OH2      OT      -0.834000       15.9994           0
     40939 TIP3     6186     TIP3     H1       HT       0.417000       1.00800           0
     40940 TIP3     6186     TIP3     H2       HT       0.417000       1.00800           0
     40941 TIP3     6187     TIP3     OH2      OT      -0.834000       15.9994           0
     40942 TIP3     6187     TIP3     H1       HT       0.417000       1.00800           0
     40943 TIP3     6187     TIP3     H2       HT       0.417000       1.00800           0
     40944 TIP3     6188     TIP3     OH2      OT      -0.834000       15.9994           0
     40945 TIP3     6188     TIP3     H1       HT       0.417000       1.00800           0
     40946 TIP3     6188     TIP3     H2       HT       0.417000       1.00800           0
     40947 TIP3     6189     TIP3     OH2      OT      -0.834000       15.9994           0
     40948 TIP3     6189     TIP3     H1       HT       0.417000       1.00800           0
     40949 TIP3     6189     TIP3     H2       HT       0.417000       1.00800           0
     40950 TIP3     6190     TIP3     OH2      OT      -0.834000       15.9994           0
     40951 TIP3     6190     TIP3     H1       HT       0.417000       1.00800           0
     40952 TIP3     6190     TIP3     H2       HT       0.417000       1.00800           0
     40953 TIP3     6191     TIP3     OH2      OT      -0.834000       15.9994           0
     40954 TIP3     6191     TIP3     H1       HT       0.417000       1.00800           0
     40955 TIP3     6191     TIP3     H2       HT       0.417000       1.00800           0
     40956 TIP3     6192     TIP3     OH2      OT      -0.834000       15.9994           0
     40957 TIP3     6192     TIP3     H1       HT       0.417000       1.00800           0
     40958 TIP3     6192     TIP3     H2       HT       0.417000       1.00800           0
     40959 TIP3     6193     TIP3     OH2      OT      -0.834000       15.9994           0
     40960 TIP3     6193     TIP3     H1       HT       0.417000       1.00800           0
     40961 TIP3     6193     TIP3     H2       HT       0.417000       1.00800           0
     40962 TIP3     6194     TIP3     OH2      OT      -0.834000       15.9994           0
     40963 TIP3     6194     TIP3     H1       HT       0.417000       1.00800           0
     40964 TIP3     6194     TIP3     H2       HT       0.417000       1.00800           0
     40965 TIP3     6195     TIP3     OH2      OT      -0.834000       15.9994           0
     40966 TIP3     6195     TIP3     H1       HT       0.417000       1.00800           0
     40967 TIP3     6195     TIP3     H2       HT       0.417000       1.00800           0
     40968 TIP3     6196     TIP3     OH2      OT      -0.834000       15.9994           0
     40969 TIP3     6196     TIP3     H1       HT       0.417000       1.00800           0
     40970 TIP3     6196     TIP3     H2       HT       0.417000       1.00800           0
     40971 TIP3     6197     TIP3     OH2      OT      -0.834000       15.9994           0
     40972 TIP3     6197     TIP3     H1       HT       0.417000       1.00800           0
     40973 TIP3     6197     TIP3     H2       HT       0.417000       1.00800           0
     40974 TIP3     6198     TIP3     OH2      OT      -0.834000       15.9994           0
     40975 TIP3     6198     TIP3     H1       HT       0.417000       1.00800           0
     40976 TIP3     6198     TIP3     H2       HT       0.417000       1.00800           0
     40977 TIP3     6199     TIP3     OH2      OT      -0.834000       15.9994           0
     40978 TIP3     6199     TIP3     H1       HT       0.417000       1.00800           0
     40979 TIP3     6199     TIP3     H2       HT       0.417000       1.00800           0
     40980 TIP3     6200     TIP3     OH2      OT      -0.834000       15.9994           0
     40981 TIP3     6200     TIP3     H1       HT       0.417000       1.00800           0
     40982 TIP3     6200     TIP3     H2       HT       0.417000       1.00800           0
     40983 TIP3     6201     TIP3     OH2      OT      -0.834000       15.9994           0
     40984 TIP3     6201     TIP3     H1       HT       0.417000       1.00800           0
     40985 TIP3     6201     TIP3     H2       HT       0.417000       1.00800           0
     40986 TIP3     6202     TIP3     OH2      OT      -0.834000       15.9994           0
     40987 TIP3     6202     TIP3     H1       HT       0.417000       1.00800           0
     40988 TIP3     6202     TIP3     H2       HT       0.417000       1.00800           0
     40989 TIP3     6203     TIP3     OH2      OT      -0.834000       15.9994           0
     40990 TIP3     6203     TIP3     H1       HT       0.417000       1.00800           0
     40991 TIP3     6203     TIP3     H2       HT       0.417000       1.00800           0
     40992 TIP3     6204     TIP3     OH2      OT      -0.834000       15.9994           0
     40993 TIP3     6204     TIP3     H1       HT       0.417000       1.00800           0
     40994 TIP3     6204     TIP3     H2       HT       0.417000       1.00800           0
     40995 TIP3     6205     TIP3     OH2      OT      -0.834000       15.9994           0
     40996 TIP3     6205     TIP3     H1       HT       0.417000       1.00800           0
     40997 TIP3     6205     TIP3     H2       HT       0.417000       1.00800           0
     40998 TIP3     6206     TIP3     OH2      OT      -0.834000       15.9994           0
     40999 TIP3     6206     TIP3     H1       HT       0.417000       1.00800           0
     41000 TIP3     6206     TIP3     H2       HT       0.417000       1.00800           0
     41001 TIP3     6207     TIP3     OH2      OT      -0.834000       15.9994           0
     41002 TIP3     6207     TIP3     H1       HT       0.417000       1.00800           0
     41003 TIP3     6207     TIP3     H2       HT       0.417000       1.00800           0
     41004 TIP3     6208     TIP3     OH2      OT      -0.834000       15.9994           0
     41005 TIP3     6208     TIP3     H1       HT       0.417000       1.00800           0
     41006 TIP3     6208     TIP3     H2       HT       0.417000       1.00800           0
     41007 TIP3     6209     TIP3     OH2      OT      -0.834000       15.9994           0
     41008 TIP3     6209     TIP3     H1       HT       0.417000       1.00800           0
     41009 TIP3     6209     TIP3     H2       HT       0.417000       1.00800           0
     41010 TIP3     6210     TIP3     OH2      OT      -0.834000       15.9994           0
     41011 TIP3     6210     TIP3     H1       HT       0.417000       1.00800           0
     41012 TIP3     6210     TIP3     H2       HT       0.417000       1.00800           0
     41013 TIP3     6211     TIP3     OH2      OT      -0.834000       15.9994           0
     41014 TIP3     6211     TIP3     H1       HT       0.417000       1.00800           0
     41015 TIP3     6211     TIP3     H2       HT       0.417000       1.00800           0
     41016 TIP3     6212     TIP3     OH2      OT      -0.834000       15.9994           0
     41017 TIP3     6212     TIP3     H1       HT       0.417000       1.00800           0
     41018 TIP3     6212     TIP3     H2       HT       0.417000       1.00800           0
     41019 TIP3     6213     TIP3     OH2      OT      -0.834000       15.9994           0
     41020 TIP3     6213     TIP3     H1       HT       0.417000       1.00800           0
     41021 TIP3     6213     TIP3     H2       HT       0.417000       1.00800           0
     41022 TIP3     6214     TIP3     OH2      OT      -0.834000       15.9994           0
     41023 TIP3     6214     TIP3     H1       HT       0.417000       1.00800           0
     41024 TIP3     6214     TIP3     H2       HT       0.417000       1.00800           0
     41025 TIP3     6215     TIP3     OH2      OT      -0.834000       15.9994           0
     41026 TIP3     6215     TIP3     H1       HT       0.417000       1.00800           0
     41027 TIP3     6215     TIP3     H2       HT       0.417000       1.00800           0
     41028 TIP3     6216     TIP3     OH2      OT      -0.834000       15.9994           0
     41029 TIP3     6216     TIP3     H1       HT       0.417000       1.00800           0
     41030 TIP3     6216     TIP3     H2       HT       0.417000       1.00800           0
     41031 TIP3     6217     TIP3     OH2      OT      -0.834000       15.9994           0
     41032 TIP3     6217     TIP3     H1       HT       0.417000       1.00800           0
     41033 TIP3     6217     TIP3     H2       HT       0.417000       1.00800           0
     41034 TIP3     6218     TIP3     OH2      OT      -0.834000       15.9994           0
     41035 TIP3     6218     TIP3     H1       HT       0.417000       1.00800           0
     41036 TIP3     6218     TIP3     H2       HT       0.417000       1.00800           0
     41037 TIP3     6219     TIP3     OH2      OT      -0.834000       15.9994           0
     41038 TIP3     6219     TIP3     H1       HT       0.417000       1.00800           0
     41039 TIP3     6219     TIP3     H2       HT       0.417000       1.00800           0
     41040 TIP3     6220     TIP3     OH2      OT      -0.834000       15.9994           0
     41041 TIP3     6220     TIP3     H1       HT       0.417000       1.00800           0
     41042 TIP3     6220     TIP3     H2       HT       0.417000       1.00800           0
     41043 TIP3     6221     TIP3     OH2      OT      -0.834000       15.9994           0
     41044 TIP3     6221     TIP3     H1       HT       0.417000       1.00800           0
     41045 TIP3     6221     TIP3     H2       HT       0.417000       1.00800           0
     41046 TIP3     6222     TIP3     OH2      OT      -0.834000       15.9994           0
     41047 TIP3     6222     TIP3     H1       HT       0.417000       1.00800           0
     41048 TIP3     6222     TIP3     H2       HT       0.417000       1.00800           0
     41049 TIP3     6223     TIP3     OH2      OT      -0.834000       15.9994           0
     41050 TIP3     6223     TIP3     H1       HT       0.417000       1.00800           0
     41051 TIP3     6223     TIP3     H2       HT       0.417000       1.00800           0
     41052 TIP3     6224     TIP3     OH2      OT      -0.834000       15.9994           0
     41053 TIP3     6224     TIP3     H1       HT       0.417000       1.00800           0
     41054 TIP3     6224     TIP3     H2       HT       0.417000       1.00800           0
     41055 TIP3     6225     TIP3     OH2      OT      -0.834000       15.9994           0
     41056 TIP3     6225     TIP3     H1       HT       0.417000       1.00800           0
     41057 TIP3     6225     TIP3     H2       HT       0.417000       1.00800           0
     41058 TIP3     6226     TIP3     OH2      OT      -0.834000       15.9994           0
     41059 TIP3     6226     TIP3     H1       HT       0.417000       1.00800           0
     41060 TIP3     6226     TIP3     H2       HT       0.417000       1.00800           0
     41061 TIP3     6227     TIP3     OH2      OT      -0.834000       15.9994           0
     41062 TIP3     6227     TIP3     H1       HT       0.417000       1.00800           0
     41063 TIP3     6227     TIP3     H2       HT       0.417000       1.00800           0
     41064 TIP3     6228     TIP3     OH2      OT      -0.834000       15.9994           0
     41065 TIP3     6228     TIP3     H1       HT       0.417000       1.00800           0
     41066 TIP3     6228     TIP3     H2       HT       0.417000       1.00800           0
     41067 TIP3     6229     TIP3     OH2      OT      -0.834000       15.9994           0
     41068 TIP3     6229     TIP3     H1       HT       0.417000       1.00800           0
     41069 TIP3     6229     TIP3     H2       HT       0.417000       1.00800           0
     41070 TIP3     6230     TIP3     OH2      OT      -0.834000       15.9994           0
     41071 TIP3     6230     TIP3     H1       HT       0.417000       1.00800           0
     41072 TIP3     6230     TIP3     H2       HT       0.417000       1.00800           0
     41073 TIP3     6231     TIP3     OH2      OT      -0.834000       15.9994           0
     41074 TIP3     6231     TIP3     H1       HT       0.417000       1.00800           0
     41075 TIP3     6231     TIP3     H2       HT       0.417000       1.00800           0
     41076 TIP3     6232     TIP3     OH2      OT      -0.834000       15.9994           0
     41077 TIP3     6232     TIP3     H1       HT       0.417000       1.00800           0
     41078 TIP3     6232     TIP3     H2       HT       0.417000       1.00800           0
     41079 TIP3     6233     TIP3     OH2      OT      -0.834000       15.9994           0
     41080 TIP3     6233     TIP3     H1       HT       0.417000       1.00800           0
     41081 TIP3     6233     TIP3     H2       HT       0.417000       1.00800           0
     41082 TIP3     6234     TIP3     OH2      OT      -0.834000       15.9994           0
     41083 TIP3     6234     TIP3     H1       HT       0.417000       1.00800           0
     41084 TIP3     6234     TIP3     H2       HT       0.417000       1.00800           0
     41085 TIP3     6235     TIP3     OH2      OT      -0.834000       15.9994           0
     41086 TIP3     6235     TIP3     H1       HT       0.417000       1.00800           0
     41087 TIP3     6235     TIP3     H2       HT       0.417000       1.00800           0
     41088 TIP3     6236     TIP3     OH2      OT      -0.834000       15.9994           0
     41089 TIP3     6236     TIP3     H1       HT       0.417000       1.00800           0
     41090 TIP3     6236     TIP3     H2       HT       0.417000       1.00800           0
     41091 TIP3     6237     TIP3     OH2      OT      -0.834000       15.9994           0
     41092 TIP3     6237     TIP3     H1       HT       0.417000       1.00800           0
     41093 TIP3     6237     TIP3     H2       HT       0.417000       1.00800           0
     41094 TIP3     6238     TIP3     OH2      OT      -0.834000       15.9994           0
     41095 TIP3     6238     TIP3     H1       HT       0.417000       1.00800           0
     41096 TIP3     6238     TIP3     H2       HT       0.417000       1.00800           0
     41097 TIP3     6239     TIP3     OH2      OT      -0.834000       15.9994           0
     41098 TIP3     6239     TIP3     H1       HT       0.417000       1.00800           0
     41099 TIP3     6239     TIP3     H2       HT       0.417000       1.00800           0
     41100 TIP3     6240     TIP3     OH2      OT      -0.834000       15.9994           0
     41101 TIP3     6240     TIP3     H1       HT       0.417000       1.00800           0
     41102 TIP3     6240     TIP3     H2       HT       0.417000       1.00800           0
     41103 TIP3     6241     TIP3     OH2      OT      -0.834000       15.9994           0
     41104 TIP3     6241     TIP3     H1       HT       0.417000       1.00800           0
     41105 TIP3     6241     TIP3     H2       HT       0.417000       1.00800           0
     41106 TIP3     6242     TIP3     OH2      OT      -0.834000       15.9994           0
     41107 TIP3     6242     TIP3     H1       HT       0.417000       1.00800           0
     41108 TIP3     6242     TIP3     H2       HT       0.417000       1.00800           0
     41109 TIP3     6243     TIP3     OH2      OT      -0.834000       15.9994           0
     41110 TIP3     6243     TIP3     H1       HT       0.417000       1.00800           0
     41111 TIP3     6243     TIP3     H2       HT       0.417000       1.00800           0
     41112 TIP3     6244     TIP3     OH2      OT      -0.834000       15.9994           0
     41113 TIP3     6244     TIP3     H1       HT       0.417000       1.00800           0
     41114 TIP3     6244     TIP3     H2       HT       0.417000       1.00800           0
     41115 TIP3     6245     TIP3     OH2      OT      -0.834000       15.9994           0
     41116 TIP3     6245     TIP3     H1       HT       0.417000       1.00800           0
     41117 TIP3     6245     TIP3     H2       HT       0.417000       1.00800           0
     41118 TIP3     6246     TIP3     OH2      OT      -0.834000       15.9994           0
     41119 TIP3     6246     TIP3     H1       HT       0.417000       1.00800           0
     41120 TIP3     6246     TIP3     H2       HT       0.417000       1.00800           0
     41121 TIP3     6247     TIP3     OH2      OT      -0.834000       15.9994           0
     41122 TIP3     6247     TIP3     H1       HT       0.417000       1.00800           0
     41123 TIP3     6247     TIP3     H2       HT       0.417000       1.00800           0
     41124 TIP3     6248     TIP3     OH2      OT      -0.834000       15.9994           0
     41125 TIP3     6248     TIP3     H1       HT       0.417000       1.00800           0
     41126 TIP3     6248     TIP3     H2       HT       0.417000       1.00800           0
     41127 TIP3     6249     TIP3     OH2      OT      -0.834000       15.9994           0
     41128 TIP3     6249     TIP3     H1       HT       0.417000       1.00800           0
     41129 TIP3     6249     TIP3     H2       HT       0.417000       1.00800           0
     41130 TIP3     6250     TIP3     OH2      OT      -0.834000       15.9994           0
     41131 TIP3     6250     TIP3     H1       HT       0.417000       1.00800           0
     41132 TIP3     6250     TIP3     H2       HT       0.417000       1.00800           0
     41133 TIP3     6251     TIP3     OH2      OT      -0.834000       15.9994           0
     41134 TIP3     6251     TIP3     H1       HT       0.417000       1.00800           0
     41135 TIP3     6251     TIP3     H2       HT       0.417000       1.00800           0
     41136 TIP3     6252     TIP3     OH2      OT      -0.834000       15.9994           0
     41137 TIP3     6252     TIP3     H1       HT       0.417000       1.00800           0
     41138 TIP3     6252     TIP3     H2       HT       0.417000       1.00800           0
     41139 TIP3     6253     TIP3     OH2      OT      -0.834000       15.9994           0
     41140 TIP3     6253     TIP3     H1       HT       0.417000       1.00800           0
     41141 TIP3     6253     TIP3     H2       HT       0.417000       1.00800           0
     41142 TIP3     6254     TIP3     OH2      OT      -0.834000       15.9994           0
     41143 TIP3     6254     TIP3     H1       HT       0.417000       1.00800           0
     41144 TIP3     6254     TIP3     H2       HT       0.417000       1.00800           0
     41145 TIP3     6255     TIP3     OH2      OT      -0.834000       15.9994           0
     41146 TIP3     6255     TIP3     H1       HT       0.417000       1.00800           0
     41147 TIP3     6255     TIP3     H2       HT       0.417000       1.00800           0
     41148 TIP3     6256     TIP3     OH2      OT      -0.834000       15.9994           0
     41149 TIP3     6256     TIP3     H1       HT       0.417000       1.00800           0
     41150 TIP3     6256     TIP3     H2       HT       0.417000       1.00800           0
     41151 TIP3     6257     TIP3     OH2      OT      -0.834000       15.9994           0
     41152 TIP3     6257     TIP3     H1       HT       0.417000       1.00800           0
     41153 TIP3     6257     TIP3     H2       HT       0.417000       1.00800           0
     41154 TIP3     6258     TIP3     OH2      OT      -0.834000       15.9994           0
     41155 TIP3     6258     TIP3     H1       HT       0.417000       1.00800           0
     41156 TIP3     6258     TIP3     H2       HT       0.417000       1.00800           0
     41157 TIP3     6259     TIP3     OH2      OT      -0.834000       15.9994           0
     41158 TIP3     6259     TIP3     H1       HT       0.417000       1.00800           0
     41159 TIP3     6259     TIP3     H2       HT       0.417000       1.00800           0
     41160 TIP3     6260     TIP3     OH2      OT      -0.834000       15.9994           0
     41161 TIP3     6260     TIP3     H1       HT       0.417000       1.00800           0
     41162 TIP3     6260     TIP3     H2       HT       0.417000       1.00800           0
     41163 TIP3     6261     TIP3     OH2      OT      -0.834000       15.9994           0
     41164 TIP3     6261     TIP3     H1       HT       0.417000       1.00800           0
     41165 TIP3     6261     TIP3     H2       HT       0.417000       1.00800           0
     41166 TIP3     6262     TIP3     OH2      OT      -0.834000       15.9994           0
     41167 TIP3     6262     TIP3     H1       HT       0.417000       1.00800           0
     41168 TIP3     6262     TIP3     H2       HT       0.417000       1.00800           0
     41169 TIP3     6263     TIP3     OH2      OT      -0.834000       15.9994           0
     41170 TIP3     6263     TIP3     H1       HT       0.417000       1.00800           0
     41171 TIP3     6263     TIP3     H2       HT       0.417000       1.00800           0
     41172 TIP3     6264     TIP3     OH2      OT      -0.834000       15.9994           0
     41173 TIP3     6264     TIP3     H1       HT       0.417000       1.00800           0
     41174 TIP3     6264     TIP3     H2       HT       0.417000       1.00800           0
     41175 TIP3     6265     TIP3     OH2      OT      -0.834000       15.9994           0
     41176 TIP3     6265     TIP3     H1       HT       0.417000       1.00800           0
     41177 TIP3     6265     TIP3     H2       HT       0.417000       1.00800           0
     41178 TIP3     6266     TIP3     OH2      OT      -0.834000       15.9994           0
     41179 TIP3     6266     TIP3     H1       HT       0.417000       1.00800           0
     41180 TIP3     6266     TIP3     H2       HT       0.417000       1.00800           0
     41181 TIP3     6267     TIP3     OH2      OT      -0.834000       15.9994           0
     41182 TIP3     6267     TIP3     H1       HT       0.417000       1.00800           0
     41183 TIP3     6267     TIP3     H2       HT       0.417000       1.00800           0
     41184 TIP3     6268     TIP3     OH2      OT      -0.834000       15.9994           0
     41185 TIP3     6268     TIP3     H1       HT       0.417000       1.00800           0
     41186 TIP3     6268     TIP3     H2       HT       0.417000       1.00800           0
     41187 TIP3     6269     TIP3     OH2      OT      -0.834000       15.9994           0
     41188 TIP3     6269     TIP3     H1       HT       0.417000       1.00800           0
     41189 TIP3     6269     TIP3     H2       HT       0.417000       1.00800           0
     41190 TIP3     6270     TIP3     OH2      OT      -0.834000       15.9994           0
     41191 TIP3     6270     TIP3     H1       HT       0.417000       1.00800           0
     41192 TIP3     6270     TIP3     H2       HT       0.417000       1.00800           0
     41193 TIP3     6271     TIP3     OH2      OT      -0.834000       15.9994           0
     41194 TIP3     6271     TIP3     H1       HT       0.417000       1.00800           0
     41195 TIP3     6271     TIP3     H2       HT       0.417000       1.00800           0
     41196 TIP3     6272     TIP3     OH2      OT      -0.834000       15.9994           0
     41197 TIP3     6272     TIP3     H1       HT       0.417000       1.00800           0
     41198 TIP3     6272     TIP3     H2       HT       0.417000       1.00800           0
     41199 TIP3     6273     TIP3     OH2      OT      -0.834000       15.9994           0
     41200 TIP3     6273     TIP3     H1       HT       0.417000       1.00800           0
     41201 TIP3     6273     TIP3     H2       HT       0.417000       1.00800           0
     41202 TIP3     6274     TIP3     OH2      OT      -0.834000       15.9994           0
     41203 TIP3     6274     TIP3     H1       HT       0.417000       1.00800           0
     41204 TIP3     6274     TIP3     H2       HT       0.417000       1.00800           0
     41205 TIP3     6275     TIP3     OH2      OT      -0.834000       15.9994           0
     41206 TIP3     6275     TIP3     H1       HT       0.417000       1.00800           0
     41207 TIP3     6275     TIP3     H2       HT       0.417000       1.00800           0
     41208 TIP3     6276     TIP3     OH2      OT      -0.834000       15.9994           0
     41209 TIP3     6276     TIP3     H1       HT       0.417000       1.00800           0
     41210 TIP3     6276     TIP3     H2       HT       0.417000       1.00800           0
     41211 TIP3     6277     TIP3     OH2      OT      -0.834000       15.9994           0
     41212 TIP3     6277     TIP3     H1       HT       0.417000       1.00800           0
     41213 TIP3     6277     TIP3     H2       HT       0.417000       1.00800           0
     41214 TIP3     6278     TIP3     OH2      OT      -0.834000       15.9994           0
     41215 TIP3     6278     TIP3     H1       HT       0.417000       1.00800           0
     41216 TIP3     6278     TIP3     H2       HT       0.417000       1.00800           0
     41217 TIP3     6279     TIP3     OH2      OT      -0.834000       15.9994           0
     41218 TIP3     6279     TIP3     H1       HT       0.417000       1.00800           0
     41219 TIP3     6279     TIP3     H2       HT       0.417000       1.00800           0
     41220 TIP3     6280     TIP3     OH2      OT      -0.834000       15.9994           0
     41221 TIP3     6280     TIP3     H1       HT       0.417000       1.00800           0
     41222 TIP3     6280     TIP3     H2       HT       0.417000       1.00800           0
     41223 TIP3     6281     TIP3     OH2      OT      -0.834000       15.9994           0
     41224 TIP3     6281     TIP3     H1       HT       0.417000       1.00800           0
     41225 TIP3     6281     TIP3     H2       HT       0.417000       1.00800           0
     41226 TIP3     6282     TIP3     OH2      OT      -0.834000       15.9994           0
     41227 TIP3     6282     TIP3     H1       HT       0.417000       1.00800           0
     41228 TIP3     6282     TIP3     H2       HT       0.417000       1.00800           0
     41229 TIP3     6283     TIP3     OH2      OT      -0.834000       15.9994           0
     41230 TIP3     6283     TIP3     H1       HT       0.417000       1.00800           0
     41231 TIP3     6283     TIP3     H2       HT       0.417000       1.00800           0
     41232 TIP3     6284     TIP3     OH2      OT      -0.834000       15.9994           0
     41233 TIP3     6284     TIP3     H1       HT       0.417000       1.00800           0
     41234 TIP3     6284     TIP3     H2       HT       0.417000       1.00800           0
     41235 TIP3     6285     TIP3     OH2      OT      -0.834000       15.9994           0
     41236 TIP3     6285     TIP3     H1       HT       0.417000       1.00800           0
     41237 TIP3     6285     TIP3     H2       HT       0.417000       1.00800           0
     41238 TIP3     6286     TIP3     OH2      OT      -0.834000       15.9994           0
     41239 TIP3     6286     TIP3     H1       HT       0.417000       1.00800           0
     41240 TIP3     6286     TIP3     H2       HT       0.417000       1.00800           0
     41241 TIP3     6287     TIP3     OH2      OT      -0.834000       15.9994           0
     41242 TIP3     6287     TIP3     H1       HT       0.417000       1.00800           0
     41243 TIP3     6287     TIP3     H2       HT       0.417000       1.00800           0
     41244 TIP3     6288     TIP3     OH2      OT      -0.834000       15.9994           0
     41245 TIP3     6288     TIP3     H1       HT       0.417000       1.00800           0
     41246 TIP3     6288     TIP3     H2       HT       0.417000       1.00800           0
     41247 TIP3     6289     TIP3     OH2      OT      -0.834000       15.9994           0
     41248 TIP3     6289     TIP3     H1       HT       0.417000       1.00800           0
     41249 TIP3     6289     TIP3     H2       HT       0.417000       1.00800           0
     41250 TIP3     6290     TIP3     OH2      OT      -0.834000       15.9994           0
     41251 TIP3     6290     TIP3     H1       HT       0.417000       1.00800           0
     41252 TIP3     6290     TIP3     H2       HT       0.417000       1.00800           0
     41253 TIP3     6291     TIP3     OH2      OT      -0.834000       15.9994           0
     41254 TIP3     6291     TIP3     H1       HT       0.417000       1.00800           0
     41255 TIP3     6291     TIP3     H2       HT       0.417000       1.00800           0
     41256 TIP3     6292     TIP3     OH2      OT      -0.834000       15.9994           0
     41257 TIP3     6292     TIP3     H1       HT       0.417000       1.00800           0
     41258 TIP3     6292     TIP3     H2       HT       0.417000       1.00800           0
     41259 TIP3     6293     TIP3     OH2      OT      -0.834000       15.9994           0
     41260 TIP3     6293     TIP3     H1       HT       0.417000       1.00800           0
     41261 TIP3     6293     TIP3     H2       HT       0.417000       1.00800           0
     41262 TIP3     6294     TIP3     OH2      OT      -0.834000       15.9994           0
     41263 TIP3     6294     TIP3     H1       HT       0.417000       1.00800           0
     41264 TIP3     6294     TIP3     H2       HT       0.417000       1.00800           0
     41265 TIP3     6295     TIP3     OH2      OT      -0.834000       15.9994           0
     41266 TIP3     6295     TIP3     H1       HT       0.417000       1.00800           0
     41267 TIP3     6295     TIP3     H2       HT       0.417000       1.00800           0
     41268 TIP3     6296     TIP3     OH2      OT      -0.834000       15.9994           0
     41269 TIP3     6296     TIP3     H1       HT       0.417000       1.00800           0
     41270 TIP3     6296     TIP3     H2       HT       0.417000       1.00800           0
     41271 TIP3     6297     TIP3     OH2      OT      -0.834000       15.9994           0
     41272 TIP3     6297     TIP3     H1       HT       0.417000       1.00800           0
     41273 TIP3     6297     TIP3     H2       HT       0.417000       1.00800           0
     41274 TIP3     6298     TIP3     OH2      OT      -0.834000       15.9994           0
     41275 TIP3     6298     TIP3     H1       HT       0.417000       1.00800           0
     41276 TIP3     6298     TIP3     H2       HT       0.417000       1.00800           0
     41277 TIP3     6299     TIP3     OH2      OT      -0.834000       15.9994           0
     41278 TIP3     6299     TIP3     H1       HT       0.417000       1.00800           0
     41279 TIP3     6299     TIP3     H2       HT       0.417000       1.00800           0
     41280 TIP3     6300     TIP3     OH2      OT      -0.834000       15.9994           0
     41281 TIP3     6300     TIP3     H1       HT       0.417000       1.00800           0
     41282 TIP3     6300     TIP3     H2       HT       0.417000       1.00800           0
     41283 TIP3     6301     TIP3     OH2      OT      -0.834000       15.9994           0
     41284 TIP3     6301     TIP3     H1       HT       0.417000       1.00800           0
     41285 TIP3     6301     TIP3     H2       HT       0.417000       1.00800           0
     41286 TIP3     6302     TIP3     OH2      OT      -0.834000       15.9994           0
     41287 TIP3     6302     TIP3     H1       HT       0.417000       1.00800           0
     41288 TIP3     6302     TIP3     H2       HT       0.417000       1.00800           0
     41289 TIP3     6303     TIP3     OH2      OT      -0.834000       15.9994           0
     41290 TIP3     6303     TIP3     H1       HT       0.417000       1.00800           0
     41291 TIP3     6303     TIP3     H2       HT       0.417000       1.00800           0
     41292 TIP3     6304     TIP3     OH2      OT      -0.834000       15.9994           0
     41293 TIP3     6304     TIP3     H1       HT       0.417000       1.00800           0
     41294 TIP3     6304     TIP3     H2       HT       0.417000       1.00800           0
     41295 TIP3     6305     TIP3     OH2      OT      -0.834000       15.9994           0
     41296 TIP3     6305     TIP3     H1       HT       0.417000       1.00800           0
     41297 TIP3     6305     TIP3     H2       HT       0.417000       1.00800           0
     41298 TIP3     6306     TIP3     OH2      OT      -0.834000       15.9994           0
     41299 TIP3     6306     TIP3     H1       HT       0.417000       1.00800           0
     41300 TIP3     6306     TIP3     H2       HT       0.417000       1.00800           0
     41301 TIP3     6307     TIP3     OH2      OT      -0.834000       15.9994           0
     41302 TIP3     6307     TIP3     H1       HT       0.417000       1.00800           0
     41303 TIP3     6307     TIP3     H2       HT       0.417000       1.00800           0
     41304 TIP3     6308     TIP3     OH2      OT      -0.834000       15.9994           0
     41305 TIP3     6308     TIP3     H1       HT       0.417000       1.00800           0
     41306 TIP3     6308     TIP3     H2       HT       0.417000       1.00800           0
     41307 TIP3     6309     TIP3     OH2      OT      -0.834000       15.9994           0
     41308 TIP3     6309     TIP3     H1       HT       0.417000       1.00800           0
     41309 TIP3     6309     TIP3     H2       HT       0.417000       1.00800           0
     41310 TIP3     6310     TIP3     OH2      OT      -0.834000       15.9994           0
     41311 TIP3     6310     TIP3     H1       HT       0.417000       1.00800           0
     41312 TIP3     6310     TIP3     H2       HT       0.417000       1.00800           0
     41313 TIP3     6311     TIP3     OH2      OT      -0.834000       15.9994           0
     41314 TIP3     6311     TIP3     H1       HT       0.417000       1.00800           0
     41315 TIP3     6311     TIP3     H2       HT       0.417000       1.00800           0
     41316 TIP3     6312     TIP3     OH2      OT      -0.834000       15.9994           0
     41317 TIP3     6312     TIP3     H1       HT       0.417000       1.00800           0
     41318 TIP3     6312     TIP3     H2       HT       0.417000       1.00800           0
     41319 TIP3     6313     TIP3     OH2      OT      -0.834000       15.9994           0
     41320 TIP3     6313     TIP3     H1       HT       0.417000       1.00800           0
     41321 TIP3     6313     TIP3     H2       HT       0.417000       1.00800           0
     41322 TIP3     6314     TIP3     OH2      OT      -0.834000       15.9994           0
     41323 TIP3     6314     TIP3     H1       HT       0.417000       1.00800           0
     41324 TIP3     6314     TIP3     H2       HT       0.417000       1.00800           0
     41325 TIP3     6315     TIP3     OH2      OT      -0.834000       15.9994           0
     41326 TIP3     6315     TIP3     H1       HT       0.417000       1.00800           0
     41327 TIP3     6315     TIP3     H2       HT       0.417000       1.00800           0
     41328 TIP3     6316     TIP3     OH2      OT      -0.834000       15.9994           0
     41329 TIP3     6316     TIP3     H1       HT       0.417000       1.00800           0
     41330 TIP3     6316     TIP3     H2       HT       0.417000       1.00800           0
     41331 TIP3     6317     TIP3     OH2      OT      -0.834000       15.9994           0
     41332 TIP3     6317     TIP3     H1       HT       0.417000       1.00800           0
     41333 TIP3     6317     TIP3     H2       HT       0.417000       1.00800           0
     41334 TIP3     6318     TIP3     OH2      OT      -0.834000       15.9994           0
     41335 TIP3     6318     TIP3     H1       HT       0.417000       1.00800           0
     41336 TIP3     6318     TIP3     H2       HT       0.417000       1.00800           0
     41337 TIP3     6319     TIP3     OH2      OT      -0.834000       15.9994           0
     41338 TIP3     6319     TIP3     H1       HT       0.417000       1.00800           0
     41339 TIP3     6319     TIP3     H2       HT       0.417000       1.00800           0
     41340 TIP3     6320     TIP3     OH2      OT      -0.834000       15.9994           0
     41341 TIP3     6320     TIP3     H1       HT       0.417000       1.00800           0
     41342 TIP3     6320     TIP3     H2       HT       0.417000       1.00800           0
     41343 TIP3     6321     TIP3     OH2      OT      -0.834000       15.9994           0
     41344 TIP3     6321     TIP3     H1       HT       0.417000       1.00800           0
     41345 TIP3     6321     TIP3     H2       HT       0.417000       1.00800           0
     41346 TIP3     6322     TIP3     OH2      OT      -0.834000       15.9994           0
     41347 TIP3     6322     TIP3     H1       HT       0.417000       1.00800           0
     41348 TIP3     6322     TIP3     H2       HT       0.417000       1.00800           0
     41349 TIP3     6323     TIP3     OH2      OT      -0.834000       15.9994           0
     41350 TIP3     6323     TIP3     H1       HT       0.417000       1.00800           0
     41351 TIP3     6323     TIP3     H2       HT       0.417000       1.00800           0
     41352 TIP3     6324     TIP3     OH2      OT      -0.834000       15.9994           0
     41353 TIP3     6324     TIP3     H1       HT       0.417000       1.00800           0
     41354 TIP3     6324     TIP3     H2       HT       0.417000       1.00800           0
     41355 TIP3     6325     TIP3     OH2      OT      -0.834000       15.9994           0
     41356 TIP3     6325     TIP3     H1       HT       0.417000       1.00800           0
     41357 TIP3     6325     TIP3     H2       HT       0.417000       1.00800           0
     41358 TIP3     6326     TIP3     OH2      OT      -0.834000       15.9994           0
     41359 TIP3     6326     TIP3     H1       HT       0.417000       1.00800           0
     41360 TIP3     6326     TIP3     H2       HT       0.417000       1.00800           0
     41361 TIP3     6327     TIP3     OH2      OT      -0.834000       15.9994           0
     41362 TIP3     6327     TIP3     H1       HT       0.417000       1.00800           0
     41363 TIP3     6327     TIP3     H2       HT       0.417000       1.00800           0
     41364 TIP3     6328     TIP3     OH2      OT      -0.834000       15.9994           0
     41365 TIP3     6328     TIP3     H1       HT       0.417000       1.00800           0
     41366 TIP3     6328     TIP3     H2       HT       0.417000       1.00800           0
     41367 TIP3     6329     TIP3     OH2      OT      -0.834000       15.9994           0
     41368 TIP3     6329     TIP3     H1       HT       0.417000       1.00800           0
     41369 TIP3     6329     TIP3     H2       HT       0.417000       1.00800           0
     41370 TIP3     6330     TIP3     OH2      OT      -0.834000       15.9994           0
     41371 TIP3     6330     TIP3     H1       HT       0.417000       1.00800           0
     41372 TIP3     6330     TIP3     H2       HT       0.417000       1.00800           0
     41373 TIP3     6331     TIP3     OH2      OT      -0.834000       15.9994           0
     41374 TIP3     6331     TIP3     H1       HT       0.417000       1.00800           0
     41375 TIP3     6331     TIP3     H2       HT       0.417000       1.00800           0
     41376 TIP3     6332     TIP3     OH2      OT      -0.834000       15.9994           0
     41377 TIP3     6332     TIP3     H1       HT       0.417000       1.00800           0
     41378 TIP3     6332     TIP3     H2       HT       0.417000       1.00800           0
     41379 TIP3     6333     TIP3     OH2      OT      -0.834000       15.9994           0
     41380 TIP3     6333     TIP3     H1       HT       0.417000       1.00800           0
     41381 TIP3     6333     TIP3     H2       HT       0.417000       1.00800           0
     41382 TIP3     6334     TIP3     OH2      OT      -0.834000       15.9994           0
     41383 TIP3     6334     TIP3     H1       HT       0.417000       1.00800           0
     41384 TIP3     6334     TIP3     H2       HT       0.417000       1.00800           0
     41385 TIP3     6335     TIP3     OH2      OT      -0.834000       15.9994           0
     41386 TIP3     6335     TIP3     H1       HT       0.417000       1.00800           0
     41387 TIP3     6335     TIP3     H2       HT       0.417000       1.00800           0
     41388 TIP3     6336     TIP3     OH2      OT      -0.834000       15.9994           0
     41389 TIP3     6336     TIP3     H1       HT       0.417000       1.00800           0
     41390 TIP3     6336     TIP3     H2       HT       0.417000       1.00800           0
     41391 TIP3     6337     TIP3     OH2      OT      -0.834000       15.9994           0
     41392 TIP3     6337     TIP3     H1       HT       0.417000       1.00800           0
     41393 TIP3     6337     TIP3     H2       HT       0.417000       1.00800           0
     41394 TIP3     6338     TIP3     OH2      OT      -0.834000       15.9994           0
     41395 TIP3     6338     TIP3     H1       HT       0.417000       1.00800           0
     41396 TIP3     6338     TIP3     H2       HT       0.417000       1.00800           0
     41397 TIP3     6339     TIP3     OH2      OT      -0.834000       15.9994           0
     41398 TIP3     6339     TIP3     H1       HT       0.417000       1.00800           0
     41399 TIP3     6339     TIP3     H2       HT       0.417000       1.00800           0
     41400 TIP3     6340     TIP3     OH2      OT      -0.834000       15.9994           0
     41401 TIP3     6340     TIP3     H1       HT       0.417000       1.00800           0
     41402 TIP3     6340     TIP3     H2       HT       0.417000       1.00800           0
     41403 TIP3     6341     TIP3     OH2      OT      -0.834000       15.9994           0
     41404 TIP3     6341     TIP3     H1       HT       0.417000       1.00800           0
     41405 TIP3     6341     TIP3     H2       HT       0.417000       1.00800           0
     41406 TIP3     6342     TIP3     OH2      OT      -0.834000       15.9994           0
     41407 TIP3     6342     TIP3     H1       HT       0.417000       1.00800           0
     41408 TIP3     6342     TIP3     H2       HT       0.417000       1.00800           0
     41409 TIP3     6343     TIP3     OH2      OT      -0.834000       15.9994           0
     41410 TIP3     6343     TIP3     H1       HT       0.417000       1.00800           0
     41411 TIP3     6343     TIP3     H2       HT       0.417000       1.00800           0
     41412 TIP3     6344     TIP3     OH2      OT      -0.834000       15.9994           0
     41413 TIP3     6344     TIP3     H1       HT       0.417000       1.00800           0
     41414 TIP3     6344     TIP3     H2       HT       0.417000       1.00800           0
     41415 TIP3     6345     TIP3     OH2      OT      -0.834000       15.9994           0
     41416 TIP3     6345     TIP3     H1       HT       0.417000       1.00800           0
     41417 TIP3     6345     TIP3     H2       HT       0.417000       1.00800           0
     41418 TIP3     6346     TIP3     OH2      OT      -0.834000       15.9994           0
     41419 TIP3     6346     TIP3     H1       HT       0.417000       1.00800           0
     41420 TIP3     6346     TIP3     H2       HT       0.417000       1.00800           0
     41421 TIP3     6347     TIP3     OH2      OT      -0.834000       15.9994           0
     41422 TIP3     6347     TIP3     H1       HT       0.417000       1.00800           0
     41423 TIP3     6347     TIP3     H2       HT       0.417000       1.00800           0
     41424 TIP3     6348     TIP3     OH2      OT      -0.834000       15.9994           0
     41425 TIP3     6348     TIP3     H1       HT       0.417000       1.00800           0
     41426 TIP3     6348     TIP3     H2       HT       0.417000       1.00800           0
     41427 TIP3     6349     TIP3     OH2      OT      -0.834000       15.9994           0
     41428 TIP3     6349     TIP3     H1       HT       0.417000       1.00800           0
     41429 TIP3     6349     TIP3     H2       HT       0.417000       1.00800           0
     41430 TIP3     6350     TIP3     OH2      OT      -0.834000       15.9994           0
     41431 TIP3     6350     TIP3     H1       HT       0.417000       1.00800           0
     41432 TIP3     6350     TIP3     H2       HT       0.417000       1.00800           0
     41433 TIP3     6351     TIP3     OH2      OT      -0.834000       15.9994           0
     41434 TIP3     6351     TIP3     H1       HT       0.417000       1.00800           0
     41435 TIP3     6351     TIP3     H2       HT       0.417000       1.00800           0
     41436 TIP3     6352     TIP3     OH2      OT      -0.834000       15.9994           0
     41437 TIP3     6352     TIP3     H1       HT       0.417000       1.00800           0
     41438 TIP3     6352     TIP3     H2       HT       0.417000       1.00800           0
     41439 TIP3     6353     TIP3     OH2      OT      -0.834000       15.9994           0
     41440 TIP3     6353     TIP3     H1       HT       0.417000       1.00800           0
     41441 TIP3     6353     TIP3     H2       HT       0.417000       1.00800           0
     41442 TIP3     6354     TIP3     OH2      OT      -0.834000       15.9994           0
     41443 TIP3     6354     TIP3     H1       HT       0.417000       1.00800           0
     41444 TIP3     6354     TIP3     H2       HT       0.417000       1.00800           0
     41445 TIP3     6355     TIP3     OH2      OT      -0.834000       15.9994           0
     41446 TIP3     6355     TIP3     H1       HT       0.417000       1.00800           0
     41447 TIP3     6355     TIP3     H2       HT       0.417000       1.00800           0
     41448 TIP3     6356     TIP3     OH2      OT      -0.834000       15.9994           0
     41449 TIP3     6356     TIP3     H1       HT       0.417000       1.00800           0
     41450 TIP3     6356     TIP3     H2       HT       0.417000       1.00800           0
     41451 TIP3     6357     TIP3     OH2      OT      -0.834000       15.9994           0
     41452 TIP3     6357     TIP3     H1       HT       0.417000       1.00800           0
     41453 TIP3     6357     TIP3     H2       HT       0.417000       1.00800           0
     41454 TIP3     6358     TIP3     OH2      OT      -0.834000       15.9994           0
     41455 TIP3     6358     TIP3     H1       HT       0.417000       1.00800           0
     41456 TIP3     6358     TIP3     H2       HT       0.417000       1.00800           0
     41457 TIP3     6359     TIP3     OH2      OT      -0.834000       15.9994           0
     41458 TIP3     6359     TIP3     H1       HT       0.417000       1.00800           0
     41459 TIP3     6359     TIP3     H2       HT       0.417000       1.00800           0
     41460 TIP3     6360     TIP3     OH2      OT      -0.834000       15.9994           0
     41461 TIP3     6360     TIP3     H1       HT       0.417000       1.00800           0
     41462 TIP3     6360     TIP3     H2       HT       0.417000       1.00800           0
     41463 TIP3     6361     TIP3     OH2      OT      -0.834000       15.9994           0
     41464 TIP3     6361     TIP3     H1       HT       0.417000       1.00800           0
     41465 TIP3     6361     TIP3     H2       HT       0.417000       1.00800           0
     41466 TIP3     6362     TIP3     OH2      OT      -0.834000       15.9994           0
     41467 TIP3     6362     TIP3     H1       HT       0.417000       1.00800           0
     41468 TIP3     6362     TIP3     H2       HT       0.417000       1.00800           0
     41469 TIP3     6363     TIP3     OH2      OT      -0.834000       15.9994           0
     41470 TIP3     6363     TIP3     H1       HT       0.417000       1.00800           0
     41471 TIP3     6363     TIP3     H2       HT       0.417000       1.00800           0
     41472 TIP3     6364     TIP3     OH2      OT      -0.834000       15.9994           0
     41473 TIP3     6364     TIP3     H1       HT       0.417000       1.00800           0
     41474 TIP3     6364     TIP3     H2       HT       0.417000       1.00800           0
     41475 TIP3     6365     TIP3     OH2      OT      -0.834000       15.9994           0
     41476 TIP3     6365     TIP3     H1       HT       0.417000       1.00800           0
     41477 TIP3     6365     TIP3     H2       HT       0.417000       1.00800           0
     41478 TIP3     6366     TIP3     OH2      OT      -0.834000       15.9994           0
     41479 TIP3     6366     TIP3     H1       HT       0.417000       1.00800           0
     41480 TIP3     6366     TIP3     H2       HT       0.417000       1.00800           0
     41481 TIP3     6367     TIP3     OH2      OT      -0.834000       15.9994           0
     41482 TIP3     6367     TIP3     H1       HT       0.417000       1.00800           0
     41483 TIP3     6367     TIP3     H2       HT       0.417000       1.00800           0
     41484 TIP3     6368     TIP3     OH2      OT      -0.834000       15.9994           0
     41485 TIP3     6368     TIP3     H1       HT       0.417000       1.00800           0
     41486 TIP3     6368     TIP3     H2       HT       0.417000       1.00800           0
     41487 TIP3     6369     TIP3     OH2      OT      -0.834000       15.9994           0
     41488 TIP3     6369     TIP3     H1       HT       0.417000       1.00800           0
     41489 TIP3     6369     TIP3     H2       HT       0.417000       1.00800           0
     41490 TIP3     6370     TIP3     OH2      OT      -0.834000       15.9994           0
     41491 TIP3     6370     TIP3     H1       HT       0.417000       1.00800           0
     41492 TIP3     6370     TIP3     H2       HT       0.417000       1.00800           0
     41493 TIP3     6371     TIP3     OH2      OT      -0.834000       15.9994           0
     41494 TIP3     6371     TIP3     H1       HT       0.417000       1.00800           0
     41495 TIP3     6371     TIP3     H2       HT       0.417000       1.00800           0
     41496 TIP3     6372     TIP3     OH2      OT      -0.834000       15.9994           0
     41497 TIP3     6372     TIP3     H1       HT       0.417000       1.00800           0
     41498 TIP3     6372     TIP3     H2       HT       0.417000       1.00800           0
     41499 TIP3     6373     TIP3     OH2      OT      -0.834000       15.9994           0
     41500 TIP3     6373     TIP3     H1       HT       0.417000       1.00800           0
     41501 TIP3     6373     TIP3     H2       HT       0.417000       1.00800           0
     41502 TIP3     6374     TIP3     OH2      OT      -0.834000       15.9994           0
     41503 TIP3     6374     TIP3     H1       HT       0.417000       1.00800           0
     41504 TIP3     6374     TIP3     H2       HT       0.417000       1.00800           0
     41505 TIP3     6375     TIP3     OH2      OT      -0.834000       15.9994           0
     41506 TIP3     6375     TIP3     H1       HT       0.417000       1.00800           0
     41507 TIP3     6375     TIP3     H2       HT       0.417000       1.00800           0
     41508 TIP3     6376     TIP3     OH2      OT      -0.834000       15.9994           0
     41509 TIP3     6376     TIP3     H1       HT       0.417000       1.00800           0
     41510 TIP3     6376     TIP3     H2       HT       0.417000       1.00800           0
     41511 TIP3     6377     TIP3     OH2      OT      -0.834000       15.9994           0
     41512 TIP3     6377     TIP3     H1       HT       0.417000       1.00800           0
     41513 TIP3     6377     TIP3     H2       HT       0.417000       1.00800           0
     41514 TIP3     6378     TIP3     OH2      OT      -0.834000       15.9994           0
     41515 TIP3     6378     TIP3     H1       HT       0.417000       1.00800           0
     41516 TIP3     6378     TIP3     H2       HT       0.417000       1.00800           0
     41517 TIP3     6379     TIP3     OH2      OT      -0.834000       15.9994           0
     41518 TIP3     6379     TIP3     H1       HT       0.417000       1.00800           0
     41519 TIP3     6379     TIP3     H2       HT       0.417000       1.00800           0
     41520 TIP3     6380     TIP3     OH2      OT      -0.834000       15.9994           0
     41521 TIP3     6380     TIP3     H1       HT       0.417000       1.00800           0
     41522 TIP3     6380     TIP3     H2       HT       0.417000       1.00800           0
     41523 TIP3     6381     TIP3     OH2      OT      -0.834000       15.9994           0
     41524 TIP3     6381     TIP3     H1       HT       0.417000       1.00800           0
     41525 TIP3     6381     TIP3     H2       HT       0.417000       1.00800           0
     41526 TIP3     6382     TIP3     OH2      OT      -0.834000       15.9994           0
     41527 TIP3     6382     TIP3     H1       HT       0.417000       1.00800           0
     41528 TIP3     6382     TIP3     H2       HT       0.417000       1.00800           0
     41529 TIP3     6383     TIP3     OH2      OT      -0.834000       15.9994           0
     41530 TIP3     6383     TIP3     H1       HT       0.417000       1.00800           0
     41531 TIP3     6383     TIP3     H2       HT       0.417000       1.00800           0
     41532 TIP3     6384     TIP3     OH2      OT      -0.834000       15.9994           0
     41533 TIP3     6384     TIP3     H1       HT       0.417000       1.00800           0
     41534 TIP3     6384     TIP3     H2       HT       0.417000       1.00800           0
     41535 TIP3     6385     TIP3     OH2      OT      -0.834000       15.9994           0
     41536 TIP3     6385     TIP3     H1       HT       0.417000       1.00800           0
     41537 TIP3     6385     TIP3     H2       HT       0.417000       1.00800           0
     41538 TIP3     6386     TIP3     OH2      OT      -0.834000       15.9994           0
     41539 TIP3     6386     TIP3     H1       HT       0.417000       1.00800           0
     41540 TIP3     6386     TIP3     H2       HT       0.417000       1.00800           0
     41541 TIP3     6387     TIP3     OH2      OT      -0.834000       15.9994           0
     41542 TIP3     6387     TIP3     H1       HT       0.417000       1.00800           0
     41543 TIP3     6387     TIP3     H2       HT       0.417000       1.00800           0
     41544 TIP3     6388     TIP3     OH2      OT      -0.834000       15.9994           0
     41545 TIP3     6388     TIP3     H1       HT       0.417000       1.00800           0
     41546 TIP3     6388     TIP3     H2       HT       0.417000       1.00800           0
     41547 TIP3     6389     TIP3     OH2      OT      -0.834000       15.9994           0
     41548 TIP3     6389     TIP3     H1       HT       0.417000       1.00800           0
     41549 TIP3     6389     TIP3     H2       HT       0.417000       1.00800           0
     41550 TIP3     6390     TIP3     OH2      OT      -0.834000       15.9994           0
     41551 TIP3     6390     TIP3     H1       HT       0.417000       1.00800           0
     41552 TIP3     6390     TIP3     H2       HT       0.417000       1.00800           0
     41553 TIP3     6391     TIP3     OH2      OT      -0.834000       15.9994           0
     41554 TIP3     6391     TIP3     H1       HT       0.417000       1.00800           0
     41555 TIP3     6391     TIP3     H2       HT       0.417000       1.00800           0
     41556 TIP3     6392     TIP3     OH2      OT      -0.834000       15.9994           0
     41557 TIP3     6392     TIP3     H1       HT       0.417000       1.00800           0
     41558 TIP3     6392     TIP3     H2       HT       0.417000       1.00800           0
     41559 TIP3     6393     TIP3     OH2      OT      -0.834000       15.9994           0
     41560 TIP3     6393     TIP3     H1       HT       0.417000       1.00800           0
     41561 TIP3     6393     TIP3     H2       HT       0.417000       1.00800           0
     41562 TIP3     6394     TIP3     OH2      OT      -0.834000       15.9994           0
     41563 TIP3     6394     TIP3     H1       HT       0.417000       1.00800           0
     41564 TIP3     6394     TIP3     H2       HT       0.417000       1.00800           0
     41565 TIP3     6395     TIP3     OH2      OT      -0.834000       15.9994           0
     41566 TIP3     6395     TIP3     H1       HT       0.417000       1.00800           0
     41567 TIP3     6395     TIP3     H2       HT       0.417000       1.00800           0
     41568 TIP3     6396     TIP3     OH2      OT      -0.834000       15.9994           0
     41569 TIP3     6396     TIP3     H1       HT       0.417000       1.00800           0
     41570 TIP3     6396     TIP3     H2       HT       0.417000       1.00800           0
     41571 TIP3     6397     TIP3     OH2      OT      -0.834000       15.9994           0
     41572 TIP3     6397     TIP3     H1       HT       0.417000       1.00800           0
     41573 TIP3     6397     TIP3     H2       HT       0.417000       1.00800           0
     41574 TIP3     6398     TIP3     OH2      OT      -0.834000       15.9994           0
     41575 TIP3     6398     TIP3     H1       HT       0.417000       1.00800           0
     41576 TIP3     6398     TIP3     H2       HT       0.417000       1.00800           0
     41577 TIP3     6399     TIP3     OH2      OT      -0.834000       15.9994           0
     41578 TIP3     6399     TIP3     H1       HT       0.417000       1.00800           0
     41579 TIP3     6399     TIP3     H2       HT       0.417000       1.00800           0
     41580 TIP3     6400     TIP3     OH2      OT      -0.834000       15.9994           0
     41581 TIP3     6400     TIP3     H1       HT       0.417000       1.00800           0
     41582 TIP3     6400     TIP3     H2       HT       0.417000       1.00800           0
     41583 TIP3     6401     TIP3     OH2      OT      -0.834000       15.9994           0
     41584 TIP3     6401     TIP3     H1       HT       0.417000       1.00800           0
     41585 TIP3     6401     TIP3     H2       HT       0.417000       1.00800           0
     41586 TIP3     6402     TIP3     OH2      OT      -0.834000       15.9994           0
     41587 TIP3     6402     TIP3     H1       HT       0.417000       1.00800           0
     41588 TIP3     6402     TIP3     H2       HT       0.417000       1.00800           0
     41589 TIP3     6403     TIP3     OH2      OT      -0.834000       15.9994           0
     41590 TIP3     6403     TIP3     H1       HT       0.417000       1.00800           0
     41591 TIP3     6403     TIP3     H2       HT       0.417000       1.00800           0
     41592 TIP3     6404     TIP3     OH2      OT      -0.834000       15.9994           0
     41593 TIP3     6404     TIP3     H1       HT       0.417000       1.00800           0
     41594 TIP3     6404     TIP3     H2       HT       0.417000       1.00800           0
     41595 TIP3     6405     TIP3     OH2      OT      -0.834000       15.9994           0
     41596 TIP3     6405     TIP3     H1       HT       0.417000       1.00800           0
     41597 TIP3     6405     TIP3     H2       HT       0.417000       1.00800           0
     41598 TIP3     6406     TIP3     OH2      OT      -0.834000       15.9994           0
     41599 TIP3     6406     TIP3     H1       HT       0.417000       1.00800           0
     41600 TIP3     6406     TIP3     H2       HT       0.417000       1.00800           0
     41601 TIP3     6407     TIP3     OH2      OT      -0.834000       15.9994           0
     41602 TIP3     6407     TIP3     H1       HT       0.417000       1.00800           0
     41603 TIP3     6407     TIP3     H2       HT       0.417000       1.00800           0
     41604 TIP3     6408     TIP3     OH2      OT      -0.834000       15.9994           0
     41605 TIP3     6408     TIP3     H1       HT       0.417000       1.00800           0
     41606 TIP3     6408     TIP3     H2       HT       0.417000       1.00800           0
     41607 TIP3     6409     TIP3     OH2      OT      -0.834000       15.9994           0
     41608 TIP3     6409     TIP3     H1       HT       0.417000       1.00800           0
     41609 TIP3     6409     TIP3     H2       HT       0.417000       1.00800           0
     41610 TIP3     6410     TIP3     OH2      OT      -0.834000       15.9994           0
     41611 TIP3     6410     TIP3     H1       HT       0.417000       1.00800           0
     41612 TIP3     6410     TIP3     H2       HT       0.417000       1.00800           0
     41613 TIP3     6411     TIP3     OH2      OT      -0.834000       15.9994           0
     41614 TIP3     6411     TIP3     H1       HT       0.417000       1.00800           0
     41615 TIP3     6411     TIP3     H2       HT       0.417000       1.00800           0
     41616 TIP3     6412     TIP3     OH2      OT      -0.834000       15.9994           0
     41617 TIP3     6412     TIP3     H1       HT       0.417000       1.00800           0
     41618 TIP3     6412     TIP3     H2       HT       0.417000       1.00800           0
     41619 TIP3     6413     TIP3     OH2      OT      -0.834000       15.9994           0
     41620 TIP3     6413     TIP3     H1       HT       0.417000       1.00800           0
     41621 TIP3     6413     TIP3     H2       HT       0.417000       1.00800           0
     41622 TIP3     6414     TIP3     OH2      OT      -0.834000       15.9994           0
     41623 TIP3     6414     TIP3     H1       HT       0.417000       1.00800           0
     41624 TIP3     6414     TIP3     H2       HT       0.417000       1.00800           0
     41625 TIP3     6415     TIP3     OH2      OT      -0.834000       15.9994           0
     41626 TIP3     6415     TIP3     H1       HT       0.417000       1.00800           0
     41627 TIP3     6415     TIP3     H2       HT       0.417000       1.00800           0
     41628 TIP3     6416     TIP3     OH2      OT      -0.834000       15.9994           0
     41629 TIP3     6416     TIP3     H1       HT       0.417000       1.00800           0
     41630 TIP3     6416     TIP3     H2       HT       0.417000       1.00800           0
     41631 TIP3     6417     TIP3     OH2      OT      -0.834000       15.9994           0
     41632 TIP3     6417     TIP3     H1       HT       0.417000       1.00800           0
     41633 TIP3     6417     TIP3     H2       HT       0.417000       1.00800           0
     41634 TIP3     6418     TIP3     OH2      OT      -0.834000       15.9994           0
     41635 TIP3     6418     TIP3     H1       HT       0.417000       1.00800           0
     41636 TIP3     6418     TIP3     H2       HT       0.417000       1.00800           0
     41637 TIP3     6419     TIP3     OH2      OT      -0.834000       15.9994           0
     41638 TIP3     6419     TIP3     H1       HT       0.417000       1.00800           0
     41639 TIP3     6419     TIP3     H2       HT       0.417000       1.00800           0
     41640 TIP3     6420     TIP3     OH2      OT      -0.834000       15.9994           0
     41641 TIP3     6420     TIP3     H1       HT       0.417000       1.00800           0
     41642 TIP3     6420     TIP3     H2       HT       0.417000       1.00800           0
     41643 TIP3     6421     TIP3     OH2      OT      -0.834000       15.9994           0
     41644 TIP3     6421     TIP3     H1       HT       0.417000       1.00800           0
     41645 TIP3     6421     TIP3     H2       HT       0.417000       1.00800           0
     41646 TIP3     6422     TIP3     OH2      OT      -0.834000       15.9994           0
     41647 TIP3     6422     TIP3     H1       HT       0.417000       1.00800           0
     41648 TIP3     6422     TIP3     H2       HT       0.417000       1.00800           0
     41649 TIP3     6423     TIP3     OH2      OT      -0.834000       15.9994           0
     41650 TIP3     6423     TIP3     H1       HT       0.417000       1.00800           0
     41651 TIP3     6423     TIP3     H2       HT       0.417000       1.00800           0
     41652 TIP3     6424     TIP3     OH2      OT      -0.834000       15.9994           0
     41653 TIP3     6424     TIP3     H1       HT       0.417000       1.00800           0
     41654 TIP3     6424     TIP3     H2       HT       0.417000       1.00800           0
     41655 TIP3     6425     TIP3     OH2      OT      -0.834000       15.9994           0
     41656 TIP3     6425     TIP3     H1       HT       0.417000       1.00800           0
     41657 TIP3     6425     TIP3     H2       HT       0.417000       1.00800           0
     41658 TIP3     6426     TIP3     OH2      OT      -0.834000       15.9994           0
     41659 TIP3     6426     TIP3     H1       HT       0.417000       1.00800           0
     41660 TIP3     6426     TIP3     H2       HT       0.417000       1.00800           0
     41661 TIP3     6427     TIP3     OH2      OT      -0.834000       15.9994           0
     41662 TIP3     6427     TIP3     H1       HT       0.417000       1.00800           0
     41663 TIP3     6427     TIP3     H2       HT       0.417000       1.00800           0
     41664 TIP3     6428     TIP3     OH2      OT      -0.834000       15.9994           0
     41665 TIP3     6428     TIP3     H1       HT       0.417000       1.00800           0
     41666 TIP3     6428     TIP3     H2       HT       0.417000       1.00800           0
     41667 TIP3     6429     TIP3     OH2      OT      -0.834000       15.9994           0
     41668 TIP3     6429     TIP3     H1       HT       0.417000       1.00800           0
     41669 TIP3     6429     TIP3     H2       HT       0.417000       1.00800           0
     41670 TIP3     6430     TIP3     OH2      OT      -0.834000       15.9994           0
     41671 TIP3     6430     TIP3     H1       HT       0.417000       1.00800           0
     41672 TIP3     6430     TIP3     H2       HT       0.417000       1.00800           0
     41673 TIP3     6431     TIP3     OH2      OT      -0.834000       15.9994           0
     41674 TIP3     6431     TIP3     H1       HT       0.417000       1.00800           0
     41675 TIP3     6431     TIP3     H2       HT       0.417000       1.00800           0
     41676 TIP3     6432     TIP3     OH2      OT      -0.834000       15.9994           0
     41677 TIP3     6432     TIP3     H1       HT       0.417000       1.00800           0
     41678 TIP3     6432     TIP3     H2       HT       0.417000       1.00800           0
     41679 TIP3     6433     TIP3     OH2      OT      -0.834000       15.9994           0
     41680 TIP3     6433     TIP3     H1       HT       0.417000       1.00800           0
     41681 TIP3     6433     TIP3     H2       HT       0.417000       1.00800           0
     41682 TIP3     6434     TIP3     OH2      OT      -0.834000       15.9994           0
     41683 TIP3     6434     TIP3     H1       HT       0.417000       1.00800           0
     41684 TIP3     6434     TIP3     H2       HT       0.417000       1.00800           0
     41685 TIP3     6435     TIP3     OH2      OT      -0.834000       15.9994           0
     41686 TIP3     6435     TIP3     H1       HT       0.417000       1.00800           0
     41687 TIP3     6435     TIP3     H2       HT       0.417000       1.00800           0
     41688 TIP3     6436     TIP3     OH2      OT      -0.834000       15.9994           0
     41689 TIP3     6436     TIP3     H1       HT       0.417000       1.00800           0
     41690 TIP3     6436     TIP3     H2       HT       0.417000       1.00800           0
     41691 TIP3     6437     TIP3     OH2      OT      -0.834000       15.9994           0
     41692 TIP3     6437     TIP3     H1       HT       0.417000       1.00800           0
     41693 TIP3     6437     TIP3     H2       HT       0.417000       1.00800           0
     41694 TIP3     6438     TIP3     OH2      OT      -0.834000       15.9994           0
     41695 TIP3     6438     TIP3     H1       HT       0.417000       1.00800           0
     41696 TIP3     6438     TIP3     H2       HT       0.417000       1.00800           0
     41697 TIP3     6439     TIP3     OH2      OT      -0.834000       15.9994           0
     41698 TIP3     6439     TIP3     H1       HT       0.417000       1.00800           0
     41699 TIP3     6439     TIP3     H2       HT       0.417000       1.00800           0
     41700 TIP3     6440     TIP3     OH2      OT      -0.834000       15.9994           0
     41701 TIP3     6440     TIP3     H1       HT       0.417000       1.00800           0
     41702 TIP3     6440     TIP3     H2       HT       0.417000       1.00800           0
     41703 TIP3     6441     TIP3     OH2      OT      -0.834000       15.9994           0
     41704 TIP3     6441     TIP3     H1       HT       0.417000       1.00800           0
     41705 TIP3     6441     TIP3     H2       HT       0.417000       1.00800           0
     41706 TIP3     6442     TIP3     OH2      OT      -0.834000       15.9994           0
     41707 TIP3     6442     TIP3     H1       HT       0.417000       1.00800           0
     41708 TIP3     6442     TIP3     H2       HT       0.417000       1.00800           0
     41709 TIP3     6443     TIP3     OH2      OT      -0.834000       15.9994           0
     41710 TIP3     6443     TIP3     H1       HT       0.417000       1.00800           0
     41711 TIP3     6443     TIP3     H2       HT       0.417000       1.00800           0
     41712 TIP3     6444     TIP3     OH2      OT      -0.834000       15.9994           0
     41713 TIP3     6444     TIP3     H1       HT       0.417000       1.00800           0
     41714 TIP3     6444     TIP3     H2       HT       0.417000       1.00800           0
     41715 TIP3     6445     TIP3     OH2      OT      -0.834000       15.9994           0
     41716 TIP3     6445     TIP3     H1       HT       0.417000       1.00800           0
     41717 TIP3     6445     TIP3     H2       HT       0.417000       1.00800           0
     41718 TIP3     6446     TIP3     OH2      OT      -0.834000       15.9994           0
     41719 TIP3     6446     TIP3     H1       HT       0.417000       1.00800           0
     41720 TIP3     6446     TIP3     H2       HT       0.417000       1.00800           0
     41721 TIP3     6447     TIP3     OH2      OT      -0.834000       15.9994           0
     41722 TIP3     6447     TIP3     H1       HT       0.417000       1.00800           0
     41723 TIP3     6447     TIP3     H2       HT       0.417000       1.00800           0
     41724 TIP3     6448     TIP3     OH2      OT      -0.834000       15.9994           0
     41725 TIP3     6448     TIP3     H1       HT       0.417000       1.00800           0
     41726 TIP3     6448     TIP3     H2       HT       0.417000       1.00800           0
     41727 TIP3     6449     TIP3     OH2      OT      -0.834000       15.9994           0
     41728 TIP3     6449     TIP3     H1       HT       0.417000       1.00800           0
     41729 TIP3     6449     TIP3     H2       HT       0.417000       1.00800           0
     41730 TIP3     6450     TIP3     OH2      OT      -0.834000       15.9994           0
     41731 TIP3     6450     TIP3     H1       HT       0.417000       1.00800           0
     41732 TIP3     6450     TIP3     H2       HT       0.417000       1.00800           0
     41733 TIP3     6451     TIP3     OH2      OT      -0.834000       15.9994           0
     41734 TIP3     6451     TIP3     H1       HT       0.417000       1.00800           0
     41735 TIP3     6451     TIP3     H2       HT       0.417000       1.00800           0
     41736 TIP3     6452     TIP3     OH2      OT      -0.834000       15.9994           0
     41737 TIP3     6452     TIP3     H1       HT       0.417000       1.00800           0
     41738 TIP3     6452     TIP3     H2       HT       0.417000       1.00800           0
     41739 TIP3     6453     TIP3     OH2      OT      -0.834000       15.9994           0
     41740 TIP3     6453     TIP3     H1       HT       0.417000       1.00800           0
     41741 TIP3     6453     TIP3     H2       HT       0.417000       1.00800           0
     41742 TIP3     6454     TIP3     OH2      OT      -0.834000       15.9994           0
     41743 TIP3     6454     TIP3     H1       HT       0.417000       1.00800           0
     41744 TIP3     6454     TIP3     H2       HT       0.417000       1.00800           0
     41745 TIP3     6455     TIP3     OH2      OT      -0.834000       15.9994           0
     41746 TIP3     6455     TIP3     H1       HT       0.417000       1.00800           0
     41747 TIP3     6455     TIP3     H2       HT       0.417000       1.00800           0
     41748 TIP3     6456     TIP3     OH2      OT      -0.834000       15.9994           0
     41749 TIP3     6456     TIP3     H1       HT       0.417000       1.00800           0
     41750 TIP3     6456     TIP3     H2       HT       0.417000       1.00800           0
     41751 TIP3     6457     TIP3     OH2      OT      -0.834000       15.9994           0
     41752 TIP3     6457     TIP3     H1       HT       0.417000       1.00800           0
     41753 TIP3     6457     TIP3     H2       HT       0.417000       1.00800           0
     41754 TIP3     6458     TIP3     OH2      OT      -0.834000       15.9994           0
     41755 TIP3     6458     TIP3     H1       HT       0.417000       1.00800           0
     41756 TIP3     6458     TIP3     H2       HT       0.417000       1.00800           0
     41757 TIP3     6459     TIP3     OH2      OT      -0.834000       15.9994           0
     41758 TIP3     6459     TIP3     H1       HT       0.417000       1.00800           0
     41759 TIP3     6459     TIP3     H2       HT       0.417000       1.00800           0
     41760 TIP3     6460     TIP3     OH2      OT      -0.834000       15.9994           0
     41761 TIP3     6460     TIP3     H1       HT       0.417000       1.00800           0
     41762 TIP3     6460     TIP3     H2       HT       0.417000       1.00800           0
     41763 TIP3     6461     TIP3     OH2      OT      -0.834000       15.9994           0
     41764 TIP3     6461     TIP3     H1       HT       0.417000       1.00800           0
     41765 TIP3     6461     TIP3     H2       HT       0.417000       1.00800           0
     41766 TIP3     6462     TIP3     OH2      OT      -0.834000       15.9994           0
     41767 TIP3     6462     TIP3     H1       HT       0.417000       1.00800           0
     41768 TIP3     6462     TIP3     H2       HT       0.417000       1.00800           0
     41769 TIP3     6463     TIP3     OH2      OT      -0.834000       15.9994           0
     41770 TIP3     6463     TIP3     H1       HT       0.417000       1.00800           0
     41771 TIP3     6463     TIP3     H2       HT       0.417000       1.00800           0
     41772 TIP3     6464     TIP3     OH2      OT      -0.834000       15.9994           0
     41773 TIP3     6464     TIP3     H1       HT       0.417000       1.00800           0
     41774 TIP3     6464     TIP3     H2       HT       0.417000       1.00800           0
     41775 TIP3     6465     TIP3     OH2      OT      -0.834000       15.9994           0
     41776 TIP3     6465     TIP3     H1       HT       0.417000       1.00800           0
     41777 TIP3     6465     TIP3     H2       HT       0.417000       1.00800           0
     41778 TIP3     6466     TIP3     OH2      OT      -0.834000       15.9994           0
     41779 TIP3     6466     TIP3     H1       HT       0.417000       1.00800           0
     41780 TIP3     6466     TIP3     H2       HT       0.417000       1.00800           0
     41781 TIP3     6467     TIP3     OH2      OT      -0.834000       15.9994           0
     41782 TIP3     6467     TIP3     H1       HT       0.417000       1.00800           0
     41783 TIP3     6467     TIP3     H2       HT       0.417000       1.00800           0
     41784 TIP3     6468     TIP3     OH2      OT      -0.834000       15.9994           0
     41785 TIP3     6468     TIP3     H1       HT       0.417000       1.00800           0
     41786 TIP3     6468     TIP3     H2       HT       0.417000       1.00800           0
     41787 TIP3     6469     TIP3     OH2      OT      -0.834000       15.9994           0
     41788 TIP3     6469     TIP3     H1       HT       0.417000       1.00800           0
     41789 TIP3     6469     TIP3     H2       HT       0.417000       1.00800           0
     41790 TIP3     6470     TIP3     OH2      OT      -0.834000       15.9994           0
     41791 TIP3     6470     TIP3     H1       HT       0.417000       1.00800           0
     41792 TIP3     6470     TIP3     H2       HT       0.417000       1.00800           0
     41793 TIP3     6471     TIP3     OH2      OT      -0.834000       15.9994           0
     41794 TIP3     6471     TIP3     H1       HT       0.417000       1.00800           0
     41795 TIP3     6471     TIP3     H2       HT       0.417000       1.00800           0
     41796 TIP3     6472     TIP3     OH2      OT      -0.834000       15.9994           0
     41797 TIP3     6472     TIP3     H1       HT       0.417000       1.00800           0
     41798 TIP3     6472     TIP3     H2       HT       0.417000       1.00800           0
     41799 TIP3     6473     TIP3     OH2      OT      -0.834000       15.9994           0
     41800 TIP3     6473     TIP3     H1       HT       0.417000       1.00800           0
     41801 TIP3     6473     TIP3     H2       HT       0.417000       1.00800           0
     41802 TIP3     6474     TIP3     OH2      OT      -0.834000       15.9994           0
     41803 TIP3     6474     TIP3     H1       HT       0.417000       1.00800           0
     41804 TIP3     6474     TIP3     H2       HT       0.417000       1.00800           0
     41805 TIP3     6475     TIP3     OH2      OT      -0.834000       15.9994           0
     41806 TIP3     6475     TIP3     H1       HT       0.417000       1.00800           0
     41807 TIP3     6475     TIP3     H2       HT       0.417000       1.00800           0
     41808 TIP3     6476     TIP3     OH2      OT      -0.834000       15.9994           0
     41809 TIP3     6476     TIP3     H1       HT       0.417000       1.00800           0
     41810 TIP3     6476     TIP3     H2       HT       0.417000       1.00800           0
     41811 TIP3     6477     TIP3     OH2      OT      -0.834000       15.9994           0
     41812 TIP3     6477     TIP3     H1       HT       0.417000       1.00800           0
     41813 TIP3     6477     TIP3     H2       HT       0.417000       1.00800           0
     41814 TIP3     6478     TIP3     OH2      OT      -0.834000       15.9994           0
     41815 TIP3     6478     TIP3     H1       HT       0.417000       1.00800           0
     41816 TIP3     6478     TIP3     H2       HT       0.417000       1.00800           0
     41817 TIP3     6479     TIP3     OH2      OT      -0.834000       15.9994           0
     41818 TIP3     6479     TIP3     H1       HT       0.417000       1.00800           0
     41819 TIP3     6479     TIP3     H2       HT       0.417000       1.00800           0
     41820 TIP3     6480     TIP3     OH2      OT      -0.834000       15.9994           0
     41821 TIP3     6480     TIP3     H1       HT       0.417000       1.00800           0
     41822 TIP3     6480     TIP3     H2       HT       0.417000       1.00800           0
     41823 TIP3     6481     TIP3     OH2      OT      -0.834000       15.9994           0
     41824 TIP3     6481     TIP3     H1       HT       0.417000       1.00800           0
     41825 TIP3     6481     TIP3     H2       HT       0.417000       1.00800           0
     41826 TIP3     6482     TIP3     OH2      OT      -0.834000       15.9994           0
     41827 TIP3     6482     TIP3     H1       HT       0.417000       1.00800           0
     41828 TIP3     6482     TIP3     H2       HT       0.417000       1.00800           0
     41829 TIP3     6483     TIP3     OH2      OT      -0.834000       15.9994           0
     41830 TIP3     6483     TIP3     H1       HT       0.417000       1.00800           0
     41831 TIP3     6483     TIP3     H2       HT       0.417000       1.00800           0
     41832 TIP3     6484     TIP3     OH2      OT      -0.834000       15.9994           0
     41833 TIP3     6484     TIP3     H1       HT       0.417000       1.00800           0
     41834 TIP3     6484     TIP3     H2       HT       0.417000       1.00800           0
     41835 TIP3     6485     TIP3     OH2      OT      -0.834000       15.9994           0
     41836 TIP3     6485     TIP3     H1       HT       0.417000       1.00800           0
     41837 TIP3     6485     TIP3     H2       HT       0.417000       1.00800           0
     41838 TIP3     6486     TIP3     OH2      OT      -0.834000       15.9994           0
     41839 TIP3     6486     TIP3     H1       HT       0.417000       1.00800           0
     41840 TIP3     6486     TIP3     H2       HT       0.417000       1.00800           0
     41841 TIP3     6487     TIP3     OH2      OT      -0.834000       15.9994           0
     41842 TIP3     6487     TIP3     H1       HT       0.417000       1.00800           0
     41843 TIP3     6487     TIP3     H2       HT       0.417000       1.00800           0
     41844 TIP3     6488     TIP3     OH2      OT      -0.834000       15.9994           0
     41845 TIP3     6488     TIP3     H1       HT       0.417000       1.00800           0
     41846 TIP3     6488     TIP3     H2       HT       0.417000       1.00800           0
     41847 TIP3     6489     TIP3     OH2      OT      -0.834000       15.9994           0
     41848 TIP3     6489     TIP3     H1       HT       0.417000       1.00800           0
     41849 TIP3     6489     TIP3     H2       HT       0.417000       1.00800           0
     41850 TIP3     6490     TIP3     OH2      OT      -0.834000       15.9994           0
     41851 TIP3     6490     TIP3     H1       HT       0.417000       1.00800           0
     41852 TIP3     6490     TIP3     H2       HT       0.417000       1.00800           0
     41853 TIP3     6491     TIP3     OH2      OT      -0.834000       15.9994           0
     41854 TIP3     6491     TIP3     H1       HT       0.417000       1.00800           0
     41855 TIP3     6491     TIP3     H2       HT       0.417000       1.00800           0
     41856 TIP3     6492     TIP3     OH2      OT      -0.834000       15.9994           0
     41857 TIP3     6492     TIP3     H1       HT       0.417000       1.00800           0
     41858 TIP3     6492     TIP3     H2       HT       0.417000       1.00800           0
     41859 TIP3     6493     TIP3     OH2      OT      -0.834000       15.9994           0
     41860 TIP3     6493     TIP3     H1       HT       0.417000       1.00800           0
     41861 TIP3     6493     TIP3     H2       HT       0.417000       1.00800           0
     41862 TIP3     6494     TIP3     OH2      OT      -0.834000       15.9994           0
     41863 TIP3     6494     TIP3     H1       HT       0.417000       1.00800           0
     41864 TIP3     6494     TIP3     H2       HT       0.417000       1.00800           0
     41865 TIP3     6495     TIP3     OH2      OT      -0.834000       15.9994           0
     41866 TIP3     6495     TIP3     H1       HT       0.417000       1.00800           0
     41867 TIP3     6495     TIP3     H2       HT       0.417000       1.00800           0
     41868 TIP3     6496     TIP3     OH2      OT      -0.834000       15.9994           0
     41869 TIP3     6496     TIP3     H1       HT       0.417000       1.00800           0
     41870 TIP3     6496     TIP3     H2       HT       0.417000       1.00800           0
     41871 TIP3     6497     TIP3     OH2      OT      -0.834000       15.9994           0
     41872 TIP3     6497     TIP3     H1       HT       0.417000       1.00800           0
     41873 TIP3     6497     TIP3     H2       HT       0.417000       1.00800           0
     41874 TIP3     6498     TIP3     OH2      OT      -0.834000       15.9994           0
     41875 TIP3     6498     TIP3     H1       HT       0.417000       1.00800           0
     41876 TIP3     6498     TIP3     H2       HT       0.417000       1.00800           0
     41877 TIP3     6499     TIP3     OH2      OT      -0.834000       15.9994           0
     41878 TIP3     6499     TIP3     H1       HT       0.417000       1.00800           0
     41879 TIP3     6499     TIP3     H2       HT       0.417000       1.00800           0
     41880 TIP3     6500     TIP3     OH2      OT      -0.834000       15.9994           0
     41881 TIP3     6500     TIP3     H1       HT       0.417000       1.00800           0
     41882 TIP3     6500     TIP3     H2       HT       0.417000       1.00800           0
     41883 TIP3     6501     TIP3     OH2      OT      -0.834000       15.9994           0
     41884 TIP3     6501     TIP3     H1       HT       0.417000       1.00800           0
     41885 TIP3     6501     TIP3     H2       HT       0.417000       1.00800           0
     41886 TIP3     6502     TIP3     OH2      OT      -0.834000       15.9994           0
     41887 TIP3     6502     TIP3     H1       HT       0.417000       1.00800           0
     41888 TIP3     6502     TIP3     H2       HT       0.417000       1.00800           0
     41889 TIP3     6503     TIP3     OH2      OT      -0.834000       15.9994           0
     41890 TIP3     6503     TIP3     H1       HT       0.417000       1.00800           0
     41891 TIP3     6503     TIP3     H2       HT       0.417000       1.00800           0
     41892 TIP3     6504     TIP3     OH2      OT      -0.834000       15.9994           0
     41893 TIP3     6504     TIP3     H1       HT       0.417000       1.00800           0
     41894 TIP3     6504     TIP3     H2       HT       0.417000       1.00800           0
     41895 TIP3     6505     TIP3     OH2      OT      -0.834000       15.9994           0
     41896 TIP3     6505     TIP3     H1       HT       0.417000       1.00800           0
     41897 TIP3     6505     TIP3     H2       HT       0.417000       1.00800           0
     41898 TIP3     6506     TIP3     OH2      OT      -0.834000       15.9994           0
     41899 TIP3     6506     TIP3     H1       HT       0.417000       1.00800           0
     41900 TIP3     6506     TIP3     H2       HT       0.417000       1.00800           0
     41901 TIP3     6507     TIP3     OH2      OT      -0.834000       15.9994           0
     41902 TIP3     6507     TIP3     H1       HT       0.417000       1.00800           0
     41903 TIP3     6507     TIP3     H2       HT       0.417000       1.00800           0
     41904 TIP3     6508     TIP3     OH2      OT      -0.834000       15.9994           0
     41905 TIP3     6508     TIP3     H1       HT       0.417000       1.00800           0
     41906 TIP3     6508     TIP3     H2       HT       0.417000       1.00800           0
     41907 TIP3     6509     TIP3     OH2      OT      -0.834000       15.9994           0
     41908 TIP3     6509     TIP3     H1       HT       0.417000       1.00800           0
     41909 TIP3     6509     TIP3     H2       HT       0.417000       1.00800           0
     41910 TIP3     6510     TIP3     OH2      OT      -0.834000       15.9994           0
     41911 TIP3     6510     TIP3     H1       HT       0.417000       1.00800           0
     41912 TIP3     6510     TIP3     H2       HT       0.417000       1.00800           0
     41913 TIP3     6511     TIP3     OH2      OT      -0.834000       15.9994           0
     41914 TIP3     6511     TIP3     H1       HT       0.417000       1.00800           0
     41915 TIP3     6511     TIP3     H2       HT       0.417000       1.00800           0
     41916 TIP3     6512     TIP3     OH2      OT      -0.834000       15.9994           0
     41917 TIP3     6512     TIP3     H1       HT       0.417000       1.00800           0
     41918 TIP3     6512     TIP3     H2       HT       0.417000       1.00800           0
     41919 TIP3     6513     TIP3     OH2      OT      -0.834000       15.9994           0
     41920 TIP3     6513     TIP3     H1       HT       0.417000       1.00800           0
     41921 TIP3     6513     TIP3     H2       HT       0.417000       1.00800           0
     41922 TIP3     6514     TIP3     OH2      OT      -0.834000       15.9994           0
     41923 TIP3     6514     TIP3     H1       HT       0.417000       1.00800           0
     41924 TIP3     6514     TIP3     H2       HT       0.417000       1.00800           0
     41925 TIP3     6515     TIP3     OH2      OT      -0.834000       15.9994           0
     41926 TIP3     6515     TIP3     H1       HT       0.417000       1.00800           0
     41927 TIP3     6515     TIP3     H2       HT       0.417000       1.00800           0
     41928 TIP3     6516     TIP3     OH2      OT      -0.834000       15.9994           0
     41929 TIP3     6516     TIP3     H1       HT       0.417000       1.00800           0
     41930 TIP3     6516     TIP3     H2       HT       0.417000       1.00800           0
     41931 TIP3     6517     TIP3     OH2      OT      -0.834000       15.9994           0
     41932 TIP3     6517     TIP3     H1       HT       0.417000       1.00800           0
     41933 TIP3     6517     TIP3     H2       HT       0.417000       1.00800           0
     41934 TIP3     6518     TIP3     OH2      OT      -0.834000       15.9994           0
     41935 TIP3     6518     TIP3     H1       HT       0.417000       1.00800           0
     41936 TIP3     6518     TIP3     H2       HT       0.417000       1.00800           0
     41937 TIP3     6519     TIP3     OH2      OT      -0.834000       15.9994           0
     41938 TIP3     6519     TIP3     H1       HT       0.417000       1.00800           0
     41939 TIP3     6519     TIP3     H2       HT       0.417000       1.00800           0
     41940 TIP3     6520     TIP3     OH2      OT      -0.834000       15.9994           0
     41941 TIP3     6520     TIP3     H1       HT       0.417000       1.00800           0
     41942 TIP3     6520     TIP3     H2       HT       0.417000       1.00800           0
     41943 TIP3     6521     TIP3     OH2      OT      -0.834000       15.9994           0
     41944 TIP3     6521     TIP3     H1       HT       0.417000       1.00800           0
     41945 TIP3     6521     TIP3     H2       HT       0.417000       1.00800           0
     41946 TIP3     6522     TIP3     OH2      OT      -0.834000       15.9994           0
     41947 TIP3     6522     TIP3     H1       HT       0.417000       1.00800           0
     41948 TIP3     6522     TIP3     H2       HT       0.417000       1.00800           0
     41949 TIP3     6523     TIP3     OH2      OT      -0.834000       15.9994           0
     41950 TIP3     6523     TIP3     H1       HT       0.417000       1.00800           0
     41951 TIP3     6523     TIP3     H2       HT       0.417000       1.00800           0
     41952 TIP3     6524     TIP3     OH2      OT      -0.834000       15.9994           0
     41953 TIP3     6524     TIP3     H1       HT       0.417000       1.00800           0
     41954 TIP3     6524     TIP3     H2       HT       0.417000       1.00800           0
     41955 TIP3     6525     TIP3     OH2      OT      -0.834000       15.9994           0
     41956 TIP3     6525     TIP3     H1       HT       0.417000       1.00800           0
     41957 TIP3     6525     TIP3     H2       HT       0.417000       1.00800           0
     41958 TIP3     6526     TIP3     OH2      OT      -0.834000       15.9994           0
     41959 TIP3     6526     TIP3     H1       HT       0.417000       1.00800           0
     41960 TIP3     6526     TIP3     H2       HT       0.417000       1.00800           0
     41961 TIP3     6527     TIP3     OH2      OT      -0.834000       15.9994           0
     41962 TIP3     6527     TIP3     H1       HT       0.417000       1.00800           0
     41963 TIP3     6527     TIP3     H2       HT       0.417000       1.00800           0
     41964 TIP3     6528     TIP3     OH2      OT      -0.834000       15.9994           0
     41965 TIP3     6528     TIP3     H1       HT       0.417000       1.00800           0
     41966 TIP3     6528     TIP3     H2       HT       0.417000       1.00800           0
     41967 TIP3     6529     TIP3     OH2      OT      -0.834000       15.9994           0
     41968 TIP3     6529     TIP3     H1       HT       0.417000       1.00800           0
     41969 TIP3     6529     TIP3     H2       HT       0.417000       1.00800           0
     41970 TIP3     6530     TIP3     OH2      OT      -0.834000       15.9994           0
     41971 TIP3     6530     TIP3     H1       HT       0.417000       1.00800           0
     41972 TIP3     6530     TIP3     H2       HT       0.417000       1.00800           0
     41973 TIP3     6531     TIP3     OH2      OT      -0.834000       15.9994           0
     41974 TIP3     6531     TIP3     H1       HT       0.417000       1.00800           0
     41975 TIP3     6531     TIP3     H2       HT       0.417000       1.00800           0
     41976 TIP3     6532     TIP3     OH2      OT      -0.834000       15.9994           0
     41977 TIP3     6532     TIP3     H1       HT       0.417000       1.00800           0
     41978 TIP3     6532     TIP3     H2       HT       0.417000       1.00800           0
     41979 TIP3     6533     TIP3     OH2      OT      -0.834000       15.9994           0
     41980 TIP3     6533     TIP3     H1       HT       0.417000       1.00800           0
     41981 TIP3     6533     TIP3     H2       HT       0.417000       1.00800           0
     41982 TIP3     6534     TIP3     OH2      OT      -0.834000       15.9994           0
     41983 TIP3     6534     TIP3     H1       HT       0.417000       1.00800           0
     41984 TIP3     6534     TIP3     H2       HT       0.417000       1.00800           0
     41985 TIP3     6535     TIP3     OH2      OT      -0.834000       15.9994           0
     41986 TIP3     6535     TIP3     H1       HT       0.417000       1.00800           0
     41987 TIP3     6535     TIP3     H2       HT       0.417000       1.00800           0
     41988 TIP3     6536     TIP3     OH2      OT      -0.834000       15.9994           0
     41989 TIP3     6536     TIP3     H1       HT       0.417000       1.00800           0
     41990 TIP3     6536     TIP3     H2       HT       0.417000       1.00800           0
     41991 TIP3     6537     TIP3     OH2      OT      -0.834000       15.9994           0
     41992 TIP3     6537     TIP3     H1       HT       0.417000       1.00800           0
     41993 TIP3     6537     TIP3     H2       HT       0.417000       1.00800           0
     41994 TIP3     6538     TIP3     OH2      OT      -0.834000       15.9994           0
     41995 TIP3     6538     TIP3     H1       HT       0.417000       1.00800           0
     41996 TIP3     6538     TIP3     H2       HT       0.417000       1.00800           0
     41997 TIP3     6539     TIP3     OH2      OT      -0.834000       15.9994           0
     41998 TIP3     6539     TIP3     H1       HT       0.417000       1.00800           0
     41999 TIP3     6539     TIP3     H2       HT       0.417000       1.00800           0
     42000 TIP3     6540     TIP3     OH2      OT      -0.834000       15.9994           0
     42001 TIP3     6540     TIP3     H1       HT       0.417000       1.00800           0
     42002 TIP3     6540     TIP3     H2       HT       0.417000       1.00800           0
     42003 TIP3     6541     TIP3     OH2      OT      -0.834000       15.9994           0
     42004 TIP3     6541     TIP3     H1       HT       0.417000       1.00800           0
     42005 TIP3     6541     TIP3     H2       HT       0.417000       1.00800           0
     42006 TIP3     6542     TIP3     OH2      OT      -0.834000       15.9994           0
     42007 TIP3     6542     TIP3     H1       HT       0.417000       1.00800           0
     42008 TIP3     6542     TIP3     H2       HT       0.417000       1.00800           0
     42009 TIP3     6543     TIP3     OH2      OT      -0.834000       15.9994           0
     42010 TIP3     6543     TIP3     H1       HT       0.417000       1.00800           0
     42011 TIP3     6543     TIP3     H2       HT       0.417000       1.00800           0
     42012 TIP3     6544     TIP3     OH2      OT      -0.834000       15.9994           0
     42013 TIP3     6544     TIP3     H1       HT       0.417000       1.00800           0
     42014 TIP3     6544     TIP3     H2       HT       0.417000       1.00800           0
     42015 TIP3     6545     TIP3     OH2      OT      -0.834000       15.9994           0
     42016 TIP3     6545     TIP3     H1       HT       0.417000       1.00800           0
     42017 TIP3     6545     TIP3     H2       HT       0.417000       1.00800           0
     42018 TIP3     6546     TIP3     OH2      OT      -0.834000       15.9994           0
     42019 TIP3     6546     TIP3     H1       HT       0.417000       1.00800           0
     42020 TIP3     6546     TIP3     H2       HT       0.417000       1.00800           0
     42021 TIP3     6547     TIP3     OH2      OT      -0.834000       15.9994           0
     42022 TIP3     6547     TIP3     H1       HT       0.417000       1.00800           0
     42023 TIP3     6547     TIP3     H2       HT       0.417000       1.00800           0
     42024 TIP3     6548     TIP3     OH2      OT      -0.834000       15.9994           0
     42025 TIP3     6548     TIP3     H1       HT       0.417000       1.00800           0
     42026 TIP3     6548     TIP3     H2       HT       0.417000       1.00800           0
     42027 TIP3     6549     TIP3     OH2      OT      -0.834000       15.9994           0
     42028 TIP3     6549     TIP3     H1       HT       0.417000       1.00800           0
     42029 TIP3     6549     TIP3     H2       HT       0.417000       1.00800           0
     42030 TIP3     6550     TIP3     OH2      OT      -0.834000       15.9994           0
     42031 TIP3     6550     TIP3     H1       HT       0.417000       1.00800           0
     42032 TIP3     6550     TIP3     H2       HT       0.417000       1.00800           0
     42033 TIP3     6551     TIP3     OH2      OT      -0.834000       15.9994           0
     42034 TIP3     6551     TIP3     H1       HT       0.417000       1.00800           0
     42035 TIP3     6551     TIP3     H2       HT       0.417000       1.00800           0
     42036 TIP3     6552     TIP3     OH2      OT      -0.834000       15.9994           0
     42037 TIP3     6552     TIP3     H1       HT       0.417000       1.00800           0
     42038 TIP3     6552     TIP3     H2       HT       0.417000       1.00800           0
     42039 TIP3     6553     TIP3     OH2      OT      -0.834000       15.9994           0
     42040 TIP3     6553     TIP3     H1       HT       0.417000       1.00800           0
     42041 TIP3     6553     TIP3     H2       HT       0.417000       1.00800           0
     42042 TIP3     6554     TIP3     OH2      OT      -0.834000       15.9994           0
     42043 TIP3     6554     TIP3     H1       HT       0.417000       1.00800           0
     42044 TIP3     6554     TIP3     H2       HT       0.417000       1.00800           0
     42045 TIP3     6555     TIP3     OH2      OT      -0.834000       15.9994           0
     42046 TIP3     6555     TIP3     H1       HT       0.417000       1.00800           0
     42047 TIP3     6555     TIP3     H2       HT       0.417000       1.00800           0
     42048 TIP3     6556     TIP3     OH2      OT      -0.834000       15.9994           0
     42049 TIP3     6556     TIP3     H1       HT       0.417000       1.00800           0
     42050 TIP3     6556     TIP3     H2       HT       0.417000       1.00800           0
     42051 TIP3     6557     TIP3     OH2      OT      -0.834000       15.9994           0
     42052 TIP3     6557     TIP3     H1       HT       0.417000       1.00800           0
     42053 TIP3     6557     TIP3     H2       HT       0.417000       1.00800           0
     42054 TIP3     6558     TIP3     OH2      OT      -0.834000       15.9994           0
     42055 TIP3     6558     TIP3     H1       HT       0.417000       1.00800           0
     42056 TIP3     6558     TIP3     H2       HT       0.417000       1.00800           0
     42057 TIP3     6559     TIP3     OH2      OT      -0.834000       15.9994           0
     42058 TIP3     6559     TIP3     H1       HT       0.417000       1.00800           0
     42059 TIP3     6559     TIP3     H2       HT       0.417000       1.00800           0
     42060 TIP3     6560     TIP3     OH2      OT      -0.834000       15.9994           0
     42061 TIP3     6560     TIP3     H1       HT       0.417000       1.00800           0
     42062 TIP3     6560     TIP3     H2       HT       0.417000       1.00800           0
     42063 TIP3     6561     TIP3     OH2      OT      -0.834000       15.9994           0
     42064 TIP3     6561     TIP3     H1       HT       0.417000       1.00800           0
     42065 TIP3     6561     TIP3     H2       HT       0.417000       1.00800           0
     42066 TIP3     6562     TIP3     OH2      OT      -0.834000       15.9994           0
     42067 TIP3     6562     TIP3     H1       HT       0.417000       1.00800           0
     42068 TIP3     6562     TIP3     H2       HT       0.417000       1.00800           0
     42069 TIP3     6563     TIP3     OH2      OT      -0.834000       15.9994           0
     42070 TIP3     6563     TIP3     H1       HT       0.417000       1.00800           0
     42071 TIP3     6563     TIP3     H2       HT       0.417000       1.00800           0
     42072 TIP3     6564     TIP3     OH2      OT      -0.834000       15.9994           0
     42073 TIP3     6564     TIP3     H1       HT       0.417000       1.00800           0
     42074 TIP3     6564     TIP3     H2       HT       0.417000       1.00800           0
     42075 TIP3     6565     TIP3     OH2      OT      -0.834000       15.9994           0
     42076 TIP3     6565     TIP3     H1       HT       0.417000       1.00800           0
     42077 TIP3     6565     TIP3     H2       HT       0.417000       1.00800           0
     42078 TIP3     6566     TIP3     OH2      OT      -0.834000       15.9994           0
     42079 TIP3     6566     TIP3     H1       HT       0.417000       1.00800           0
     42080 TIP3     6566     TIP3     H2       HT       0.417000       1.00800           0
     42081 TIP3     6567     TIP3     OH2      OT      -0.834000       15.9994           0
     42082 TIP3     6567     TIP3     H1       HT       0.417000       1.00800           0
     42083 TIP3     6567     TIP3     H2       HT       0.417000       1.00800           0
     42084 TIP3     6568     TIP3     OH2      OT      -0.834000       15.9994           0
     42085 TIP3     6568     TIP3     H1       HT       0.417000       1.00800           0
     42086 TIP3     6568     TIP3     H2       HT       0.417000       1.00800           0
     42087 TIP3     6569     TIP3     OH2      OT      -0.834000       15.9994           0
     42088 TIP3     6569     TIP3     H1       HT       0.417000       1.00800           0
     42089 TIP3     6569     TIP3     H2       HT       0.417000       1.00800           0
     42090 TIP3     6570     TIP3     OH2      OT      -0.834000       15.9994           0
     42091 TIP3     6570     TIP3     H1       HT       0.417000       1.00800           0
     42092 TIP3     6570     TIP3     H2       HT       0.417000       1.00800           0
     42093 TIP3     6571     TIP3     OH2      OT      -0.834000       15.9994           0
     42094 TIP3     6571     TIP3     H1       HT       0.417000       1.00800           0
     42095 TIP3     6571     TIP3     H2       HT       0.417000       1.00800           0
     42096 TIP3     6572     TIP3     OH2      OT      -0.834000       15.9994           0
     42097 TIP3     6572     TIP3     H1       HT       0.417000       1.00800           0
     42098 TIP3     6572     TIP3     H2       HT       0.417000       1.00800           0
     42099 TIP3     6573     TIP3     OH2      OT      -0.834000       15.9994           0
     42100 TIP3     6573     TIP3     H1       HT       0.417000       1.00800           0
     42101 TIP3     6573     TIP3     H2       HT       0.417000       1.00800           0
     42102 TIP3     6574     TIP3     OH2      OT      -0.834000       15.9994           0
     42103 TIP3     6574     TIP3     H1       HT       0.417000       1.00800           0
     42104 TIP3     6574     TIP3     H2       HT       0.417000       1.00800           0
     42105 TIP3     6575     TIP3     OH2      OT      -0.834000       15.9994           0
     42106 TIP3     6575     TIP3     H1       HT       0.417000       1.00800           0
     42107 TIP3     6575     TIP3     H2       HT       0.417000       1.00800           0
     42108 TIP3     6576     TIP3     OH2      OT      -0.834000       15.9994           0
     42109 TIP3     6576     TIP3     H1       HT       0.417000       1.00800           0
     42110 TIP3     6576     TIP3     H2       HT       0.417000       1.00800           0
     42111 TIP3     6577     TIP3     OH2      OT      -0.834000       15.9994           0
     42112 TIP3     6577     TIP3     H1       HT       0.417000       1.00800           0
     42113 TIP3     6577     TIP3     H2       HT       0.417000       1.00800           0
     42114 TIP3     6578     TIP3     OH2      OT      -0.834000       15.9994           0
     42115 TIP3     6578     TIP3     H1       HT       0.417000       1.00800           0
     42116 TIP3     6578     TIP3     H2       HT       0.417000       1.00800           0
     42117 TIP3     6579     TIP3     OH2      OT      -0.834000       15.9994           0
     42118 TIP3     6579     TIP3     H1       HT       0.417000       1.00800           0
     42119 TIP3     6579     TIP3     H2       HT       0.417000       1.00800           0
     42120 TIP3     6580     TIP3     OH2      OT      -0.834000       15.9994           0
     42121 TIP3     6580     TIP3     H1       HT       0.417000       1.00800           0
     42122 TIP3     6580     TIP3     H2       HT       0.417000       1.00800           0
     42123 TIP3     6581     TIP3     OH2      OT      -0.834000       15.9994           0
     42124 TIP3     6581     TIP3     H1       HT       0.417000       1.00800           0
     42125 TIP3     6581     TIP3     H2       HT       0.417000       1.00800           0
     42126 TIP3     6582     TIP3     OH2      OT      -0.834000       15.9994           0
     42127 TIP3     6582     TIP3     H1       HT       0.417000       1.00800           0
     42128 TIP3     6582     TIP3     H2       HT       0.417000       1.00800           0
     42129 TIP3     6583     TIP3     OH2      OT      -0.834000       15.9994           0
     42130 TIP3     6583     TIP3     H1       HT       0.417000       1.00800           0
     42131 TIP3     6583     TIP3     H2       HT       0.417000       1.00800           0
     42132 TIP3     6584     TIP3     OH2      OT      -0.834000       15.9994           0
     42133 TIP3     6584     TIP3     H1       HT       0.417000       1.00800           0
     42134 TIP3     6584     TIP3     H2       HT       0.417000       1.00800           0
     42135 TIP3     6585     TIP3     OH2      OT      -0.834000       15.9994           0
     42136 TIP3     6585     TIP3     H1       HT       0.417000       1.00800           0
     42137 TIP3     6585     TIP3     H2       HT       0.417000       1.00800           0
     42138 TIP3     6586     TIP3     OH2      OT      -0.834000       15.9994           0
     42139 TIP3     6586     TIP3     H1       HT       0.417000       1.00800           0
     42140 TIP3     6586     TIP3     H2       HT       0.417000       1.00800           0
     42141 TIP3     6587     TIP3     OH2      OT      -0.834000       15.9994           0
     42142 TIP3     6587     TIP3     H1       HT       0.417000       1.00800           0
     42143 TIP3     6587     TIP3     H2       HT       0.417000       1.00800           0
     42144 TIP3     6588     TIP3     OH2      OT      -0.834000       15.9994           0
     42145 TIP3     6588     TIP3     H1       HT       0.417000       1.00800           0
     42146 TIP3     6588     TIP3     H2       HT       0.417000       1.00800           0
     42147 TIP3     6589     TIP3     OH2      OT      -0.834000       15.9994           0
     42148 TIP3     6589     TIP3     H1       HT       0.417000       1.00800           0
     42149 TIP3     6589     TIP3     H2       HT       0.417000       1.00800           0
     42150 TIP3     6590     TIP3     OH2      OT      -0.834000       15.9994           0
     42151 TIP3     6590     TIP3     H1       HT       0.417000       1.00800           0
     42152 TIP3     6590     TIP3     H2       HT       0.417000       1.00800           0
     42153 TIP3     6591     TIP3     OH2      OT      -0.834000       15.9994           0
     42154 TIP3     6591     TIP3     H1       HT       0.417000       1.00800           0
     42155 TIP3     6591     TIP3     H2       HT       0.417000       1.00800           0
     42156 TIP3     6592     TIP3     OH2      OT      -0.834000       15.9994           0
     42157 TIP3     6592     TIP3     H1       HT       0.417000       1.00800           0
     42158 TIP3     6592     TIP3     H2       HT       0.417000       1.00800           0
     42159 TIP3     6593     TIP3     OH2      OT      -0.834000       15.9994           0
     42160 TIP3     6593     TIP3     H1       HT       0.417000       1.00800           0
     42161 TIP3     6593     TIP3     H2       HT       0.417000       1.00800           0
     42162 TIP3     6594     TIP3     OH2      OT      -0.834000       15.9994           0
     42163 TIP3     6594     TIP3     H1       HT       0.417000       1.00800           0
     42164 TIP3     6594     TIP3     H2       HT       0.417000       1.00800           0
     42165 TIP3     6595     TIP3     OH2      OT      -0.834000       15.9994           0
     42166 TIP3     6595     TIP3     H1       HT       0.417000       1.00800           0
     42167 TIP3     6595     TIP3     H2       HT       0.417000       1.00800           0
     42168 TIP3     6596     TIP3     OH2      OT      -0.834000       15.9994           0
     42169 TIP3     6596     TIP3     H1       HT       0.417000       1.00800           0
     42170 TIP3     6596     TIP3     H2       HT       0.417000       1.00800           0
     42171 TIP3     6597     TIP3     OH2      OT      -0.834000       15.9994           0
     42172 TIP3     6597     TIP3     H1       HT       0.417000       1.00800           0
     42173 TIP3     6597     TIP3     H2       HT       0.417000       1.00800           0
     42174 TIP3     6598     TIP3     OH2      OT      -0.834000       15.9994           0
     42175 TIP3     6598     TIP3     H1       HT       0.417000       1.00800           0
     42176 TIP3     6598     TIP3     H2       HT       0.417000       1.00800           0
     42177 TIP3     6599     TIP3     OH2      OT      -0.834000       15.9994           0
     42178 TIP3     6599     TIP3     H1       HT       0.417000       1.00800           0
     42179 TIP3     6599     TIP3     H2       HT       0.417000       1.00800           0
     42180 TIP3     6600     TIP3     OH2      OT      -0.834000       15.9994           0
     42181 TIP3     6600     TIP3     H1       HT       0.417000       1.00800           0
     42182 TIP3     6600     TIP3     H2       HT       0.417000       1.00800           0
     42183 TIP3     6601     TIP3     OH2      OT      -0.834000       15.9994           0
     42184 TIP3     6601     TIP3     H1       HT       0.417000       1.00800           0
     42185 TIP3     6601     TIP3     H2       HT       0.417000       1.00800           0
     42186 TIP3     6602     TIP3     OH2      OT      -0.834000       15.9994           0
     42187 TIP3     6602     TIP3     H1       HT       0.417000       1.00800           0
     42188 TIP3     6602     TIP3     H2       HT       0.417000       1.00800           0
     42189 TIP3     6603     TIP3     OH2      OT      -0.834000       15.9994           0
     42190 TIP3     6603     TIP3     H1       HT       0.417000       1.00800           0
     42191 TIP3     6603     TIP3     H2       HT       0.417000       1.00800           0
     42192 TIP3     6604     TIP3     OH2      OT      -0.834000       15.9994           0
     42193 TIP3     6604     TIP3     H1       HT       0.417000       1.00800           0
     42194 TIP3     6604     TIP3     H2       HT       0.417000       1.00800           0
     42195 TIP3     6605     TIP3     OH2      OT      -0.834000       15.9994           0
     42196 TIP3     6605     TIP3     H1       HT       0.417000       1.00800           0
     42197 TIP3     6605     TIP3     H2       HT       0.417000       1.00800           0
     42198 TIP3     6606     TIP3     OH2      OT      -0.834000       15.9994           0
     42199 TIP3     6606     TIP3     H1       HT       0.417000       1.00800           0
     42200 TIP3     6606     TIP3     H2       HT       0.417000       1.00800           0
     42201 TIP3     6607     TIP3     OH2      OT      -0.834000       15.9994           0
     42202 TIP3     6607     TIP3     H1       HT       0.417000       1.00800           0
     42203 TIP3     6607     TIP3     H2       HT       0.417000       1.00800           0
     42204 TIP3     6608     TIP3     OH2      OT      -0.834000       15.9994           0
     42205 TIP3     6608     TIP3     H1       HT       0.417000       1.00800           0
     42206 TIP3     6608     TIP3     H2       HT       0.417000       1.00800           0
     42207 TIP3     6609     TIP3     OH2      OT      -0.834000       15.9994           0
     42208 TIP3     6609     TIP3     H1       HT       0.417000       1.00800           0
     42209 TIP3     6609     TIP3     H2       HT       0.417000       1.00800           0
     42210 TIP3     6610     TIP3     OH2      OT      -0.834000       15.9994           0
     42211 TIP3     6610     TIP3     H1       HT       0.417000       1.00800           0
     42212 TIP3     6610     TIP3     H2       HT       0.417000       1.00800           0
     42213 TIP3     6611     TIP3     OH2      OT      -0.834000       15.9994           0
     42214 TIP3     6611     TIP3     H1       HT       0.417000       1.00800           0
     42215 TIP3     6611     TIP3     H2       HT       0.417000       1.00800           0
     42216 TIP3     6612     TIP3     OH2      OT      -0.834000       15.9994           0
     42217 TIP3     6612     TIP3     H1       HT       0.417000       1.00800           0
     42218 TIP3     6612     TIP3     H2       HT       0.417000       1.00800           0
     42219 TIP3     6613     TIP3     OH2      OT      -0.834000       15.9994           0
     42220 TIP3     6613     TIP3     H1       HT       0.417000       1.00800           0
     42221 TIP3     6613     TIP3     H2       HT       0.417000       1.00800           0
     42222 TIP3     6614     TIP3     OH2      OT      -0.834000       15.9994           0
     42223 TIP3     6614     TIP3     H1       HT       0.417000       1.00800           0
     42224 TIP3     6614     TIP3     H2       HT       0.417000       1.00800           0
     42225 TIP3     6615     TIP3     OH2      OT      -0.834000       15.9994           0
     42226 TIP3     6615     TIP3     H1       HT       0.417000       1.00800           0
     42227 TIP3     6615     TIP3     H2       HT       0.417000       1.00800           0
     42228 TIP3     6616     TIP3     OH2      OT      -0.834000       15.9994           0
     42229 TIP3     6616     TIP3     H1       HT       0.417000       1.00800           0
     42230 TIP3     6616     TIP3     H2       HT       0.417000       1.00800           0
     42231 TIP3     6617     TIP3     OH2      OT      -0.834000       15.9994           0
     42232 TIP3     6617     TIP3     H1       HT       0.417000       1.00800           0
     42233 TIP3     6617     TIP3     H2       HT       0.417000       1.00800           0
     42234 TIP3     6618     TIP3     OH2      OT      -0.834000       15.9994           0
     42235 TIP3     6618     TIP3     H1       HT       0.417000       1.00800           0
     42236 TIP3     6618     TIP3     H2       HT       0.417000       1.00800           0
     42237 TIP3     6619     TIP3     OH2      OT      -0.834000       15.9994           0
     42238 TIP3     6619     TIP3     H1       HT       0.417000       1.00800           0
     42239 TIP3     6619     TIP3     H2       HT       0.417000       1.00800           0
     42240 TIP3     6620     TIP3     OH2      OT      -0.834000       15.9994           0
     42241 TIP3     6620     TIP3     H1       HT       0.417000       1.00800           0
     42242 TIP3     6620     TIP3     H2       HT       0.417000       1.00800           0
     42243 TIP3     6621     TIP3     OH2      OT      -0.834000       15.9994           0
     42244 TIP3     6621     TIP3     H1       HT       0.417000       1.00800           0
     42245 TIP3     6621     TIP3     H2       HT       0.417000       1.00800           0
     42246 TIP3     6622     TIP3     OH2      OT      -0.834000       15.9994           0
     42247 TIP3     6622     TIP3     H1       HT       0.417000       1.00800           0
     42248 TIP3     6622     TIP3     H2       HT       0.417000       1.00800           0
     42249 TIP3     6623     TIP3     OH2      OT      -0.834000       15.9994           0
     42250 TIP3     6623     TIP3     H1       HT       0.417000       1.00800           0
     42251 TIP3     6623     TIP3     H2       HT       0.417000       1.00800           0
     42252 TIP3     6624     TIP3     OH2      OT      -0.834000       15.9994           0
     42253 TIP3     6624     TIP3     H1       HT       0.417000       1.00800           0
     42254 TIP3     6624     TIP3     H2       HT       0.417000       1.00800           0
     42255 TIP3     6625     TIP3     OH2      OT      -0.834000       15.9994           0
     42256 TIP3     6625     TIP3     H1       HT       0.417000       1.00800           0
     42257 TIP3     6625     TIP3     H2       HT       0.417000       1.00800           0
     42258 TIP3     6626     TIP3     OH2      OT      -0.834000       15.9994           0
     42259 TIP3     6626     TIP3     H1       HT       0.417000       1.00800           0
     42260 TIP3     6626     TIP3     H2       HT       0.417000       1.00800           0
     42261 TIP3     6627     TIP3     OH2      OT      -0.834000       15.9994           0
     42262 TIP3     6627     TIP3     H1       HT       0.417000       1.00800           0
     42263 TIP3     6627     TIP3     H2       HT       0.417000       1.00800           0
     42264 TIP3     6628     TIP3     OH2      OT      -0.834000       15.9994           0
     42265 TIP3     6628     TIP3     H1       HT       0.417000       1.00800           0
     42266 TIP3     6628     TIP3     H2       HT       0.417000       1.00800           0
     42267 TIP3     6629     TIP3     OH2      OT      -0.834000       15.9994           0
     42268 TIP3     6629     TIP3     H1       HT       0.417000       1.00800           0
     42269 TIP3     6629     TIP3     H2       HT       0.417000       1.00800           0
     42270 TIP3     6630     TIP3     OH2      OT      -0.834000       15.9994           0
     42271 TIP3     6630     TIP3     H1       HT       0.417000       1.00800           0
     42272 TIP3     6630     TIP3     H2       HT       0.417000       1.00800           0
     42273 TIP3     6631     TIP3     OH2      OT      -0.834000       15.9994           0
     42274 TIP3     6631     TIP3     H1       HT       0.417000       1.00800           0
     42275 TIP3     6631     TIP3     H2       HT       0.417000       1.00800           0
     42276 TIP3     6632     TIP3     OH2      OT      -0.834000       15.9994           0
     42277 TIP3     6632     TIP3     H1       HT       0.417000       1.00800           0
     42278 TIP3     6632     TIP3     H2       HT       0.417000       1.00800           0
     42279 TIP3     6633     TIP3     OH2      OT      -0.834000       15.9994           0
     42280 TIP3     6633     TIP3     H1       HT       0.417000       1.00800           0
     42281 TIP3     6633     TIP3     H2       HT       0.417000       1.00800           0
     42282 TIP3     6634     TIP3     OH2      OT      -0.834000       15.9994           0
     42283 TIP3     6634     TIP3     H1       HT       0.417000       1.00800           0
     42284 TIP3     6634     TIP3     H2       HT       0.417000       1.00800           0
     42285 TIP3     6635     TIP3     OH2      OT      -0.834000       15.9994           0
     42286 TIP3     6635     TIP3     H1       HT       0.417000       1.00800           0
     42287 TIP3     6635     TIP3     H2       HT       0.417000       1.00800           0
     42288 TIP3     6636     TIP3     OH2      OT      -0.834000       15.9994           0
     42289 TIP3     6636     TIP3     H1       HT       0.417000       1.00800           0
     42290 TIP3     6636     TIP3     H2       HT       0.417000       1.00800           0
     42291 TIP3     6637     TIP3     OH2      OT      -0.834000       15.9994           0
     42292 TIP3     6637     TIP3     H1       HT       0.417000       1.00800           0
     42293 TIP3     6637     TIP3     H2       HT       0.417000       1.00800           0
     42294 TIP3     6638     TIP3     OH2      OT      -0.834000       15.9994           0
     42295 TIP3     6638     TIP3     H1       HT       0.417000       1.00800           0
     42296 TIP3     6638     TIP3     H2       HT       0.417000       1.00800           0
     42297 TIP3     6639     TIP3     OH2      OT      -0.834000       15.9994           0
     42298 TIP3     6639     TIP3     H1       HT       0.417000       1.00800           0
     42299 TIP3     6639     TIP3     H2       HT       0.417000       1.00800           0
     42300 TIP3     6640     TIP3     OH2      OT      -0.834000       15.9994           0
     42301 TIP3     6640     TIP3     H1       HT       0.417000       1.00800           0
     42302 TIP3     6640     TIP3     H2       HT       0.417000       1.00800           0
     42303 TIP3     6641     TIP3     OH2      OT      -0.834000       15.9994           0
     42304 TIP3     6641     TIP3     H1       HT       0.417000       1.00800           0
     42305 TIP3     6641     TIP3     H2       HT       0.417000       1.00800           0
     42306 TIP3     6642     TIP3     OH2      OT      -0.834000       15.9994           0
     42307 TIP3     6642     TIP3     H1       HT       0.417000       1.00800           0
     42308 TIP3     6642     TIP3     H2       HT       0.417000       1.00800           0
     42309 TIP3     6643     TIP3     OH2      OT      -0.834000       15.9994           0
     42310 TIP3     6643     TIP3     H1       HT       0.417000       1.00800           0
     42311 TIP3     6643     TIP3     H2       HT       0.417000       1.00800           0
     42312 TIP3     6644     TIP3     OH2      OT      -0.834000       15.9994           0
     42313 TIP3     6644     TIP3     H1       HT       0.417000       1.00800           0
     42314 TIP3     6644     TIP3     H2       HT       0.417000       1.00800           0
     42315 TIP3     6645     TIP3     OH2      OT      -0.834000       15.9994           0
     42316 TIP3     6645     TIP3     H1       HT       0.417000       1.00800           0
     42317 TIP3     6645     TIP3     H2       HT       0.417000       1.00800           0
     42318 TIP3     6646     TIP3     OH2      OT      -0.834000       15.9994           0
     42319 TIP3     6646     TIP3     H1       HT       0.417000       1.00800           0
     42320 TIP3     6646     TIP3     H2       HT       0.417000       1.00800           0
     42321 TIP3     6647     TIP3     OH2      OT      -0.834000       15.9994           0
     42322 TIP3     6647     TIP3     H1       HT       0.417000       1.00800           0
     42323 TIP3     6647     TIP3     H2       HT       0.417000       1.00800           0
     42324 TIP3     6648     TIP3     OH2      OT      -0.834000       15.9994           0
     42325 TIP3     6648     TIP3     H1       HT       0.417000       1.00800           0
     42326 TIP3     6648     TIP3     H2       HT       0.417000       1.00800           0
     42327 TIP3     6649     TIP3     OH2      OT      -0.834000       15.9994           0
     42328 TIP3     6649     TIP3     H1       HT       0.417000       1.00800           0
     42329 TIP3     6649     TIP3     H2       HT       0.417000       1.00800           0
     42330 TIP3     6650     TIP3     OH2      OT      -0.834000       15.9994           0
     42331 TIP3     6650     TIP3     H1       HT       0.417000       1.00800           0
     42332 TIP3     6650     TIP3     H2       HT       0.417000       1.00800           0
     42333 TIP3     6651     TIP3     OH2      OT      -0.834000       15.9994           0
     42334 TIP3     6651     TIP3     H1       HT       0.417000       1.00800           0
     42335 TIP3     6651     TIP3     H2       HT       0.417000       1.00800           0
     42336 TIP3     6652     TIP3     OH2      OT      -0.834000       15.9994           0
     42337 TIP3     6652     TIP3     H1       HT       0.417000       1.00800           0
     42338 TIP3     6652     TIP3     H2       HT       0.417000       1.00800           0
     42339 TIP3     6653     TIP3     OH2      OT      -0.834000       15.9994           0
     42340 TIP3     6653     TIP3     H1       HT       0.417000       1.00800           0
     42341 TIP3     6653     TIP3     H2       HT       0.417000       1.00800           0
     42342 TIP3     6654     TIP3     OH2      OT      -0.834000       15.9994           0
     42343 TIP3     6654     TIP3     H1       HT       0.417000       1.00800           0
     42344 TIP3     6654     TIP3     H2       HT       0.417000       1.00800           0
     42345 TIP3     6655     TIP3     OH2      OT      -0.834000       15.9994           0
     42346 TIP3     6655     TIP3     H1       HT       0.417000       1.00800           0
     42347 TIP3     6655     TIP3     H2       HT       0.417000       1.00800           0
     42348 TIP3     6656     TIP3     OH2      OT      -0.834000       15.9994           0
     42349 TIP3     6656     TIP3     H1       HT       0.417000       1.00800           0
     42350 TIP3     6656     TIP3     H2       HT       0.417000       1.00800           0
     42351 TIP3     6657     TIP3     OH2      OT      -0.834000       15.9994           0
     42352 TIP3     6657     TIP3     H1       HT       0.417000       1.00800           0
     42353 TIP3     6657     TIP3     H2       HT       0.417000       1.00800           0
     42354 TIP3     6658     TIP3     OH2      OT      -0.834000       15.9994           0
     42355 TIP3     6658     TIP3     H1       HT       0.417000       1.00800           0
     42356 TIP3     6658     TIP3     H2       HT       0.417000       1.00800           0
     42357 TIP3     6659     TIP3     OH2      OT      -0.834000       15.9994           0
     42358 TIP3     6659     TIP3     H1       HT       0.417000       1.00800           0
     42359 TIP3     6659     TIP3     H2       HT       0.417000       1.00800           0
     42360 TIP3     6660     TIP3     OH2      OT      -0.834000       15.9994           0
     42361 TIP3     6660     TIP3     H1       HT       0.417000       1.00800           0
     42362 TIP3     6660     TIP3     H2       HT       0.417000       1.00800           0
     42363 TIP3     6661     TIP3     OH2      OT      -0.834000       15.9994           0
     42364 TIP3     6661     TIP3     H1       HT       0.417000       1.00800           0
     42365 TIP3     6661     TIP3     H2       HT       0.417000       1.00800           0
     42366 TIP3     6662     TIP3     OH2      OT      -0.834000       15.9994           0
     42367 TIP3     6662     TIP3     H1       HT       0.417000       1.00800           0
     42368 TIP3     6662     TIP3     H2       HT       0.417000       1.00800           0
     42369 TIP3     6663     TIP3     OH2      OT      -0.834000       15.9994           0
     42370 TIP3     6663     TIP3     H1       HT       0.417000       1.00800           0
     42371 TIP3     6663     TIP3     H2       HT       0.417000       1.00800           0
     42372 TIP3     6664     TIP3     OH2      OT      -0.834000       15.9994           0
     42373 TIP3     6664     TIP3     H1       HT       0.417000       1.00800           0
     42374 TIP3     6664     TIP3     H2       HT       0.417000       1.00800           0
     42375 TIP3     6665     TIP3     OH2      OT      -0.834000       15.9994           0
     42376 TIP3     6665     TIP3     H1       HT       0.417000       1.00800           0
     42377 TIP3     6665     TIP3     H2       HT       0.417000       1.00800           0
     42378 TIP3     6666     TIP3     OH2      OT      -0.834000       15.9994           0
     42379 TIP3     6666     TIP3     H1       HT       0.417000       1.00800           0
     42380 TIP3     6666     TIP3     H2       HT       0.417000       1.00800           0
     42381 TIP3     6667     TIP3     OH2      OT      -0.834000       15.9994           0
     42382 TIP3     6667     TIP3     H1       HT       0.417000       1.00800           0
     42383 TIP3     6667     TIP3     H2       HT       0.417000       1.00800           0
     42384 TIP3     6668     TIP3     OH2      OT      -0.834000       15.9994           0
     42385 TIP3     6668     TIP3     H1       HT       0.417000       1.00800           0
     42386 TIP3     6668     TIP3     H2       HT       0.417000       1.00800           0
     42387 TIP3     6669     TIP3     OH2      OT      -0.834000       15.9994           0
     42388 TIP3     6669     TIP3     H1       HT       0.417000       1.00800           0
     42389 TIP3     6669     TIP3     H2       HT       0.417000       1.00800           0
     42390 TIP3     6670     TIP3     OH2      OT      -0.834000       15.9994           0
     42391 TIP3     6670     TIP3     H1       HT       0.417000       1.00800           0
     42392 TIP3     6670     TIP3     H2       HT       0.417000       1.00800           0
     42393 TIP3     6671     TIP3     OH2      OT      -0.834000       15.9994           0
     42394 TIP3     6671     TIP3     H1       HT       0.417000       1.00800           0
     42395 TIP3     6671     TIP3     H2       HT       0.417000       1.00800           0
     42396 TIP3     6672     TIP3     OH2      OT      -0.834000       15.9994           0
     42397 TIP3     6672     TIP3     H1       HT       0.417000       1.00800           0
     42398 TIP3     6672     TIP3     H2       HT       0.417000       1.00800           0
     42399 TIP3     6673     TIP3     OH2      OT      -0.834000       15.9994           0
     42400 TIP3     6673     TIP3     H1       HT       0.417000       1.00800           0
     42401 TIP3     6673     TIP3     H2       HT       0.417000       1.00800           0
     42402 TIP3     6674     TIP3     OH2      OT      -0.834000       15.9994           0
     42403 TIP3     6674     TIP3     H1       HT       0.417000       1.00800           0
     42404 TIP3     6674     TIP3     H2       HT       0.417000       1.00800           0
     42405 TIP3     6675     TIP3     OH2      OT      -0.834000       15.9994           0
     42406 TIP3     6675     TIP3     H1       HT       0.417000       1.00800           0
     42407 TIP3     6675     TIP3     H2       HT       0.417000       1.00800           0
     42408 TIP3     6676     TIP3     OH2      OT      -0.834000       15.9994           0
     42409 TIP3     6676     TIP3     H1       HT       0.417000       1.00800           0
     42410 TIP3     6676     TIP3     H2       HT       0.417000       1.00800           0
     42411 TIP3     6677     TIP3     OH2      OT      -0.834000       15.9994           0
     42412 TIP3     6677     TIP3     H1       HT       0.417000       1.00800           0
     42413 TIP3     6677     TIP3     H2       HT       0.417000       1.00800           0
     42414 TIP3     6678     TIP3     OH2      OT      -0.834000       15.9994           0
     42415 TIP3     6678     TIP3     H1       HT       0.417000       1.00800           0
     42416 TIP3     6678     TIP3     H2       HT       0.417000       1.00800           0
     42417 TIP3     6679     TIP3     OH2      OT      -0.834000       15.9994           0
     42418 TIP3     6679     TIP3     H1       HT       0.417000       1.00800           0
     42419 TIP3     6679     TIP3     H2       HT       0.417000       1.00800           0
     42420 TIP3     6680     TIP3     OH2      OT      -0.834000       15.9994           0
     42421 TIP3     6680     TIP3     H1       HT       0.417000       1.00800           0
     42422 TIP3     6680     TIP3     H2       HT       0.417000       1.00800           0
     42423 TIP3     6681     TIP3     OH2      OT      -0.834000       15.9994           0
     42424 TIP3     6681     TIP3     H1       HT       0.417000       1.00800           0
     42425 TIP3     6681     TIP3     H2       HT       0.417000       1.00800           0
     42426 TIP3     6682     TIP3     OH2      OT      -0.834000       15.9994           0
     42427 TIP3     6682     TIP3     H1       HT       0.417000       1.00800           0
     42428 TIP3     6682     TIP3     H2       HT       0.417000       1.00800           0
     42429 TIP3     6683     TIP3     OH2      OT      -0.834000       15.9994           0
     42430 TIP3     6683     TIP3     H1       HT       0.417000       1.00800           0
     42431 TIP3     6683     TIP3     H2       HT       0.417000       1.00800           0
     42432 TIP3     6684     TIP3     OH2      OT      -0.834000       15.9994           0
     42433 TIP3     6684     TIP3     H1       HT       0.417000       1.00800           0
     42434 TIP3     6684     TIP3     H2       HT       0.417000       1.00800           0
     42435 TIP3     6685     TIP3     OH2      OT      -0.834000       15.9994           0
     42436 TIP3     6685     TIP3     H1       HT       0.417000       1.00800           0
     42437 TIP3     6685     TIP3     H2       HT       0.417000       1.00800           0
     42438 TIP3     6686     TIP3     OH2      OT      -0.834000       15.9994           0
     42439 TIP3     6686     TIP3     H1       HT       0.417000       1.00800           0
     42440 TIP3     6686     TIP3     H2       HT       0.417000       1.00800           0
     42441 TIP3     6687     TIP3     OH2      OT      -0.834000       15.9994           0
     42442 TIP3     6687     TIP3     H1       HT       0.417000       1.00800           0
     42443 TIP3     6687     TIP3     H2       HT       0.417000       1.00800           0
     42444 TIP3     6688     TIP3     OH2      OT      -0.834000       15.9994           0
     42445 TIP3     6688     TIP3     H1       HT       0.417000       1.00800           0
     42446 TIP3     6688     TIP3     H2       HT       0.417000       1.00800           0
     42447 TIP3     6689     TIP3     OH2      OT      -0.834000       15.9994           0
     42448 TIP3     6689     TIP3     H1       HT       0.417000       1.00800           0
     42449 TIP3     6689     TIP3     H2       HT       0.417000       1.00800           0
     42450 TIP3     6690     TIP3     OH2      OT      -0.834000       15.9994           0
     42451 TIP3     6690     TIP3     H1       HT       0.417000       1.00800           0
     42452 TIP3     6690     TIP3     H2       HT       0.417000       1.00800           0
     42453 TIP3     6691     TIP3     OH2      OT      -0.834000       15.9994           0
     42454 TIP3     6691     TIP3     H1       HT       0.417000       1.00800           0
     42455 TIP3     6691     TIP3     H2       HT       0.417000       1.00800           0
     42456 TIP3     6692     TIP3     OH2      OT      -0.834000       15.9994           0
     42457 TIP3     6692     TIP3     H1       HT       0.417000       1.00800           0
     42458 TIP3     6692     TIP3     H2       HT       0.417000       1.00800           0
     42459 TIP3     6693     TIP3     OH2      OT      -0.834000       15.9994           0
     42460 TIP3     6693     TIP3     H1       HT       0.417000       1.00800           0
     42461 TIP3     6693     TIP3     H2       HT       0.417000       1.00800           0
     42462 TIP3     6694     TIP3     OH2      OT      -0.834000       15.9994           0
     42463 TIP3     6694     TIP3     H1       HT       0.417000       1.00800           0
     42464 TIP3     6694     TIP3     H2       HT       0.417000       1.00800           0
     42465 TIP3     6695     TIP3     OH2      OT      -0.834000       15.9994           0
     42466 TIP3     6695     TIP3     H1       HT       0.417000       1.00800           0
     42467 TIP3     6695     TIP3     H2       HT       0.417000       1.00800           0
     42468 TIP3     6696     TIP3     OH2      OT      -0.834000       15.9994           0
     42469 TIP3     6696     TIP3     H1       HT       0.417000       1.00800           0
     42470 TIP3     6696     TIP3     H2       HT       0.417000       1.00800           0
     42471 TIP3     6697     TIP3     OH2      OT      -0.834000       15.9994           0
     42472 TIP3     6697     TIP3     H1       HT       0.417000       1.00800           0
     42473 TIP3     6697     TIP3     H2       HT       0.417000       1.00800           0
     42474 TIP3     6698     TIP3     OH2      OT      -0.834000       15.9994           0
     42475 TIP3     6698     TIP3     H1       HT       0.417000       1.00800           0
     42476 TIP3     6698     TIP3     H2       HT       0.417000       1.00800           0
     42477 TIP3     6699     TIP3     OH2      OT      -0.834000       15.9994           0
     42478 TIP3     6699     TIP3     H1       HT       0.417000       1.00800           0
     42479 TIP3     6699     TIP3     H2       HT       0.417000       1.00800           0
     42480 TIP3     6700     TIP3     OH2      OT      -0.834000       15.9994           0
     42481 TIP3     6700     TIP3     H1       HT       0.417000       1.00800           0
     42482 TIP3     6700     TIP3     H2       HT       0.417000       1.00800           0
     42483 TIP3     6701     TIP3     OH2      OT      -0.834000       15.9994           0
     42484 TIP3     6701     TIP3     H1       HT       0.417000       1.00800           0
     42485 TIP3     6701     TIP3     H2       HT       0.417000       1.00800           0
     42486 TIP3     6702     TIP3     OH2      OT      -0.834000       15.9994           0
     42487 TIP3     6702     TIP3     H1       HT       0.417000       1.00800           0
     42488 TIP3     6702     TIP3     H2       HT       0.417000       1.00800           0
     42489 TIP3     6703     TIP3     OH2      OT      -0.834000       15.9994           0
     42490 TIP3     6703     TIP3     H1       HT       0.417000       1.00800           0
     42491 TIP3     6703     TIP3     H2       HT       0.417000       1.00800           0
     42492 TIP3     6704     TIP3     OH2      OT      -0.834000       15.9994           0
     42493 TIP3     6704     TIP3     H1       HT       0.417000       1.00800           0
     42494 TIP3     6704     TIP3     H2       HT       0.417000       1.00800           0
     42495 TIP3     6705     TIP3     OH2      OT      -0.834000       15.9994           0
     42496 TIP3     6705     TIP3     H1       HT       0.417000       1.00800           0
     42497 TIP3     6705     TIP3     H2       HT       0.417000       1.00800           0
     42498 TIP3     6706     TIP3     OH2      OT      -0.834000       15.9994           0
     42499 TIP3     6706     TIP3     H1       HT       0.417000       1.00800           0
     42500 TIP3     6706     TIP3     H2       HT       0.417000       1.00800           0
     42501 TIP3     6707     TIP3     OH2      OT      -0.834000       15.9994           0
     42502 TIP3     6707     TIP3     H1       HT       0.417000       1.00800           0
     42503 TIP3     6707     TIP3     H2       HT       0.417000       1.00800           0
     42504 TIP3     6708     TIP3     OH2      OT      -0.834000       15.9994           0
     42505 TIP3     6708     TIP3     H1       HT       0.417000       1.00800           0
     42506 TIP3     6708     TIP3     H2       HT       0.417000       1.00800           0
     42507 TIP3     6709     TIP3     OH2      OT      -0.834000       15.9994           0
     42508 TIP3     6709     TIP3     H1       HT       0.417000       1.00800           0
     42509 TIP3     6709     TIP3     H2       HT       0.417000       1.00800           0
     42510 TIP3     6710     TIP3     OH2      OT      -0.834000       15.9994           0
     42511 TIP3     6710     TIP3     H1       HT       0.417000       1.00800           0
     42512 TIP3     6710     TIP3     H2       HT       0.417000       1.00800           0
     42513 TIP3     6711     TIP3     OH2      OT      -0.834000       15.9994           0
     42514 TIP3     6711     TIP3     H1       HT       0.417000       1.00800           0
     42515 TIP3     6711     TIP3     H2       HT       0.417000       1.00800           0
     42516 TIP3     6712     TIP3     OH2      OT      -0.834000       15.9994           0
     42517 TIP3     6712     TIP3     H1       HT       0.417000       1.00800           0
     42518 TIP3     6712     TIP3     H2       HT       0.417000       1.00800           0
     42519 TIP3     6713     TIP3     OH2      OT      -0.834000       15.9994           0
     42520 TIP3     6713     TIP3     H1       HT       0.417000       1.00800           0
     42521 TIP3     6713     TIP3     H2       HT       0.417000       1.00800           0
     42522 TIP3     6714     TIP3     OH2      OT      -0.834000       15.9994           0
     42523 TIP3     6714     TIP3     H1       HT       0.417000       1.00800           0
     42524 TIP3     6714     TIP3     H2       HT       0.417000       1.00800           0
     42525 TIP3     6715     TIP3     OH2      OT      -0.834000       15.9994           0
     42526 TIP3     6715     TIP3     H1       HT       0.417000       1.00800           0
     42527 TIP3     6715     TIP3     H2       HT       0.417000       1.00800           0
     42528 TIP3     6716     TIP3     OH2      OT      -0.834000       15.9994           0
     42529 TIP3     6716     TIP3     H1       HT       0.417000       1.00800           0
     42530 TIP3     6716     TIP3     H2       HT       0.417000       1.00800           0
     42531 TIP3     6717     TIP3     OH2      OT      -0.834000       15.9994           0
     42532 TIP3     6717     TIP3     H1       HT       0.417000       1.00800           0
     42533 TIP3     6717     TIP3     H2       HT       0.417000       1.00800           0
     42534 TIP3     6718     TIP3     OH2      OT      -0.834000       15.9994           0
     42535 TIP3     6718     TIP3     H1       HT       0.417000       1.00800           0
     42536 TIP3     6718     TIP3     H2       HT       0.417000       1.00800           0
     42537 TIP3     6719     TIP3     OH2      OT      -0.834000       15.9994           0
     42538 TIP3     6719     TIP3     H1       HT       0.417000       1.00800           0
     42539 TIP3     6719     TIP3     H2       HT       0.417000       1.00800           0
     42540 TIP3     6720     TIP3     OH2      OT      -0.834000       15.9994           0
     42541 TIP3     6720     TIP3     H1       HT       0.417000       1.00800           0
     42542 TIP3     6720     TIP3     H2       HT       0.417000       1.00800           0
     42543 TIP3     6721     TIP3     OH2      OT      -0.834000       15.9994           0
     42544 TIP3     6721     TIP3     H1       HT       0.417000       1.00800           0
     42545 TIP3     6721     TIP3     H2       HT       0.417000       1.00800           0
     42546 TIP3     6722     TIP3     OH2      OT      -0.834000       15.9994           0
     42547 TIP3     6722     TIP3     H1       HT       0.417000       1.00800           0
     42548 TIP3     6722     TIP3     H2       HT       0.417000       1.00800           0
     42549 TIP3     6723     TIP3     OH2      OT      -0.834000       15.9994           0
     42550 TIP3     6723     TIP3     H1       HT       0.417000       1.00800           0
     42551 TIP3     6723     TIP3     H2       HT       0.417000       1.00800           0
     42552 TIP3     6724     TIP3     OH2      OT      -0.834000       15.9994           0
     42553 TIP3     6724     TIP3     H1       HT       0.417000       1.00800           0
     42554 TIP3     6724     TIP3     H2       HT       0.417000       1.00800           0
     42555 TIP3     6725     TIP3     OH2      OT      -0.834000       15.9994           0
     42556 TIP3     6725     TIP3     H1       HT       0.417000       1.00800           0
     42557 TIP3     6725     TIP3     H2       HT       0.417000       1.00800           0
     42558 TIP3     6726     TIP3     OH2      OT      -0.834000       15.9994           0
     42559 TIP3     6726     TIP3     H1       HT       0.417000       1.00800           0
     42560 TIP3     6726     TIP3     H2       HT       0.417000       1.00800           0
     42561 TIP3     6727     TIP3     OH2      OT      -0.834000       15.9994           0
     42562 TIP3     6727     TIP3     H1       HT       0.417000       1.00800           0
     42563 TIP3     6727     TIP3     H2       HT       0.417000       1.00800           0
     42564 TIP3     6728     TIP3     OH2      OT      -0.834000       15.9994           0
     42565 TIP3     6728     TIP3     H1       HT       0.417000       1.00800           0
     42566 TIP3     6728     TIP3     H2       HT       0.417000       1.00800           0
     42567 TIP3     6729     TIP3     OH2      OT      -0.834000       15.9994           0
     42568 TIP3     6729     TIP3     H1       HT       0.417000       1.00800           0
     42569 TIP3     6729     TIP3     H2       HT       0.417000       1.00800           0
     42570 TIP3     6730     TIP3     OH2      OT      -0.834000       15.9994           0
     42571 TIP3     6730     TIP3     H1       HT       0.417000       1.00800           0
     42572 TIP3     6730     TIP3     H2       HT       0.417000       1.00800           0
     42573 TIP3     6731     TIP3     OH2      OT      -0.834000       15.9994           0
     42574 TIP3     6731     TIP3     H1       HT       0.417000       1.00800           0
     42575 TIP3     6731     TIP3     H2       HT       0.417000       1.00800           0
     42576 TIP3     6732     TIP3     OH2      OT      -0.834000       15.9994           0
     42577 TIP3     6732     TIP3     H1       HT       0.417000       1.00800           0
     42578 TIP3     6732     TIP3     H2       HT       0.417000       1.00800           0
     42579 TIP3     6733     TIP3     OH2      OT      -0.834000       15.9994           0
     42580 TIP3     6733     TIP3     H1       HT       0.417000       1.00800           0
     42581 TIP3     6733     TIP3     H2       HT       0.417000       1.00800           0
     42582 TIP3     6734     TIP3     OH2      OT      -0.834000       15.9994           0
     42583 TIP3     6734     TIP3     H1       HT       0.417000       1.00800           0
     42584 TIP3     6734     TIP3     H2       HT       0.417000       1.00800           0
     42585 TIP3     6735     TIP3     OH2      OT      -0.834000       15.9994           0
     42586 TIP3     6735     TIP3     H1       HT       0.417000       1.00800           0
     42587 TIP3     6735     TIP3     H2       HT       0.417000       1.00800           0
     42588 TIP3     6736     TIP3     OH2      OT      -0.834000       15.9994           0
     42589 TIP3     6736     TIP3     H1       HT       0.417000       1.00800           0
     42590 TIP3     6736     TIP3     H2       HT       0.417000       1.00800           0
     42591 TIP3     6737     TIP3     OH2      OT      -0.834000       15.9994           0
     42592 TIP3     6737     TIP3     H1       HT       0.417000       1.00800           0
     42593 TIP3     6737     TIP3     H2       HT       0.417000       1.00800           0
     42594 TIP3     6738     TIP3     OH2      OT      -0.834000       15.9994           0
     42595 TIP3     6738     TIP3     H1       HT       0.417000       1.00800           0
     42596 TIP3     6738     TIP3     H2       HT       0.417000       1.00800           0
     42597 TIP3     6739     TIP3     OH2      OT      -0.834000       15.9994           0
     42598 TIP3     6739     TIP3     H1       HT       0.417000       1.00800           0
     42599 TIP3     6739     TIP3     H2       HT       0.417000       1.00800           0
     42600 TIP3     6740     TIP3     OH2      OT      -0.834000       15.9994           0
     42601 TIP3     6740     TIP3     H1       HT       0.417000       1.00800           0
     42602 TIP3     6740     TIP3     H2       HT       0.417000       1.00800           0
     42603 TIP3     6741     TIP3     OH2      OT      -0.834000       15.9994           0
     42604 TIP3     6741     TIP3     H1       HT       0.417000       1.00800           0
     42605 TIP3     6741     TIP3     H2       HT       0.417000       1.00800           0
     42606 TIP3     6742     TIP3     OH2      OT      -0.834000       15.9994           0
     42607 TIP3     6742     TIP3     H1       HT       0.417000       1.00800           0
     42608 TIP3     6742     TIP3     H2       HT       0.417000       1.00800           0
     42609 TIP3     6743     TIP3     OH2      OT      -0.834000       15.9994           0
     42610 TIP3     6743     TIP3     H1       HT       0.417000       1.00800           0
     42611 TIP3     6743     TIP3     H2       HT       0.417000       1.00800           0
     42612 TIP3     6744     TIP3     OH2      OT      -0.834000       15.9994           0
     42613 TIP3     6744     TIP3     H1       HT       0.417000       1.00800           0
     42614 TIP3     6744     TIP3     H2       HT       0.417000       1.00800           0
     42615 TIP3     6745     TIP3     OH2      OT      -0.834000       15.9994           0
     42616 TIP3     6745     TIP3     H1       HT       0.417000       1.00800           0
     42617 TIP3     6745     TIP3     H2       HT       0.417000       1.00800           0
     42618 TIP3     6746     TIP3     OH2      OT      -0.834000       15.9994           0
     42619 TIP3     6746     TIP3     H1       HT       0.417000       1.00800           0
     42620 TIP3     6746     TIP3     H2       HT       0.417000       1.00800           0
     42621 TIP3     6747     TIP3     OH2      OT      -0.834000       15.9994           0
     42622 TIP3     6747     TIP3     H1       HT       0.417000       1.00800           0
     42623 TIP3     6747     TIP3     H2       HT       0.417000       1.00800           0
     42624 TIP3     6748     TIP3     OH2      OT      -0.834000       15.9994           0
     42625 TIP3     6748     TIP3     H1       HT       0.417000       1.00800           0
     42626 TIP3     6748     TIP3     H2       HT       0.417000       1.00800           0
     42627 TIP3     6749     TIP3     OH2      OT      -0.834000       15.9994           0
     42628 TIP3     6749     TIP3     H1       HT       0.417000       1.00800           0
     42629 TIP3     6749     TIP3     H2       HT       0.417000       1.00800           0
     42630 TIP3     6750     TIP3     OH2      OT      -0.834000       15.9994           0
     42631 TIP3     6750     TIP3     H1       HT       0.417000       1.00800           0
     42632 TIP3     6750     TIP3     H2       HT       0.417000       1.00800           0
     42633 TIP3     6751     TIP3     OH2      OT      -0.834000       15.9994           0
     42634 TIP3     6751     TIP3     H1       HT       0.417000       1.00800           0
     42635 TIP3     6751     TIP3     H2       HT       0.417000       1.00800           0
     42636 TIP3     6752     TIP3     OH2      OT      -0.834000       15.9994           0
     42637 TIP3     6752     TIP3     H1       HT       0.417000       1.00800           0
     42638 TIP3     6752     TIP3     H2       HT       0.417000       1.00800           0
     42639 TIP3     6753     TIP3     OH2      OT      -0.834000       15.9994           0
     42640 TIP3     6753     TIP3     H1       HT       0.417000       1.00800           0
     42641 TIP3     6753     TIP3     H2       HT       0.417000       1.00800           0
     42642 TIP3     6754     TIP3     OH2      OT      -0.834000       15.9994           0
     42643 TIP3     6754     TIP3     H1       HT       0.417000       1.00800           0
     42644 TIP3     6754     TIP3     H2       HT       0.417000       1.00800           0
     42645 TIP3     6755     TIP3     OH2      OT      -0.834000       15.9994           0
     42646 TIP3     6755     TIP3     H1       HT       0.417000       1.00800           0
     42647 TIP3     6755     TIP3     H2       HT       0.417000       1.00800           0
     42648 TIP3     6756     TIP3     OH2      OT      -0.834000       15.9994           0
     42649 TIP3     6756     TIP3     H1       HT       0.417000       1.00800           0
     42650 TIP3     6756     TIP3     H2       HT       0.417000       1.00800           0
     42651 TIP3     6757     TIP3     OH2      OT      -0.834000       15.9994           0
     42652 TIP3     6757     TIP3     H1       HT       0.417000       1.00800           0
     42653 TIP3     6757     TIP3     H2       HT       0.417000       1.00800           0
     42654 TIP3     6758     TIP3     OH2      OT      -0.834000       15.9994           0
     42655 TIP3     6758     TIP3     H1       HT       0.417000       1.00800           0
     42656 TIP3     6758     TIP3     H2       HT       0.417000       1.00800           0
     42657 TIP3     6759     TIP3     OH2      OT      -0.834000       15.9994           0
     42658 TIP3     6759     TIP3     H1       HT       0.417000       1.00800           0
     42659 TIP3     6759     TIP3     H2       HT       0.417000       1.00800           0
     42660 TIP3     6760     TIP3     OH2      OT      -0.834000       15.9994           0
     42661 TIP3     6760     TIP3     H1       HT       0.417000       1.00800           0
     42662 TIP3     6760     TIP3     H2       HT       0.417000       1.00800           0
     42663 TIP3     6761     TIP3     OH2      OT      -0.834000       15.9994           0
     42664 TIP3     6761     TIP3     H1       HT       0.417000       1.00800           0
     42665 TIP3     6761     TIP3     H2       HT       0.417000       1.00800           0
     42666 TIP3     6762     TIP3     OH2      OT      -0.834000       15.9994           0
     42667 TIP3     6762     TIP3     H1       HT       0.417000       1.00800           0
     42668 TIP3     6762     TIP3     H2       HT       0.417000       1.00800           0
     42669 TIP3     6763     TIP3     OH2      OT      -0.834000       15.9994           0
     42670 TIP3     6763     TIP3     H1       HT       0.417000       1.00800           0
     42671 TIP3     6763     TIP3     H2       HT       0.417000       1.00800           0
     42672 TIP3     6764     TIP3     OH2      OT      -0.834000       15.9994           0
     42673 TIP3     6764     TIP3     H1       HT       0.417000       1.00800           0
     42674 TIP3     6764     TIP3     H2       HT       0.417000       1.00800           0
     42675 TIP3     6765     TIP3     OH2      OT      -0.834000       15.9994           0
     42676 TIP3     6765     TIP3     H1       HT       0.417000       1.00800           0
     42677 TIP3     6765     TIP3     H2       HT       0.417000       1.00800           0
     42678 TIP3     6766     TIP3     OH2      OT      -0.834000       15.9994           0
     42679 TIP3     6766     TIP3     H1       HT       0.417000       1.00800           0
     42680 TIP3     6766     TIP3     H2       HT       0.417000       1.00800           0
     42681 TIP3     6767     TIP3     OH2      OT      -0.834000       15.9994           0
     42682 TIP3     6767     TIP3     H1       HT       0.417000       1.00800           0
     42683 TIP3     6767     TIP3     H2       HT       0.417000       1.00800           0
     42684 TIP3     6768     TIP3     OH2      OT      -0.834000       15.9994           0
     42685 TIP3     6768     TIP3     H1       HT       0.417000       1.00800           0
     42686 TIP3     6768     TIP3     H2       HT       0.417000       1.00800           0
     42687 TIP3     6769     TIP3     OH2      OT      -0.834000       15.9994           0
     42688 TIP3     6769     TIP3     H1       HT       0.417000       1.00800           0
     42689 TIP3     6769     TIP3     H2       HT       0.417000       1.00800           0
     42690 TIP3     6770     TIP3     OH2      OT      -0.834000       15.9994           0
     42691 TIP3     6770     TIP3     H1       HT       0.417000       1.00800           0
     42692 TIP3     6770     TIP3     H2       HT       0.417000       1.00800           0
     42693 TIP3     6771     TIP3     OH2      OT      -0.834000       15.9994           0
     42694 TIP3     6771     TIP3     H1       HT       0.417000       1.00800           0
     42695 TIP3     6771     TIP3     H2       HT       0.417000       1.00800           0
     42696 TIP3     6772     TIP3     OH2      OT      -0.834000       15.9994           0
     42697 TIP3     6772     TIP3     H1       HT       0.417000       1.00800           0
     42698 TIP3     6772     TIP3     H2       HT       0.417000       1.00800           0
     42699 TIP3     6773     TIP3     OH2      OT      -0.834000       15.9994           0
     42700 TIP3     6773     TIP3     H1       HT       0.417000       1.00800           0
     42701 TIP3     6773     TIP3     H2       HT       0.417000       1.00800           0
     42702 TIP3     6774     TIP3     OH2      OT      -0.834000       15.9994           0
     42703 TIP3     6774     TIP3     H1       HT       0.417000       1.00800           0
     42704 TIP3     6774     TIP3     H2       HT       0.417000       1.00800           0
     42705 TIP3     6775     TIP3     OH2      OT      -0.834000       15.9994           0
     42706 TIP3     6775     TIP3     H1       HT       0.417000       1.00800           0
     42707 TIP3     6775     TIP3     H2       HT       0.417000       1.00800           0
     42708 TIP3     6776     TIP3     OH2      OT      -0.834000       15.9994           0
     42709 TIP3     6776     TIP3     H1       HT       0.417000       1.00800           0
     42710 TIP3     6776     TIP3     H2       HT       0.417000       1.00800           0
     42711 TIP3     6777     TIP3     OH2      OT      -0.834000       15.9994           0
     42712 TIP3     6777     TIP3     H1       HT       0.417000       1.00800           0
     42713 TIP3     6777     TIP3     H2       HT       0.417000       1.00800           0
     42714 TIP3     6778     TIP3     OH2      OT      -0.834000       15.9994           0
     42715 TIP3     6778     TIP3     H1       HT       0.417000       1.00800           0
     42716 TIP3     6778     TIP3     H2       HT       0.417000       1.00800           0
     42717 TIP3     6779     TIP3     OH2      OT      -0.834000       15.9994           0
     42718 TIP3     6779     TIP3     H1       HT       0.417000       1.00800           0
     42719 TIP3     6779     TIP3     H2       HT       0.417000       1.00800           0
     42720 TIP3     6780     TIP3     OH2      OT      -0.834000       15.9994           0
     42721 TIP3     6780     TIP3     H1       HT       0.417000       1.00800           0
     42722 TIP3     6780     TIP3     H2       HT       0.417000       1.00800           0
     42723 TIP3     6781     TIP3     OH2      OT      -0.834000       15.9994           0
     42724 TIP3     6781     TIP3     H1       HT       0.417000       1.00800           0
     42725 TIP3     6781     TIP3     H2       HT       0.417000       1.00800           0
     42726 TIP3     6782     TIP3     OH2      OT      -0.834000       15.9994           0
     42727 TIP3     6782     TIP3     H1       HT       0.417000       1.00800           0
     42728 TIP3     6782     TIP3     H2       HT       0.417000       1.00800           0
     42729 TIP3     6783     TIP3     OH2      OT      -0.834000       15.9994           0
     42730 TIP3     6783     TIP3     H1       HT       0.417000       1.00800           0
     42731 TIP3     6783     TIP3     H2       HT       0.417000       1.00800           0
     42732 TIP3     6784     TIP3     OH2      OT      -0.834000       15.9994           0
     42733 TIP3     6784     TIP3     H1       HT       0.417000       1.00800           0
     42734 TIP3     6784     TIP3     H2       HT       0.417000       1.00800           0
     42735 TIP3     6785     TIP3     OH2      OT      -0.834000       15.9994           0
     42736 TIP3     6785     TIP3     H1       HT       0.417000       1.00800           0
     42737 TIP3     6785     TIP3     H2       HT       0.417000       1.00800           0
     42738 TIP3     6786     TIP3     OH2      OT      -0.834000       15.9994           0
     42739 TIP3     6786     TIP3     H1       HT       0.417000       1.00800           0
     42740 TIP3     6786     TIP3     H2       HT       0.417000       1.00800           0
     42741 TIP3     6787     TIP3     OH2      OT      -0.834000       15.9994           0
     42742 TIP3     6787     TIP3     H1       HT       0.417000       1.00800           0
     42743 TIP3     6787     TIP3     H2       HT       0.417000       1.00800           0
     42744 TIP3     6788     TIP3     OH2      OT      -0.834000       15.9994           0
     42745 TIP3     6788     TIP3     H1       HT       0.417000       1.00800           0
     42746 TIP3     6788     TIP3     H2       HT       0.417000       1.00800           0
     42747 TIP3     6789     TIP3     OH2      OT      -0.834000       15.9994           0
     42748 TIP3     6789     TIP3     H1       HT       0.417000       1.00800           0
     42749 TIP3     6789     TIP3     H2       HT       0.417000       1.00800           0
     42750 TIP3     6790     TIP3     OH2      OT      -0.834000       15.9994           0
     42751 TIP3     6790     TIP3     H1       HT       0.417000       1.00800           0
     42752 TIP3     6790     TIP3     H2       HT       0.417000       1.00800           0
     42753 TIP3     6791     TIP3     OH2      OT      -0.834000       15.9994           0
     42754 TIP3     6791     TIP3     H1       HT       0.417000       1.00800           0
     42755 TIP3     6791     TIP3     H2       HT       0.417000       1.00800           0
     42756 TIP3     6792     TIP3     OH2      OT      -0.834000       15.9994           0
     42757 TIP3     6792     TIP3     H1       HT       0.417000       1.00800           0
     42758 TIP3     6792     TIP3     H2       HT       0.417000       1.00800           0
     42759 TIP3     6793     TIP3     OH2      OT      -0.834000       15.9994           0
     42760 TIP3     6793     TIP3     H1       HT       0.417000       1.00800           0
     42761 TIP3     6793     TIP3     H2       HT       0.417000       1.00800           0
     42762 TIP3     6794     TIP3     OH2      OT      -0.834000       15.9994           0
     42763 TIP3     6794     TIP3     H1       HT       0.417000       1.00800           0
     42764 TIP3     6794     TIP3     H2       HT       0.417000       1.00800           0
     42765 TIP3     6795     TIP3     OH2      OT      -0.834000       15.9994           0
     42766 TIP3     6795     TIP3     H1       HT       0.417000       1.00800           0
     42767 TIP3     6795     TIP3     H2       HT       0.417000       1.00800           0
     42768 TIP3     6796     TIP3     OH2      OT      -0.834000       15.9994           0
     42769 TIP3     6796     TIP3     H1       HT       0.417000       1.00800           0
     42770 TIP3     6796     TIP3     H2       HT       0.417000       1.00800           0
     42771 TIP3     6797     TIP3     OH2      OT      -0.834000       15.9994           0
     42772 TIP3     6797     TIP3     H1       HT       0.417000       1.00800           0
     42773 TIP3     6797     TIP3     H2       HT       0.417000       1.00800           0
     42774 TIP3     6798     TIP3     OH2      OT      -0.834000       15.9994           0
     42775 TIP3     6798     TIP3     H1       HT       0.417000       1.00800           0
     42776 TIP3     6798     TIP3     H2       HT       0.417000       1.00800           0
     42777 TIP3     6799     TIP3     OH2      OT      -0.834000       15.9994           0
     42778 TIP3     6799     TIP3     H1       HT       0.417000       1.00800           0
     42779 TIP3     6799     TIP3     H2       HT       0.417000       1.00800           0
     42780 TIP3     6800     TIP3     OH2      OT      -0.834000       15.9994           0
     42781 TIP3     6800     TIP3     H1       HT       0.417000       1.00800           0
     42782 TIP3     6800     TIP3     H2       HT       0.417000       1.00800           0
     42783 TIP3     6801     TIP3     OH2      OT      -0.834000       15.9994           0
     42784 TIP3     6801     TIP3     H1       HT       0.417000       1.00800           0
     42785 TIP3     6801     TIP3     H2       HT       0.417000       1.00800           0
     42786 TIP3     6802     TIP3     OH2      OT      -0.834000       15.9994           0
     42787 TIP3     6802     TIP3     H1       HT       0.417000       1.00800           0
     42788 TIP3     6802     TIP3     H2       HT       0.417000       1.00800           0
     42789 TIP3     6803     TIP3     OH2      OT      -0.834000       15.9994           0
     42790 TIP3     6803     TIP3     H1       HT       0.417000       1.00800           0
     42791 TIP3     6803     TIP3     H2       HT       0.417000       1.00800           0
     42792 TIP3     6804     TIP3     OH2      OT      -0.834000       15.9994           0
     42793 TIP3     6804     TIP3     H1       HT       0.417000       1.00800           0
     42794 TIP3     6804     TIP3     H2       HT       0.417000       1.00800           0
     42795 TIP3     6805     TIP3     OH2      OT      -0.834000       15.9994           0
     42796 TIP3     6805     TIP3     H1       HT       0.417000       1.00800           0
     42797 TIP3     6805     TIP3     H2       HT       0.417000       1.00800           0
     42798 TIP3     6806     TIP3     OH2      OT      -0.834000       15.9994           0
     42799 TIP3     6806     TIP3     H1       HT       0.417000       1.00800           0
     42800 TIP3     6806     TIP3     H2       HT       0.417000       1.00800           0
     42801 TIP3     6807     TIP3     OH2      OT      -0.834000       15.9994           0
     42802 TIP3     6807     TIP3     H1       HT       0.417000       1.00800           0
     42803 TIP3     6807     TIP3     H2       HT       0.417000       1.00800           0
     42804 TIP3     6808     TIP3     OH2      OT      -0.834000       15.9994           0
     42805 TIP3     6808     TIP3     H1       HT       0.417000       1.00800           0
     42806 TIP3     6808     TIP3     H2       HT       0.417000       1.00800           0
     42807 TIP3     6809     TIP3     OH2      OT      -0.834000       15.9994           0
     42808 TIP3     6809     TIP3     H1       HT       0.417000       1.00800           0
     42809 TIP3     6809     TIP3     H2       HT       0.417000       1.00800           0
     42810 TIP3     6810     TIP3     OH2      OT      -0.834000       15.9994           0
     42811 TIP3     6810     TIP3     H1       HT       0.417000       1.00800           0
     42812 TIP3     6810     TIP3     H2       HT       0.417000       1.00800           0
     42813 TIP3     6811     TIP3     OH2      OT      -0.834000       15.9994           0
     42814 TIP3     6811     TIP3     H1       HT       0.417000       1.00800           0
     42815 TIP3     6811     TIP3     H2       HT       0.417000       1.00800           0
     42816 TIP3     6812     TIP3     OH2      OT      -0.834000       15.9994           0
     42817 TIP3     6812     TIP3     H1       HT       0.417000       1.00800           0
     42818 TIP3     6812     TIP3     H2       HT       0.417000       1.00800           0
     42819 TIP3     6813     TIP3     OH2      OT      -0.834000       15.9994           0
     42820 TIP3     6813     TIP3     H1       HT       0.417000       1.00800           0
     42821 TIP3     6813     TIP3     H2       HT       0.417000       1.00800           0
     42822 TIP3     6814     TIP3     OH2      OT      -0.834000       15.9994           0
     42823 TIP3     6814     TIP3     H1       HT       0.417000       1.00800           0
     42824 TIP3     6814     TIP3     H2       HT       0.417000       1.00800           0
     42825 TIP3     6815     TIP3     OH2      OT      -0.834000       15.9994           0
     42826 TIP3     6815     TIP3     H1       HT       0.417000       1.00800           0
     42827 TIP3     6815     TIP3     H2       HT       0.417000       1.00800           0
     42828 TIP3     6816     TIP3     OH2      OT      -0.834000       15.9994           0
     42829 TIP3     6816     TIP3     H1       HT       0.417000       1.00800           0
     42830 TIP3     6816     TIP3     H2       HT       0.417000       1.00800           0
     42831 TIP3     6817     TIP3     OH2      OT      -0.834000       15.9994           0
     42832 TIP3     6817     TIP3     H1       HT       0.417000       1.00800           0
     42833 TIP3     6817     TIP3     H2       HT       0.417000       1.00800           0
     42834 TIP3     6818     TIP3     OH2      OT      -0.834000       15.9994           0
     42835 TIP3     6818     TIP3     H1       HT       0.417000       1.00800           0
     42836 TIP3     6818     TIP3     H2       HT       0.417000       1.00800           0
     42837 TIP3     6819     TIP3     OH2      OT      -0.834000       15.9994           0
     42838 TIP3     6819     TIP3     H1       HT       0.417000       1.00800           0
     42839 TIP3     6819     TIP3     H2       HT       0.417000       1.00800           0
     42840 TIP3     6820     TIP3     OH2      OT      -0.834000       15.9994           0
     42841 TIP3     6820     TIP3     H1       HT       0.417000       1.00800           0
     42842 TIP3     6820     TIP3     H2       HT       0.417000       1.00800           0
     42843 TIP3     6821     TIP3     OH2      OT      -0.834000       15.9994           0
     42844 TIP3     6821     TIP3     H1       HT       0.417000       1.00800           0
     42845 TIP3     6821     TIP3     H2       HT       0.417000       1.00800           0
     42846 TIP3     6822     TIP3     OH2      OT      -0.834000       15.9994           0
     42847 TIP3     6822     TIP3     H1       HT       0.417000       1.00800           0
     42848 TIP3     6822     TIP3     H2       HT       0.417000       1.00800           0
     42849 TIP3     6823     TIP3     OH2      OT      -0.834000       15.9994           0
     42850 TIP3     6823     TIP3     H1       HT       0.417000       1.00800           0
     42851 TIP3     6823     TIP3     H2       HT       0.417000       1.00800           0
     42852 TIP3     6824     TIP3     OH2      OT      -0.834000       15.9994           0
     42853 TIP3     6824     TIP3     H1       HT       0.417000       1.00800           0
     42854 TIP3     6824     TIP3     H2       HT       0.417000       1.00800           0
     42855 TIP3     6825     TIP3     OH2      OT      -0.834000       15.9994           0
     42856 TIP3     6825     TIP3     H1       HT       0.417000       1.00800           0
     42857 TIP3     6825     TIP3     H2       HT       0.417000       1.00800           0
     42858 TIP3     6826     TIP3     OH2      OT      -0.834000       15.9994           0
     42859 TIP3     6826     TIP3     H1       HT       0.417000       1.00800           0
     42860 TIP3     6826     TIP3     H2       HT       0.417000       1.00800           0
     42861 TIP3     6827     TIP3     OH2      OT      -0.834000       15.9994           0
     42862 TIP3     6827     TIP3     H1       HT       0.417000       1.00800           0
     42863 TIP3     6827     TIP3     H2       HT       0.417000       1.00800           0
     42864 TIP3     6828     TIP3     OH2      OT      -0.834000       15.9994           0
     42865 TIP3     6828     TIP3     H1       HT       0.417000       1.00800           0
     42866 TIP3     6828     TIP3     H2       HT       0.417000       1.00800           0
     42867 TIP3     6829     TIP3     OH2      OT      -0.834000       15.9994           0
     42868 TIP3     6829     TIP3     H1       HT       0.417000       1.00800           0
     42869 TIP3     6829     TIP3     H2       HT       0.417000       1.00800           0
     42870 TIP3     6830     TIP3     OH2      OT      -0.834000       15.9994           0
     42871 TIP3     6830     TIP3     H1       HT       0.417000       1.00800           0
     42872 TIP3     6830     TIP3     H2       HT       0.417000       1.00800           0
     42873 TIP3     6831     TIP3     OH2      OT      -0.834000       15.9994           0
     42874 TIP3     6831     TIP3     H1       HT       0.417000       1.00800           0
     42875 TIP3     6831     TIP3     H2       HT       0.417000       1.00800           0
     42876 TIP3     6832     TIP3     OH2      OT      -0.834000       15.9994           0
     42877 TIP3     6832     TIP3     H1       HT       0.417000       1.00800           0
     42878 TIP3     6832     TIP3     H2       HT       0.417000       1.00800           0
     42879 TIP3     6833     TIP3     OH2      OT      -0.834000       15.9994           0
     42880 TIP3     6833     TIP3     H1       HT       0.417000       1.00800           0
     42881 TIP3     6833     TIP3     H2       HT       0.417000       1.00800           0
     42882 TIP3     6834     TIP3     OH2      OT      -0.834000       15.9994           0
     42883 TIP3     6834     TIP3     H1       HT       0.417000       1.00800           0
     42884 TIP3     6834     TIP3     H2       HT       0.417000       1.00800           0
     42885 TIP3     6835     TIP3     OH2      OT      -0.834000       15.9994           0
     42886 TIP3     6835     TIP3     H1       HT       0.417000       1.00800           0
     42887 TIP3     6835     TIP3     H2       HT       0.417000       1.00800           0
     42888 TIP3     6836     TIP3     OH2      OT      -0.834000       15.9994           0
     42889 TIP3     6836     TIP3     H1       HT       0.417000       1.00800           0
     42890 TIP3     6836     TIP3     H2       HT       0.417000       1.00800           0
     42891 TIP3     6837     TIP3     OH2      OT      -0.834000       15.9994           0
     42892 TIP3     6837     TIP3     H1       HT       0.417000       1.00800           0
     42893 TIP3     6837     TIP3     H2       HT       0.417000       1.00800           0
     42894 TIP3     6838     TIP3     OH2      OT      -0.834000       15.9994           0
     42895 TIP3     6838     TIP3     H1       HT       0.417000       1.00800           0
     42896 TIP3     6838     TIP3     H2       HT       0.417000       1.00800           0
     42897 TIP3     6839     TIP3     OH2      OT      -0.834000       15.9994           0
     42898 TIP3     6839     TIP3     H1       HT       0.417000       1.00800           0
     42899 TIP3     6839     TIP3     H2       HT       0.417000       1.00800           0
     42900 TIP3     6840     TIP3     OH2      OT      -0.834000       15.9994           0
     42901 TIP3     6840     TIP3     H1       HT       0.417000       1.00800           0
     42902 TIP3     6840     TIP3     H2       HT       0.417000       1.00800           0
     42903 TIP3     6841     TIP3     OH2      OT      -0.834000       15.9994           0
     42904 TIP3     6841     TIP3     H1       HT       0.417000       1.00800           0
     42905 TIP3     6841     TIP3     H2       HT       0.417000       1.00800           0
     42906 TIP3     6842     TIP3     OH2      OT      -0.834000       15.9994           0
     42907 TIP3     6842     TIP3     H1       HT       0.417000       1.00800           0
     42908 TIP3     6842     TIP3     H2       HT       0.417000       1.00800           0
     42909 TIP3     6843     TIP3     OH2      OT      -0.834000       15.9994           0
     42910 TIP3     6843     TIP3     H1       HT       0.417000       1.00800           0
     42911 TIP3     6843     TIP3     H2       HT       0.417000       1.00800           0
     42912 TIP3     6844     TIP3     OH2      OT      -0.834000       15.9994           0
     42913 TIP3     6844     TIP3     H1       HT       0.417000       1.00800           0
     42914 TIP3     6844     TIP3     H2       HT       0.417000       1.00800           0
     42915 TIP3     6845     TIP3     OH2      OT      -0.834000       15.9994           0
     42916 TIP3     6845     TIP3     H1       HT       0.417000       1.00800           0
     42917 TIP3     6845     TIP3     H2       HT       0.417000       1.00800           0
     42918 TIP3     6846     TIP3     OH2      OT      -0.834000       15.9994           0
     42919 TIP3     6846     TIP3     H1       HT       0.417000       1.00800           0
     42920 TIP3     6846     TIP3     H2       HT       0.417000       1.00800           0
     42921 TIP3     6847     TIP3     OH2      OT      -0.834000       15.9994           0
     42922 TIP3     6847     TIP3     H1       HT       0.417000       1.00800           0
     42923 TIP3     6847     TIP3     H2       HT       0.417000       1.00800           0
     42924 TIP3     6848     TIP3     OH2      OT      -0.834000       15.9994           0
     42925 TIP3     6848     TIP3     H1       HT       0.417000       1.00800           0
     42926 TIP3     6848     TIP3     H2       HT       0.417000       1.00800           0
     42927 TIP3     6849     TIP3     OH2      OT      -0.834000       15.9994           0
     42928 TIP3     6849     TIP3     H1       HT       0.417000       1.00800           0
     42929 TIP3     6849     TIP3     H2       HT       0.417000       1.00800           0
     42930 TIP3     6850     TIP3     OH2      OT      -0.834000       15.9994           0
     42931 TIP3     6850     TIP3     H1       HT       0.417000       1.00800           0
     42932 TIP3     6850     TIP3     H2       HT       0.417000       1.00800           0
     42933 TIP3     6851     TIP3     OH2      OT      -0.834000       15.9994           0
     42934 TIP3     6851     TIP3     H1       HT       0.417000       1.00800           0
     42935 TIP3     6851     TIP3     H2       HT       0.417000       1.00800           0
     42936 TIP3     6852     TIP3     OH2      OT      -0.834000       15.9994           0
     42937 TIP3     6852     TIP3     H1       HT       0.417000       1.00800           0
     42938 TIP3     6852     TIP3     H2       HT       0.417000       1.00800           0
     42939 TIP3     6853     TIP3     OH2      OT      -0.834000       15.9994           0
     42940 TIP3     6853     TIP3     H1       HT       0.417000       1.00800           0
     42941 TIP3     6853     TIP3     H2       HT       0.417000       1.00800           0
     42942 TIP3     6854     TIP3     OH2      OT      -0.834000       15.9994           0
     42943 TIP3     6854     TIP3     H1       HT       0.417000       1.00800           0
     42944 TIP3     6854     TIP3     H2       HT       0.417000       1.00800           0
     42945 TIP3     6855     TIP3     OH2      OT      -0.834000       15.9994           0
     42946 TIP3     6855     TIP3     H1       HT       0.417000       1.00800           0
     42947 TIP3     6855     TIP3     H2       HT       0.417000       1.00800           0
     42948 TIP3     6856     TIP3     OH2      OT      -0.834000       15.9994           0
     42949 TIP3     6856     TIP3     H1       HT       0.417000       1.00800           0
     42950 TIP3     6856     TIP3     H2       HT       0.417000       1.00800           0
     42951 TIP3     6857     TIP3     OH2      OT      -0.834000       15.9994           0
     42952 TIP3     6857     TIP3     H1       HT       0.417000       1.00800           0
     42953 TIP3     6857     TIP3     H2       HT       0.417000       1.00800           0
     42954 TIP3     6858     TIP3     OH2      OT      -0.834000       15.9994           0
     42955 TIP3     6858     TIP3     H1       HT       0.417000       1.00800           0
     42956 TIP3     6858     TIP3     H2       HT       0.417000       1.00800           0
     42957 TIP3     6859     TIP3     OH2      OT      -0.834000       15.9994           0
     42958 TIP3     6859     TIP3     H1       HT       0.417000       1.00800           0
     42959 TIP3     6859     TIP3     H2       HT       0.417000       1.00800           0
     42960 TIP3     6860     TIP3     OH2      OT      -0.834000       15.9994           0
     42961 TIP3     6860     TIP3     H1       HT       0.417000       1.00800           0
     42962 TIP3     6860     TIP3     H2       HT       0.417000       1.00800           0
     42963 TIP3     6861     TIP3     OH2      OT      -0.834000       15.9994           0
     42964 TIP3     6861     TIP3     H1       HT       0.417000       1.00800           0
     42965 TIP3     6861     TIP3     H2       HT       0.417000       1.00800           0
     42966 TIP3     6862     TIP3     OH2      OT      -0.834000       15.9994           0
     42967 TIP3     6862     TIP3     H1       HT       0.417000       1.00800           0
     42968 TIP3     6862     TIP3     H2       HT       0.417000       1.00800           0
     42969 TIP3     6863     TIP3     OH2      OT      -0.834000       15.9994           0
     42970 TIP3     6863     TIP3     H1       HT       0.417000       1.00800           0
     42971 TIP3     6863     TIP3     H2       HT       0.417000       1.00800           0
     42972 TIP3     6864     TIP3     OH2      OT      -0.834000       15.9994           0
     42973 TIP3     6864     TIP3     H1       HT       0.417000       1.00800           0
     42974 TIP3     6864     TIP3     H2       HT       0.417000       1.00800           0
     42975 TIP3     6865     TIP3     OH2      OT      -0.834000       15.9994           0
     42976 TIP3     6865     TIP3     H1       HT       0.417000       1.00800           0
     42977 TIP3     6865     TIP3     H2       HT       0.417000       1.00800           0
     42978 TIP3     6866     TIP3     OH2      OT      -0.834000       15.9994           0
     42979 TIP3     6866     TIP3     H1       HT       0.417000       1.00800           0
     42980 TIP3     6866     TIP3     H2       HT       0.417000       1.00800           0
     42981 TIP3     6867     TIP3     OH2      OT      -0.834000       15.9994           0
     42982 TIP3     6867     TIP3     H1       HT       0.417000       1.00800           0
     42983 TIP3     6867     TIP3     H2       HT       0.417000       1.00800           0
     42984 TIP3     6868     TIP3     OH2      OT      -0.834000       15.9994           0
     42985 TIP3     6868     TIP3     H1       HT       0.417000       1.00800           0
     42986 TIP3     6868     TIP3     H2       HT       0.417000       1.00800           0
     42987 TIP3     6869     TIP3     OH2      OT      -0.834000       15.9994           0
     42988 TIP3     6869     TIP3     H1       HT       0.417000       1.00800           0
     42989 TIP3     6869     TIP3     H2       HT       0.417000       1.00800           0
     42990 TIP3     6870     TIP3     OH2      OT      -0.834000       15.9994           0
     42991 TIP3     6870     TIP3     H1       HT       0.417000       1.00800           0
     42992 TIP3     6870     TIP3     H2       HT       0.417000       1.00800           0
     42993 TIP3     6871     TIP3     OH2      OT      -0.834000       15.9994           0
     42994 TIP3     6871     TIP3     H1       HT       0.417000       1.00800           0
     42995 TIP3     6871     TIP3     H2       HT       0.417000       1.00800           0
     42996 TIP3     6872     TIP3     OH2      OT      -0.834000       15.9994           0
     42997 TIP3     6872     TIP3     H1       HT       0.417000       1.00800           0
     42998 TIP3     6872     TIP3     H2       HT       0.417000       1.00800           0
     42999 TIP3     6873     TIP3     OH2      OT      -0.834000       15.9994           0
     43000 TIP3     6873     TIP3     H1       HT       0.417000       1.00800           0
     43001 TIP3     6873     TIP3     H2       HT       0.417000       1.00800           0
     43002 TIP3     6874     TIP3     OH2      OT      -0.834000       15.9994           0
     43003 TIP3     6874     TIP3     H1       HT       0.417000       1.00800           0
     43004 TIP3     6874     TIP3     H2       HT       0.417000       1.00800           0
     43005 TIP3     6875     TIP3     OH2      OT      -0.834000       15.9994           0
     43006 TIP3     6875     TIP3     H1       HT       0.417000       1.00800           0
     43007 TIP3     6875     TIP3     H2       HT       0.417000       1.00800           0
     43008 TIP3     6876     TIP3     OH2      OT      -0.834000       15.9994           0
     43009 TIP3     6876     TIP3     H1       HT       0.417000       1.00800           0
     43010 TIP3     6876     TIP3     H2       HT       0.417000       1.00800           0
     43011 TIP3     6877     TIP3     OH2      OT      -0.834000       15.9994           0
     43012 TIP3     6877     TIP3     H1       HT       0.417000       1.00800           0
     43013 TIP3     6877     TIP3     H2       HT       0.417000       1.00800           0
     43014 TIP3     6878     TIP3     OH2      OT      -0.834000       15.9994           0
     43015 TIP3     6878     TIP3     H1       HT       0.417000       1.00800           0
     43016 TIP3     6878     TIP3     H2       HT       0.417000       1.00800           0
     43017 TIP3     6879     TIP3     OH2      OT      -0.834000       15.9994           0
     43018 TIP3     6879     TIP3     H1       HT       0.417000       1.00800           0
     43019 TIP3     6879     TIP3     H2       HT       0.417000       1.00800           0
     43020 TIP3     6880     TIP3     OH2      OT      -0.834000       15.9994           0
     43021 TIP3     6880     TIP3     H1       HT       0.417000       1.00800           0
     43022 TIP3     6880     TIP3     H2       HT       0.417000       1.00800           0
     43023 TIP3     6881     TIP3     OH2      OT      -0.834000       15.9994           0
     43024 TIP3     6881     TIP3     H1       HT       0.417000       1.00800           0
     43025 TIP3     6881     TIP3     H2       HT       0.417000       1.00800           0
     43026 TIP3     6882     TIP3     OH2      OT      -0.834000       15.9994           0
     43027 TIP3     6882     TIP3     H1       HT       0.417000       1.00800           0
     43028 TIP3     6882     TIP3     H2       HT       0.417000       1.00800           0
     43029 TIP3     6883     TIP3     OH2      OT      -0.834000       15.9994           0
     43030 TIP3     6883     TIP3     H1       HT       0.417000       1.00800           0
     43031 TIP3     6883     TIP3     H2       HT       0.417000       1.00800           0
     43032 TIP3     6884     TIP3     OH2      OT      -0.834000       15.9994           0
     43033 TIP3     6884     TIP3     H1       HT       0.417000       1.00800           0
     43034 TIP3     6884     TIP3     H2       HT       0.417000       1.00800           0
     43035 TIP3     6885     TIP3     OH2      OT      -0.834000       15.9994           0
     43036 TIP3     6885     TIP3     H1       HT       0.417000       1.00800           0
     43037 TIP3     6885     TIP3     H2       HT       0.417000       1.00800           0
     43038 TIP3     6886     TIP3     OH2      OT      -0.834000       15.9994           0
     43039 TIP3     6886     TIP3     H1       HT       0.417000       1.00800           0
     43040 TIP3     6886     TIP3     H2       HT       0.417000       1.00800           0
     43041 TIP3     6887     TIP3     OH2      OT      -0.834000       15.9994           0
     43042 TIP3     6887     TIP3     H1       HT       0.417000       1.00800           0
     43043 TIP3     6887     TIP3     H2       HT       0.417000       1.00800           0
     43044 TIP3     6888     TIP3     OH2      OT      -0.834000       15.9994           0
     43045 TIP3     6888     TIP3     H1       HT       0.417000       1.00800           0
     43046 TIP3     6888     TIP3     H2       HT       0.417000       1.00800           0
     43047 TIP3     6889     TIP3     OH2      OT      -0.834000       15.9994           0
     43048 TIP3     6889     TIP3     H1       HT       0.417000       1.00800           0
     43049 TIP3     6889     TIP3     H2       HT       0.417000       1.00800           0
     43050 TIP3     6890     TIP3     OH2      OT      -0.834000       15.9994           0
     43051 TIP3     6890     TIP3     H1       HT       0.417000       1.00800           0
     43052 TIP3     6890     TIP3     H2       HT       0.417000       1.00800           0
     43053 TIP3     6891     TIP3     OH2      OT      -0.834000       15.9994           0
     43054 TIP3     6891     TIP3     H1       HT       0.417000       1.00800           0
     43055 TIP3     6891     TIP3     H2       HT       0.417000       1.00800           0
     43056 TIP3     6892     TIP3     OH2      OT      -0.834000       15.9994           0
     43057 TIP3     6892     TIP3     H1       HT       0.417000       1.00800           0
     43058 TIP3     6892     TIP3     H2       HT       0.417000       1.00800           0
     43059 TIP3     6893     TIP3     OH2      OT      -0.834000       15.9994           0
     43060 TIP3     6893     TIP3     H1       HT       0.417000       1.00800           0
     43061 TIP3     6893     TIP3     H2       HT       0.417000       1.00800           0
     43062 TIP3     6894     TIP3     OH2      OT      -0.834000       15.9994           0
     43063 TIP3     6894     TIP3     H1       HT       0.417000       1.00800           0
     43064 TIP3     6894     TIP3     H2       HT       0.417000       1.00800           0
     43065 TIP3     6895     TIP3     OH2      OT      -0.834000       15.9994           0
     43066 TIP3     6895     TIP3     H1       HT       0.417000       1.00800           0
     43067 TIP3     6895     TIP3     H2       HT       0.417000       1.00800           0
     43068 TIP3     6896     TIP3     OH2      OT      -0.834000       15.9994           0
     43069 TIP3     6896     TIP3     H1       HT       0.417000       1.00800           0
     43070 TIP3     6896     TIP3     H2       HT       0.417000       1.00800           0
     43071 TIP3     6897     TIP3     OH2      OT      -0.834000       15.9994           0
     43072 TIP3     6897     TIP3     H1       HT       0.417000       1.00800           0
     43073 TIP3     6897     TIP3     H2       HT       0.417000       1.00800           0
     43074 TIP3     6898     TIP3     OH2      OT      -0.834000       15.9994           0
     43075 TIP3     6898     TIP3     H1       HT       0.417000       1.00800           0
     43076 TIP3     6898     TIP3     H2       HT       0.417000       1.00800           0
     43077 TIP3     6899     TIP3     OH2      OT      -0.834000       15.9994           0
     43078 TIP3     6899     TIP3     H1       HT       0.417000       1.00800           0
     43079 TIP3     6899     TIP3     H2       HT       0.417000       1.00800           0
     43080 TIP3     6900     TIP3     OH2      OT      -0.834000       15.9994           0
     43081 TIP3     6900     TIP3     H1       HT       0.417000       1.00800           0
     43082 TIP3     6900     TIP3     H2       HT       0.417000       1.00800           0
     43083 TIP3     6901     TIP3     OH2      OT      -0.834000       15.9994           0
     43084 TIP3     6901     TIP3     H1       HT       0.417000       1.00800           0
     43085 TIP3     6901     TIP3     H2       HT       0.417000       1.00800           0
     43086 TIP3     6902     TIP3     OH2      OT      -0.834000       15.9994           0
     43087 TIP3     6902     TIP3     H1       HT       0.417000       1.00800           0
     43088 TIP3     6902     TIP3     H2       HT       0.417000       1.00800           0
     43089 TIP3     6903     TIP3     OH2      OT      -0.834000       15.9994           0
     43090 TIP3     6903     TIP3     H1       HT       0.417000       1.00800           0
     43091 TIP3     6903     TIP3     H2       HT       0.417000       1.00800           0
     43092 TIP3     6904     TIP3     OH2      OT      -0.834000       15.9994           0
     43093 TIP3     6904     TIP3     H1       HT       0.417000       1.00800           0
     43094 TIP3     6904     TIP3     H2       HT       0.417000       1.00800           0
     43095 TIP3     6905     TIP3     OH2      OT      -0.834000       15.9994           0
     43096 TIP3     6905     TIP3     H1       HT       0.417000       1.00800           0
     43097 TIP3     6905     TIP3     H2       HT       0.417000       1.00800           0
     43098 TIP3     6906     TIP3     OH2      OT      -0.834000       15.9994           0
     43099 TIP3     6906     TIP3     H1       HT       0.417000       1.00800           0
     43100 TIP3     6906     TIP3     H2       HT       0.417000       1.00800           0
     43101 TIP3     6907     TIP3     OH2      OT      -0.834000       15.9994           0
     43102 TIP3     6907     TIP3     H1       HT       0.417000       1.00800           0
     43103 TIP3     6907     TIP3     H2       HT       0.417000       1.00800           0
     43104 TIP3     6908     TIP3     OH2      OT      -0.834000       15.9994           0
     43105 TIP3     6908     TIP3     H1       HT       0.417000       1.00800           0
     43106 TIP3     6908     TIP3     H2       HT       0.417000       1.00800           0
     43107 TIP3     6909     TIP3     OH2      OT      -0.834000       15.9994           0
     43108 TIP3     6909     TIP3     H1       HT       0.417000       1.00800           0
     43109 TIP3     6909     TIP3     H2       HT       0.417000       1.00800           0
     43110 TIP3     6910     TIP3     OH2      OT      -0.834000       15.9994           0
     43111 TIP3     6910     TIP3     H1       HT       0.417000       1.00800           0
     43112 TIP3     6910     TIP3     H2       HT       0.417000       1.00800           0
     43113 TIP3     6911     TIP3     OH2      OT      -0.834000       15.9994           0
     43114 TIP3     6911     TIP3     H1       HT       0.417000       1.00800           0
     43115 TIP3     6911     TIP3     H2       HT       0.417000       1.00800           0
     43116 TIP3     6912     TIP3     OH2      OT      -0.834000       15.9994           0
     43117 TIP3     6912     TIP3     H1       HT       0.417000       1.00800           0
     43118 TIP3     6912     TIP3     H2       HT       0.417000       1.00800           0
     43119 TIP3     6913     TIP3     OH2      OT      -0.834000       15.9994           0
     43120 TIP3     6913     TIP3     H1       HT       0.417000       1.00800           0
     43121 TIP3     6913     TIP3     H2       HT       0.417000       1.00800           0
     43122 TIP3     6914     TIP3     OH2      OT      -0.834000       15.9994           0
     43123 TIP3     6914     TIP3     H1       HT       0.417000       1.00800           0
     43124 TIP3     6914     TIP3     H2       HT       0.417000       1.00800           0
     43125 TIP3     6915     TIP3     OH2      OT      -0.834000       15.9994           0
     43126 TIP3     6915     TIP3     H1       HT       0.417000       1.00800           0
     43127 TIP3     6915     TIP3     H2       HT       0.417000       1.00800           0
     43128 TIP3     6916     TIP3     OH2      OT      -0.834000       15.9994           0
     43129 TIP3     6916     TIP3     H1       HT       0.417000       1.00800           0
     43130 TIP3     6916     TIP3     H2       HT       0.417000       1.00800           0
     43131 TIP3     6917     TIP3     OH2      OT      -0.834000       15.9994           0
     43132 TIP3     6917     TIP3     H1       HT       0.417000       1.00800           0
     43133 TIP3     6917     TIP3     H2       HT       0.417000       1.00800           0
     43134 TIP3     6918     TIP3     OH2      OT      -0.834000       15.9994           0
     43135 TIP3     6918     TIP3     H1       HT       0.417000       1.00800           0
     43136 TIP3     6918     TIP3     H2       HT       0.417000       1.00800           0
     43137 TIP3     6919     TIP3     OH2      OT      -0.834000       15.9994           0
     43138 TIP3     6919     TIP3     H1       HT       0.417000       1.00800           0
     43139 TIP3     6919     TIP3     H2       HT       0.417000       1.00800           0
     43140 TIP3     6920     TIP3     OH2      OT      -0.834000       15.9994           0
     43141 TIP3     6920     TIP3     H1       HT       0.417000       1.00800           0
     43142 TIP3     6920     TIP3     H2       HT       0.417000       1.00800           0
     43143 TIP3     6921     TIP3     OH2      OT      -0.834000       15.9994           0
     43144 TIP3     6921     TIP3     H1       HT       0.417000       1.00800           0
     43145 TIP3     6921     TIP3     H2       HT       0.417000       1.00800           0
     43146 TIP3     6922     TIP3     OH2      OT      -0.834000       15.9994           0
     43147 TIP3     6922     TIP3     H1       HT       0.417000       1.00800           0
     43148 TIP3     6922     TIP3     H2       HT       0.417000       1.00800           0
     43149 TIP3     6923     TIP3     OH2      OT      -0.834000       15.9994           0
     43150 TIP3     6923     TIP3     H1       HT       0.417000       1.00800           0
     43151 TIP3     6923     TIP3     H2       HT       0.417000       1.00800           0
     43152 TIP3     6924     TIP3     OH2      OT      -0.834000       15.9994           0
     43153 TIP3     6924     TIP3     H1       HT       0.417000       1.00800           0
     43154 TIP3     6924     TIP3     H2       HT       0.417000       1.00800           0
     43155 TIP3     6925     TIP3     OH2      OT      -0.834000       15.9994           0
     43156 TIP3     6925     TIP3     H1       HT       0.417000       1.00800           0
     43157 TIP3     6925     TIP3     H2       HT       0.417000       1.00800           0
     43158 TIP3     6926     TIP3     OH2      OT      -0.834000       15.9994           0
     43159 TIP3     6926     TIP3     H1       HT       0.417000       1.00800           0
     43160 TIP3     6926     TIP3     H2       HT       0.417000       1.00800           0
     43161 TIP3     6927     TIP3     OH2      OT      -0.834000       15.9994           0
     43162 TIP3     6927     TIP3     H1       HT       0.417000       1.00800           0
     43163 TIP3     6927     TIP3     H2       HT       0.417000       1.00800           0
     43164 TIP3     6928     TIP3     OH2      OT      -0.834000       15.9994           0
     43165 TIP3     6928     TIP3     H1       HT       0.417000       1.00800           0
     43166 TIP3     6928     TIP3     H2       HT       0.417000       1.00800           0
     43167 TIP3     6929     TIP3     OH2      OT      -0.834000       15.9994           0
     43168 TIP3     6929     TIP3     H1       HT       0.417000       1.00800           0
     43169 TIP3     6929     TIP3     H2       HT       0.417000       1.00800           0
     43170 TIP3     6930     TIP3     OH2      OT      -0.834000       15.9994           0
     43171 TIP3     6930     TIP3     H1       HT       0.417000       1.00800           0
     43172 TIP3     6930     TIP3     H2       HT       0.417000       1.00800           0
     43173 TIP3     6931     TIP3     OH2      OT      -0.834000       15.9994           0
     43174 TIP3     6931     TIP3     H1       HT       0.417000       1.00800           0
     43175 TIP3     6931     TIP3     H2       HT       0.417000       1.00800           0
     43176 TIP3     6932     TIP3     OH2      OT      -0.834000       15.9994           0
     43177 TIP3     6932     TIP3     H1       HT       0.417000       1.00800           0
     43178 TIP3     6932     TIP3     H2       HT       0.417000       1.00800           0
     43179 TIP3     6933     TIP3     OH2      OT      -0.834000       15.9994           0
     43180 TIP3     6933     TIP3     H1       HT       0.417000       1.00800           0
     43181 TIP3     6933     TIP3     H2       HT       0.417000       1.00800           0
     43182 TIP3     6934     TIP3     OH2      OT      -0.834000       15.9994           0
     43183 TIP3     6934     TIP3     H1       HT       0.417000       1.00800           0
     43184 TIP3     6934     TIP3     H2       HT       0.417000       1.00800           0
     43185 TIP3     6935     TIP3     OH2      OT      -0.834000       15.9994           0
     43186 TIP3     6935     TIP3     H1       HT       0.417000       1.00800           0
     43187 TIP3     6935     TIP3     H2       HT       0.417000       1.00800           0
     43188 TIP3     6936     TIP3     OH2      OT      -0.834000       15.9994           0
     43189 TIP3     6936     TIP3     H1       HT       0.417000       1.00800           0
     43190 TIP3     6936     TIP3     H2       HT       0.417000       1.00800           0
     43191 TIP3     6937     TIP3     OH2      OT      -0.834000       15.9994           0
     43192 TIP3     6937     TIP3     H1       HT       0.417000       1.00800           0
     43193 TIP3     6937     TIP3     H2       HT       0.417000       1.00800           0
     43194 TIP3     6938     TIP3     OH2      OT      -0.834000       15.9994           0
     43195 TIP3     6938     TIP3     H1       HT       0.417000       1.00800           0
     43196 TIP3     6938     TIP3     H2       HT       0.417000       1.00800           0
     43197 TIP3     6939     TIP3     OH2      OT      -0.834000       15.9994           0
     43198 TIP3     6939     TIP3     H1       HT       0.417000       1.00800           0
     43199 TIP3     6939     TIP3     H2       HT       0.417000       1.00800           0
     43200 TIP3     6940     TIP3     OH2      OT      -0.834000       15.9994           0
     43201 TIP3     6940     TIP3     H1       HT       0.417000       1.00800           0
     43202 TIP3     6940     TIP3     H2       HT       0.417000       1.00800           0
     43203 TIP3     6941     TIP3     OH2      OT      -0.834000       15.9994           0
     43204 TIP3     6941     TIP3     H1       HT       0.417000       1.00800           0
     43205 TIP3     6941     TIP3     H2       HT       0.417000       1.00800           0
     43206 TIP3     6942     TIP3     OH2      OT      -0.834000       15.9994           0
     43207 TIP3     6942     TIP3     H1       HT       0.417000       1.00800           0
     43208 TIP3     6942     TIP3     H2       HT       0.417000       1.00800           0
     43209 TIP3     6943     TIP3     OH2      OT      -0.834000       15.9994           0
     43210 TIP3     6943     TIP3     H1       HT       0.417000       1.00800           0
     43211 TIP3     6943     TIP3     H2       HT       0.417000       1.00800           0
     43212 TIP3     6944     TIP3     OH2      OT      -0.834000       15.9994           0
     43213 TIP3     6944     TIP3     H1       HT       0.417000       1.00800           0
     43214 TIP3     6944     TIP3     H2       HT       0.417000       1.00800           0
     43215 TIP3     6945     TIP3     OH2      OT      -0.834000       15.9994           0
     43216 TIP3     6945     TIP3     H1       HT       0.417000       1.00800           0
     43217 TIP3     6945     TIP3     H2       HT       0.417000       1.00800           0
     43218 TIP3     6946     TIP3     OH2      OT      -0.834000       15.9994           0
     43219 TIP3     6946     TIP3     H1       HT       0.417000       1.00800           0
     43220 TIP3     6946     TIP3     H2       HT       0.417000       1.00800           0
     43221 TIP3     6947     TIP3     OH2      OT      -0.834000       15.9994           0
     43222 TIP3     6947     TIP3     H1       HT       0.417000       1.00800           0
     43223 TIP3     6947     TIP3     H2       HT       0.417000       1.00800           0
     43224 TIP3     6948     TIP3     OH2      OT      -0.834000       15.9994           0
     43225 TIP3     6948     TIP3     H1       HT       0.417000       1.00800           0
     43226 TIP3     6948     TIP3     H2       HT       0.417000       1.00800           0
     43227 TIP3     6949     TIP3     OH2      OT      -0.834000       15.9994           0
     43228 TIP3     6949     TIP3     H1       HT       0.417000       1.00800           0
     43229 TIP3     6949     TIP3     H2       HT       0.417000       1.00800           0
     43230 TIP3     6950     TIP3     OH2      OT      -0.834000       15.9994           0
     43231 TIP3     6950     TIP3     H1       HT       0.417000       1.00800           0
     43232 TIP3     6950     TIP3     H2       HT       0.417000       1.00800           0
     43233 TIP3     6951     TIP3     OH2      OT      -0.834000       15.9994           0
     43234 TIP3     6951     TIP3     H1       HT       0.417000       1.00800           0
     43235 TIP3     6951     TIP3     H2       HT       0.417000       1.00800           0
     43236 TIP3     6952     TIP3     OH2      OT      -0.834000       15.9994           0
     43237 TIP3     6952     TIP3     H1       HT       0.417000       1.00800           0
     43238 TIP3     6952     TIP3     H2       HT       0.417000       1.00800           0
     43239 TIP3     6953     TIP3     OH2      OT      -0.834000       15.9994           0
     43240 TIP3     6953     TIP3     H1       HT       0.417000       1.00800           0
     43241 TIP3     6953     TIP3     H2       HT       0.417000       1.00800           0
     43242 TIP3     6954     TIP3     OH2      OT      -0.834000       15.9994           0
     43243 TIP3     6954     TIP3     H1       HT       0.417000       1.00800           0
     43244 TIP3     6954     TIP3     H2       HT       0.417000       1.00800           0
     43245 TIP3     6955     TIP3     OH2      OT      -0.834000       15.9994           0
     43246 TIP3     6955     TIP3     H1       HT       0.417000       1.00800           0
     43247 TIP3     6955     TIP3     H2       HT       0.417000       1.00800           0
     43248 TIP3     6956     TIP3     OH2      OT      -0.834000       15.9994           0
     43249 TIP3     6956     TIP3     H1       HT       0.417000       1.00800           0
     43250 TIP3     6956     TIP3     H2       HT       0.417000       1.00800           0
     43251 TIP3     6957     TIP3     OH2      OT      -0.834000       15.9994           0
     43252 TIP3     6957     TIP3     H1       HT       0.417000       1.00800           0
     43253 TIP3     6957     TIP3     H2       HT       0.417000       1.00800           0
     43254 TIP3     6958     TIP3     OH2      OT      -0.834000       15.9994           0
     43255 TIP3     6958     TIP3     H1       HT       0.417000       1.00800           0
     43256 TIP3     6958     TIP3     H2       HT       0.417000       1.00800           0
     43257 TIP3     6959     TIP3     OH2      OT      -0.834000       15.9994           0
     43258 TIP3     6959     TIP3     H1       HT       0.417000       1.00800           0
     43259 TIP3     6959     TIP3     H2       HT       0.417000       1.00800           0
     43260 TIP3     6960     TIP3     OH2      OT      -0.834000       15.9994           0
     43261 TIP3     6960     TIP3     H1       HT       0.417000       1.00800           0
     43262 TIP3     6960     TIP3     H2       HT       0.417000       1.00800           0
     43263 TIP3     6961     TIP3     OH2      OT      -0.834000       15.9994           0
     43264 TIP3     6961     TIP3     H1       HT       0.417000       1.00800           0
     43265 TIP3     6961     TIP3     H2       HT       0.417000       1.00800           0
     43266 TIP3     6962     TIP3     OH2      OT      -0.834000       15.9994           0
     43267 TIP3     6962     TIP3     H1       HT       0.417000       1.00800           0
     43268 TIP3     6962     TIP3     H2       HT       0.417000       1.00800           0
     43269 TIP3     6963     TIP3     OH2      OT      -0.834000       15.9994           0
     43270 TIP3     6963     TIP3     H1       HT       0.417000       1.00800           0
     43271 TIP3     6963     TIP3     H2       HT       0.417000       1.00800           0
     43272 TIP3     6964     TIP3     OH2      OT      -0.834000       15.9994           0
     43273 TIP3     6964     TIP3     H1       HT       0.417000       1.00800           0
     43274 TIP3     6964     TIP3     H2       HT       0.417000       1.00800           0
     43275 TIP3     6965     TIP3     OH2      OT      -0.834000       15.9994           0
     43276 TIP3     6965     TIP3     H1       HT       0.417000       1.00800           0
     43277 TIP3     6965     TIP3     H2       HT       0.417000       1.00800           0
     43278 TIP3     6966     TIP3     OH2      OT      -0.834000       15.9994           0
     43279 TIP3     6966     TIP3     H1       HT       0.417000       1.00800           0
     43280 TIP3     6966     TIP3     H2       HT       0.417000       1.00800           0
     43281 TIP3     6967     TIP3     OH2      OT      -0.834000       15.9994           0
     43282 TIP3     6967     TIP3     H1       HT       0.417000       1.00800           0
     43283 TIP3     6967     TIP3     H2       HT       0.417000       1.00800           0
     43284 TIP3     6968     TIP3     OH2      OT      -0.834000       15.9994           0
     43285 TIP3     6968     TIP3     H1       HT       0.417000       1.00800           0
     43286 TIP3     6968     TIP3     H2       HT       0.417000       1.00800           0
     43287 TIP3     6969     TIP3     OH2      OT      -0.834000       15.9994           0
     43288 TIP3     6969     TIP3     H1       HT       0.417000       1.00800           0
     43289 TIP3     6969     TIP3     H2       HT       0.417000       1.00800           0
     43290 TIP3     6970     TIP3     OH2      OT      -0.834000       15.9994           0
     43291 TIP3     6970     TIP3     H1       HT       0.417000       1.00800           0
     43292 TIP3     6970     TIP3     H2       HT       0.417000       1.00800           0
     43293 TIP3     6971     TIP3     OH2      OT      -0.834000       15.9994           0
     43294 TIP3     6971     TIP3     H1       HT       0.417000       1.00800           0
     43295 TIP3     6971     TIP3     H2       HT       0.417000       1.00800           0
     43296 TIP3     6972     TIP3     OH2      OT      -0.834000       15.9994           0
     43297 TIP3     6972     TIP3     H1       HT       0.417000       1.00800           0
     43298 TIP3     6972     TIP3     H2       HT       0.417000       1.00800           0
     43299 TIP3     6973     TIP3     OH2      OT      -0.834000       15.9994           0
     43300 TIP3     6973     TIP3     H1       HT       0.417000       1.00800           0
     43301 TIP3     6973     TIP3     H2       HT       0.417000       1.00800           0
     43302 TIP3     6974     TIP3     OH2      OT      -0.834000       15.9994           0
     43303 TIP3     6974     TIP3     H1       HT       0.417000       1.00800           0
     43304 TIP3     6974     TIP3     H2       HT       0.417000       1.00800           0
     43305 TIP3     6975     TIP3     OH2      OT      -0.834000       15.9994           0
     43306 TIP3     6975     TIP3     H1       HT       0.417000       1.00800           0
     43307 TIP3     6975     TIP3     H2       HT       0.417000       1.00800           0
     43308 TIP3     6976     TIP3     OH2      OT      -0.834000       15.9994           0
     43309 TIP3     6976     TIP3     H1       HT       0.417000       1.00800           0
     43310 TIP3     6976     TIP3     H2       HT       0.417000       1.00800           0
     43311 TIP3     6977     TIP3     OH2      OT      -0.834000       15.9994           0
     43312 TIP3     6977     TIP3     H1       HT       0.417000       1.00800           0
     43313 TIP3     6977     TIP3     H2       HT       0.417000       1.00800           0
     43314 TIP3     6978     TIP3     OH2      OT      -0.834000       15.9994           0
     43315 TIP3     6978     TIP3     H1       HT       0.417000       1.00800           0
     43316 TIP3     6978     TIP3     H2       HT       0.417000       1.00800           0
     43317 TIP3     6979     TIP3     OH2      OT      -0.834000       15.9994           0
     43318 TIP3     6979     TIP3     H1       HT       0.417000       1.00800           0
     43319 TIP3     6979     TIP3     H2       HT       0.417000       1.00800           0
     43320 TIP3     6980     TIP3     OH2      OT      -0.834000       15.9994           0
     43321 TIP3     6980     TIP3     H1       HT       0.417000       1.00800           0
     43322 TIP3     6980     TIP3     H2       HT       0.417000       1.00800           0
     43323 TIP3     6981     TIP3     OH2      OT      -0.834000       15.9994           0
     43324 TIP3     6981     TIP3     H1       HT       0.417000       1.00800           0
     43325 TIP3     6981     TIP3     H2       HT       0.417000       1.00800           0
     43326 TIP3     6982     TIP3     OH2      OT      -0.834000       15.9994           0
     43327 TIP3     6982     TIP3     H1       HT       0.417000       1.00800           0
     43328 TIP3     6982     TIP3     H2       HT       0.417000       1.00800           0
     43329 TIP3     6983     TIP3     OH2      OT      -0.834000       15.9994           0
     43330 TIP3     6983     TIP3     H1       HT       0.417000       1.00800           0
     43331 TIP3     6983     TIP3     H2       HT       0.417000       1.00800           0
     43332 TIP3     6984     TIP3     OH2      OT      -0.834000       15.9994           0
     43333 TIP3     6984     TIP3     H1       HT       0.417000       1.00800           0
     43334 TIP3     6984     TIP3     H2       HT       0.417000       1.00800           0
     43335 TIP3     6985     TIP3     OH2      OT      -0.834000       15.9994           0
     43336 TIP3     6985     TIP3     H1       HT       0.417000       1.00800           0
     43337 TIP3     6985     TIP3     H2       HT       0.417000       1.00800           0
     43338 TIP3     6986     TIP3     OH2      OT      -0.834000       15.9994           0
     43339 TIP3     6986     TIP3     H1       HT       0.417000       1.00800           0
     43340 TIP3     6986     TIP3     H2       HT       0.417000       1.00800           0
     43341 TIP3     6987     TIP3     OH2      OT      -0.834000       15.9994           0
     43342 TIP3     6987     TIP3     H1       HT       0.417000       1.00800           0
     43343 TIP3     6987     TIP3     H2       HT       0.417000       1.00800           0
     43344 TIP3     6988     TIP3     OH2      OT      -0.834000       15.9994           0
     43345 TIP3     6988     TIP3     H1       HT       0.417000       1.00800           0
     43346 TIP3     6988     TIP3     H2       HT       0.417000       1.00800           0
     43347 TIP3     6989     TIP3     OH2      OT      -0.834000       15.9994           0
     43348 TIP3     6989     TIP3     H1       HT       0.417000       1.00800           0
     43349 TIP3     6989     TIP3     H2       HT       0.417000       1.00800           0
     43350 TIP3     6990     TIP3     OH2      OT      -0.834000       15.9994           0
     43351 TIP3     6990     TIP3     H1       HT       0.417000       1.00800           0
     43352 TIP3     6990     TIP3     H2       HT       0.417000       1.00800           0
     43353 TIP3     6991     TIP3     OH2      OT      -0.834000       15.9994           0
     43354 TIP3     6991     TIP3     H1       HT       0.417000       1.00800           0
     43355 TIP3     6991     TIP3     H2       HT       0.417000       1.00800           0
     43356 TIP3     6992     TIP3     OH2      OT      -0.834000       15.9994           0
     43357 TIP3     6992     TIP3     H1       HT       0.417000       1.00800           0
     43358 TIP3     6992     TIP3     H2       HT       0.417000       1.00800           0
     43359 TIP3     6993     TIP3     OH2      OT      -0.834000       15.9994           0
     43360 TIP3     6993     TIP3     H1       HT       0.417000       1.00800           0
     43361 TIP3     6993     TIP3     H2       HT       0.417000       1.00800           0
     43362 TIP3     6994     TIP3     OH2      OT      -0.834000       15.9994           0
     43363 TIP3     6994     TIP3     H1       HT       0.417000       1.00800           0
     43364 TIP3     6994     TIP3     H2       HT       0.417000       1.00800           0
     43365 TIP3     6995     TIP3     OH2      OT      -0.834000       15.9994           0
     43366 TIP3     6995     TIP3     H1       HT       0.417000       1.00800           0
     43367 TIP3     6995     TIP3     H2       HT       0.417000       1.00800           0
     43368 TIP3     6996     TIP3     OH2      OT      -0.834000       15.9994           0
     43369 TIP3     6996     TIP3     H1       HT       0.417000       1.00800           0
     43370 TIP3     6996     TIP3     H2       HT       0.417000       1.00800           0
     43371 TIP3     6997     TIP3     OH2      OT      -0.834000       15.9994           0
     43372 TIP3     6997     TIP3     H1       HT       0.417000       1.00800           0
     43373 TIP3     6997     TIP3     H2       HT       0.417000       1.00800           0
     43374 TIP3     6998     TIP3     OH2      OT      -0.834000       15.9994           0
     43375 TIP3     6998     TIP3     H1       HT       0.417000       1.00800           0
     43376 TIP3     6998     TIP3     H2       HT       0.417000       1.00800           0
     43377 TIP3     6999     TIP3     OH2      OT      -0.834000       15.9994           0
     43378 TIP3     6999     TIP3     H1       HT       0.417000       1.00800           0
     43379 TIP3     6999     TIP3     H2       HT       0.417000       1.00800           0
     43380 TIP3     7000     TIP3     OH2      OT      -0.834000       15.9994           0
     43381 TIP3     7000     TIP3     H1       HT       0.417000       1.00800           0
     43382 TIP3     7000     TIP3     H2       HT       0.417000       1.00800           0
     43383 TIP3     7001     TIP3     OH2      OT      -0.834000       15.9994           0
     43384 TIP3     7001     TIP3     H1       HT       0.417000       1.00800           0
     43385 TIP3     7001     TIP3     H2       HT       0.417000       1.00800           0
     43386 TIP3     7002     TIP3     OH2      OT      -0.834000       15.9994           0
     43387 TIP3     7002     TIP3     H1       HT       0.417000       1.00800           0
     43388 TIP3     7002     TIP3     H2       HT       0.417000       1.00800           0
     43389 TIP3     7003     TIP3     OH2      OT      -0.834000       15.9994           0
     43390 TIP3     7003     TIP3     H1       HT       0.417000       1.00800           0
     43391 TIP3     7003     TIP3     H2       HT       0.417000       1.00800           0
     43392 TIP3     7004     TIP3     OH2      OT      -0.834000       15.9994           0
     43393 TIP3     7004     TIP3     H1       HT       0.417000       1.00800           0
     43394 TIP3     7004     TIP3     H2       HT       0.417000       1.00800           0
     43395 TIP3     7005     TIP3     OH2      OT      -0.834000       15.9994           0
     43396 TIP3     7005     TIP3     H1       HT       0.417000       1.00800           0
     43397 TIP3     7005     TIP3     H2       HT       0.417000       1.00800           0
     43398 TIP3     7006     TIP3     OH2      OT      -0.834000       15.9994           0
     43399 TIP3     7006     TIP3     H1       HT       0.417000       1.00800           0
     43400 TIP3     7006     TIP3     H2       HT       0.417000       1.00800           0
     43401 TIP3     7007     TIP3     OH2      OT      -0.834000       15.9994           0
     43402 TIP3     7007     TIP3     H1       HT       0.417000       1.00800           0
     43403 TIP3     7007     TIP3     H2       HT       0.417000       1.00800           0
     43404 TIP3     7008     TIP3     OH2      OT      -0.834000       15.9994           0
     43405 TIP3     7008     TIP3     H1       HT       0.417000       1.00800           0
     43406 TIP3     7008     TIP3     H2       HT       0.417000       1.00800           0
     43407 TIP3     7009     TIP3     OH2      OT      -0.834000       15.9994           0
     43408 TIP3     7009     TIP3     H1       HT       0.417000       1.00800           0
     43409 TIP3     7009     TIP3     H2       HT       0.417000       1.00800           0
     43410 TIP3     7010     TIP3     OH2      OT      -0.834000       15.9994           0
     43411 TIP3     7010     TIP3     H1       HT       0.417000       1.00800           0
     43412 TIP3     7010     TIP3     H2       HT       0.417000       1.00800           0
     43413 TIP3     7011     TIP3     OH2      OT      -0.834000       15.9994           0
     43414 TIP3     7011     TIP3     H1       HT       0.417000       1.00800           0
     43415 TIP3     7011     TIP3     H2       HT       0.417000       1.00800           0
     43416 TIP3     7012     TIP3     OH2      OT      -0.834000       15.9994           0
     43417 TIP3     7012     TIP3     H1       HT       0.417000       1.00800           0
     43418 TIP3     7012     TIP3     H2       HT       0.417000       1.00800           0
     43419 TIP3     7013     TIP3     OH2      OT      -0.834000       15.9994           0
     43420 TIP3     7013     TIP3     H1       HT       0.417000       1.00800           0
     43421 TIP3     7013     TIP3     H2       HT       0.417000       1.00800           0
     43422 TIP3     7014     TIP3     OH2      OT      -0.834000       15.9994           0
     43423 TIP3     7014     TIP3     H1       HT       0.417000       1.00800           0
     43424 TIP3     7014     TIP3     H2       HT       0.417000       1.00800           0
     43425 TIP3     7015     TIP3     OH2      OT      -0.834000       15.9994           0
     43426 TIP3     7015     TIP3     H1       HT       0.417000       1.00800           0
     43427 TIP3     7015     TIP3     H2       HT       0.417000       1.00800           0
     43428 TIP3     7016     TIP3     OH2      OT      -0.834000       15.9994           0
     43429 TIP3     7016     TIP3     H1       HT       0.417000       1.00800           0
     43430 TIP3     7016     TIP3     H2       HT       0.417000       1.00800           0
     43431 TIP3     7017     TIP3     OH2      OT      -0.834000       15.9994           0
     43432 TIP3     7017     TIP3     H1       HT       0.417000       1.00800           0
     43433 TIP3     7017     TIP3     H2       HT       0.417000       1.00800           0
     43434 TIP3     7018     TIP3     OH2      OT      -0.834000       15.9994           0
     43435 TIP3     7018     TIP3     H1       HT       0.417000       1.00800           0
     43436 TIP3     7018     TIP3     H2       HT       0.417000       1.00800           0
     43437 TIP3     7019     TIP3     OH2      OT      -0.834000       15.9994           0
     43438 TIP3     7019     TIP3     H1       HT       0.417000       1.00800           0
     43439 TIP3     7019     TIP3     H2       HT       0.417000       1.00800           0
     43440 TIP3     7020     TIP3     OH2      OT      -0.834000       15.9994           0
     43441 TIP3     7020     TIP3     H1       HT       0.417000       1.00800           0
     43442 TIP3     7020     TIP3     H2       HT       0.417000       1.00800           0
     43443 TIP3     7021     TIP3     OH2      OT      -0.834000       15.9994           0
     43444 TIP3     7021     TIP3     H1       HT       0.417000       1.00800           0
     43445 TIP3     7021     TIP3     H2       HT       0.417000       1.00800           0
     43446 TIP3     7022     TIP3     OH2      OT      -0.834000       15.9994           0
     43447 TIP3     7022     TIP3     H1       HT       0.417000       1.00800           0
     43448 TIP3     7022     TIP3     H2       HT       0.417000       1.00800           0
     43449 TIP3     7023     TIP3     OH2      OT      -0.834000       15.9994           0
     43450 TIP3     7023     TIP3     H1       HT       0.417000       1.00800           0
     43451 TIP3     7023     TIP3     H2       HT       0.417000       1.00800           0
     43452 TIP3     7024     TIP3     OH2      OT      -0.834000       15.9994           0
     43453 TIP3     7024     TIP3     H1       HT       0.417000       1.00800           0
     43454 TIP3     7024     TIP3     H2       HT       0.417000       1.00800           0
     43455 TIP3     7025     TIP3     OH2      OT      -0.834000       15.9994           0
     43456 TIP3     7025     TIP3     H1       HT       0.417000       1.00800           0
     43457 TIP3     7025     TIP3     H2       HT       0.417000       1.00800           0
     43458 TIP3     7026     TIP3     OH2      OT      -0.834000       15.9994           0
     43459 TIP3     7026     TIP3     H1       HT       0.417000       1.00800           0
     43460 TIP3     7026     TIP3     H2       HT       0.417000       1.00800           0
     43461 TIP3     7027     TIP3     OH2      OT      -0.834000       15.9994           0
     43462 TIP3     7027     TIP3     H1       HT       0.417000       1.00800           0
     43463 TIP3     7027     TIP3     H2       HT       0.417000       1.00800           0
     43464 TIP3     7028     TIP3     OH2      OT      -0.834000       15.9994           0
     43465 TIP3     7028     TIP3     H1       HT       0.417000       1.00800           0
     43466 TIP3     7028     TIP3     H2       HT       0.417000       1.00800           0
     43467 TIP3     7029     TIP3     OH2      OT      -0.834000       15.9994           0
     43468 TIP3     7029     TIP3     H1       HT       0.417000       1.00800           0
     43469 TIP3     7029     TIP3     H2       HT       0.417000       1.00800           0
     43470 TIP3     7030     TIP3     OH2      OT      -0.834000       15.9994           0
     43471 TIP3     7030     TIP3     H1       HT       0.417000       1.00800           0
     43472 TIP3     7030     TIP3     H2       HT       0.417000       1.00800           0
     43473 TIP3     7031     TIP3     OH2      OT      -0.834000       15.9994           0
     43474 TIP3     7031     TIP3     H1       HT       0.417000       1.00800           0
     43475 TIP3     7031     TIP3     H2       HT       0.417000       1.00800           0
     43476 TIP3     7032     TIP3     OH2      OT      -0.834000       15.9994           0
     43477 TIP3     7032     TIP3     H1       HT       0.417000       1.00800           0
     43478 TIP3     7032     TIP3     H2       HT       0.417000       1.00800           0
     43479 TIP3     7033     TIP3     OH2      OT      -0.834000       15.9994           0
     43480 TIP3     7033     TIP3     H1       HT       0.417000       1.00800           0
     43481 TIP3     7033     TIP3     H2       HT       0.417000       1.00800           0
     43482 TIP3     7034     TIP3     OH2      OT      -0.834000       15.9994           0
     43483 TIP3     7034     TIP3     H1       HT       0.417000       1.00800           0
     43484 TIP3     7034     TIP3     H2       HT       0.417000       1.00800           0
     43485 TIP3     7035     TIP3     OH2      OT      -0.834000       15.9994           0
     43486 TIP3     7035     TIP3     H1       HT       0.417000       1.00800           0
     43487 TIP3     7035     TIP3     H2       HT       0.417000       1.00800           0
     43488 TIP3     7036     TIP3     OH2      OT      -0.834000       15.9994           0
     43489 TIP3     7036     TIP3     H1       HT       0.417000       1.00800           0
     43490 TIP3     7036     TIP3     H2       HT       0.417000       1.00800           0
     43491 TIP3     7037     TIP3     OH2      OT      -0.834000       15.9994           0
     43492 TIP3     7037     TIP3     H1       HT       0.417000       1.00800           0
     43493 TIP3     7037     TIP3     H2       HT       0.417000       1.00800           0
     43494 TIP3     7038     TIP3     OH2      OT      -0.834000       15.9994           0
     43495 TIP3     7038     TIP3     H1       HT       0.417000       1.00800           0
     43496 TIP3     7038     TIP3     H2       HT       0.417000       1.00800           0
     43497 TIP3     7039     TIP3     OH2      OT      -0.834000       15.9994           0
     43498 TIP3     7039     TIP3     H1       HT       0.417000       1.00800           0
     43499 TIP3     7039     TIP3     H2       HT       0.417000       1.00800           0
     43500 TIP3     7040     TIP3     OH2      OT      -0.834000       15.9994           0
     43501 TIP3     7040     TIP3     H1       HT       0.417000       1.00800           0
     43502 TIP3     7040     TIP3     H2       HT       0.417000       1.00800           0
     43503 TIP3     7041     TIP3     OH2      OT      -0.834000       15.9994           0
     43504 TIP3     7041     TIP3     H1       HT       0.417000       1.00800           0
     43505 TIP3     7041     TIP3     H2       HT       0.417000       1.00800           0
     43506 TIP3     7042     TIP3     OH2      OT      -0.834000       15.9994           0
     43507 TIP3     7042     TIP3     H1       HT       0.417000       1.00800           0
     43508 TIP3     7042     TIP3     H2       HT       0.417000       1.00800           0
     43509 TIP3     7043     TIP3     OH2      OT      -0.834000       15.9994           0
     43510 TIP3     7043     TIP3     H1       HT       0.417000       1.00800           0
     43511 TIP3     7043     TIP3     H2       HT       0.417000       1.00800           0
     43512 TIP3     7044     TIP3     OH2      OT      -0.834000       15.9994           0
     43513 TIP3     7044     TIP3     H1       HT       0.417000       1.00800           0
     43514 TIP3     7044     TIP3     H2       HT       0.417000       1.00800           0
     43515 TIP3     7045     TIP3     OH2      OT      -0.834000       15.9994           0
     43516 TIP3     7045     TIP3     H1       HT       0.417000       1.00800           0
     43517 TIP3     7045     TIP3     H2       HT       0.417000       1.00800           0
     43518 TIP3     7046     TIP3     OH2      OT      -0.834000       15.9994           0
     43519 TIP3     7046     TIP3     H1       HT       0.417000       1.00800           0
     43520 TIP3     7046     TIP3     H2       HT       0.417000       1.00800           0
     43521 TIP3     7047     TIP3     OH2      OT      -0.834000       15.9994           0
     43522 TIP3     7047     TIP3     H1       HT       0.417000       1.00800           0
     43523 TIP3     7047     TIP3     H2       HT       0.417000       1.00800           0
     43524 TIP3     7048     TIP3     OH2      OT      -0.834000       15.9994           0
     43525 TIP3     7048     TIP3     H1       HT       0.417000       1.00800           0
     43526 TIP3     7048     TIP3     H2       HT       0.417000       1.00800           0
     43527 TIP3     7049     TIP3     OH2      OT      -0.834000       15.9994           0
     43528 TIP3     7049     TIP3     H1       HT       0.417000       1.00800           0
     43529 TIP3     7049     TIP3     H2       HT       0.417000       1.00800           0
     43530 TIP3     7050     TIP3     OH2      OT      -0.834000       15.9994           0
     43531 TIP3     7050     TIP3     H1       HT       0.417000       1.00800           0
     43532 TIP3     7050     TIP3     H2       HT       0.417000       1.00800           0
     43533 TIP3     7051     TIP3     OH2      OT      -0.834000       15.9994           0
     43534 TIP3     7051     TIP3     H1       HT       0.417000       1.00800           0
     43535 TIP3     7051     TIP3     H2       HT       0.417000       1.00800           0
     43536 TIP3     7052     TIP3     OH2      OT      -0.834000       15.9994           0
     43537 TIP3     7052     TIP3     H1       HT       0.417000       1.00800           0
     43538 TIP3     7052     TIP3     H2       HT       0.417000       1.00800           0
     43539 TIP3     7053     TIP3     OH2      OT      -0.834000       15.9994           0
     43540 TIP3     7053     TIP3     H1       HT       0.417000       1.00800           0
     43541 TIP3     7053     TIP3     H2       HT       0.417000       1.00800           0
     43542 TIP3     7054     TIP3     OH2      OT      -0.834000       15.9994           0
     43543 TIP3     7054     TIP3     H1       HT       0.417000       1.00800           0
     43544 TIP3     7054     TIP3     H2       HT       0.417000       1.00800           0
     43545 TIP3     7055     TIP3     OH2      OT      -0.834000       15.9994           0
     43546 TIP3     7055     TIP3     H1       HT       0.417000       1.00800           0
     43547 TIP3     7055     TIP3     H2       HT       0.417000       1.00800           0
     43548 TIP3     7056     TIP3     OH2      OT      -0.834000       15.9994           0
     43549 TIP3     7056     TIP3     H1       HT       0.417000       1.00800           0
     43550 TIP3     7056     TIP3     H2       HT       0.417000       1.00800           0
     43551 TIP3     7057     TIP3     OH2      OT      -0.834000       15.9994           0
     43552 TIP3     7057     TIP3     H1       HT       0.417000       1.00800           0
     43553 TIP3     7057     TIP3     H2       HT       0.417000       1.00800           0
     43554 TIP3     7058     TIP3     OH2      OT      -0.834000       15.9994           0
     43555 TIP3     7058     TIP3     H1       HT       0.417000       1.00800           0
     43556 TIP3     7058     TIP3     H2       HT       0.417000       1.00800           0
     43557 TIP3     7059     TIP3     OH2      OT      -0.834000       15.9994           0
     43558 TIP3     7059     TIP3     H1       HT       0.417000       1.00800           0
     43559 TIP3     7059     TIP3     H2       HT       0.417000       1.00800           0
     43560 TIP3     7060     TIP3     OH2      OT      -0.834000       15.9994           0
     43561 TIP3     7060     TIP3     H1       HT       0.417000       1.00800           0
     43562 TIP3     7060     TIP3     H2       HT       0.417000       1.00800           0
     43563 TIP3     7061     TIP3     OH2      OT      -0.834000       15.9994           0
     43564 TIP3     7061     TIP3     H1       HT       0.417000       1.00800           0
     43565 TIP3     7061     TIP3     H2       HT       0.417000       1.00800           0
     43566 TIP3     7062     TIP3     OH2      OT      -0.834000       15.9994           0
     43567 TIP3     7062     TIP3     H1       HT       0.417000       1.00800           0
     43568 TIP3     7062     TIP3     H2       HT       0.417000       1.00800           0
     43569 TIP3     7063     TIP3     OH2      OT      -0.834000       15.9994           0
     43570 TIP3     7063     TIP3     H1       HT       0.417000       1.00800           0
     43571 TIP3     7063     TIP3     H2       HT       0.417000       1.00800           0
     43572 TIP3     7064     TIP3     OH2      OT      -0.834000       15.9994           0
     43573 TIP3     7064     TIP3     H1       HT       0.417000       1.00800           0
     43574 TIP3     7064     TIP3     H2       HT       0.417000       1.00800           0
     43575 TIP3     7065     TIP3     OH2      OT      -0.834000       15.9994           0
     43576 TIP3     7065     TIP3     H1       HT       0.417000       1.00800           0
     43577 TIP3     7065     TIP3     H2       HT       0.417000       1.00800           0
     43578 TIP3     7066     TIP3     OH2      OT      -0.834000       15.9994           0
     43579 TIP3     7066     TIP3     H1       HT       0.417000       1.00800           0
     43580 TIP3     7066     TIP3     H2       HT       0.417000       1.00800           0
     43581 TIP3     7067     TIP3     OH2      OT      -0.834000       15.9994           0
     43582 TIP3     7067     TIP3     H1       HT       0.417000       1.00800           0
     43583 TIP3     7067     TIP3     H2       HT       0.417000       1.00800           0
     43584 TIP3     7068     TIP3     OH2      OT      -0.834000       15.9994           0
     43585 TIP3     7068     TIP3     H1       HT       0.417000       1.00800           0
     43586 TIP3     7068     TIP3     H2       HT       0.417000       1.00800           0
     43587 TIP3     7069     TIP3     OH2      OT      -0.834000       15.9994           0
     43588 TIP3     7069     TIP3     H1       HT       0.417000       1.00800           0
     43589 TIP3     7069     TIP3     H2       HT       0.417000       1.00800           0
     43590 TIP3     7070     TIP3     OH2      OT      -0.834000       15.9994           0
     43591 TIP3     7070     TIP3     H1       HT       0.417000       1.00800           0
     43592 TIP3     7070     TIP3     H2       HT       0.417000       1.00800           0
     43593 TIP3     7071     TIP3     OH2      OT      -0.834000       15.9994           0
     43594 TIP3     7071     TIP3     H1       HT       0.417000       1.00800           0
     43595 TIP3     7071     TIP3     H2       HT       0.417000       1.00800           0
     43596 TIP3     7072     TIP3     OH2      OT      -0.834000       15.9994           0
     43597 TIP3     7072     TIP3     H1       HT       0.417000       1.00800           0
     43598 TIP3     7072     TIP3     H2       HT       0.417000       1.00800           0
     43599 TIP3     7073     TIP3     OH2      OT      -0.834000       15.9994           0
     43600 TIP3     7073     TIP3     H1       HT       0.417000       1.00800           0
     43601 TIP3     7073     TIP3     H2       HT       0.417000       1.00800           0
     43602 TIP3     7074     TIP3     OH2      OT      -0.834000       15.9994           0
     43603 TIP3     7074     TIP3     H1       HT       0.417000       1.00800           0
     43604 TIP3     7074     TIP3     H2       HT       0.417000       1.00800           0
     43605 TIP3     7075     TIP3     OH2      OT      -0.834000       15.9994           0
     43606 TIP3     7075     TIP3     H1       HT       0.417000       1.00800           0
     43607 TIP3     7075     TIP3     H2       HT       0.417000       1.00800           0
     43608 TIP3     7076     TIP3     OH2      OT      -0.834000       15.9994           0
     43609 TIP3     7076     TIP3     H1       HT       0.417000       1.00800           0
     43610 TIP3     7076     TIP3     H2       HT       0.417000       1.00800           0
     43611 TIP3     7077     TIP3     OH2      OT      -0.834000       15.9994           0
     43612 TIP3     7077     TIP3     H1       HT       0.417000       1.00800           0
     43613 TIP3     7077     TIP3     H2       HT       0.417000       1.00800           0
     43614 TIP3     7078     TIP3     OH2      OT      -0.834000       15.9994           0
     43615 TIP3     7078     TIP3     H1       HT       0.417000       1.00800           0
     43616 TIP3     7078     TIP3     H2       HT       0.417000       1.00800           0
     43617 TIP3     7079     TIP3     OH2      OT      -0.834000       15.9994           0
     43618 TIP3     7079     TIP3     H1       HT       0.417000       1.00800           0
     43619 TIP3     7079     TIP3     H2       HT       0.417000       1.00800           0
     43620 TIP3     7080     TIP3     OH2      OT      -0.834000       15.9994           0
     43621 TIP3     7080     TIP3     H1       HT       0.417000       1.00800           0
     43622 TIP3     7080     TIP3     H2       HT       0.417000       1.00800           0
     43623 TIP3     7081     TIP3     OH2      OT      -0.834000       15.9994           0
     43624 TIP3     7081     TIP3     H1       HT       0.417000       1.00800           0
     43625 TIP3     7081     TIP3     H2       HT       0.417000       1.00800           0
     43626 TIP3     7082     TIP3     OH2      OT      -0.834000       15.9994           0
     43627 TIP3     7082     TIP3     H1       HT       0.417000       1.00800           0
     43628 TIP3     7082     TIP3     H2       HT       0.417000       1.00800           0
     43629 TIP3     7083     TIP3     OH2      OT      -0.834000       15.9994           0
     43630 TIP3     7083     TIP3     H1       HT       0.417000       1.00800           0
     43631 TIP3     7083     TIP3     H2       HT       0.417000       1.00800           0
     43632 TIP3     7084     TIP3     OH2      OT      -0.834000       15.9994           0
     43633 TIP3     7084     TIP3     H1       HT       0.417000       1.00800           0
     43634 TIP3     7084     TIP3     H2       HT       0.417000       1.00800           0
     43635 TIP3     7085     TIP3     OH2      OT      -0.834000       15.9994           0
     43636 TIP3     7085     TIP3     H1       HT       0.417000       1.00800           0
     43637 TIP3     7085     TIP3     H2       HT       0.417000       1.00800           0
     43638 TIP3     7086     TIP3     OH2      OT      -0.834000       15.9994           0
     43639 TIP3     7086     TIP3     H1       HT       0.417000       1.00800           0
     43640 TIP3     7086     TIP3     H2       HT       0.417000       1.00800           0
     43641 TIP3     7087     TIP3     OH2      OT      -0.834000       15.9994           0
     43642 TIP3     7087     TIP3     H1       HT       0.417000       1.00800           0
     43643 TIP3     7087     TIP3     H2       HT       0.417000       1.00800           0
     43644 TIP3     7088     TIP3     OH2      OT      -0.834000       15.9994           0
     43645 TIP3     7088     TIP3     H1       HT       0.417000       1.00800           0
     43646 TIP3     7088     TIP3     H2       HT       0.417000       1.00800           0
     43647 TIP3     7089     TIP3     OH2      OT      -0.834000       15.9994           0
     43648 TIP3     7089     TIP3     H1       HT       0.417000       1.00800           0
     43649 TIP3     7089     TIP3     H2       HT       0.417000       1.00800           0
     43650 TIP3     7090     TIP3     OH2      OT      -0.834000       15.9994           0
     43651 TIP3     7090     TIP3     H1       HT       0.417000       1.00800           0
     43652 TIP3     7090     TIP3     H2       HT       0.417000       1.00800           0
     43653 TIP3     7091     TIP3     OH2      OT      -0.834000       15.9994           0
     43654 TIP3     7091     TIP3     H1       HT       0.417000       1.00800           0
     43655 TIP3     7091     TIP3     H2       HT       0.417000       1.00800           0
     43656 TIP3     7092     TIP3     OH2      OT      -0.834000       15.9994           0
     43657 TIP3     7092     TIP3     H1       HT       0.417000       1.00800           0
     43658 TIP3     7092     TIP3     H2       HT       0.417000       1.00800           0
     43659 TIP3     7093     TIP3     OH2      OT      -0.834000       15.9994           0
     43660 TIP3     7093     TIP3     H1       HT       0.417000       1.00800           0
     43661 TIP3     7093     TIP3     H2       HT       0.417000       1.00800           0
     43662 TIP3     7094     TIP3     OH2      OT      -0.834000       15.9994           0
     43663 TIP3     7094     TIP3     H1       HT       0.417000       1.00800           0
     43664 TIP3     7094     TIP3     H2       HT       0.417000       1.00800           0
     43665 TIP3     7095     TIP3     OH2      OT      -0.834000       15.9994           0
     43666 TIP3     7095     TIP3     H1       HT       0.417000       1.00800           0
     43667 TIP3     7095     TIP3     H2       HT       0.417000       1.00800           0
     43668 TIP3     7096     TIP3     OH2      OT      -0.834000       15.9994           0
     43669 TIP3     7096     TIP3     H1       HT       0.417000       1.00800           0
     43670 TIP3     7096     TIP3     H2       HT       0.417000       1.00800           0
     43671 TIP3     7097     TIP3     OH2      OT      -0.834000       15.9994           0
     43672 TIP3     7097     TIP3     H1       HT       0.417000       1.00800           0
     43673 TIP3     7097     TIP3     H2       HT       0.417000       1.00800           0
     43674 TIP3     7098     TIP3     OH2      OT      -0.834000       15.9994           0
     43675 TIP3     7098     TIP3     H1       HT       0.417000       1.00800           0
     43676 TIP3     7098     TIP3     H2       HT       0.417000       1.00800           0
     43677 TIP3     7099     TIP3     OH2      OT      -0.834000       15.9994           0
     43678 TIP3     7099     TIP3     H1       HT       0.417000       1.00800           0
     43679 TIP3     7099     TIP3     H2       HT       0.417000       1.00800           0
     43680 TIP3     7100     TIP3     OH2      OT      -0.834000       15.9994           0
     43681 TIP3     7100     TIP3     H1       HT       0.417000       1.00800           0
     43682 TIP3     7100     TIP3     H2       HT       0.417000       1.00800           0
     43683 TIP3     7101     TIP3     OH2      OT      -0.834000       15.9994           0
     43684 TIP3     7101     TIP3     H1       HT       0.417000       1.00800           0
     43685 TIP3     7101     TIP3     H2       HT       0.417000       1.00800           0
     43686 TIP3     7102     TIP3     OH2      OT      -0.834000       15.9994           0
     43687 TIP3     7102     TIP3     H1       HT       0.417000       1.00800           0
     43688 TIP3     7102     TIP3     H2       HT       0.417000       1.00800           0
     43689 TIP3     7103     TIP3     OH2      OT      -0.834000       15.9994           0
     43690 TIP3     7103     TIP3     H1       HT       0.417000       1.00800           0
     43691 TIP3     7103     TIP3     H2       HT       0.417000       1.00800           0
     43692 TIP3     7104     TIP3     OH2      OT      -0.834000       15.9994           0
     43693 TIP3     7104     TIP3     H1       HT       0.417000       1.00800           0
     43694 TIP3     7104     TIP3     H2       HT       0.417000       1.00800           0
     43695 TIP3     7105     TIP3     OH2      OT      -0.834000       15.9994           0
     43696 TIP3     7105     TIP3     H1       HT       0.417000       1.00800           0
     43697 TIP3     7105     TIP3     H2       HT       0.417000       1.00800           0
     43698 TIP3     7106     TIP3     OH2      OT      -0.834000       15.9994           0
     43699 TIP3     7106     TIP3     H1       HT       0.417000       1.00800           0
     43700 TIP3     7106     TIP3     H2       HT       0.417000       1.00800           0
     43701 TIP3     7107     TIP3     OH2      OT      -0.834000       15.9994           0
     43702 TIP3     7107     TIP3     H1       HT       0.417000       1.00800           0
     43703 TIP3     7107     TIP3     H2       HT       0.417000       1.00800           0
     43704 TIP3     7108     TIP3     OH2      OT      -0.834000       15.9994           0
     43705 TIP3     7108     TIP3     H1       HT       0.417000       1.00800           0
     43706 TIP3     7108     TIP3     H2       HT       0.417000       1.00800           0
     43707 TIP3     7109     TIP3     OH2      OT      -0.834000       15.9994           0
     43708 TIP3     7109     TIP3     H1       HT       0.417000       1.00800           0
     43709 TIP3     7109     TIP3     H2       HT       0.417000       1.00800           0
     43710 TIP3     7110     TIP3     OH2      OT      -0.834000       15.9994           0
     43711 TIP3     7110     TIP3     H1       HT       0.417000       1.00800           0
     43712 TIP3     7110     TIP3     H2       HT       0.417000       1.00800           0
     43713 TIP3     7111     TIP3     OH2      OT      -0.834000       15.9994           0
     43714 TIP3     7111     TIP3     H1       HT       0.417000       1.00800           0
     43715 TIP3     7111     TIP3     H2       HT       0.417000       1.00800           0
     43716 TIP3     7112     TIP3     OH2      OT      -0.834000       15.9994           0
     43717 TIP3     7112     TIP3     H1       HT       0.417000       1.00800           0
     43718 TIP3     7112     TIP3     H2       HT       0.417000       1.00800           0
     43719 TIP3     7113     TIP3     OH2      OT      -0.834000       15.9994           0
     43720 TIP3     7113     TIP3     H1       HT       0.417000       1.00800           0
     43721 TIP3     7113     TIP3     H2       HT       0.417000       1.00800           0
     43722 TIP3     7114     TIP3     OH2      OT      -0.834000       15.9994           0
     43723 TIP3     7114     TIP3     H1       HT       0.417000       1.00800           0
     43724 TIP3     7114     TIP3     H2       HT       0.417000       1.00800           0
     43725 TIP3     7115     TIP3     OH2      OT      -0.834000       15.9994           0
     43726 TIP3     7115     TIP3     H1       HT       0.417000       1.00800           0
     43727 TIP3     7115     TIP3     H2       HT       0.417000       1.00800           0
     43728 TIP3     7116     TIP3     OH2      OT      -0.834000       15.9994           0
     43729 TIP3     7116     TIP3     H1       HT       0.417000       1.00800           0
     43730 TIP3     7116     TIP3     H2       HT       0.417000       1.00800           0
     43731 TIP3     7117     TIP3     OH2      OT      -0.834000       15.9994           0
     43732 TIP3     7117     TIP3     H1       HT       0.417000       1.00800           0
     43733 TIP3     7117     TIP3     H2       HT       0.417000       1.00800           0
     43734 TIP3     7118     TIP3     OH2      OT      -0.834000       15.9994           0
     43735 TIP3     7118     TIP3     H1       HT       0.417000       1.00800           0
     43736 TIP3     7118     TIP3     H2       HT       0.417000       1.00800           0
     43737 TIP3     7119     TIP3     OH2      OT      -0.834000       15.9994           0
     43738 TIP3     7119     TIP3     H1       HT       0.417000       1.00800           0
     43739 TIP3     7119     TIP3     H2       HT       0.417000       1.00800           0
     43740 TIP3     7120     TIP3     OH2      OT      -0.834000       15.9994           0
     43741 TIP3     7120     TIP3     H1       HT       0.417000       1.00800           0
     43742 TIP3     7120     TIP3     H2       HT       0.417000       1.00800           0
     43743 TIP3     7121     TIP3     OH2      OT      -0.834000       15.9994           0
     43744 TIP3     7121     TIP3     H1       HT       0.417000       1.00800           0
     43745 TIP3     7121     TIP3     H2       HT       0.417000       1.00800           0
     43746 TIP3     7122     TIP3     OH2      OT      -0.834000       15.9994           0
     43747 TIP3     7122     TIP3     H1       HT       0.417000       1.00800           0
     43748 TIP3     7122     TIP3     H2       HT       0.417000       1.00800           0
     43749 TIP3     7123     TIP3     OH2      OT      -0.834000       15.9994           0
     43750 TIP3     7123     TIP3     H1       HT       0.417000       1.00800           0
     43751 TIP3     7123     TIP3     H2       HT       0.417000       1.00800           0
     43752 TIP3     7124     TIP3     OH2      OT      -0.834000       15.9994           0
     43753 TIP3     7124     TIP3     H1       HT       0.417000       1.00800           0
     43754 TIP3     7124     TIP3     H2       HT       0.417000       1.00800           0
     43755 TIP3     7125     TIP3     OH2      OT      -0.834000       15.9994           0
     43756 TIP3     7125     TIP3     H1       HT       0.417000       1.00800           0
     43757 TIP3     7125     TIP3     H2       HT       0.417000       1.00800           0
     43758 TIP3     7126     TIP3     OH2      OT      -0.834000       15.9994           0
     43759 TIP3     7126     TIP3     H1       HT       0.417000       1.00800           0
     43760 TIP3     7126     TIP3     H2       HT       0.417000       1.00800           0
     43761 TIP3     7127     TIP3     OH2      OT      -0.834000       15.9994           0
     43762 TIP3     7127     TIP3     H1       HT       0.417000       1.00800           0
     43763 TIP3     7127     TIP3     H2       HT       0.417000       1.00800           0
     43764 TIP3     7128     TIP3     OH2      OT      -0.834000       15.9994           0
     43765 TIP3     7128     TIP3     H1       HT       0.417000       1.00800           0
     43766 TIP3     7128     TIP3     H2       HT       0.417000       1.00800           0
     43767 TIP3     7129     TIP3     OH2      OT      -0.834000       15.9994           0
     43768 TIP3     7129     TIP3     H1       HT       0.417000       1.00800           0
     43769 TIP3     7129     TIP3     H2       HT       0.417000       1.00800           0
     43770 TIP3     7130     TIP3     OH2      OT      -0.834000       15.9994           0
     43771 TIP3     7130     TIP3     H1       HT       0.417000       1.00800           0
     43772 TIP3     7130     TIP3     H2       HT       0.417000       1.00800           0
     43773 TIP3     7131     TIP3     OH2      OT      -0.834000       15.9994           0
     43774 TIP3     7131     TIP3     H1       HT       0.417000       1.00800           0
     43775 TIP3     7131     TIP3     H2       HT       0.417000       1.00800           0
     43776 TIP3     7132     TIP3     OH2      OT      -0.834000       15.9994           0
     43777 TIP3     7132     TIP3     H1       HT       0.417000       1.00800           0
     43778 TIP3     7132     TIP3     H2       HT       0.417000       1.00800           0
     43779 TIP3     7133     TIP3     OH2      OT      -0.834000       15.9994           0
     43780 TIP3     7133     TIP3     H1       HT       0.417000       1.00800           0
     43781 TIP3     7133     TIP3     H2       HT       0.417000       1.00800           0
     43782 TIP3     7134     TIP3     OH2      OT      -0.834000       15.9994           0
     43783 TIP3     7134     TIP3     H1       HT       0.417000       1.00800           0
     43784 TIP3     7134     TIP3     H2       HT       0.417000       1.00800           0
     43785 TIP3     7135     TIP3     OH2      OT      -0.834000       15.9994           0
     43786 TIP3     7135     TIP3     H1       HT       0.417000       1.00800           0
     43787 TIP3     7135     TIP3     H2       HT       0.417000       1.00800           0
     43788 TIP3     7136     TIP3     OH2      OT      -0.834000       15.9994           0
     43789 TIP3     7136     TIP3     H1       HT       0.417000       1.00800           0
     43790 TIP3     7136     TIP3     H2       HT       0.417000       1.00800           0
     43791 TIP3     7137     TIP3     OH2      OT      -0.834000       15.9994           0
     43792 TIP3     7137     TIP3     H1       HT       0.417000       1.00800           0
     43793 TIP3     7137     TIP3     H2       HT       0.417000       1.00800           0
     43794 TIP3     7138     TIP3     OH2      OT      -0.834000       15.9994           0
     43795 TIP3     7138     TIP3     H1       HT       0.417000       1.00800           0
     43796 TIP3     7138     TIP3     H2       HT       0.417000       1.00800           0
     43797 TIP3     7139     TIP3     OH2      OT      -0.834000       15.9994           0
     43798 TIP3     7139     TIP3     H1       HT       0.417000       1.00800           0
     43799 TIP3     7139     TIP3     H2       HT       0.417000       1.00800           0
     43800 TIP3     7140     TIP3     OH2      OT      -0.834000       15.9994           0
     43801 TIP3     7140     TIP3     H1       HT       0.417000       1.00800           0
     43802 TIP3     7140     TIP3     H2       HT       0.417000       1.00800           0
     43803 TIP3     7141     TIP3     OH2      OT      -0.834000       15.9994           0
     43804 TIP3     7141     TIP3     H1       HT       0.417000       1.00800           0
     43805 TIP3     7141     TIP3     H2       HT       0.417000       1.00800           0
     43806 TIP3     7142     TIP3     OH2      OT      -0.834000       15.9994           0
     43807 TIP3     7142     TIP3     H1       HT       0.417000       1.00800           0
     43808 TIP3     7142     TIP3     H2       HT       0.417000       1.00800           0
     43809 TIP3     7143     TIP3     OH2      OT      -0.834000       15.9994           0
     43810 TIP3     7143     TIP3     H1       HT       0.417000       1.00800           0
     43811 TIP3     7143     TIP3     H2       HT       0.417000       1.00800           0
     43812 TIP3     7144     TIP3     OH2      OT      -0.834000       15.9994           0
     43813 TIP3     7144     TIP3     H1       HT       0.417000       1.00800           0
     43814 TIP3     7144     TIP3     H2       HT       0.417000       1.00800           0
     43815 TIP3     7145     TIP3     OH2      OT      -0.834000       15.9994           0
     43816 TIP3     7145     TIP3     H1       HT       0.417000       1.00800           0
     43817 TIP3     7145     TIP3     H2       HT       0.417000       1.00800           0
     43818 TIP3     7146     TIP3     OH2      OT      -0.834000       15.9994           0
     43819 TIP3     7146     TIP3     H1       HT       0.417000       1.00800           0
     43820 TIP3     7146     TIP3     H2       HT       0.417000       1.00800           0
     43821 TIP3     7147     TIP3     OH2      OT      -0.834000       15.9994           0
     43822 TIP3     7147     TIP3     H1       HT       0.417000       1.00800           0
     43823 TIP3     7147     TIP3     H2       HT       0.417000       1.00800           0
     43824 TIP3     7148     TIP3     OH2      OT      -0.834000       15.9994           0
     43825 TIP3     7148     TIP3     H1       HT       0.417000       1.00800           0
     43826 TIP3     7148     TIP3     H2       HT       0.417000       1.00800           0
     43827 TIP3     7149     TIP3     OH2      OT      -0.834000       15.9994           0
     43828 TIP3     7149     TIP3     H1       HT       0.417000       1.00800           0
     43829 TIP3     7149     TIP3     H2       HT       0.417000       1.00800           0
     43830 TIP3     7150     TIP3     OH2      OT      -0.834000       15.9994           0
     43831 TIP3     7150     TIP3     H1       HT       0.417000       1.00800           0
     43832 TIP3     7150     TIP3     H2       HT       0.417000       1.00800           0
     43833 TIP3     7151     TIP3     OH2      OT      -0.834000       15.9994           0
     43834 TIP3     7151     TIP3     H1       HT       0.417000       1.00800           0
     43835 TIP3     7151     TIP3     H2       HT       0.417000       1.00800           0
     43836 TIP3     7152     TIP3     OH2      OT      -0.834000       15.9994           0
     43837 TIP3     7152     TIP3     H1       HT       0.417000       1.00800           0
     43838 TIP3     7152     TIP3     H2       HT       0.417000       1.00800           0
     43839 TIP3     7153     TIP3     OH2      OT      -0.834000       15.9994           0
     43840 TIP3     7153     TIP3     H1       HT       0.417000       1.00800           0
     43841 TIP3     7153     TIP3     H2       HT       0.417000       1.00800           0
     43842 TIP3     7154     TIP3     OH2      OT      -0.834000       15.9994           0
     43843 TIP3     7154     TIP3     H1       HT       0.417000       1.00800           0
     43844 TIP3     7154     TIP3     H2       HT       0.417000       1.00800           0
     43845 TIP3     7155     TIP3     OH2      OT      -0.834000       15.9994           0
     43846 TIP3     7155     TIP3     H1       HT       0.417000       1.00800           0
     43847 TIP3     7155     TIP3     H2       HT       0.417000       1.00800           0
     43848 TIP3     7156     TIP3     OH2      OT      -0.834000       15.9994           0
     43849 TIP3     7156     TIP3     H1       HT       0.417000       1.00800           0
     43850 TIP3     7156     TIP3     H2       HT       0.417000       1.00800           0
     43851 TIP3     7157     TIP3     OH2      OT      -0.834000       15.9994           0
     43852 TIP3     7157     TIP3     H1       HT       0.417000       1.00800           0
     43853 TIP3     7157     TIP3     H2       HT       0.417000       1.00800           0
     43854 TIP3     7158     TIP3     OH2      OT      -0.834000       15.9994           0
     43855 TIP3     7158     TIP3     H1       HT       0.417000       1.00800           0
     43856 TIP3     7158     TIP3     H2       HT       0.417000       1.00800           0
     43857 TIP3     7159     TIP3     OH2      OT      -0.834000       15.9994           0
     43858 TIP3     7159     TIP3     H1       HT       0.417000       1.00800           0
     43859 TIP3     7159     TIP3     H2       HT       0.417000       1.00800           0
     43860 TIP3     7160     TIP3     OH2      OT      -0.834000       15.9994           0
     43861 TIP3     7160     TIP3     H1       HT       0.417000       1.00800           0
     43862 TIP3     7160     TIP3     H2       HT       0.417000       1.00800           0
     43863 TIP3     7161     TIP3     OH2      OT      -0.834000       15.9994           0
     43864 TIP3     7161     TIP3     H1       HT       0.417000       1.00800           0
     43865 TIP3     7161     TIP3     H2       HT       0.417000       1.00800           0
     43866 TIP3     7162     TIP3     OH2      OT      -0.834000       15.9994           0
     43867 TIP3     7162     TIP3     H1       HT       0.417000       1.00800           0
     43868 TIP3     7162     TIP3     H2       HT       0.417000       1.00800           0
     43869 TIP3     7163     TIP3     OH2      OT      -0.834000       15.9994           0
     43870 TIP3     7163     TIP3     H1       HT       0.417000       1.00800           0
     43871 TIP3     7163     TIP3     H2       HT       0.417000       1.00800           0
     43872 TIP3     7164     TIP3     OH2      OT      -0.834000       15.9994           0
     43873 TIP3     7164     TIP3     H1       HT       0.417000       1.00800           0
     43874 TIP3     7164     TIP3     H2       HT       0.417000       1.00800           0
     43875 TIP3     7165     TIP3     OH2      OT      -0.834000       15.9994           0
     43876 TIP3     7165     TIP3     H1       HT       0.417000       1.00800           0
     43877 TIP3     7165     TIP3     H2       HT       0.417000       1.00800           0
     43878 TIP3     7166     TIP3     OH2      OT      -0.834000       15.9994           0
     43879 TIP3     7166     TIP3     H1       HT       0.417000       1.00800           0
     43880 TIP3     7166     TIP3     H2       HT       0.417000       1.00800           0
     43881 TIP3     7167     TIP3     OH2      OT      -0.834000       15.9994           0
     43882 TIP3     7167     TIP3     H1       HT       0.417000       1.00800           0
     43883 TIP3     7167     TIP3     H2       HT       0.417000       1.00800           0
     43884 TIP3     7168     TIP3     OH2      OT      -0.834000       15.9994           0
     43885 TIP3     7168     TIP3     H1       HT       0.417000       1.00800           0
     43886 TIP3     7168     TIP3     H2       HT       0.417000       1.00800           0
     43887 TIP3     7169     TIP3     OH2      OT      -0.834000       15.9994           0
     43888 TIP3     7169     TIP3     H1       HT       0.417000       1.00800           0
     43889 TIP3     7169     TIP3     H2       HT       0.417000       1.00800           0
     43890 TIP3     7170     TIP3     OH2      OT      -0.834000       15.9994           0
     43891 TIP3     7170     TIP3     H1       HT       0.417000       1.00800           0
     43892 TIP3     7170     TIP3     H2       HT       0.417000       1.00800           0
     43893 TIP3     7171     TIP3     OH2      OT      -0.834000       15.9994           0
     43894 TIP3     7171     TIP3     H1       HT       0.417000       1.00800           0
     43895 TIP3     7171     TIP3     H2       HT       0.417000       1.00800           0
     43896 TIP3     7172     TIP3     OH2      OT      -0.834000       15.9994           0
     43897 TIP3     7172     TIP3     H1       HT       0.417000       1.00800           0
     43898 TIP3     7172     TIP3     H2       HT       0.417000       1.00800           0
     43899 TIP3     7173     TIP3     OH2      OT      -0.834000       15.9994           0
     43900 TIP3     7173     TIP3     H1       HT       0.417000       1.00800           0
     43901 TIP3     7173     TIP3     H2       HT       0.417000       1.00800           0
     43902 TIP3     7174     TIP3     OH2      OT      -0.834000       15.9994           0
     43903 TIP3     7174     TIP3     H1       HT       0.417000       1.00800           0
     43904 TIP3     7174     TIP3     H2       HT       0.417000       1.00800           0
     43905 TIP3     7175     TIP3     OH2      OT      -0.834000       15.9994           0
     43906 TIP3     7175     TIP3     H1       HT       0.417000       1.00800           0
     43907 TIP3     7175     TIP3     H2       HT       0.417000       1.00800           0
     43908 TIP3     7176     TIP3     OH2      OT      -0.834000       15.9994           0
     43909 TIP3     7176     TIP3     H1       HT       0.417000       1.00800           0
     43910 TIP3     7176     TIP3     H2       HT       0.417000       1.00800           0
     43911 TIP3     7177     TIP3     OH2      OT      -0.834000       15.9994           0
     43912 TIP3     7177     TIP3     H1       HT       0.417000       1.00800           0
     43913 TIP3     7177     TIP3     H2       HT       0.417000       1.00800           0
     43914 TIP3     7178     TIP3     OH2      OT      -0.834000       15.9994           0
     43915 TIP3     7178     TIP3     H1       HT       0.417000       1.00800           0
     43916 TIP3     7178     TIP3     H2       HT       0.417000       1.00800           0
     43917 TIP3     7179     TIP3     OH2      OT      -0.834000       15.9994           0
     43918 TIP3     7179     TIP3     H1       HT       0.417000       1.00800           0
     43919 TIP3     7179     TIP3     H2       HT       0.417000       1.00800           0
     43920 TIP3     7180     TIP3     OH2      OT      -0.834000       15.9994           0
     43921 TIP3     7180     TIP3     H1       HT       0.417000       1.00800           0
     43922 TIP3     7180     TIP3     H2       HT       0.417000       1.00800           0
     43923 TIP3     7181     TIP3     OH2      OT      -0.834000       15.9994           0
     43924 TIP3     7181     TIP3     H1       HT       0.417000       1.00800           0
     43925 TIP3     7181     TIP3     H2       HT       0.417000       1.00800           0
     43926 TIP3     7182     TIP3     OH2      OT      -0.834000       15.9994           0
     43927 TIP3     7182     TIP3     H1       HT       0.417000       1.00800           0
     43928 TIP3     7182     TIP3     H2       HT       0.417000       1.00800           0
     43929 TIP3     7183     TIP3     OH2      OT      -0.834000       15.9994           0
     43930 TIP3     7183     TIP3     H1       HT       0.417000       1.00800           0
     43931 TIP3     7183     TIP3     H2       HT       0.417000       1.00800           0
     43932 TIP3     7184     TIP3     OH2      OT      -0.834000       15.9994           0
     43933 TIP3     7184     TIP3     H1       HT       0.417000       1.00800           0
     43934 TIP3     7184     TIP3     H2       HT       0.417000       1.00800           0
     43935 TIP3     7185     TIP3     OH2      OT      -0.834000       15.9994           0
     43936 TIP3     7185     TIP3     H1       HT       0.417000       1.00800           0
     43937 TIP3     7185     TIP3     H2       HT       0.417000       1.00800           0
     43938 TIP3     7186     TIP3     OH2      OT      -0.834000       15.9994           0
     43939 TIP3     7186     TIP3     H1       HT       0.417000       1.00800           0
     43940 TIP3     7186     TIP3     H2       HT       0.417000       1.00800           0
     43941 TIP3     7187     TIP3     OH2      OT      -0.834000       15.9994           0
     43942 TIP3     7187     TIP3     H1       HT       0.417000       1.00800           0
     43943 TIP3     7187     TIP3     H2       HT       0.417000       1.00800           0
     43944 TIP3     7188     TIP3     OH2      OT      -0.834000       15.9994           0
     43945 TIP3     7188     TIP3     H1       HT       0.417000       1.00800           0
     43946 TIP3     7188     TIP3     H2       HT       0.417000       1.00800           0
     43947 TIP3     7189     TIP3     OH2      OT      -0.834000       15.9994           0
     43948 TIP3     7189     TIP3     H1       HT       0.417000       1.00800           0
     43949 TIP3     7189     TIP3     H2       HT       0.417000       1.00800           0
     43950 TIP3     7190     TIP3     OH2      OT      -0.834000       15.9994           0
     43951 TIP3     7190     TIP3     H1       HT       0.417000       1.00800           0
     43952 TIP3     7190     TIP3     H2       HT       0.417000       1.00800           0
     43953 TIP3     7191     TIP3     OH2      OT      -0.834000       15.9994           0
     43954 TIP3     7191     TIP3     H1       HT       0.417000       1.00800           0
     43955 TIP3     7191     TIP3     H2       HT       0.417000       1.00800           0
     43956 TIP3     7192     TIP3     OH2      OT      -0.834000       15.9994           0
     43957 TIP3     7192     TIP3     H1       HT       0.417000       1.00800           0
     43958 TIP3     7192     TIP3     H2       HT       0.417000       1.00800           0
     43959 TIP3     7193     TIP3     OH2      OT      -0.834000       15.9994           0
     43960 TIP3     7193     TIP3     H1       HT       0.417000       1.00800           0
     43961 TIP3     7193     TIP3     H2       HT       0.417000       1.00800           0
     43962 TIP3     7194     TIP3     OH2      OT      -0.834000       15.9994           0
     43963 TIP3     7194     TIP3     H1       HT       0.417000       1.00800           0
     43964 TIP3     7194     TIP3     H2       HT       0.417000       1.00800           0
     43965 TIP3     7195     TIP3     OH2      OT      -0.834000       15.9994           0
     43966 TIP3     7195     TIP3     H1       HT       0.417000       1.00800           0
     43967 TIP3     7195     TIP3     H2       HT       0.417000       1.00800           0
     43968 TIP3     7196     TIP3     OH2      OT      -0.834000       15.9994           0
     43969 TIP3     7196     TIP3     H1       HT       0.417000       1.00800           0
     43970 TIP3     7196     TIP3     H2       HT       0.417000       1.00800           0
     43971 TIP3     7197     TIP3     OH2      OT      -0.834000       15.9994           0
     43972 TIP3     7197     TIP3     H1       HT       0.417000       1.00800           0
     43973 TIP3     7197     TIP3     H2       HT       0.417000       1.00800           0
     43974 TIP3     7198     TIP3     OH2      OT      -0.834000       15.9994           0
     43975 TIP3     7198     TIP3     H1       HT       0.417000       1.00800           0
     43976 TIP3     7198     TIP3     H2       HT       0.417000       1.00800           0
     43977 TIP3     7199     TIP3     OH2      OT      -0.834000       15.9994           0
     43978 TIP3     7199     TIP3     H1       HT       0.417000       1.00800           0
     43979 TIP3     7199     TIP3     H2       HT       0.417000       1.00800           0
     43980 TIP3     7200     TIP3     OH2      OT      -0.834000       15.9994           0
     43981 TIP3     7200     TIP3     H1       HT       0.417000       1.00800           0
     43982 TIP3     7200     TIP3     H2       HT       0.417000       1.00800           0
     43983 TIP3     7201     TIP3     OH2      OT      -0.834000       15.9994           0
     43984 TIP3     7201     TIP3     H1       HT       0.417000       1.00800           0
     43985 TIP3     7201     TIP3     H2       HT       0.417000       1.00800           0
     43986 TIP3     7202     TIP3     OH2      OT      -0.834000       15.9994           0
     43987 TIP3     7202     TIP3     H1       HT       0.417000       1.00800           0
     43988 TIP3     7202     TIP3     H2       HT       0.417000       1.00800           0
     43989 TIP3     7203     TIP3     OH2      OT      -0.834000       15.9994           0
     43990 TIP3     7203     TIP3     H1       HT       0.417000       1.00800           0
     43991 TIP3     7203     TIP3     H2       HT       0.417000       1.00800           0
     43992 TIP3     7204     TIP3     OH2      OT      -0.834000       15.9994           0
     43993 TIP3     7204     TIP3     H1       HT       0.417000       1.00800           0
     43994 TIP3     7204     TIP3     H2       HT       0.417000       1.00800           0
     43995 TIP3     7205     TIP3     OH2      OT      -0.834000       15.9994           0
     43996 TIP3     7205     TIP3     H1       HT       0.417000       1.00800           0
     43997 TIP3     7205     TIP3     H2       HT       0.417000       1.00800           0
     43998 TIP3     7206     TIP3     OH2      OT      -0.834000       15.9994           0
     43999 TIP3     7206     TIP3     H1       HT       0.417000       1.00800           0
     44000 TIP3     7206     TIP3     H2       HT       0.417000       1.00800           0
     44001 TIP3     7207     TIP3     OH2      OT      -0.834000       15.9994           0
     44002 TIP3     7207     TIP3     H1       HT       0.417000       1.00800           0
     44003 TIP3     7207     TIP3     H2       HT       0.417000       1.00800           0
     44004 TIP3     7208     TIP3     OH2      OT      -0.834000       15.9994           0
     44005 TIP3     7208     TIP3     H1       HT       0.417000       1.00800           0
     44006 TIP3     7208     TIP3     H2       HT       0.417000       1.00800           0
     44007 TIP3     7209     TIP3     OH2      OT      -0.834000       15.9994           0
     44008 TIP3     7209     TIP3     H1       HT       0.417000       1.00800           0
     44009 TIP3     7209     TIP3     H2       HT       0.417000       1.00800           0
     44010 TIP3     7210     TIP3     OH2      OT      -0.834000       15.9994           0
     44011 TIP3     7210     TIP3     H1       HT       0.417000       1.00800           0
     44012 TIP3     7210     TIP3     H2       HT       0.417000       1.00800           0
     44013 TIP3     7211     TIP3     OH2      OT      -0.834000       15.9994           0
     44014 TIP3     7211     TIP3     H1       HT       0.417000       1.00800           0
     44015 TIP3     7211     TIP3     H2       HT       0.417000       1.00800           0
     44016 TIP3     7212     TIP3     OH2      OT      -0.834000       15.9994           0
     44017 TIP3     7212     TIP3     H1       HT       0.417000       1.00800           0
     44018 TIP3     7212     TIP3     H2       HT       0.417000       1.00800           0
     44019 TIP3     7213     TIP3     OH2      OT      -0.834000       15.9994           0
     44020 TIP3     7213     TIP3     H1       HT       0.417000       1.00800           0
     44021 TIP3     7213     TIP3     H2       HT       0.417000       1.00800           0
     44022 TIP3     7214     TIP3     OH2      OT      -0.834000       15.9994           0
     44023 TIP3     7214     TIP3     H1       HT       0.417000       1.00800           0
     44024 TIP3     7214     TIP3     H2       HT       0.417000       1.00800           0
     44025 TIP3     7215     TIP3     OH2      OT      -0.834000       15.9994           0
     44026 TIP3     7215     TIP3     H1       HT       0.417000       1.00800           0
     44027 TIP3     7215     TIP3     H2       HT       0.417000       1.00800           0
     44028 TIP3     7216     TIP3     OH2      OT      -0.834000       15.9994           0
     44029 TIP3     7216     TIP3     H1       HT       0.417000       1.00800           0
     44030 TIP3     7216     TIP3     H2       HT       0.417000       1.00800           0
     44031 TIP3     7217     TIP3     OH2      OT      -0.834000       15.9994           0
     44032 TIP3     7217     TIP3     H1       HT       0.417000       1.00800           0
     44033 TIP3     7217     TIP3     H2       HT       0.417000       1.00800           0
     44034 TIP3     7218     TIP3     OH2      OT      -0.834000       15.9994           0
     44035 TIP3     7218     TIP3     H1       HT       0.417000       1.00800           0
     44036 TIP3     7218     TIP3     H2       HT       0.417000       1.00800           0
     44037 TIP3     7219     TIP3     OH2      OT      -0.834000       15.9994           0
     44038 TIP3     7219     TIP3     H1       HT       0.417000       1.00800           0
     44039 TIP3     7219     TIP3     H2       HT       0.417000       1.00800           0
     44040 TIP3     7220     TIP3     OH2      OT      -0.834000       15.9994           0
     44041 TIP3     7220     TIP3     H1       HT       0.417000       1.00800           0
     44042 TIP3     7220     TIP3     H2       HT       0.417000       1.00800           0
     44043 TIP3     7221     TIP3     OH2      OT      -0.834000       15.9994           0
     44044 TIP3     7221     TIP3     H1       HT       0.417000       1.00800           0
     44045 TIP3     7221     TIP3     H2       HT       0.417000       1.00800           0
     44046 TIP3     7222     TIP3     OH2      OT      -0.834000       15.9994           0
     44047 TIP3     7222     TIP3     H1       HT       0.417000       1.00800           0
     44048 TIP3     7222     TIP3     H2       HT       0.417000       1.00800           0
     44049 TIP3     7223     TIP3     OH2      OT      -0.834000       15.9994           0
     44050 TIP3     7223     TIP3     H1       HT       0.417000       1.00800           0
     44051 TIP3     7223     TIP3     H2       HT       0.417000       1.00800           0
     44052 TIP3     7224     TIP3     OH2      OT      -0.834000       15.9994           0
     44053 TIP3     7224     TIP3     H1       HT       0.417000       1.00800           0
     44054 TIP3     7224     TIP3     H2       HT       0.417000       1.00800           0
     44055 TIP3     7225     TIP3     OH2      OT      -0.834000       15.9994           0
     44056 TIP3     7225     TIP3     H1       HT       0.417000       1.00800           0
     44057 TIP3     7225     TIP3     H2       HT       0.417000       1.00800           0
     44058 TIP3     7226     TIP3     OH2      OT      -0.834000       15.9994           0
     44059 TIP3     7226     TIP3     H1       HT       0.417000       1.00800           0
     44060 TIP3     7226     TIP3     H2       HT       0.417000       1.00800           0
     44061 TIP3     7227     TIP3     OH2      OT      -0.834000       15.9994           0
     44062 TIP3     7227     TIP3     H1       HT       0.417000       1.00800           0
     44063 TIP3     7227     TIP3     H2       HT       0.417000       1.00800           0
     44064 TIP3     7228     TIP3     OH2      OT      -0.834000       15.9994           0
     44065 TIP3     7228     TIP3     H1       HT       0.417000       1.00800           0
     44066 TIP3     7228     TIP3     H2       HT       0.417000       1.00800           0
     44067 TIP3     7229     TIP3     OH2      OT      -0.834000       15.9994           0
     44068 TIP3     7229     TIP3     H1       HT       0.417000       1.00800           0
     44069 TIP3     7229     TIP3     H2       HT       0.417000       1.00800           0
     44070 TIP3     7230     TIP3     OH2      OT      -0.834000       15.9994           0
     44071 TIP3     7230     TIP3     H1       HT       0.417000       1.00800           0
     44072 TIP3     7230     TIP3     H2       HT       0.417000       1.00800           0
     44073 TIP3     7231     TIP3     OH2      OT      -0.834000       15.9994           0
     44074 TIP3     7231     TIP3     H1       HT       0.417000       1.00800           0
     44075 TIP3     7231     TIP3     H2       HT       0.417000       1.00800           0
     44076 TIP3     7232     TIP3     OH2      OT      -0.834000       15.9994           0
     44077 TIP3     7232     TIP3     H1       HT       0.417000       1.00800           0
     44078 TIP3     7232     TIP3     H2       HT       0.417000       1.00800           0
     44079 TIP3     7233     TIP3     OH2      OT      -0.834000       15.9994           0
     44080 TIP3     7233     TIP3     H1       HT       0.417000       1.00800           0
     44081 TIP3     7233     TIP3     H2       HT       0.417000       1.00800           0
     44082 TIP3     7234     TIP3     OH2      OT      -0.834000       15.9994           0
     44083 TIP3     7234     TIP3     H1       HT       0.417000       1.00800           0
     44084 TIP3     7234     TIP3     H2       HT       0.417000       1.00800           0
     44085 TIP3     7235     TIP3     OH2      OT      -0.834000       15.9994           0
     44086 TIP3     7235     TIP3     H1       HT       0.417000       1.00800           0
     44087 TIP3     7235     TIP3     H2       HT       0.417000       1.00800           0
     44088 TIP3     7236     TIP3     OH2      OT      -0.834000       15.9994           0
     44089 TIP3     7236     TIP3     H1       HT       0.417000       1.00800           0
     44090 TIP3     7236     TIP3     H2       HT       0.417000       1.00800           0
     44091 TIP3     7237     TIP3     OH2      OT      -0.834000       15.9994           0
     44092 TIP3     7237     TIP3     H1       HT       0.417000       1.00800           0
     44093 TIP3     7237     TIP3     H2       HT       0.417000       1.00800           0
     44094 TIP3     7238     TIP3     OH2      OT      -0.834000       15.9994           0
     44095 TIP3     7238     TIP3     H1       HT       0.417000       1.00800           0
     44096 TIP3     7238     TIP3     H2       HT       0.417000       1.00800           0
     44097 TIP3     7239     TIP3     OH2      OT      -0.834000       15.9994           0
     44098 TIP3     7239     TIP3     H1       HT       0.417000       1.00800           0
     44099 TIP3     7239     TIP3     H2       HT       0.417000       1.00800           0
     44100 TIP3     7240     TIP3     OH2      OT      -0.834000       15.9994           0
     44101 TIP3     7240     TIP3     H1       HT       0.417000       1.00800           0
     44102 TIP3     7240     TIP3     H2       HT       0.417000       1.00800           0
     44103 TIP3     7241     TIP3     OH2      OT      -0.834000       15.9994           0
     44104 TIP3     7241     TIP3     H1       HT       0.417000       1.00800           0
     44105 TIP3     7241     TIP3     H2       HT       0.417000       1.00800           0
     44106 TIP3     7242     TIP3     OH2      OT      -0.834000       15.9994           0
     44107 TIP3     7242     TIP3     H1       HT       0.417000       1.00800           0
     44108 TIP3     7242     TIP3     H2       HT       0.417000       1.00800           0
     44109 TIP3     7243     TIP3     OH2      OT      -0.834000       15.9994           0
     44110 TIP3     7243     TIP3     H1       HT       0.417000       1.00800           0
     44111 TIP3     7243     TIP3     H2       HT       0.417000       1.00800           0
     44112 TIP3     7244     TIP3     OH2      OT      -0.834000       15.9994           0
     44113 TIP3     7244     TIP3     H1       HT       0.417000       1.00800           0
     44114 TIP3     7244     TIP3     H2       HT       0.417000       1.00800           0
     44115 TIP3     7245     TIP3     OH2      OT      -0.834000       15.9994           0
     44116 TIP3     7245     TIP3     H1       HT       0.417000       1.00800           0
     44117 TIP3     7245     TIP3     H2       HT       0.417000       1.00800           0
     44118 TIP3     7246     TIP3     OH2      OT      -0.834000       15.9994           0
     44119 TIP3     7246     TIP3     H1       HT       0.417000       1.00800           0
     44120 TIP3     7246     TIP3     H2       HT       0.417000       1.00800           0
     44121 TIP3     7247     TIP3     OH2      OT      -0.834000       15.9994           0
     44122 TIP3     7247     TIP3     H1       HT       0.417000       1.00800           0
     44123 TIP3     7247     TIP3     H2       HT       0.417000       1.00800           0
     44124 TIP3     7248     TIP3     OH2      OT      -0.834000       15.9994           0
     44125 TIP3     7248     TIP3     H1       HT       0.417000       1.00800           0
     44126 TIP3     7248     TIP3     H2       HT       0.417000       1.00800           0
     44127 TIP3     7249     TIP3     OH2      OT      -0.834000       15.9994           0
     44128 TIP3     7249     TIP3     H1       HT       0.417000       1.00800           0
     44129 TIP3     7249     TIP3     H2       HT       0.417000       1.00800           0
     44130 TIP3     7250     TIP3     OH2      OT      -0.834000       15.9994           0
     44131 TIP3     7250     TIP3     H1       HT       0.417000       1.00800           0
     44132 TIP3     7250     TIP3     H2       HT       0.417000       1.00800           0
     44133 TIP3     7251     TIP3     OH2      OT      -0.834000       15.9994           0
     44134 TIP3     7251     TIP3     H1       HT       0.417000       1.00800           0
     44135 TIP3     7251     TIP3     H2       HT       0.417000       1.00800           0
     44136 TIP3     7252     TIP3     OH2      OT      -0.834000       15.9994           0
     44137 TIP3     7252     TIP3     H1       HT       0.417000       1.00800           0
     44138 TIP3     7252     TIP3     H2       HT       0.417000       1.00800           0
     44139 TIP3     7253     TIP3     OH2      OT      -0.834000       15.9994           0
     44140 TIP3     7253     TIP3     H1       HT       0.417000       1.00800           0
     44141 TIP3     7253     TIP3     H2       HT       0.417000       1.00800           0
     44142 TIP3     7254     TIP3     OH2      OT      -0.834000       15.9994           0
     44143 TIP3     7254     TIP3     H1       HT       0.417000       1.00800           0
     44144 TIP3     7254     TIP3     H2       HT       0.417000       1.00800           0
     44145 TIP3     7255     TIP3     OH2      OT      -0.834000       15.9994           0
     44146 TIP3     7255     TIP3     H1       HT       0.417000       1.00800           0
     44147 TIP3     7255     TIP3     H2       HT       0.417000       1.00800           0
     44148 TIP3     7256     TIP3     OH2      OT      -0.834000       15.9994           0
     44149 TIP3     7256     TIP3     H1       HT       0.417000       1.00800           0
     44150 TIP3     7256     TIP3     H2       HT       0.417000       1.00800           0
     44151 TIP3     7257     TIP3     OH2      OT      -0.834000       15.9994           0
     44152 TIP3     7257     TIP3     H1       HT       0.417000       1.00800           0
     44153 TIP3     7257     TIP3     H2       HT       0.417000       1.00800           0
     44154 TIP3     7258     TIP3     OH2      OT      -0.834000       15.9994           0
     44155 TIP3     7258     TIP3     H1       HT       0.417000       1.00800           0
     44156 TIP3     7258     TIP3     H2       HT       0.417000       1.00800           0
     44157 TIP3     7259     TIP3     OH2      OT      -0.834000       15.9994           0
     44158 TIP3     7259     TIP3     H1       HT       0.417000       1.00800           0
     44159 TIP3     7259     TIP3     H2       HT       0.417000       1.00800           0
     44160 TIP3     7260     TIP3     OH2      OT      -0.834000       15.9994           0
     44161 TIP3     7260     TIP3     H1       HT       0.417000       1.00800           0
     44162 TIP3     7260     TIP3     H2       HT       0.417000       1.00800           0
     44163 TIP3     7261     TIP3     OH2      OT      -0.834000       15.9994           0
     44164 TIP3     7261     TIP3     H1       HT       0.417000       1.00800           0
     44165 TIP3     7261     TIP3     H2       HT       0.417000       1.00800           0
     44166 TIP3     7262     TIP3     OH2      OT      -0.834000       15.9994           0
     44167 TIP3     7262     TIP3     H1       HT       0.417000       1.00800           0
     44168 TIP3     7262     TIP3     H2       HT       0.417000       1.00800           0
     44169 TIP3     7263     TIP3     OH2      OT      -0.834000       15.9994           0
     44170 TIP3     7263     TIP3     H1       HT       0.417000       1.00800           0
     44171 TIP3     7263     TIP3     H2       HT       0.417000       1.00800           0
     44172 TIP3     7264     TIP3     OH2      OT      -0.834000       15.9994           0
     44173 TIP3     7264     TIP3     H1       HT       0.417000       1.00800           0
     44174 TIP3     7264     TIP3     H2       HT       0.417000       1.00800           0
     44175 TIP3     7265     TIP3     OH2      OT      -0.834000       15.9994           0
     44176 TIP3     7265     TIP3     H1       HT       0.417000       1.00800           0
     44177 TIP3     7265     TIP3     H2       HT       0.417000       1.00800           0
     44178 TIP3     7266     TIP3     OH2      OT      -0.834000       15.9994           0
     44179 TIP3     7266     TIP3     H1       HT       0.417000       1.00800           0
     44180 TIP3     7266     TIP3     H2       HT       0.417000       1.00800           0
     44181 TIP3     7267     TIP3     OH2      OT      -0.834000       15.9994           0
     44182 TIP3     7267     TIP3     H1       HT       0.417000       1.00800           0
     44183 TIP3     7267     TIP3     H2       HT       0.417000       1.00800           0
     44184 TIP3     7268     TIP3     OH2      OT      -0.834000       15.9994           0
     44185 TIP3     7268     TIP3     H1       HT       0.417000       1.00800           0
     44186 TIP3     7268     TIP3     H2       HT       0.417000       1.00800           0
     44187 TIP3     7269     TIP3     OH2      OT      -0.834000       15.9994           0
     44188 TIP3     7269     TIP3     H1       HT       0.417000       1.00800           0
     44189 TIP3     7269     TIP3     H2       HT       0.417000       1.00800           0
     44190 TIP3     7270     TIP3     OH2      OT      -0.834000       15.9994           0
     44191 TIP3     7270     TIP3     H1       HT       0.417000       1.00800           0
     44192 TIP3     7270     TIP3     H2       HT       0.417000       1.00800           0
     44193 TIP3     7271     TIP3     OH2      OT      -0.834000       15.9994           0
     44194 TIP3     7271     TIP3     H1       HT       0.417000       1.00800           0
     44195 TIP3     7271     TIP3     H2       HT       0.417000       1.00800           0
     44196 TIP3     7272     TIP3     OH2      OT      -0.834000       15.9994           0
     44197 TIP3     7272     TIP3     H1       HT       0.417000       1.00800           0
     44198 TIP3     7272     TIP3     H2       HT       0.417000       1.00800           0
     44199 TIP3     7273     TIP3     OH2      OT      -0.834000       15.9994           0
     44200 TIP3     7273     TIP3     H1       HT       0.417000       1.00800           0
     44201 TIP3     7273     TIP3     H2       HT       0.417000       1.00800           0
     44202 TIP3     7274     TIP3     OH2      OT      -0.834000       15.9994           0
     44203 TIP3     7274     TIP3     H1       HT       0.417000       1.00800           0
     44204 TIP3     7274     TIP3     H2       HT       0.417000       1.00800           0
     44205 TIP3     7275     TIP3     OH2      OT      -0.834000       15.9994           0
     44206 TIP3     7275     TIP3     H1       HT       0.417000       1.00800           0
     44207 TIP3     7275     TIP3     H2       HT       0.417000       1.00800           0
     44208 TIP3     7276     TIP3     OH2      OT      -0.834000       15.9994           0
     44209 TIP3     7276     TIP3     H1       HT       0.417000       1.00800           0
     44210 TIP3     7276     TIP3     H2       HT       0.417000       1.00800           0
     44211 TIP3     7277     TIP3     OH2      OT      -0.834000       15.9994           0
     44212 TIP3     7277     TIP3     H1       HT       0.417000       1.00800           0
     44213 TIP3     7277     TIP3     H2       HT       0.417000       1.00800           0
     44214 TIP3     7278     TIP3     OH2      OT      -0.834000       15.9994           0
     44215 TIP3     7278     TIP3     H1       HT       0.417000       1.00800           0
     44216 TIP3     7278     TIP3     H2       HT       0.417000       1.00800           0
     44217 TIP3     7279     TIP3     OH2      OT      -0.834000       15.9994           0
     44218 TIP3     7279     TIP3     H1       HT       0.417000       1.00800           0
     44219 TIP3     7279     TIP3     H2       HT       0.417000       1.00800           0
     44220 TIP3     7280     TIP3     OH2      OT      -0.834000       15.9994           0
     44221 TIP3     7280     TIP3     H1       HT       0.417000       1.00800           0
     44222 TIP3     7280     TIP3     H2       HT       0.417000       1.00800           0
     44223 TIP3     7281     TIP3     OH2      OT      -0.834000       15.9994           0
     44224 TIP3     7281     TIP3     H1       HT       0.417000       1.00800           0
     44225 TIP3     7281     TIP3     H2       HT       0.417000       1.00800           0
     44226 TIP3     7282     TIP3     OH2      OT      -0.834000       15.9994           0
     44227 TIP3     7282     TIP3     H1       HT       0.417000       1.00800           0
     44228 TIP3     7282     TIP3     H2       HT       0.417000       1.00800           0
     44229 TIP3     7283     TIP3     OH2      OT      -0.834000       15.9994           0
     44230 TIP3     7283     TIP3     H1       HT       0.417000       1.00800           0
     44231 TIP3     7283     TIP3     H2       HT       0.417000       1.00800           0
     44232 TIP3     7284     TIP3     OH2      OT      -0.834000       15.9994           0
     44233 TIP3     7284     TIP3     H1       HT       0.417000       1.00800           0
     44234 TIP3     7284     TIP3     H2       HT       0.417000       1.00800           0
     44235 TIP3     7285     TIP3     OH2      OT      -0.834000       15.9994           0
     44236 TIP3     7285     TIP3     H1       HT       0.417000       1.00800           0
     44237 TIP3     7285     TIP3     H2       HT       0.417000       1.00800           0
     44238 TIP3     7286     TIP3     OH2      OT      -0.834000       15.9994           0
     44239 TIP3     7286     TIP3     H1       HT       0.417000       1.00800           0
     44240 TIP3     7286     TIP3     H2       HT       0.417000       1.00800           0
     44241 TIP3     7287     TIP3     OH2      OT      -0.834000       15.9994           0
     44242 TIP3     7287     TIP3     H1       HT       0.417000       1.00800           0
     44243 TIP3     7287     TIP3     H2       HT       0.417000       1.00800           0
     44244 TIP3     7288     TIP3     OH2      OT      -0.834000       15.9994           0
     44245 TIP3     7288     TIP3     H1       HT       0.417000       1.00800           0
     44246 TIP3     7288     TIP3     H2       HT       0.417000       1.00800           0
     44247 TIP3     7289     TIP3     OH2      OT      -0.834000       15.9994           0
     44248 TIP3     7289     TIP3     H1       HT       0.417000       1.00800           0
     44249 TIP3     7289     TIP3     H2       HT       0.417000       1.00800           0
     44250 TIP3     7290     TIP3     OH2      OT      -0.834000       15.9994           0
     44251 TIP3     7290     TIP3     H1       HT       0.417000       1.00800           0
     44252 TIP3     7290     TIP3     H2       HT       0.417000       1.00800           0
     44253 TIP3     7291     TIP3     OH2      OT      -0.834000       15.9994           0
     44254 TIP3     7291     TIP3     H1       HT       0.417000       1.00800           0
     44255 TIP3     7291     TIP3     H2       HT       0.417000       1.00800           0
     44256 TIP3     7292     TIP3     OH2      OT      -0.834000       15.9994           0
     44257 TIP3     7292     TIP3     H1       HT       0.417000       1.00800           0
     44258 TIP3     7292     TIP3     H2       HT       0.417000       1.00800           0
     44259 TIP3     7293     TIP3     OH2      OT      -0.834000       15.9994           0
     44260 TIP3     7293     TIP3     H1       HT       0.417000       1.00800           0
     44261 TIP3     7293     TIP3     H2       HT       0.417000       1.00800           0
     44262 TIP3     7294     TIP3     OH2      OT      -0.834000       15.9994           0
     44263 TIP3     7294     TIP3     H1       HT       0.417000       1.00800           0
     44264 TIP3     7294     TIP3     H2       HT       0.417000       1.00800           0
     44265 TIP3     7295     TIP3     OH2      OT      -0.834000       15.9994           0
     44266 TIP3     7295     TIP3     H1       HT       0.417000       1.00800           0
     44267 TIP3     7295     TIP3     H2       HT       0.417000       1.00800           0
     44268 TIP3     7296     TIP3     OH2      OT      -0.834000       15.9994           0
     44269 TIP3     7296     TIP3     H1       HT       0.417000       1.00800           0
     44270 TIP3     7296     TIP3     H2       HT       0.417000       1.00800           0
     44271 TIP3     7297     TIP3     OH2      OT      -0.834000       15.9994           0
     44272 TIP3     7297     TIP3     H1       HT       0.417000       1.00800           0
     44273 TIP3     7297     TIP3     H2       HT       0.417000       1.00800           0
     44274 TIP3     7298     TIP3     OH2      OT      -0.834000       15.9994           0
     44275 TIP3     7298     TIP3     H1       HT       0.417000       1.00800           0
     44276 TIP3     7298     TIP3     H2       HT       0.417000       1.00800           0
     44277 TIP3     7299     TIP3     OH2      OT      -0.834000       15.9994           0
     44278 TIP3     7299     TIP3     H1       HT       0.417000       1.00800           0
     44279 TIP3     7299     TIP3     H2       HT       0.417000       1.00800           0
     44280 TIP3     7300     TIP3     OH2      OT      -0.834000       15.9994           0
     44281 TIP3     7300     TIP3     H1       HT       0.417000       1.00800           0
     44282 TIP3     7300     TIP3     H2       HT       0.417000       1.00800           0
     44283 TIP3     7301     TIP3     OH2      OT      -0.834000       15.9994           0
     44284 TIP3     7301     TIP3     H1       HT       0.417000       1.00800           0
     44285 TIP3     7301     TIP3     H2       HT       0.417000       1.00800           0
     44286 TIP3     7302     TIP3     OH2      OT      -0.834000       15.9994           0
     44287 TIP3     7302     TIP3     H1       HT       0.417000       1.00800           0
     44288 TIP3     7302     TIP3     H2       HT       0.417000       1.00800           0
     44289 TIP3     7303     TIP3     OH2      OT      -0.834000       15.9994           0
     44290 TIP3     7303     TIP3     H1       HT       0.417000       1.00800           0
     44291 TIP3     7303     TIP3     H2       HT       0.417000       1.00800           0
     44292 TIP3     7304     TIP3     OH2      OT      -0.834000       15.9994           0
     44293 TIP3     7304     TIP3     H1       HT       0.417000       1.00800           0
     44294 TIP3     7304     TIP3     H2       HT       0.417000       1.00800           0
     44295 TIP3     7305     TIP3     OH2      OT      -0.834000       15.9994           0
     44296 TIP3     7305     TIP3     H1       HT       0.417000       1.00800           0
     44297 TIP3     7305     TIP3     H2       HT       0.417000       1.00800           0
     44298 TIP3     7306     TIP3     OH2      OT      -0.834000       15.9994           0
     44299 TIP3     7306     TIP3     H1       HT       0.417000       1.00800           0
     44300 TIP3     7306     TIP3     H2       HT       0.417000       1.00800           0
     44301 TIP3     7307     TIP3     OH2      OT      -0.834000       15.9994           0
     44302 TIP3     7307     TIP3     H1       HT       0.417000       1.00800           0
     44303 TIP3     7307     TIP3     H2       HT       0.417000       1.00800           0
     44304 TIP3     7308     TIP3     OH2      OT      -0.834000       15.9994           0
     44305 TIP3     7308     TIP3     H1       HT       0.417000       1.00800           0
     44306 TIP3     7308     TIP3     H2       HT       0.417000       1.00800           0
     44307 TIP3     7309     TIP3     OH2      OT      -0.834000       15.9994           0
     44308 TIP3     7309     TIP3     H1       HT       0.417000       1.00800           0
     44309 TIP3     7309     TIP3     H2       HT       0.417000       1.00800           0
     44310 TIP3     7310     TIP3     OH2      OT      -0.834000       15.9994           0
     44311 TIP3     7310     TIP3     H1       HT       0.417000       1.00800           0
     44312 TIP3     7310     TIP3     H2       HT       0.417000       1.00800           0
     44313 TIP3     7311     TIP3     OH2      OT      -0.834000       15.9994           0
     44314 TIP3     7311     TIP3     H1       HT       0.417000       1.00800           0
     44315 TIP3     7311     TIP3     H2       HT       0.417000       1.00800           0
     44316 TIP3     7312     TIP3     OH2      OT      -0.834000       15.9994           0
     44317 TIP3     7312     TIP3     H1       HT       0.417000       1.00800           0
     44318 TIP3     7312     TIP3     H2       HT       0.417000       1.00800           0
     44319 TIP3     7313     TIP3     OH2      OT      -0.834000       15.9994           0
     44320 TIP3     7313     TIP3     H1       HT       0.417000       1.00800           0
     44321 TIP3     7313     TIP3     H2       HT       0.417000       1.00800           0
     44322 TIP3     7314     TIP3     OH2      OT      -0.834000       15.9994           0
     44323 TIP3     7314     TIP3     H1       HT       0.417000       1.00800           0
     44324 TIP3     7314     TIP3     H2       HT       0.417000       1.00800           0
     44325 TIP3     7315     TIP3     OH2      OT      -0.834000       15.9994           0
     44326 TIP3     7315     TIP3     H1       HT       0.417000       1.00800           0
     44327 TIP3     7315     TIP3     H2       HT       0.417000       1.00800           0
     44328 TIP3     7316     TIP3     OH2      OT      -0.834000       15.9994           0
     44329 TIP3     7316     TIP3     H1       HT       0.417000       1.00800           0
     44330 TIP3     7316     TIP3     H2       HT       0.417000       1.00800           0
     44331 TIP3     7317     TIP3     OH2      OT      -0.834000       15.9994           0
     44332 TIP3     7317     TIP3     H1       HT       0.417000       1.00800           0
     44333 TIP3     7317     TIP3     H2       HT       0.417000       1.00800           0
     44334 TIP3     7318     TIP3     OH2      OT      -0.834000       15.9994           0
     44335 TIP3     7318     TIP3     H1       HT       0.417000       1.00800           0
     44336 TIP3     7318     TIP3     H2       HT       0.417000       1.00800           0
     44337 TIP3     7319     TIP3     OH2      OT      -0.834000       15.9994           0
     44338 TIP3     7319     TIP3     H1       HT       0.417000       1.00800           0
     44339 TIP3     7319     TIP3     H2       HT       0.417000       1.00800           0
     44340 TIP3     7320     TIP3     OH2      OT      -0.834000       15.9994           0
     44341 TIP3     7320     TIP3     H1       HT       0.417000       1.00800           0
     44342 TIP3     7320     TIP3     H2       HT       0.417000       1.00800           0
     44343 TIP3     7321     TIP3     OH2      OT      -0.834000       15.9994           0
     44344 TIP3     7321     TIP3     H1       HT       0.417000       1.00800           0
     44345 TIP3     7321     TIP3     H2       HT       0.417000       1.00800           0
     44346 TIP3     7322     TIP3     OH2      OT      -0.834000       15.9994           0
     44347 TIP3     7322     TIP3     H1       HT       0.417000       1.00800           0
     44348 TIP3     7322     TIP3     H2       HT       0.417000       1.00800           0
     44349 TIP3     7323     TIP3     OH2      OT      -0.834000       15.9994           0
     44350 TIP3     7323     TIP3     H1       HT       0.417000       1.00800           0
     44351 TIP3     7323     TIP3     H2       HT       0.417000       1.00800           0
     44352 TIP3     7324     TIP3     OH2      OT      -0.834000       15.9994           0
     44353 TIP3     7324     TIP3     H1       HT       0.417000       1.00800           0
     44354 TIP3     7324     TIP3     H2       HT       0.417000       1.00800           0
     44355 TIP3     7325     TIP3     OH2      OT      -0.834000       15.9994           0
     44356 TIP3     7325     TIP3     H1       HT       0.417000       1.00800           0
     44357 TIP3     7325     TIP3     H2       HT       0.417000       1.00800           0
     44358 TIP3     7326     TIP3     OH2      OT      -0.834000       15.9994           0
     44359 TIP3     7326     TIP3     H1       HT       0.417000       1.00800           0
     44360 TIP3     7326     TIP3     H2       HT       0.417000       1.00800           0
     44361 TIP3     7327     TIP3     OH2      OT      -0.834000       15.9994           0
     44362 TIP3     7327     TIP3     H1       HT       0.417000       1.00800           0
     44363 TIP3     7327     TIP3     H2       HT       0.417000       1.00800           0
     44364 TIP3     7328     TIP3     OH2      OT      -0.834000       15.9994           0
     44365 TIP3     7328     TIP3     H1       HT       0.417000       1.00800           0
     44366 TIP3     7328     TIP3     H2       HT       0.417000       1.00800           0
     44367 TIP3     7329     TIP3     OH2      OT      -0.834000       15.9994           0
     44368 TIP3     7329     TIP3     H1       HT       0.417000       1.00800           0
     44369 TIP3     7329     TIP3     H2       HT       0.417000       1.00800           0
     44370 TIP3     7330     TIP3     OH2      OT      -0.834000       15.9994           0
     44371 TIP3     7330     TIP3     H1       HT       0.417000       1.00800           0
     44372 TIP3     7330     TIP3     H2       HT       0.417000       1.00800           0
     44373 TIP3     7331     TIP3     OH2      OT      -0.834000       15.9994           0
     44374 TIP3     7331     TIP3     H1       HT       0.417000       1.00800           0
     44375 TIP3     7331     TIP3     H2       HT       0.417000       1.00800           0
     44376 TIP3     7332     TIP3     OH2      OT      -0.834000       15.9994           0
     44377 TIP3     7332     TIP3     H1       HT       0.417000       1.00800           0
     44378 TIP3     7332     TIP3     H2       HT       0.417000       1.00800           0
     44379 TIP3     7333     TIP3     OH2      OT      -0.834000       15.9994           0
     44380 TIP3     7333     TIP3     H1       HT       0.417000       1.00800           0
     44381 TIP3     7333     TIP3     H2       HT       0.417000       1.00800           0
     44382 TIP3     7334     TIP3     OH2      OT      -0.834000       15.9994           0
     44383 TIP3     7334     TIP3     H1       HT       0.417000       1.00800           0
     44384 TIP3     7334     TIP3     H2       HT       0.417000       1.00800           0
     44385 TIP3     7335     TIP3     OH2      OT      -0.834000       15.9994           0
     44386 TIP3     7335     TIP3     H1       HT       0.417000       1.00800           0
     44387 TIP3     7335     TIP3     H2       HT       0.417000       1.00800           0
     44388 TIP3     7336     TIP3     OH2      OT      -0.834000       15.9994           0
     44389 TIP3     7336     TIP3     H1       HT       0.417000       1.00800           0
     44390 TIP3     7336     TIP3     H2       HT       0.417000       1.00800           0
     44391 TIP3     7337     TIP3     OH2      OT      -0.834000       15.9994           0
     44392 TIP3     7337     TIP3     H1       HT       0.417000       1.00800           0
     44393 TIP3     7337     TIP3     H2       HT       0.417000       1.00800           0
     44394 TIP3     7338     TIP3     OH2      OT      -0.834000       15.9994           0
     44395 TIP3     7338     TIP3     H1       HT       0.417000       1.00800           0
     44396 TIP3     7338     TIP3     H2       HT       0.417000       1.00800           0
     44397 TIP3     7339     TIP3     OH2      OT      -0.834000       15.9994           0
     44398 TIP3     7339     TIP3     H1       HT       0.417000       1.00800           0
     44399 TIP3     7339     TIP3     H2       HT       0.417000       1.00800           0
     44400 TIP3     7340     TIP3     OH2      OT      -0.834000       15.9994           0
     44401 TIP3     7340     TIP3     H1       HT       0.417000       1.00800           0
     44402 TIP3     7340     TIP3     H2       HT       0.417000       1.00800           0
     44403 TIP3     7341     TIP3     OH2      OT      -0.834000       15.9994           0
     44404 TIP3     7341     TIP3     H1       HT       0.417000       1.00800           0
     44405 TIP3     7341     TIP3     H2       HT       0.417000       1.00800           0
     44406 TIP3     7342     TIP3     OH2      OT      -0.834000       15.9994           0
     44407 TIP3     7342     TIP3     H1       HT       0.417000       1.00800           0
     44408 TIP3     7342     TIP3     H2       HT       0.417000       1.00800           0
     44409 TIP3     7343     TIP3     OH2      OT      -0.834000       15.9994           0
     44410 TIP3     7343     TIP3     H1       HT       0.417000       1.00800           0
     44411 TIP3     7343     TIP3     H2       HT       0.417000       1.00800           0
     44412 TIP3     7344     TIP3     OH2      OT      -0.834000       15.9994           0
     44413 TIP3     7344     TIP3     H1       HT       0.417000       1.00800           0
     44414 TIP3     7344     TIP3     H2       HT       0.417000       1.00800           0
     44415 TIP3     7345     TIP3     OH2      OT      -0.834000       15.9994           0
     44416 TIP3     7345     TIP3     H1       HT       0.417000       1.00800           0
     44417 TIP3     7345     TIP3     H2       HT       0.417000       1.00800           0
     44418 TIP3     7346     TIP3     OH2      OT      -0.834000       15.9994           0
     44419 TIP3     7346     TIP3     H1       HT       0.417000       1.00800           0
     44420 TIP3     7346     TIP3     H2       HT       0.417000       1.00800           0
     44421 TIP3     7347     TIP3     OH2      OT      -0.834000       15.9994           0
     44422 TIP3     7347     TIP3     H1       HT       0.417000       1.00800           0
     44423 TIP3     7347     TIP3     H2       HT       0.417000       1.00800           0
     44424 TIP3     7348     TIP3     OH2      OT      -0.834000       15.9994           0
     44425 TIP3     7348     TIP3     H1       HT       0.417000       1.00800           0
     44426 TIP3     7348     TIP3     H2       HT       0.417000       1.00800           0
     44427 TIP3     7349     TIP3     OH2      OT      -0.834000       15.9994           0
     44428 TIP3     7349     TIP3     H1       HT       0.417000       1.00800           0
     44429 TIP3     7349     TIP3     H2       HT       0.417000       1.00800           0
     44430 TIP3     7350     TIP3     OH2      OT      -0.834000       15.9994           0
     44431 TIP3     7350     TIP3     H1       HT       0.417000       1.00800           0
     44432 TIP3     7350     TIP3     H2       HT       0.417000       1.00800           0
     44433 TIP3     7351     TIP3     OH2      OT      -0.834000       15.9994           0
     44434 TIP3     7351     TIP3     H1       HT       0.417000       1.00800           0
     44435 TIP3     7351     TIP3     H2       HT       0.417000       1.00800           0
     44436 TIP3     7352     TIP3     OH2      OT      -0.834000       15.9994           0
     44437 TIP3     7352     TIP3     H1       HT       0.417000       1.00800           0
     44438 TIP3     7352     TIP3     H2       HT       0.417000       1.00800           0
     44439 TIP3     7353     TIP3     OH2      OT      -0.834000       15.9994           0
     44440 TIP3     7353     TIP3     H1       HT       0.417000       1.00800           0
     44441 TIP3     7353     TIP3     H2       HT       0.417000       1.00800           0
     44442 TIP3     7354     TIP3     OH2      OT      -0.834000       15.9994           0
     44443 TIP3     7354     TIP3     H1       HT       0.417000       1.00800           0
     44444 TIP3     7354     TIP3     H2       HT       0.417000       1.00800           0
     44445 TIP3     7355     TIP3     OH2      OT      -0.834000       15.9994           0
     44446 TIP3     7355     TIP3     H1       HT       0.417000       1.00800           0
     44447 TIP3     7355     TIP3     H2       HT       0.417000       1.00800           0
     44448 TIP3     7356     TIP3     OH2      OT      -0.834000       15.9994           0
     44449 TIP3     7356     TIP3     H1       HT       0.417000       1.00800           0
     44450 TIP3     7356     TIP3     H2       HT       0.417000       1.00800           0
     44451 TIP3     7357     TIP3     OH2      OT      -0.834000       15.9994           0
     44452 TIP3     7357     TIP3     H1       HT       0.417000       1.00800           0
     44453 TIP3     7357     TIP3     H2       HT       0.417000       1.00800           0
     44454 TIP3     7358     TIP3     OH2      OT      -0.834000       15.9994           0
     44455 TIP3     7358     TIP3     H1       HT       0.417000       1.00800           0
     44456 TIP3     7358     TIP3     H2       HT       0.417000       1.00800           0
     44457 TIP3     7359     TIP3     OH2      OT      -0.834000       15.9994           0
     44458 TIP3     7359     TIP3     H1       HT       0.417000       1.00800           0
     44459 TIP3     7359     TIP3     H2       HT       0.417000       1.00800           0
     44460 TIP3     7360     TIP3     OH2      OT      -0.834000       15.9994           0
     44461 TIP3     7360     TIP3     H1       HT       0.417000       1.00800           0
     44462 TIP3     7360     TIP3     H2       HT       0.417000       1.00800           0
     44463 TIP3     7361     TIP3     OH2      OT      -0.834000       15.9994           0
     44464 TIP3     7361     TIP3     H1       HT       0.417000       1.00800           0
     44465 TIP3     7361     TIP3     H2       HT       0.417000       1.00800           0
     44466 TIP3     7362     TIP3     OH2      OT      -0.834000       15.9994           0
     44467 TIP3     7362     TIP3     H1       HT       0.417000       1.00800           0
     44468 TIP3     7362     TIP3     H2       HT       0.417000       1.00800           0
     44469 TIP3     7363     TIP3     OH2      OT      -0.834000       15.9994           0
     44470 TIP3     7363     TIP3     H1       HT       0.417000       1.00800           0
     44471 TIP3     7363     TIP3     H2       HT       0.417000       1.00800           0
     44472 TIP3     7364     TIP3     OH2      OT      -0.834000       15.9994           0
     44473 TIP3     7364     TIP3     H1       HT       0.417000       1.00800           0
     44474 TIP3     7364     TIP3     H2       HT       0.417000       1.00800           0
     44475 TIP3     7365     TIP3     OH2      OT      -0.834000       15.9994           0
     44476 TIP3     7365     TIP3     H1       HT       0.417000       1.00800           0
     44477 TIP3     7365     TIP3     H2       HT       0.417000       1.00800           0
     44478 TIP3     7366     TIP3     OH2      OT      -0.834000       15.9994           0
     44479 TIP3     7366     TIP3     H1       HT       0.417000       1.00800           0
     44480 TIP3     7366     TIP3     H2       HT       0.417000       1.00800           0
     44481 TIP3     7367     TIP3     OH2      OT      -0.834000       15.9994           0
     44482 TIP3     7367     TIP3     H1       HT       0.417000       1.00800           0
     44483 TIP3     7367     TIP3     H2       HT       0.417000       1.00800           0
     44484 TIP3     7368     TIP3     OH2      OT      -0.834000       15.9994           0
     44485 TIP3     7368     TIP3     H1       HT       0.417000       1.00800           0
     44486 TIP3     7368     TIP3     H2       HT       0.417000       1.00800           0
     44487 TIP3     7369     TIP3     OH2      OT      -0.834000       15.9994           0
     44488 TIP3     7369     TIP3     H1       HT       0.417000       1.00800           0
     44489 TIP3     7369     TIP3     H2       HT       0.417000       1.00800           0
     44490 TIP3     7370     TIP3     OH2      OT      -0.834000       15.9994           0
     44491 TIP3     7370     TIP3     H1       HT       0.417000       1.00800           0
     44492 TIP3     7370     TIP3     H2       HT       0.417000       1.00800           0
     44493 TIP3     7371     TIP3     OH2      OT      -0.834000       15.9994           0
     44494 TIP3     7371     TIP3     H1       HT       0.417000       1.00800           0
     44495 TIP3     7371     TIP3     H2       HT       0.417000       1.00800           0
     44496 TIP3     7372     TIP3     OH2      OT      -0.834000       15.9994           0
     44497 TIP3     7372     TIP3     H1       HT       0.417000       1.00800           0
     44498 TIP3     7372     TIP3     H2       HT       0.417000       1.00800           0
     44499 TIP3     7373     TIP3     OH2      OT      -0.834000       15.9994           0
     44500 TIP3     7373     TIP3     H1       HT       0.417000       1.00800           0
     44501 TIP3     7373     TIP3     H2       HT       0.417000       1.00800           0
     44502 TIP3     7374     TIP3     OH2      OT      -0.834000       15.9994           0
     44503 TIP3     7374     TIP3     H1       HT       0.417000       1.00800           0
     44504 TIP3     7374     TIP3     H2       HT       0.417000       1.00800           0
     44505 TIP3     7375     TIP3     OH2      OT      -0.834000       15.9994           0
     44506 TIP3     7375     TIP3     H1       HT       0.417000       1.00800           0
     44507 TIP3     7375     TIP3     H2       HT       0.417000       1.00800           0
     44508 TIP3     7376     TIP3     OH2      OT      -0.834000       15.9994           0
     44509 TIP3     7376     TIP3     H1       HT       0.417000       1.00800           0
     44510 TIP3     7376     TIP3     H2       HT       0.417000       1.00800           0
     44511 TIP3     7377     TIP3     OH2      OT      -0.834000       15.9994           0
     44512 TIP3     7377     TIP3     H1       HT       0.417000       1.00800           0
     44513 TIP3     7377     TIP3     H2       HT       0.417000       1.00800           0
     44514 TIP3     7378     TIP3     OH2      OT      -0.834000       15.9994           0
     44515 TIP3     7378     TIP3     H1       HT       0.417000       1.00800           0
     44516 TIP3     7378     TIP3     H2       HT       0.417000       1.00800           0
     44517 TIP3     7379     TIP3     OH2      OT      -0.834000       15.9994           0
     44518 TIP3     7379     TIP3     H1       HT       0.417000       1.00800           0
     44519 TIP3     7379     TIP3     H2       HT       0.417000       1.00800           0
     44520 TIP3     7380     TIP3     OH2      OT      -0.834000       15.9994           0
     44521 TIP3     7380     TIP3     H1       HT       0.417000       1.00800           0
     44522 TIP3     7380     TIP3     H2       HT       0.417000       1.00800           0
     44523 TIP3     7381     TIP3     OH2      OT      -0.834000       15.9994           0
     44524 TIP3     7381     TIP3     H1       HT       0.417000       1.00800           0
     44525 TIP3     7381     TIP3     H2       HT       0.417000       1.00800           0
     44526 TIP3     7382     TIP3     OH2      OT      -0.834000       15.9994           0
     44527 TIP3     7382     TIP3     H1       HT       0.417000       1.00800           0
     44528 TIP3     7382     TIP3     H2       HT       0.417000       1.00800           0
     44529 TIP3     7383     TIP3     OH2      OT      -0.834000       15.9994           0
     44530 TIP3     7383     TIP3     H1       HT       0.417000       1.00800           0
     44531 TIP3     7383     TIP3     H2       HT       0.417000       1.00800           0
     44532 TIP3     7384     TIP3     OH2      OT      -0.834000       15.9994           0
     44533 TIP3     7384     TIP3     H1       HT       0.417000       1.00800           0
     44534 TIP3     7384     TIP3     H2       HT       0.417000       1.00800           0
     44535 TIP3     7385     TIP3     OH2      OT      -0.834000       15.9994           0
     44536 TIP3     7385     TIP3     H1       HT       0.417000       1.00800           0
     44537 TIP3     7385     TIP3     H2       HT       0.417000       1.00800           0
     44538 TIP3     7386     TIP3     OH2      OT      -0.834000       15.9994           0
     44539 TIP3     7386     TIP3     H1       HT       0.417000       1.00800           0
     44540 TIP3     7386     TIP3     H2       HT       0.417000       1.00800           0
     44541 TIP3     7387     TIP3     OH2      OT      -0.834000       15.9994           0
     44542 TIP3     7387     TIP3     H1       HT       0.417000       1.00800           0
     44543 TIP3     7387     TIP3     H2       HT       0.417000       1.00800           0
     44544 TIP3     7388     TIP3     OH2      OT      -0.834000       15.9994           0
     44545 TIP3     7388     TIP3     H1       HT       0.417000       1.00800           0
     44546 TIP3     7388     TIP3     H2       HT       0.417000       1.00800           0
     44547 TIP3     7389     TIP3     OH2      OT      -0.834000       15.9994           0
     44548 TIP3     7389     TIP3     H1       HT       0.417000       1.00800           0
     44549 TIP3     7389     TIP3     H2       HT       0.417000       1.00800           0
     44550 TIP3     7390     TIP3     OH2      OT      -0.834000       15.9994           0
     44551 TIP3     7390     TIP3     H1       HT       0.417000       1.00800           0
     44552 TIP3     7390     TIP3     H2       HT       0.417000       1.00800           0
     44553 TIP3     7391     TIP3     OH2      OT      -0.834000       15.9994           0
     44554 TIP3     7391     TIP3     H1       HT       0.417000       1.00800           0
     44555 TIP3     7391     TIP3     H2       HT       0.417000       1.00800           0
     44556 TIP3     7392     TIP3     OH2      OT      -0.834000       15.9994           0
     44557 TIP3     7392     TIP3     H1       HT       0.417000       1.00800           0
     44558 TIP3     7392     TIP3     H2       HT       0.417000       1.00800           0
     44559 TIP3     7393     TIP3     OH2      OT      -0.834000       15.9994           0
     44560 TIP3     7393     TIP3     H1       HT       0.417000       1.00800           0
     44561 TIP3     7393     TIP3     H2       HT       0.417000       1.00800           0
     44562 TIP3     7394     TIP3     OH2      OT      -0.834000       15.9994           0
     44563 TIP3     7394     TIP3     H1       HT       0.417000       1.00800           0
     44564 TIP3     7394     TIP3     H2       HT       0.417000       1.00800           0
     44565 TIP3     7395     TIP3     OH2      OT      -0.834000       15.9994           0
     44566 TIP3     7395     TIP3     H1       HT       0.417000       1.00800           0
     44567 TIP3     7395     TIP3     H2       HT       0.417000       1.00800           0
     44568 TIP3     7396     TIP3     OH2      OT      -0.834000       15.9994           0
     44569 TIP3     7396     TIP3     H1       HT       0.417000       1.00800           0
     44570 TIP3     7396     TIP3     H2       HT       0.417000       1.00800           0
     44571 TIP3     7397     TIP3     OH2      OT      -0.834000       15.9994           0
     44572 TIP3     7397     TIP3     H1       HT       0.417000       1.00800           0
     44573 TIP3     7397     TIP3     H2       HT       0.417000       1.00800           0
     44574 TIP3     7398     TIP3     OH2      OT      -0.834000       15.9994           0
     44575 TIP3     7398     TIP3     H1       HT       0.417000       1.00800           0
     44576 TIP3     7398     TIP3     H2       HT       0.417000       1.00800           0
     44577 TIP3     7399     TIP3     OH2      OT      -0.834000       15.9994           0
     44578 TIP3     7399     TIP3     H1       HT       0.417000       1.00800           0
     44579 TIP3     7399     TIP3     H2       HT       0.417000       1.00800           0
     44580 TIP3     7400     TIP3     OH2      OT      -0.834000       15.9994           0
     44581 TIP3     7400     TIP3     H1       HT       0.417000       1.00800           0
     44582 TIP3     7400     TIP3     H2       HT       0.417000       1.00800           0
     44583 TIP3     7401     TIP3     OH2      OT      -0.834000       15.9994           0
     44584 TIP3     7401     TIP3     H1       HT       0.417000       1.00800           0
     44585 TIP3     7401     TIP3     H2       HT       0.417000       1.00800           0
     44586 TIP3     7402     TIP3     OH2      OT      -0.834000       15.9994           0
     44587 TIP3     7402     TIP3     H1       HT       0.417000       1.00800           0
     44588 TIP3     7402     TIP3     H2       HT       0.417000       1.00800           0
     44589 TIP3     7403     TIP3     OH2      OT      -0.834000       15.9994           0
     44590 TIP3     7403     TIP3     H1       HT       0.417000       1.00800           0
     44591 TIP3     7403     TIP3     H2       HT       0.417000       1.00800           0
     44592 TIP3     7404     TIP3     OH2      OT      -0.834000       15.9994           0
     44593 TIP3     7404     TIP3     H1       HT       0.417000       1.00800           0
     44594 TIP3     7404     TIP3     H2       HT       0.417000       1.00800           0
     44595 TIP3     7405     TIP3     OH2      OT      -0.834000       15.9994           0
     44596 TIP3     7405     TIP3     H1       HT       0.417000       1.00800           0
     44597 TIP3     7405     TIP3     H2       HT       0.417000       1.00800           0
     44598 TIP3     7406     TIP3     OH2      OT      -0.834000       15.9994           0
     44599 TIP3     7406     TIP3     H1       HT       0.417000       1.00800           0
     44600 TIP3     7406     TIP3     H2       HT       0.417000       1.00800           0
     44601 TIP3     7407     TIP3     OH2      OT      -0.834000       15.9994           0
     44602 TIP3     7407     TIP3     H1       HT       0.417000       1.00800           0
     44603 TIP3     7407     TIP3     H2       HT       0.417000       1.00800           0
     44604 TIP3     7408     TIP3     OH2      OT      -0.834000       15.9994           0
     44605 TIP3     7408     TIP3     H1       HT       0.417000       1.00800           0
     44606 TIP3     7408     TIP3     H2       HT       0.417000       1.00800           0
     44607 TIP3     7409     TIP3     OH2      OT      -0.834000       15.9994           0
     44608 TIP3     7409     TIP3     H1       HT       0.417000       1.00800           0
     44609 TIP3     7409     TIP3     H2       HT       0.417000       1.00800           0
     44610 TIP3     7410     TIP3     OH2      OT      -0.834000       15.9994           0
     44611 TIP3     7410     TIP3     H1       HT       0.417000       1.00800           0
     44612 TIP3     7410     TIP3     H2       HT       0.417000       1.00800           0
     44613 TIP3     7411     TIP3     OH2      OT      -0.834000       15.9994           0
     44614 TIP3     7411     TIP3     H1       HT       0.417000       1.00800           0
     44615 TIP3     7411     TIP3     H2       HT       0.417000       1.00800           0
     44616 TIP3     7412     TIP3     OH2      OT      -0.834000       15.9994           0
     44617 TIP3     7412     TIP3     H1       HT       0.417000       1.00800           0
     44618 TIP3     7412     TIP3     H2       HT       0.417000       1.00800           0
     44619 TIP3     7413     TIP3     OH2      OT      -0.834000       15.9994           0
     44620 TIP3     7413     TIP3     H1       HT       0.417000       1.00800           0
     44621 TIP3     7413     TIP3     H2       HT       0.417000       1.00800           0
     44622 TIP3     7414     TIP3     OH2      OT      -0.834000       15.9994           0
     44623 TIP3     7414     TIP3     H1       HT       0.417000       1.00800           0
     44624 TIP3     7414     TIP3     H2       HT       0.417000       1.00800           0
     44625 TIP3     7415     TIP3     OH2      OT      -0.834000       15.9994           0
     44626 TIP3     7415     TIP3     H1       HT       0.417000       1.00800           0
     44627 TIP3     7415     TIP3     H2       HT       0.417000       1.00800           0
     44628 TIP3     7416     TIP3     OH2      OT      -0.834000       15.9994           0
     44629 TIP3     7416     TIP3     H1       HT       0.417000       1.00800           0
     44630 TIP3     7416     TIP3     H2       HT       0.417000       1.00800           0
     44631 TIP3     7417     TIP3     OH2      OT      -0.834000       15.9994           0
     44632 TIP3     7417     TIP3     H1       HT       0.417000       1.00800           0
     44633 TIP3     7417     TIP3     H2       HT       0.417000       1.00800           0
     44634 TIP3     7418     TIP3     OH2      OT      -0.834000       15.9994           0
     44635 TIP3     7418     TIP3     H1       HT       0.417000       1.00800           0
     44636 TIP3     7418     TIP3     H2       HT       0.417000       1.00800           0
     44637 TIP3     7419     TIP3     OH2      OT      -0.834000       15.9994           0
     44638 TIP3     7419     TIP3     H1       HT       0.417000       1.00800           0
     44639 TIP3     7419     TIP3     H2       HT       0.417000       1.00800           0
     44640 TIP3     7420     TIP3     OH2      OT      -0.834000       15.9994           0
     44641 TIP3     7420     TIP3     H1       HT       0.417000       1.00800           0
     44642 TIP3     7420     TIP3     H2       HT       0.417000       1.00800           0
     44643 TIP3     7421     TIP3     OH2      OT      -0.834000       15.9994           0
     44644 TIP3     7421     TIP3     H1       HT       0.417000       1.00800           0
     44645 TIP3     7421     TIP3     H2       HT       0.417000       1.00800           0
     44646 TIP3     7422     TIP3     OH2      OT      -0.834000       15.9994           0
     44647 TIP3     7422     TIP3     H1       HT       0.417000       1.00800           0
     44648 TIP3     7422     TIP3     H2       HT       0.417000       1.00800           0
     44649 TIP3     7423     TIP3     OH2      OT      -0.834000       15.9994           0
     44650 TIP3     7423     TIP3     H1       HT       0.417000       1.00800           0
     44651 TIP3     7423     TIP3     H2       HT       0.417000       1.00800           0
     44652 TIP3     7424     TIP3     OH2      OT      -0.834000       15.9994           0
     44653 TIP3     7424     TIP3     H1       HT       0.417000       1.00800           0
     44654 TIP3     7424     TIP3     H2       HT       0.417000       1.00800           0
     44655 TIP3     7425     TIP3     OH2      OT      -0.834000       15.9994           0
     44656 TIP3     7425     TIP3     H1       HT       0.417000       1.00800           0
     44657 TIP3     7425     TIP3     H2       HT       0.417000       1.00800           0
     44658 TIP3     7426     TIP3     OH2      OT      -0.834000       15.9994           0
     44659 TIP3     7426     TIP3     H1       HT       0.417000       1.00800           0
     44660 TIP3     7426     TIP3     H2       HT       0.417000       1.00800           0
     44661 TIP3     7427     TIP3     OH2      OT      -0.834000       15.9994           0
     44662 TIP3     7427     TIP3     H1       HT       0.417000       1.00800           0
     44663 TIP3     7427     TIP3     H2       HT       0.417000       1.00800           0
     44664 TIP3     7428     TIP3     OH2      OT      -0.834000       15.9994           0
     44665 TIP3     7428     TIP3     H1       HT       0.417000       1.00800           0
     44666 TIP3     7428     TIP3     H2       HT       0.417000       1.00800           0
     44667 TIP3     7429     TIP3     OH2      OT      -0.834000       15.9994           0
     44668 TIP3     7429     TIP3     H1       HT       0.417000       1.00800           0
     44669 TIP3     7429     TIP3     H2       HT       0.417000       1.00800           0
     44670 TIP3     7430     TIP3     OH2      OT      -0.834000       15.9994           0
     44671 TIP3     7430     TIP3     H1       HT       0.417000       1.00800           0
     44672 TIP3     7430     TIP3     H2       HT       0.417000       1.00800           0
     44673 TIP3     7431     TIP3     OH2      OT      -0.834000       15.9994           0
     44674 TIP3     7431     TIP3     H1       HT       0.417000       1.00800           0
     44675 TIP3     7431     TIP3     H2       HT       0.417000       1.00800           0
     44676 TIP3     7432     TIP3     OH2      OT      -0.834000       15.9994           0
     44677 TIP3     7432     TIP3     H1       HT       0.417000       1.00800           0
     44678 TIP3     7432     TIP3     H2       HT       0.417000       1.00800           0
     44679 TIP3     7433     TIP3     OH2      OT      -0.834000       15.9994           0
     44680 TIP3     7433     TIP3     H1       HT       0.417000       1.00800           0
     44681 TIP3     7433     TIP3     H2       HT       0.417000       1.00800           0
     44682 TIP3     7434     TIP3     OH2      OT      -0.834000       15.9994           0
     44683 TIP3     7434     TIP3     H1       HT       0.417000       1.00800           0
     44684 TIP3     7434     TIP3     H2       HT       0.417000       1.00800           0
     44685 TIP3     7435     TIP3     OH2      OT      -0.834000       15.9994           0
     44686 TIP3     7435     TIP3     H1       HT       0.417000       1.00800           0
     44687 TIP3     7435     TIP3     H2       HT       0.417000       1.00800           0
     44688 TIP3     7436     TIP3     OH2      OT      -0.834000       15.9994           0
     44689 TIP3     7436     TIP3     H1       HT       0.417000       1.00800           0
     44690 TIP3     7436     TIP3     H2       HT       0.417000       1.00800           0
     44691 TIP3     7437     TIP3     OH2      OT      -0.834000       15.9994           0
     44692 TIP3     7437     TIP3     H1       HT       0.417000       1.00800           0
     44693 TIP3     7437     TIP3     H2       HT       0.417000       1.00800           0
     44694 TIP3     7438     TIP3     OH2      OT      -0.834000       15.9994           0
     44695 TIP3     7438     TIP3     H1       HT       0.417000       1.00800           0
     44696 TIP3     7438     TIP3     H2       HT       0.417000       1.00800           0
     44697 TIP3     7439     TIP3     OH2      OT      -0.834000       15.9994           0
     44698 TIP3     7439     TIP3     H1       HT       0.417000       1.00800           0
     44699 TIP3     7439     TIP3     H2       HT       0.417000       1.00800           0
     44700 TIP3     7440     TIP3     OH2      OT      -0.834000       15.9994           0
     44701 TIP3     7440     TIP3     H1       HT       0.417000       1.00800           0
     44702 TIP3     7440     TIP3     H2       HT       0.417000       1.00800           0
     44703 TIP3     7441     TIP3     OH2      OT      -0.834000       15.9994           0
     44704 TIP3     7441     TIP3     H1       HT       0.417000       1.00800           0
     44705 TIP3     7441     TIP3     H2       HT       0.417000       1.00800           0
     44706 TIP3     7442     TIP3     OH2      OT      -0.834000       15.9994           0
     44707 TIP3     7442     TIP3     H1       HT       0.417000       1.00800           0
     44708 TIP3     7442     TIP3     H2       HT       0.417000       1.00800           0
     44709 TIP3     7443     TIP3     OH2      OT      -0.834000       15.9994           0
     44710 TIP3     7443     TIP3     H1       HT       0.417000       1.00800           0
     44711 TIP3     7443     TIP3     H2       HT       0.417000       1.00800           0
     44712 TIP3     7444     TIP3     OH2      OT      -0.834000       15.9994           0
     44713 TIP3     7444     TIP3     H1       HT       0.417000       1.00800           0
     44714 TIP3     7444     TIP3     H2       HT       0.417000       1.00800           0
     44715 TIP3     7445     TIP3     OH2      OT      -0.834000       15.9994           0
     44716 TIP3     7445     TIP3     H1       HT       0.417000       1.00800           0
     44717 TIP3     7445     TIP3     H2       HT       0.417000       1.00800           0
     44718 TIP3     7446     TIP3     OH2      OT      -0.834000       15.9994           0
     44719 TIP3     7446     TIP3     H1       HT       0.417000       1.00800           0
     44720 TIP3     7446     TIP3     H2       HT       0.417000       1.00800           0
     44721 TIP3     7447     TIP3     OH2      OT      -0.834000       15.9994           0
     44722 TIP3     7447     TIP3     H1       HT       0.417000       1.00800           0
     44723 TIP3     7447     TIP3     H2       HT       0.417000       1.00800           0
     44724 TIP3     7448     TIP3     OH2      OT      -0.834000       15.9994           0
     44725 TIP3     7448     TIP3     H1       HT       0.417000       1.00800           0
     44726 TIP3     7448     TIP3     H2       HT       0.417000       1.00800           0
     44727 TIP3     7449     TIP3     OH2      OT      -0.834000       15.9994           0
     44728 TIP3     7449     TIP3     H1       HT       0.417000       1.00800           0
     44729 TIP3     7449     TIP3     H2       HT       0.417000       1.00800           0
     44730 TIP3     7450     TIP3     OH2      OT      -0.834000       15.9994           0
     44731 TIP3     7450     TIP3     H1       HT       0.417000       1.00800           0
     44732 TIP3     7450     TIP3     H2       HT       0.417000       1.00800           0
     44733 TIP3     7451     TIP3     OH2      OT      -0.834000       15.9994           0
     44734 TIP3     7451     TIP3     H1       HT       0.417000       1.00800           0
     44735 TIP3     7451     TIP3     H2       HT       0.417000       1.00800           0
     44736 TIP3     7452     TIP3     OH2      OT      -0.834000       15.9994           0
     44737 TIP3     7452     TIP3     H1       HT       0.417000       1.00800           0
     44738 TIP3     7452     TIP3     H2       HT       0.417000       1.00800           0
     44739 TIP3     7453     TIP3     OH2      OT      -0.834000       15.9994           0
     44740 TIP3     7453     TIP3     H1       HT       0.417000       1.00800           0
     44741 TIP3     7453     TIP3     H2       HT       0.417000       1.00800           0
     44742 TIP3     7454     TIP3     OH2      OT      -0.834000       15.9994           0
     44743 TIP3     7454     TIP3     H1       HT       0.417000       1.00800           0
     44744 TIP3     7454     TIP3     H2       HT       0.417000       1.00800           0
     44745 TIP3     7455     TIP3     OH2      OT      -0.834000       15.9994           0
     44746 TIP3     7455     TIP3     H1       HT       0.417000       1.00800           0
     44747 TIP3     7455     TIP3     H2       HT       0.417000       1.00800           0
     44748 TIP3     7456     TIP3     OH2      OT      -0.834000       15.9994           0
     44749 TIP3     7456     TIP3     H1       HT       0.417000       1.00800           0
     44750 TIP3     7456     TIP3     H2       HT       0.417000       1.00800           0
     44751 TIP3     7457     TIP3     OH2      OT      -0.834000       15.9994           0
     44752 TIP3     7457     TIP3     H1       HT       0.417000       1.00800           0
     44753 TIP3     7457     TIP3     H2       HT       0.417000       1.00800           0
     44754 TIP3     7458     TIP3     OH2      OT      -0.834000       15.9994           0
     44755 TIP3     7458     TIP3     H1       HT       0.417000       1.00800           0
     44756 TIP3     7458     TIP3     H2       HT       0.417000       1.00800           0
     44757 TIP3     7459     TIP3     OH2      OT      -0.834000       15.9994           0
     44758 TIP3     7459     TIP3     H1       HT       0.417000       1.00800           0
     44759 TIP3     7459     TIP3     H2       HT       0.417000       1.00800           0
     44760 TIP3     7460     TIP3     OH2      OT      -0.834000       15.9994           0
     44761 TIP3     7460     TIP3     H1       HT       0.417000       1.00800           0
     44762 TIP3     7460     TIP3     H2       HT       0.417000       1.00800           0
     44763 TIP3     7461     TIP3     OH2      OT      -0.834000       15.9994           0
     44764 TIP3     7461     TIP3     H1       HT       0.417000       1.00800           0
     44765 TIP3     7461     TIP3     H2       HT       0.417000       1.00800           0
     44766 TIP3     7462     TIP3     OH2      OT      -0.834000       15.9994           0
     44767 TIP3     7462     TIP3     H1       HT       0.417000       1.00800           0
     44768 TIP3     7462     TIP3     H2       HT       0.417000       1.00800           0
     44769 TIP3     7463     TIP3     OH2      OT      -0.834000       15.9994           0
     44770 TIP3     7463     TIP3     H1       HT       0.417000       1.00800           0
     44771 TIP3     7463     TIP3     H2       HT       0.417000       1.00800           0
     44772 TIP3     7464     TIP3     OH2      OT      -0.834000       15.9994           0
     44773 TIP3     7464     TIP3     H1       HT       0.417000       1.00800           0
     44774 TIP3     7464     TIP3     H2       HT       0.417000       1.00800           0
     44775 TIP3     7465     TIP3     OH2      OT      -0.834000       15.9994           0
     44776 TIP3     7465     TIP3     H1       HT       0.417000       1.00800           0
     44777 TIP3     7465     TIP3     H2       HT       0.417000       1.00800           0
     44778 TIP3     7466     TIP3     OH2      OT      -0.834000       15.9994           0
     44779 TIP3     7466     TIP3     H1       HT       0.417000       1.00800           0
     44780 TIP3     7466     TIP3     H2       HT       0.417000       1.00800           0
     44781 TIP3     7467     TIP3     OH2      OT      -0.834000       15.9994           0
     44782 TIP3     7467     TIP3     H1       HT       0.417000       1.00800           0
     44783 TIP3     7467     TIP3     H2       HT       0.417000       1.00800           0
     44784 TIP3     7468     TIP3     OH2      OT      -0.834000       15.9994           0
     44785 TIP3     7468     TIP3     H1       HT       0.417000       1.00800           0
     44786 TIP3     7468     TIP3     H2       HT       0.417000       1.00800           0
     44787 TIP3     7469     TIP3     OH2      OT      -0.834000       15.9994           0
     44788 TIP3     7469     TIP3     H1       HT       0.417000       1.00800           0
     44789 TIP3     7469     TIP3     H2       HT       0.417000       1.00800           0
     44790 TIP3     7470     TIP3     OH2      OT      -0.834000       15.9994           0
     44791 TIP3     7470     TIP3     H1       HT       0.417000       1.00800           0
     44792 TIP3     7470     TIP3     H2       HT       0.417000       1.00800           0
     44793 TIP3     7471     TIP3     OH2      OT      -0.834000       15.9994           0
     44794 TIP3     7471     TIP3     H1       HT       0.417000       1.00800           0
     44795 TIP3     7471     TIP3     H2       HT       0.417000       1.00800           0
     44796 TIP3     7472     TIP3     OH2      OT      -0.834000       15.9994           0
     44797 TIP3     7472     TIP3     H1       HT       0.417000       1.00800           0
     44798 TIP3     7472     TIP3     H2       HT       0.417000       1.00800           0
     44799 TIP3     7473     TIP3     OH2      OT      -0.834000       15.9994           0
     44800 TIP3     7473     TIP3     H1       HT       0.417000       1.00800           0
     44801 TIP3     7473     TIP3     H2       HT       0.417000       1.00800           0
     44802 TIP3     7474     TIP3     OH2      OT      -0.834000       15.9994           0
     44803 TIP3     7474     TIP3     H1       HT       0.417000       1.00800           0
     44804 TIP3     7474     TIP3     H2       HT       0.417000       1.00800           0
     44805 TIP3     7475     TIP3     OH2      OT      -0.834000       15.9994           0
     44806 TIP3     7475     TIP3     H1       HT       0.417000       1.00800           0
     44807 TIP3     7475     TIP3     H2       HT       0.417000       1.00800           0
     44808 TIP3     7476     TIP3     OH2      OT      -0.834000       15.9994           0
     44809 TIP3     7476     TIP3     H1       HT       0.417000       1.00800           0
     44810 TIP3     7476     TIP3     H2       HT       0.417000       1.00800           0
     44811 TIP3     7477     TIP3     OH2      OT      -0.834000       15.9994           0
     44812 TIP3     7477     TIP3     H1       HT       0.417000       1.00800           0
     44813 TIP3     7477     TIP3     H2       HT       0.417000       1.00800           0
     44814 TIP3     7478     TIP3     OH2      OT      -0.834000       15.9994           0
     44815 TIP3     7478     TIP3     H1       HT       0.417000       1.00800           0
     44816 TIP3     7478     TIP3     H2       HT       0.417000       1.00800           0
     44817 TIP3     7479     TIP3     OH2      OT      -0.834000       15.9994           0
     44818 TIP3     7479     TIP3     H1       HT       0.417000       1.00800           0
     44819 TIP3     7479     TIP3     H2       HT       0.417000       1.00800           0
     44820 TIP3     7480     TIP3     OH2      OT      -0.834000       15.9994           0
     44821 TIP3     7480     TIP3     H1       HT       0.417000       1.00800           0
     44822 TIP3     7480     TIP3     H2       HT       0.417000       1.00800           0
     44823 TIP3     7481     TIP3     OH2      OT      -0.834000       15.9994           0
     44824 TIP3     7481     TIP3     H1       HT       0.417000       1.00800           0
     44825 TIP3     7481     TIP3     H2       HT       0.417000       1.00800           0
     44826 TIP3     7482     TIP3     OH2      OT      -0.834000       15.9994           0
     44827 TIP3     7482     TIP3     H1       HT       0.417000       1.00800           0
     44828 TIP3     7482     TIP3     H2       HT       0.417000       1.00800           0
     44829 TIP3     7483     TIP3     OH2      OT      -0.834000       15.9994           0
     44830 TIP3     7483     TIP3     H1       HT       0.417000       1.00800           0
     44831 TIP3     7483     TIP3     H2       HT       0.417000       1.00800           0
     44832 TIP3     7484     TIP3     OH2      OT      -0.834000       15.9994           0
     44833 TIP3     7484     TIP3     H1       HT       0.417000       1.00800           0
     44834 TIP3     7484     TIP3     H2       HT       0.417000       1.00800           0
     44835 TIP3     7485     TIP3     OH2      OT      -0.834000       15.9994           0
     44836 TIP3     7485     TIP3     H1       HT       0.417000       1.00800           0
     44837 TIP3     7485     TIP3     H2       HT       0.417000       1.00800           0
     44838 TIP3     7486     TIP3     OH2      OT      -0.834000       15.9994           0
     44839 TIP3     7486     TIP3     H1       HT       0.417000       1.00800           0
     44840 TIP3     7486     TIP3     H2       HT       0.417000       1.00800           0
     44841 TIP3     7487     TIP3     OH2      OT      -0.834000       15.9994           0
     44842 TIP3     7487     TIP3     H1       HT       0.417000       1.00800           0
     44843 TIP3     7487     TIP3     H2       HT       0.417000       1.00800           0
     44844 TIP3     7488     TIP3     OH2      OT      -0.834000       15.9994           0
     44845 TIP3     7488     TIP3     H1       HT       0.417000       1.00800           0
     44846 TIP3     7488     TIP3     H2       HT       0.417000       1.00800           0
     44847 TIP3     7489     TIP3     OH2      OT      -0.834000       15.9994           0
     44848 TIP3     7489     TIP3     H1       HT       0.417000       1.00800           0
     44849 TIP3     7489     TIP3     H2       HT       0.417000       1.00800           0
     44850 TIP3     7490     TIP3     OH2      OT      -0.834000       15.9994           0
     44851 TIP3     7490     TIP3     H1       HT       0.417000       1.00800           0
     44852 TIP3     7490     TIP3     H2       HT       0.417000       1.00800           0
     44853 TIP3     7491     TIP3     OH2      OT      -0.834000       15.9994           0
     44854 TIP3     7491     TIP3     H1       HT       0.417000       1.00800           0
     44855 TIP3     7491     TIP3     H2       HT       0.417000       1.00800           0
     44856 TIP3     7492     TIP3     OH2      OT      -0.834000       15.9994           0
     44857 TIP3     7492     TIP3     H1       HT       0.417000       1.00800           0
     44858 TIP3     7492     TIP3     H2       HT       0.417000       1.00800           0
     44859 TIP3     7493     TIP3     OH2      OT      -0.834000       15.9994           0
     44860 TIP3     7493     TIP3     H1       HT       0.417000       1.00800           0
     44861 TIP3     7493     TIP3     H2       HT       0.417000       1.00800           0
     44862 TIP3     7494     TIP3     OH2      OT      -0.834000       15.9994           0
     44863 TIP3     7494     TIP3     H1       HT       0.417000       1.00800           0
     44864 TIP3     7494     TIP3     H2       HT       0.417000       1.00800           0
     44865 TIP3     7495     TIP3     OH2      OT      -0.834000       15.9994           0
     44866 TIP3     7495     TIP3     H1       HT       0.417000       1.00800           0
     44867 TIP3     7495     TIP3     H2       HT       0.417000       1.00800           0
     44868 TIP3     7496     TIP3     OH2      OT      -0.834000       15.9994           0
     44869 TIP3     7496     TIP3     H1       HT       0.417000       1.00800           0
     44870 TIP3     7496     TIP3     H2       HT       0.417000       1.00800           0
     44871 TIP3     7497     TIP3     OH2      OT      -0.834000       15.9994           0
     44872 TIP3     7497     TIP3     H1       HT       0.417000       1.00800           0
     44873 TIP3     7497     TIP3     H2       HT       0.417000       1.00800           0
     44874 TIP3     7498     TIP3     OH2      OT      -0.834000       15.9994           0
     44875 TIP3     7498     TIP3     H1       HT       0.417000       1.00800           0
     44876 TIP3     7498     TIP3     H2       HT       0.417000       1.00800           0
     44877 TIP3     7499     TIP3     OH2      OT      -0.834000       15.9994           0
     44878 TIP3     7499     TIP3     H1       HT       0.417000       1.00800           0
     44879 TIP3     7499     TIP3     H2       HT       0.417000       1.00800           0
     44880 TIP3     7500     TIP3     OH2      OT      -0.834000       15.9994           0
     44881 TIP3     7500     TIP3     H1       HT       0.417000       1.00800           0
     44882 TIP3     7500     TIP3     H2       HT       0.417000       1.00800           0
     44883 TIP3     7501     TIP3     OH2      OT      -0.834000       15.9994           0
     44884 TIP3     7501     TIP3     H1       HT       0.417000       1.00800           0
     44885 TIP3     7501     TIP3     H2       HT       0.417000       1.00800           0
     44886 TIP3     7502     TIP3     OH2      OT      -0.834000       15.9994           0
     44887 TIP3     7502     TIP3     H1       HT       0.417000       1.00800           0
     44888 TIP3     7502     TIP3     H2       HT       0.417000       1.00800           0
     44889 TIP3     7503     TIP3     OH2      OT      -0.834000       15.9994           0
     44890 TIP3     7503     TIP3     H1       HT       0.417000       1.00800           0
     44891 TIP3     7503     TIP3     H2       HT       0.417000       1.00800           0
     44892 TIP3     7504     TIP3     OH2      OT      -0.834000       15.9994           0
     44893 TIP3     7504     TIP3     H1       HT       0.417000       1.00800           0
     44894 TIP3     7504     TIP3     H2       HT       0.417000       1.00800           0
     44895 TIP3     7505     TIP3     OH2      OT      -0.834000       15.9994           0
     44896 TIP3     7505     TIP3     H1       HT       0.417000       1.00800           0
     44897 TIP3     7505     TIP3     H2       HT       0.417000       1.00800           0
     44898 TIP3     7506     TIP3     OH2      OT      -0.834000       15.9994           0
     44899 TIP3     7506     TIP3     H1       HT       0.417000       1.00800           0
     44900 TIP3     7506     TIP3     H2       HT       0.417000       1.00800           0
     44901 TIP3     7507     TIP3     OH2      OT      -0.834000       15.9994           0
     44902 TIP3     7507     TIP3     H1       HT       0.417000       1.00800           0
     44903 TIP3     7507     TIP3     H2       HT       0.417000       1.00800           0
     44904 TIP3     7508     TIP3     OH2      OT      -0.834000       15.9994           0
     44905 TIP3     7508     TIP3     H1       HT       0.417000       1.00800           0
     44906 TIP3     7508     TIP3     H2       HT       0.417000       1.00800           0
     44907 TIP3     7509     TIP3     OH2      OT      -0.834000       15.9994           0
     44908 TIP3     7509     TIP3     H1       HT       0.417000       1.00800           0
     44909 TIP3     7509     TIP3     H2       HT       0.417000       1.00800           0
     44910 TIP3     7510     TIP3     OH2      OT      -0.834000       15.9994           0
     44911 TIP3     7510     TIP3     H1       HT       0.417000       1.00800           0
     44912 TIP3     7510     TIP3     H2       HT       0.417000       1.00800           0
     44913 TIP3     7511     TIP3     OH2      OT      -0.834000       15.9994           0
     44914 TIP3     7511     TIP3     H1       HT       0.417000       1.00800           0
     44915 TIP3     7511     TIP3     H2       HT       0.417000       1.00800           0
     44916 TIP3     7512     TIP3     OH2      OT      -0.834000       15.9994           0
     44917 TIP3     7512     TIP3     H1       HT       0.417000       1.00800           0
     44918 TIP3     7512     TIP3     H2       HT       0.417000       1.00800           0
     44919 TIP3     7513     TIP3     OH2      OT      -0.834000       15.9994           0
     44920 TIP3     7513     TIP3     H1       HT       0.417000       1.00800           0
     44921 TIP3     7513     TIP3     H2       HT       0.417000       1.00800           0
     44922 TIP3     7514     TIP3     OH2      OT      -0.834000       15.9994           0
     44923 TIP3     7514     TIP3     H1       HT       0.417000       1.00800           0
     44924 TIP3     7514     TIP3     H2       HT       0.417000       1.00800           0
     44925 TIP3     7515     TIP3     OH2      OT      -0.834000       15.9994           0
     44926 TIP3     7515     TIP3     H1       HT       0.417000       1.00800           0
     44927 TIP3     7515     TIP3     H2       HT       0.417000       1.00800           0
     44928 TIP3     7516     TIP3     OH2      OT      -0.834000       15.9994           0
     44929 TIP3     7516     TIP3     H1       HT       0.417000       1.00800           0
     44930 TIP3     7516     TIP3     H2       HT       0.417000       1.00800           0
     44931 TIP3     7517     TIP3     OH2      OT      -0.834000       15.9994           0
     44932 TIP3     7517     TIP3     H1       HT       0.417000       1.00800           0
     44933 TIP3     7517     TIP3     H2       HT       0.417000       1.00800           0
     44934 TIP3     7518     TIP3     OH2      OT      -0.834000       15.9994           0
     44935 TIP3     7518     TIP3     H1       HT       0.417000       1.00800           0
     44936 TIP3     7518     TIP3     H2       HT       0.417000       1.00800           0
     44937 TIP3     7519     TIP3     OH2      OT      -0.834000       15.9994           0
     44938 TIP3     7519     TIP3     H1       HT       0.417000       1.00800           0
     44939 TIP3     7519     TIP3     H2       HT       0.417000       1.00800           0
     44940 TIP3     7520     TIP3     OH2      OT      -0.834000       15.9994           0
     44941 TIP3     7520     TIP3     H1       HT       0.417000       1.00800           0
     44942 TIP3     7520     TIP3     H2       HT       0.417000       1.00800           0
     44943 TIP3     7521     TIP3     OH2      OT      -0.834000       15.9994           0
     44944 TIP3     7521     TIP3     H1       HT       0.417000       1.00800           0
     44945 TIP3     7521     TIP3     H2       HT       0.417000       1.00800           0
     44946 TIP3     7522     TIP3     OH2      OT      -0.834000       15.9994           0
     44947 TIP3     7522     TIP3     H1       HT       0.417000       1.00800           0
     44948 TIP3     7522     TIP3     H2       HT       0.417000       1.00800           0
     44949 TIP3     7523     TIP3     OH2      OT      -0.834000       15.9994           0
     44950 TIP3     7523     TIP3     H1       HT       0.417000       1.00800           0
     44951 TIP3     7523     TIP3     H2       HT       0.417000       1.00800           0
     44952 TIP3     7524     TIP3     OH2      OT      -0.834000       15.9994           0
     44953 TIP3     7524     TIP3     H1       HT       0.417000       1.00800           0
     44954 TIP3     7524     TIP3     H2       HT       0.417000       1.00800           0
     44955 TIP3     7525     TIP3     OH2      OT      -0.834000       15.9994           0
     44956 TIP3     7525     TIP3     H1       HT       0.417000       1.00800           0
     44957 TIP3     7525     TIP3     H2       HT       0.417000       1.00800           0
     44958 TIP3     7526     TIP3     OH2      OT      -0.834000       15.9994           0
     44959 TIP3     7526     TIP3     H1       HT       0.417000       1.00800           0
     44960 TIP3     7526     TIP3     H2       HT       0.417000       1.00800           0
     44961 TIP3     7527     TIP3     OH2      OT      -0.834000       15.9994           0
     44962 TIP3     7527     TIP3     H1       HT       0.417000       1.00800           0
     44963 TIP3     7527     TIP3     H2       HT       0.417000       1.00800           0
     44964 TIP3     7528     TIP3     OH2      OT      -0.834000       15.9994           0
     44965 TIP3     7528     TIP3     H1       HT       0.417000       1.00800           0
     44966 TIP3     7528     TIP3     H2       HT       0.417000       1.00800           0
     44967 TIP3     7529     TIP3     OH2      OT      -0.834000       15.9994           0
     44968 TIP3     7529     TIP3     H1       HT       0.417000       1.00800           0
     44969 TIP3     7529     TIP3     H2       HT       0.417000       1.00800           0
     44970 TIP3     7530     TIP3     OH2      OT      -0.834000       15.9994           0
     44971 TIP3     7530     TIP3     H1       HT       0.417000       1.00800           0
     44972 TIP3     7530     TIP3     H2       HT       0.417000       1.00800           0
     44973 TIP3     7531     TIP3     OH2      OT      -0.834000       15.9994           0
     44974 TIP3     7531     TIP3     H1       HT       0.417000       1.00800           0
     44975 TIP3     7531     TIP3     H2       HT       0.417000       1.00800           0
     44976 TIP3     7532     TIP3     OH2      OT      -0.834000       15.9994           0
     44977 TIP3     7532     TIP3     H1       HT       0.417000       1.00800           0
     44978 TIP3     7532     TIP3     H2       HT       0.417000       1.00800           0
     44979 TIP3     7533     TIP3     OH2      OT      -0.834000       15.9994           0
     44980 TIP3     7533     TIP3     H1       HT       0.417000       1.00800           0
     44981 TIP3     7533     TIP3     H2       HT       0.417000       1.00800           0
     44982 TIP3     7534     TIP3     OH2      OT      -0.834000       15.9994           0
     44983 TIP3     7534     TIP3     H1       HT       0.417000       1.00800           0
     44984 TIP3     7534     TIP3     H2       HT       0.417000       1.00800           0
     44985 TIP3     7535     TIP3     OH2      OT      -0.834000       15.9994           0
     44986 TIP3     7535     TIP3     H1       HT       0.417000       1.00800           0
     44987 TIP3     7535     TIP3     H2       HT       0.417000       1.00800           0
     44988 TIP3     7536     TIP3     OH2      OT      -0.834000       15.9994           0
     44989 TIP3     7536     TIP3     H1       HT       0.417000       1.00800           0
     44990 TIP3     7536     TIP3     H2       HT       0.417000       1.00800           0
     44991 TIP3     7537     TIP3     OH2      OT      -0.834000       15.9994           0
     44992 TIP3     7537     TIP3     H1       HT       0.417000       1.00800           0
     44993 TIP3     7537     TIP3     H2       HT       0.417000       1.00800           0
     44994 TIP3     7538     TIP3     OH2      OT      -0.834000       15.9994           0
     44995 TIP3     7538     TIP3     H1       HT       0.417000       1.00800           0
     44996 TIP3     7538     TIP3     H2       HT       0.417000       1.00800           0
     44997 TIP3     7539     TIP3     OH2      OT      -0.834000       15.9994           0
     44998 TIP3     7539     TIP3     H1       HT       0.417000       1.00800           0
     44999 TIP3     7539     TIP3     H2       HT       0.417000       1.00800           0
     45000 TIP3     7540     TIP3     OH2      OT      -0.834000       15.9994           0
     45001 TIP3     7540     TIP3     H1       HT       0.417000       1.00800           0
     45002 TIP3     7540     TIP3     H2       HT       0.417000       1.00800           0
     45003 TIP3     7541     TIP3     OH2      OT      -0.834000       15.9994           0
     45004 TIP3     7541     TIP3     H1       HT       0.417000       1.00800           0
     45005 TIP3     7541     TIP3     H2       HT       0.417000       1.00800           0
     45006 TIP3     7542     TIP3     OH2      OT      -0.834000       15.9994           0
     45007 TIP3     7542     TIP3     H1       HT       0.417000       1.00800           0
     45008 TIP3     7542     TIP3     H2       HT       0.417000       1.00800           0
     45009 TIP3     7543     TIP3     OH2      OT      -0.834000       15.9994           0
     45010 TIP3     7543     TIP3     H1       HT       0.417000       1.00800           0
     45011 TIP3     7543     TIP3     H2       HT       0.417000       1.00800           0
     45012 TIP3     7544     TIP3     OH2      OT      -0.834000       15.9994           0
     45013 TIP3     7544     TIP3     H1       HT       0.417000       1.00800           0
     45014 TIP3     7544     TIP3     H2       HT       0.417000       1.00800           0
     45015 TIP3     7545     TIP3     OH2      OT      -0.834000       15.9994           0
     45016 TIP3     7545     TIP3     H1       HT       0.417000       1.00800           0
     45017 TIP3     7545     TIP3     H2       HT       0.417000       1.00800           0
     45018 TIP3     7546     TIP3     OH2      OT      -0.834000       15.9994           0
     45019 TIP3     7546     TIP3     H1       HT       0.417000       1.00800           0
     45020 TIP3     7546     TIP3     H2       HT       0.417000       1.00800           0
     45021 TIP3     7547     TIP3     OH2      OT      -0.834000       15.9994           0
     45022 TIP3     7547     TIP3     H1       HT       0.417000       1.00800           0
     45023 TIP3     7547     TIP3     H2       HT       0.417000       1.00800           0
     45024 TIP3     7548     TIP3     OH2      OT      -0.834000       15.9994           0
     45025 TIP3     7548     TIP3     H1       HT       0.417000       1.00800           0
     45026 TIP3     7548     TIP3     H2       HT       0.417000       1.00800           0
     45027 TIP3     7549     TIP3     OH2      OT      -0.834000       15.9994           0
     45028 TIP3     7549     TIP3     H1       HT       0.417000       1.00800           0
     45029 TIP3     7549     TIP3     H2       HT       0.417000       1.00800           0
     45030 TIP3     7550     TIP3     OH2      OT      -0.834000       15.9994           0
     45031 TIP3     7550     TIP3     H1       HT       0.417000       1.00800           0
     45032 TIP3     7550     TIP3     H2       HT       0.417000       1.00800           0
     45033 TIP3     7551     TIP3     OH2      OT      -0.834000       15.9994           0
     45034 TIP3     7551     TIP3     H1       HT       0.417000       1.00800           0
     45035 TIP3     7551     TIP3     H2       HT       0.417000       1.00800           0
     45036 TIP3     7552     TIP3     OH2      OT      -0.834000       15.9994           0
     45037 TIP3     7552     TIP3     H1       HT       0.417000       1.00800           0
     45038 TIP3     7552     TIP3     H2       HT       0.417000       1.00800           0
     45039 TIP3     7553     TIP3     OH2      OT      -0.834000       15.9994           0
     45040 TIP3     7553     TIP3     H1       HT       0.417000       1.00800           0
     45041 TIP3     7553     TIP3     H2       HT       0.417000       1.00800           0
     45042 TIP3     7554     TIP3     OH2      OT      -0.834000       15.9994           0
     45043 TIP3     7554     TIP3     H1       HT       0.417000       1.00800           0
     45044 TIP3     7554     TIP3     H2       HT       0.417000       1.00800           0
     45045 TIP3     7555     TIP3     OH2      OT      -0.834000       15.9994           0
     45046 TIP3     7555     TIP3     H1       HT       0.417000       1.00800           0
     45047 TIP3     7555     TIP3     H2       HT       0.417000       1.00800           0
     45048 TIP3     7556     TIP3     OH2      OT      -0.834000       15.9994           0
     45049 TIP3     7556     TIP3     H1       HT       0.417000       1.00800           0
     45050 TIP3     7556     TIP3     H2       HT       0.417000       1.00800           0
     45051 TIP3     7557     TIP3     OH2      OT      -0.834000       15.9994           0
     45052 TIP3     7557     TIP3     H1       HT       0.417000       1.00800           0
     45053 TIP3     7557     TIP3     H2       HT       0.417000       1.00800           0
     45054 TIP3     7558     TIP3     OH2      OT      -0.834000       15.9994           0
     45055 TIP3     7558     TIP3     H1       HT       0.417000       1.00800           0
     45056 TIP3     7558     TIP3     H2       HT       0.417000       1.00800           0
     45057 TIP3     7559     TIP3     OH2      OT      -0.834000       15.9994           0
     45058 TIP3     7559     TIP3     H1       HT       0.417000       1.00800           0
     45059 TIP3     7559     TIP3     H2       HT       0.417000       1.00800           0
     45060 TIP3     7560     TIP3     OH2      OT      -0.834000       15.9994           0
     45061 TIP3     7560     TIP3     H1       HT       0.417000       1.00800           0
     45062 TIP3     7560     TIP3     H2       HT       0.417000       1.00800           0
     45063 TIP3     7561     TIP3     OH2      OT      -0.834000       15.9994           0
     45064 TIP3     7561     TIP3     H1       HT       0.417000       1.00800           0
     45065 TIP3     7561     TIP3     H2       HT       0.417000       1.00800           0
     45066 TIP3     7562     TIP3     OH2      OT      -0.834000       15.9994           0
     45067 TIP3     7562     TIP3     H1       HT       0.417000       1.00800           0
     45068 TIP3     7562     TIP3     H2       HT       0.417000       1.00800           0
     45069 TIP3     7563     TIP3     OH2      OT      -0.834000       15.9994           0
     45070 TIP3     7563     TIP3     H1       HT       0.417000       1.00800           0
     45071 TIP3     7563     TIP3     H2       HT       0.417000       1.00800           0
     45072 TIP3     7564     TIP3     OH2      OT      -0.834000       15.9994           0
     45073 TIP3     7564     TIP3     H1       HT       0.417000       1.00800           0
     45074 TIP3     7564     TIP3     H2       HT       0.417000       1.00800           0
     45075 TIP3     7565     TIP3     OH2      OT      -0.834000       15.9994           0
     45076 TIP3     7565     TIP3     H1       HT       0.417000       1.00800           0
     45077 TIP3     7565     TIP3     H2       HT       0.417000       1.00800           0
     45078 TIP3     7566     TIP3     OH2      OT      -0.834000       15.9994           0
     45079 TIP3     7566     TIP3     H1       HT       0.417000       1.00800           0
     45080 TIP3     7566     TIP3     H2       HT       0.417000       1.00800           0
     45081 TIP3     7567     TIP3     OH2      OT      -0.834000       15.9994           0
     45082 TIP3     7567     TIP3     H1       HT       0.417000       1.00800           0
     45083 TIP3     7567     TIP3     H2       HT       0.417000       1.00800           0
     45084 TIP3     7568     TIP3     OH2      OT      -0.834000       15.9994           0
     45085 TIP3     7568     TIP3     H1       HT       0.417000       1.00800           0
     45086 TIP3     7568     TIP3     H2       HT       0.417000       1.00800           0
     45087 TIP3     7569     TIP3     OH2      OT      -0.834000       15.9994           0
     45088 TIP3     7569     TIP3     H1       HT       0.417000       1.00800           0
     45089 TIP3     7569     TIP3     H2       HT       0.417000       1.00800           0
     45090 TIP3     7570     TIP3     OH2      OT      -0.834000       15.9994           0
     45091 TIP3     7570     TIP3     H1       HT       0.417000       1.00800           0
     45092 TIP3     7570     TIP3     H2       HT       0.417000       1.00800           0
     45093 TIP3     7571     TIP3     OH2      OT      -0.834000       15.9994           0
     45094 TIP3     7571     TIP3     H1       HT       0.417000       1.00800           0
     45095 TIP3     7571     TIP3     H2       HT       0.417000       1.00800           0
     45096 TIP3     7572     TIP3     OH2      OT      -0.834000       15.9994           0
     45097 TIP3     7572     TIP3     H1       HT       0.417000       1.00800           0
     45098 TIP3     7572     TIP3     H2       HT       0.417000       1.00800           0
     45099 TIP3     7573     TIP3     OH2      OT      -0.834000       15.9994           0
     45100 TIP3     7573     TIP3     H1       HT       0.417000       1.00800           0
     45101 TIP3     7573     TIP3     H2       HT       0.417000       1.00800           0
     45102 TIP3     7574     TIP3     OH2      OT      -0.834000       15.9994           0
     45103 TIP3     7574     TIP3     H1       HT       0.417000       1.00800           0
     45104 TIP3     7574     TIP3     H2       HT       0.417000       1.00800           0
     45105 TIP3     7575     TIP3     OH2      OT      -0.834000       15.9994           0
     45106 TIP3     7575     TIP3     H1       HT       0.417000       1.00800           0
     45107 TIP3     7575     TIP3     H2       HT       0.417000       1.00800           0
     45108 TIP3     7576     TIP3     OH2      OT      -0.834000       15.9994           0
     45109 TIP3     7576     TIP3     H1       HT       0.417000       1.00800           0
     45110 TIP3     7576     TIP3     H2       HT       0.417000       1.00800           0
     45111 TIP3     7577     TIP3     OH2      OT      -0.834000       15.9994           0
     45112 TIP3     7577     TIP3     H1       HT       0.417000       1.00800           0
     45113 TIP3     7577     TIP3     H2       HT       0.417000       1.00800           0
     45114 TIP3     7578     TIP3     OH2      OT      -0.834000       15.9994           0
     45115 TIP3     7578     TIP3     H1       HT       0.417000       1.00800           0
     45116 TIP3     7578     TIP3     H2       HT       0.417000       1.00800           0
     45117 TIP3     7579     TIP3     OH2      OT      -0.834000       15.9994           0
     45118 TIP3     7579     TIP3     H1       HT       0.417000       1.00800           0
     45119 TIP3     7579     TIP3     H2       HT       0.417000       1.00800           0
     45120 TIP3     7580     TIP3     OH2      OT      -0.834000       15.9994           0
     45121 TIP3     7580     TIP3     H1       HT       0.417000       1.00800           0
     45122 TIP3     7580     TIP3     H2       HT       0.417000       1.00800           0
     45123 TIP3     7581     TIP3     OH2      OT      -0.834000       15.9994           0
     45124 TIP3     7581     TIP3     H1       HT       0.417000       1.00800           0
     45125 TIP3     7581     TIP3     H2       HT       0.417000       1.00800           0
     45126 TIP3     7582     TIP3     OH2      OT      -0.834000       15.9994           0
     45127 TIP3     7582     TIP3     H1       HT       0.417000       1.00800           0
     45128 TIP3     7582     TIP3     H2       HT       0.417000       1.00800           0
     45129 TIP3     7583     TIP3     OH2      OT      -0.834000       15.9994           0
     45130 TIP3     7583     TIP3     H1       HT       0.417000       1.00800           0
     45131 TIP3     7583     TIP3     H2       HT       0.417000       1.00800           0
     45132 TIP3     7584     TIP3     OH2      OT      -0.834000       15.9994           0
     45133 TIP3     7584     TIP3     H1       HT       0.417000       1.00800           0
     45134 TIP3     7584     TIP3     H2       HT       0.417000       1.00800           0
     45135 TIP3     7585     TIP3     OH2      OT      -0.834000       15.9994           0
     45136 TIP3     7585     TIP3     H1       HT       0.417000       1.00800           0
     45137 TIP3     7585     TIP3     H2       HT       0.417000       1.00800           0
     45138 TIP3     7586     TIP3     OH2      OT      -0.834000       15.9994           0
     45139 TIP3     7586     TIP3     H1       HT       0.417000       1.00800           0
     45140 TIP3     7586     TIP3     H2       HT       0.417000       1.00800           0
     45141 TIP3     7587     TIP3     OH2      OT      -0.834000       15.9994           0
     45142 TIP3     7587     TIP3     H1       HT       0.417000       1.00800           0
     45143 TIP3     7587     TIP3     H2       HT       0.417000       1.00800           0
     45144 TIP3     7588     TIP3     OH2      OT      -0.834000       15.9994           0
     45145 TIP3     7588     TIP3     H1       HT       0.417000       1.00800           0
     45146 TIP3     7588     TIP3     H2       HT       0.417000       1.00800           0
     45147 TIP3     7589     TIP3     OH2      OT      -0.834000       15.9994           0
     45148 TIP3     7589     TIP3     H1       HT       0.417000       1.00800           0
     45149 TIP3     7589     TIP3     H2       HT       0.417000       1.00800           0
     45150 TIP3     7590     TIP3     OH2      OT      -0.834000       15.9994           0
     45151 TIP3     7590     TIP3     H1       HT       0.417000       1.00800           0
     45152 TIP3     7590     TIP3     H2       HT       0.417000       1.00800           0
     45153 TIP3     7591     TIP3     OH2      OT      -0.834000       15.9994           0
     45154 TIP3     7591     TIP3     H1       HT       0.417000       1.00800           0
     45155 TIP3     7591     TIP3     H2       HT       0.417000       1.00800           0
     45156 TIP3     7592     TIP3     OH2      OT      -0.834000       15.9994           0
     45157 TIP3     7592     TIP3     H1       HT       0.417000       1.00800           0
     45158 TIP3     7592     TIP3     H2       HT       0.417000       1.00800           0
     45159 TIP3     7593     TIP3     OH2      OT      -0.834000       15.9994           0
     45160 TIP3     7593     TIP3     H1       HT       0.417000       1.00800           0
     45161 TIP3     7593     TIP3     H2       HT       0.417000       1.00800           0
     45162 TIP3     7594     TIP3     OH2      OT      -0.834000       15.9994           0
     45163 TIP3     7594     TIP3     H1       HT       0.417000       1.00800           0
     45164 TIP3     7594     TIP3     H2       HT       0.417000       1.00800           0
     45165 TIP3     7595     TIP3     OH2      OT      -0.834000       15.9994           0
     45166 TIP3     7595     TIP3     H1       HT       0.417000       1.00800           0
     45167 TIP3     7595     TIP3     H2       HT       0.417000       1.00800           0
     45168 TIP3     7596     TIP3     OH2      OT      -0.834000       15.9994           0
     45169 TIP3     7596     TIP3     H1       HT       0.417000       1.00800           0
     45170 TIP3     7596     TIP3     H2       HT       0.417000       1.00800           0
     45171 TIP3     7597     TIP3     OH2      OT      -0.834000       15.9994           0
     45172 TIP3     7597     TIP3     H1       HT       0.417000       1.00800           0
     45173 TIP3     7597     TIP3     H2       HT       0.417000       1.00800           0
     45174 TIP3     7598     TIP3     OH2      OT      -0.834000       15.9994           0
     45175 TIP3     7598     TIP3     H1       HT       0.417000       1.00800           0
     45176 TIP3     7598     TIP3     H2       HT       0.417000       1.00800           0
     45177 TIP3     7599     TIP3     OH2      OT      -0.834000       15.9994           0
     45178 TIP3     7599     TIP3     H1       HT       0.417000       1.00800           0
     45179 TIP3     7599     TIP3     H2       HT       0.417000       1.00800           0
     45180 TIP3     7600     TIP3     OH2      OT      -0.834000       15.9994           0
     45181 TIP3     7600     TIP3     H1       HT       0.417000       1.00800           0
     45182 TIP3     7600     TIP3     H2       HT       0.417000       1.00800           0
     45183 TIP3     7601     TIP3     OH2      OT      -0.834000       15.9994           0
     45184 TIP3     7601     TIP3     H1       HT       0.417000       1.00800           0
     45185 TIP3     7601     TIP3     H2       HT       0.417000       1.00800           0
     45186 TIP3     7602     TIP3     OH2      OT      -0.834000       15.9994           0
     45187 TIP3     7602     TIP3     H1       HT       0.417000       1.00800           0
     45188 TIP3     7602     TIP3     H2       HT       0.417000       1.00800           0
     45189 TIP3     7603     TIP3     OH2      OT      -0.834000       15.9994           0
     45190 TIP3     7603     TIP3     H1       HT       0.417000       1.00800           0
     45191 TIP3     7603     TIP3     H2       HT       0.417000       1.00800           0
     45192 TIP3     7604     TIP3     OH2      OT      -0.834000       15.9994           0
     45193 TIP3     7604     TIP3     H1       HT       0.417000       1.00800           0
     45194 TIP3     7604     TIP3     H2       HT       0.417000       1.00800           0
     45195 TIP3     7605     TIP3     OH2      OT      -0.834000       15.9994           0
     45196 TIP3     7605     TIP3     H1       HT       0.417000       1.00800           0
     45197 TIP3     7605     TIP3     H2       HT       0.417000       1.00800           0
     45198 TIP3     7606     TIP3     OH2      OT      -0.834000       15.9994           0
     45199 TIP3     7606     TIP3     H1       HT       0.417000       1.00800           0
     45200 TIP3     7606     TIP3     H2       HT       0.417000       1.00800           0
     45201 TIP3     7607     TIP3     OH2      OT      -0.834000       15.9994           0
     45202 TIP3     7607     TIP3     H1       HT       0.417000       1.00800           0
     45203 TIP3     7607     TIP3     H2       HT       0.417000       1.00800           0
     45204 TIP3     7608     TIP3     OH2      OT      -0.834000       15.9994           0
     45205 TIP3     7608     TIP3     H1       HT       0.417000       1.00800           0
     45206 TIP3     7608     TIP3     H2       HT       0.417000       1.00800           0
     45207 TIP3     7609     TIP3     OH2      OT      -0.834000       15.9994           0
     45208 TIP3     7609     TIP3     H1       HT       0.417000       1.00800           0
     45209 TIP3     7609     TIP3     H2       HT       0.417000       1.00800           0
     45210 TIP3     7610     TIP3     OH2      OT      -0.834000       15.9994           0
     45211 TIP3     7610     TIP3     H1       HT       0.417000       1.00800           0
     45212 TIP3     7610     TIP3     H2       HT       0.417000       1.00800           0
     45213 TIP3     7611     TIP3     OH2      OT      -0.834000       15.9994           0
     45214 TIP3     7611     TIP3     H1       HT       0.417000       1.00800           0
     45215 TIP3     7611     TIP3     H2       HT       0.417000       1.00800           0
     45216 TIP3     7612     TIP3     OH2      OT      -0.834000       15.9994           0
     45217 TIP3     7612     TIP3     H1       HT       0.417000       1.00800           0
     45218 TIP3     7612     TIP3     H2       HT       0.417000       1.00800           0
     45219 TIP3     7613     TIP3     OH2      OT      -0.834000       15.9994           0
     45220 TIP3     7613     TIP3     H1       HT       0.417000       1.00800           0
     45221 TIP3     7613     TIP3     H2       HT       0.417000       1.00800           0
     45222 TIP3     7614     TIP3     OH2      OT      -0.834000       15.9994           0
     45223 TIP3     7614     TIP3     H1       HT       0.417000       1.00800           0
     45224 TIP3     7614     TIP3     H2       HT       0.417000       1.00800           0
     45225 TIP3     7615     TIP3     OH2      OT      -0.834000       15.9994           0
     45226 TIP3     7615     TIP3     H1       HT       0.417000       1.00800           0
     45227 TIP3     7615     TIP3     H2       HT       0.417000       1.00800           0
     45228 TIP3     7616     TIP3     OH2      OT      -0.834000       15.9994           0
     45229 TIP3     7616     TIP3     H1       HT       0.417000       1.00800           0
     45230 TIP3     7616     TIP3     H2       HT       0.417000       1.00800           0
     45231 TIP3     7617     TIP3     OH2      OT      -0.834000       15.9994           0
     45232 TIP3     7617     TIP3     H1       HT       0.417000       1.00800           0
     45233 TIP3     7617     TIP3     H2       HT       0.417000       1.00800           0
     45234 TIP3     7618     TIP3     OH2      OT      -0.834000       15.9994           0
     45235 TIP3     7618     TIP3     H1       HT       0.417000       1.00800           0
     45236 TIP3     7618     TIP3     H2       HT       0.417000       1.00800           0
     45237 TIP3     7619     TIP3     OH2      OT      -0.834000       15.9994           0
     45238 TIP3     7619     TIP3     H1       HT       0.417000       1.00800           0
     45239 TIP3     7619     TIP3     H2       HT       0.417000       1.00800           0
     45240 TIP3     7620     TIP3     OH2      OT      -0.834000       15.9994           0
     45241 TIP3     7620     TIP3     H1       HT       0.417000       1.00800           0
     45242 TIP3     7620     TIP3     H2       HT       0.417000       1.00800           0
     45243 TIP3     7621     TIP3     OH2      OT      -0.834000       15.9994           0
     45244 TIP3     7621     TIP3     H1       HT       0.417000       1.00800           0
     45245 TIP3     7621     TIP3     H2       HT       0.417000       1.00800           0
     45246 TIP3     7622     TIP3     OH2      OT      -0.834000       15.9994           0
     45247 TIP3     7622     TIP3     H1       HT       0.417000       1.00800           0
     45248 TIP3     7622     TIP3     H2       HT       0.417000       1.00800           0
     45249 TIP3     7623     TIP3     OH2      OT      -0.834000       15.9994           0
     45250 TIP3     7623     TIP3     H1       HT       0.417000       1.00800           0
     45251 TIP3     7623     TIP3     H2       HT       0.417000       1.00800           0
     45252 TIP3     7624     TIP3     OH2      OT      -0.834000       15.9994           0
     45253 TIP3     7624     TIP3     H1       HT       0.417000       1.00800           0
     45254 TIP3     7624     TIP3     H2       HT       0.417000       1.00800           0
     45255 TIP3     7625     TIP3     OH2      OT      -0.834000       15.9994           0
     45256 TIP3     7625     TIP3     H1       HT       0.417000       1.00800           0
     45257 TIP3     7625     TIP3     H2       HT       0.417000       1.00800           0
     45258 TIP3     7626     TIP3     OH2      OT      -0.834000       15.9994           0
     45259 TIP3     7626     TIP3     H1       HT       0.417000       1.00800           0
     45260 TIP3     7626     TIP3     H2       HT       0.417000       1.00800           0
     45261 TIP3     7627     TIP3     OH2      OT      -0.834000       15.9994           0
     45262 TIP3     7627     TIP3     H1       HT       0.417000       1.00800           0
     45263 TIP3     7627     TIP3     H2       HT       0.417000       1.00800           0
     45264 TIP3     7628     TIP3     OH2      OT      -0.834000       15.9994           0
     45265 TIP3     7628     TIP3     H1       HT       0.417000       1.00800           0
     45266 TIP3     7628     TIP3     H2       HT       0.417000       1.00800           0
     45267 TIP3     7629     TIP3     OH2      OT      -0.834000       15.9994           0
     45268 TIP3     7629     TIP3     H1       HT       0.417000       1.00800           0
     45269 TIP3     7629     TIP3     H2       HT       0.417000       1.00800           0
     45270 TIP3     7630     TIP3     OH2      OT      -0.834000       15.9994           0
     45271 TIP3     7630     TIP3     H1       HT       0.417000       1.00800           0
     45272 TIP3     7630     TIP3     H2       HT       0.417000       1.00800           0
     45273 TIP3     7631     TIP3     OH2      OT      -0.834000       15.9994           0
     45274 TIP3     7631     TIP3     H1       HT       0.417000       1.00800           0
     45275 TIP3     7631     TIP3     H2       HT       0.417000       1.00800           0
     45276 TIP3     7632     TIP3     OH2      OT      -0.834000       15.9994           0
     45277 TIP3     7632     TIP3     H1       HT       0.417000       1.00800           0
     45278 TIP3     7632     TIP3     H2       HT       0.417000       1.00800           0
     45279 TIP3     7633     TIP3     OH2      OT      -0.834000       15.9994           0
     45280 TIP3     7633     TIP3     H1       HT       0.417000       1.00800           0
     45281 TIP3     7633     TIP3     H2       HT       0.417000       1.00800           0
     45282 TIP3     7634     TIP3     OH2      OT      -0.834000       15.9994           0
     45283 TIP3     7634     TIP3     H1       HT       0.417000       1.00800           0
     45284 TIP3     7634     TIP3     H2       HT       0.417000       1.00800           0
     45285 TIP3     7635     TIP3     OH2      OT      -0.834000       15.9994           0
     45286 TIP3     7635     TIP3     H1       HT       0.417000       1.00800           0
     45287 TIP3     7635     TIP3     H2       HT       0.417000       1.00800           0
     45288 TIP3     7636     TIP3     OH2      OT      -0.834000       15.9994           0
     45289 TIP3     7636     TIP3     H1       HT       0.417000       1.00800           0
     45290 TIP3     7636     TIP3     H2       HT       0.417000       1.00800           0
     45291 TIP3     7637     TIP3     OH2      OT      -0.834000       15.9994           0
     45292 TIP3     7637     TIP3     H1       HT       0.417000       1.00800           0
     45293 TIP3     7637     TIP3     H2       HT       0.417000       1.00800           0
     45294 TIP3     7638     TIP3     OH2      OT      -0.834000       15.9994           0
     45295 TIP3     7638     TIP3     H1       HT       0.417000       1.00800           0
     45296 TIP3     7638     TIP3     H2       HT       0.417000       1.00800           0
     45297 TIP3     7639     TIP3     OH2      OT      -0.834000       15.9994           0
     45298 TIP3     7639     TIP3     H1       HT       0.417000       1.00800           0
     45299 TIP3     7639     TIP3     H2       HT       0.417000       1.00800           0
     45300 TIP3     7640     TIP3     OH2      OT      -0.834000       15.9994           0
     45301 TIP3     7640     TIP3     H1       HT       0.417000       1.00800           0
     45302 TIP3     7640     TIP3     H2       HT       0.417000       1.00800           0
     45303 TIP3     7641     TIP3     OH2      OT      -0.834000       15.9994           0
     45304 TIP3     7641     TIP3     H1       HT       0.417000       1.00800           0
     45305 TIP3     7641     TIP3     H2       HT       0.417000       1.00800           0
     45306 TIP3     7642     TIP3     OH2      OT      -0.834000       15.9994           0
     45307 TIP3     7642     TIP3     H1       HT       0.417000       1.00800           0
     45308 TIP3     7642     TIP3     H2       HT       0.417000       1.00800           0
     45309 TIP3     7643     TIP3     OH2      OT      -0.834000       15.9994           0
     45310 TIP3     7643     TIP3     H1       HT       0.417000       1.00800           0
     45311 TIP3     7643     TIP3     H2       HT       0.417000       1.00800           0
     45312 TIP3     7644     TIP3     OH2      OT      -0.834000       15.9994           0
     45313 TIP3     7644     TIP3     H1       HT       0.417000       1.00800           0
     45314 TIP3     7644     TIP3     H2       HT       0.417000       1.00800           0
     45315 TIP3     7645     TIP3     OH2      OT      -0.834000       15.9994           0
     45316 TIP3     7645     TIP3     H1       HT       0.417000       1.00800           0
     45317 TIP3     7645     TIP3     H2       HT       0.417000       1.00800           0
     45318 TIP3     7646     TIP3     OH2      OT      -0.834000       15.9994           0
     45319 TIP3     7646     TIP3     H1       HT       0.417000       1.00800           0
     45320 TIP3     7646     TIP3     H2       HT       0.417000       1.00800           0
     45321 TIP3     7647     TIP3     OH2      OT      -0.834000       15.9994           0
     45322 TIP3     7647     TIP3     H1       HT       0.417000       1.00800           0
     45323 TIP3     7647     TIP3     H2       HT       0.417000       1.00800           0
     45324 TIP3     7648     TIP3     OH2      OT      -0.834000       15.9994           0
     45325 TIP3     7648     TIP3     H1       HT       0.417000       1.00800           0
     45326 TIP3     7648     TIP3     H2       HT       0.417000       1.00800           0
     45327 TIP3     7649     TIP3     OH2      OT      -0.834000       15.9994           0
     45328 TIP3     7649     TIP3     H1       HT       0.417000       1.00800           0
     45329 TIP3     7649     TIP3     H2       HT       0.417000       1.00800           0
     45330 TIP3     7650     TIP3     OH2      OT      -0.834000       15.9994           0
     45331 TIP3     7650     TIP3     H1       HT       0.417000       1.00800           0
     45332 TIP3     7650     TIP3     H2       HT       0.417000       1.00800           0
     45333 TIP3     7651     TIP3     OH2      OT      -0.834000       15.9994           0
     45334 TIP3     7651     TIP3     H1       HT       0.417000       1.00800           0
     45335 TIP3     7651     TIP3     H2       HT       0.417000       1.00800           0
     45336 TIP3     7652     TIP3     OH2      OT      -0.834000       15.9994           0
     45337 TIP3     7652     TIP3     H1       HT       0.417000       1.00800           0
     45338 TIP3     7652     TIP3     H2       HT       0.417000       1.00800           0
     45339 TIP3     7653     TIP3     OH2      OT      -0.834000       15.9994           0
     45340 TIP3     7653     TIP3     H1       HT       0.417000       1.00800           0
     45341 TIP3     7653     TIP3     H2       HT       0.417000       1.00800           0
     45342 TIP3     7654     TIP3     OH2      OT      -0.834000       15.9994           0
     45343 TIP3     7654     TIP3     H1       HT       0.417000       1.00800           0
     45344 TIP3     7654     TIP3     H2       HT       0.417000       1.00800           0
     45345 TIP3     7655     TIP3     OH2      OT      -0.834000       15.9994           0
     45346 TIP3     7655     TIP3     H1       HT       0.417000       1.00800           0
     45347 TIP3     7655     TIP3     H2       HT       0.417000       1.00800           0
     45348 TIP3     7656     TIP3     OH2      OT      -0.834000       15.9994           0
     45349 TIP3     7656     TIP3     H1       HT       0.417000       1.00800           0
     45350 TIP3     7656     TIP3     H2       HT       0.417000       1.00800           0
     45351 TIP3     7657     TIP3     OH2      OT      -0.834000       15.9994           0
     45352 TIP3     7657     TIP3     H1       HT       0.417000       1.00800           0
     45353 TIP3     7657     TIP3     H2       HT       0.417000       1.00800           0
     45354 TIP3     7658     TIP3     OH2      OT      -0.834000       15.9994           0
     45355 TIP3     7658     TIP3     H1       HT       0.417000       1.00800           0
     45356 TIP3     7658     TIP3     H2       HT       0.417000       1.00800           0
     45357 TIP3     7659     TIP3     OH2      OT      -0.834000       15.9994           0
     45358 TIP3     7659     TIP3     H1       HT       0.417000       1.00800           0
     45359 TIP3     7659     TIP3     H2       HT       0.417000       1.00800           0
     45360 TIP3     7660     TIP3     OH2      OT      -0.834000       15.9994           0
     45361 TIP3     7660     TIP3     H1       HT       0.417000       1.00800           0
     45362 TIP3     7660     TIP3     H2       HT       0.417000       1.00800           0
     45363 TIP3     7661     TIP3     OH2      OT      -0.834000       15.9994           0
     45364 TIP3     7661     TIP3     H1       HT       0.417000       1.00800           0
     45365 TIP3     7661     TIP3     H2       HT       0.417000       1.00800           0
     45366 TIP3     7662     TIP3     OH2      OT      -0.834000       15.9994           0
     45367 TIP3     7662     TIP3     H1       HT       0.417000       1.00800           0
     45368 TIP3     7662     TIP3     H2       HT       0.417000       1.00800           0
     45369 TIP3     7663     TIP3     OH2      OT      -0.834000       15.9994           0
     45370 TIP3     7663     TIP3     H1       HT       0.417000       1.00800           0
     45371 TIP3     7663     TIP3     H2       HT       0.417000       1.00800           0
     45372 TIP3     7664     TIP3     OH2      OT      -0.834000       15.9994           0
     45373 TIP3     7664     TIP3     H1       HT       0.417000       1.00800           0
     45374 TIP3     7664     TIP3     H2       HT       0.417000       1.00800           0
     45375 TIP3     7665     TIP3     OH2      OT      -0.834000       15.9994           0
     45376 TIP3     7665     TIP3     H1       HT       0.417000       1.00800           0
     45377 TIP3     7665     TIP3     H2       HT       0.417000       1.00800           0
     45378 TIP3     7666     TIP3     OH2      OT      -0.834000       15.9994           0
     45379 TIP3     7666     TIP3     H1       HT       0.417000       1.00800           0
     45380 TIP3     7666     TIP3     H2       HT       0.417000       1.00800           0
     45381 TIP3     7667     TIP3     OH2      OT      -0.834000       15.9994           0
     45382 TIP3     7667     TIP3     H1       HT       0.417000       1.00800           0
     45383 TIP3     7667     TIP3     H2       HT       0.417000       1.00800           0
     45384 TIP3     7668     TIP3     OH2      OT      -0.834000       15.9994           0
     45385 TIP3     7668     TIP3     H1       HT       0.417000       1.00800           0
     45386 TIP3     7668     TIP3     H2       HT       0.417000       1.00800           0
     45387 TIP3     7669     TIP3     OH2      OT      -0.834000       15.9994           0
     45388 TIP3     7669     TIP3     H1       HT       0.417000       1.00800           0
     45389 TIP3     7669     TIP3     H2       HT       0.417000       1.00800           0
     45390 TIP3     7670     TIP3     OH2      OT      -0.834000       15.9994           0
     45391 TIP3     7670     TIP3     H1       HT       0.417000       1.00800           0
     45392 TIP3     7670     TIP3     H2       HT       0.417000       1.00800           0
     45393 TIP3     7671     TIP3     OH2      OT      -0.834000       15.9994           0
     45394 TIP3     7671     TIP3     H1       HT       0.417000       1.00800           0
     45395 TIP3     7671     TIP3     H2       HT       0.417000       1.00800           0
     45396 TIP3     7672     TIP3     OH2      OT      -0.834000       15.9994           0
     45397 TIP3     7672     TIP3     H1       HT       0.417000       1.00800           0
     45398 TIP3     7672     TIP3     H2       HT       0.417000       1.00800           0
     45399 TIP3     7673     TIP3     OH2      OT      -0.834000       15.9994           0
     45400 TIP3     7673     TIP3     H1       HT       0.417000       1.00800           0
     45401 TIP3     7673     TIP3     H2       HT       0.417000       1.00800           0
     45402 TIP3     7674     TIP3     OH2      OT      -0.834000       15.9994           0
     45403 TIP3     7674     TIP3     H1       HT       0.417000       1.00800           0
     45404 TIP3     7674     TIP3     H2       HT       0.417000       1.00800           0
     45405 TIP3     7675     TIP3     OH2      OT      -0.834000       15.9994           0
     45406 TIP3     7675     TIP3     H1       HT       0.417000       1.00800           0
     45407 TIP3     7675     TIP3     H2       HT       0.417000       1.00800           0
     45408 TIP3     7676     TIP3     OH2      OT      -0.834000       15.9994           0
     45409 TIP3     7676     TIP3     H1       HT       0.417000       1.00800           0
     45410 TIP3     7676     TIP3     H2       HT       0.417000       1.00800           0
     45411 TIP3     7677     TIP3     OH2      OT      -0.834000       15.9994           0
     45412 TIP3     7677     TIP3     H1       HT       0.417000       1.00800           0
     45413 TIP3     7677     TIP3     H2       HT       0.417000       1.00800           0
     45414 TIP3     7678     TIP3     OH2      OT      -0.834000       15.9994           0
     45415 TIP3     7678     TIP3     H1       HT       0.417000       1.00800           0
     45416 TIP3     7678     TIP3     H2       HT       0.417000       1.00800           0
     45417 TIP3     7679     TIP3     OH2      OT      -0.834000       15.9994           0
     45418 TIP3     7679     TIP3     H1       HT       0.417000       1.00800           0
     45419 TIP3     7679     TIP3     H2       HT       0.417000       1.00800           0
     45420 TIP3     7680     TIP3     OH2      OT      -0.834000       15.9994           0
     45421 TIP3     7680     TIP3     H1       HT       0.417000       1.00800           0
     45422 TIP3     7680     TIP3     H2       HT       0.417000       1.00800           0
     45423 TIP3     7681     TIP3     OH2      OT      -0.834000       15.9994           0
     45424 TIP3     7681     TIP3     H1       HT       0.417000       1.00800           0
     45425 TIP3     7681     TIP3     H2       HT       0.417000       1.00800           0
     45426 TIP3     7682     TIP3     OH2      OT      -0.834000       15.9994           0
     45427 TIP3     7682     TIP3     H1       HT       0.417000       1.00800           0
     45428 TIP3     7682     TIP3     H2       HT       0.417000       1.00800           0
     45429 TIP3     7683     TIP3     OH2      OT      -0.834000       15.9994           0
     45430 TIP3     7683     TIP3     H1       HT       0.417000       1.00800           0
     45431 TIP3     7683     TIP3     H2       HT       0.417000       1.00800           0
     45432 TIP3     7684     TIP3     OH2      OT      -0.834000       15.9994           0
     45433 TIP3     7684     TIP3     H1       HT       0.417000       1.00800           0
     45434 TIP3     7684     TIP3     H2       HT       0.417000       1.00800           0
     45435 TIP3     7685     TIP3     OH2      OT      -0.834000       15.9994           0
     45436 TIP3     7685     TIP3     H1       HT       0.417000       1.00800           0
     45437 TIP3     7685     TIP3     H2       HT       0.417000       1.00800           0
     45438 TIP3     7686     TIP3     OH2      OT      -0.834000       15.9994           0
     45439 TIP3     7686     TIP3     H1       HT       0.417000       1.00800           0
     45440 TIP3     7686     TIP3     H2       HT       0.417000       1.00800           0
     45441 TIP3     7687     TIP3     OH2      OT      -0.834000       15.9994           0
     45442 TIP3     7687     TIP3     H1       HT       0.417000       1.00800           0
     45443 TIP3     7687     TIP3     H2       HT       0.417000       1.00800           0
     45444 TIP3     7688     TIP3     OH2      OT      -0.834000       15.9994           0
     45445 TIP3     7688     TIP3     H1       HT       0.417000       1.00800           0
     45446 TIP3     7688     TIP3     H2       HT       0.417000       1.00800           0
     45447 TIP3     7689     TIP3     OH2      OT      -0.834000       15.9994           0
     45448 TIP3     7689     TIP3     H1       HT       0.417000       1.00800           0
     45449 TIP3     7689     TIP3     H2       HT       0.417000       1.00800           0
     45450 TIP3     7690     TIP3     OH2      OT      -0.834000       15.9994           0
     45451 TIP3     7690     TIP3     H1       HT       0.417000       1.00800           0
     45452 TIP3     7690     TIP3     H2       HT       0.417000       1.00800           0
     45453 TIP3     7691     TIP3     OH2      OT      -0.834000       15.9994           0
     45454 TIP3     7691     TIP3     H1       HT       0.417000       1.00800           0
     45455 TIP3     7691     TIP3     H2       HT       0.417000       1.00800           0
     45456 TIP3     7692     TIP3     OH2      OT      -0.834000       15.9994           0
     45457 TIP3     7692     TIP3     H1       HT       0.417000       1.00800           0
     45458 TIP3     7692     TIP3     H2       HT       0.417000       1.00800           0
     45459 TIP3     7693     TIP3     OH2      OT      -0.834000       15.9994           0
     45460 TIP3     7693     TIP3     H1       HT       0.417000       1.00800           0
     45461 TIP3     7693     TIP3     H2       HT       0.417000       1.00800           0
     45462 TIP3     7694     TIP3     OH2      OT      -0.834000       15.9994           0
     45463 TIP3     7694     TIP3     H1       HT       0.417000       1.00800           0
     45464 TIP3     7694     TIP3     H2       HT       0.417000       1.00800           0
     45465 TIP3     7695     TIP3     OH2      OT      -0.834000       15.9994           0
     45466 TIP3     7695     TIP3     H1       HT       0.417000       1.00800           0
     45467 TIP3     7695     TIP3     H2       HT       0.417000       1.00800           0
     45468 TIP3     7696     TIP3     OH2      OT      -0.834000       15.9994           0
     45469 TIP3     7696     TIP3     H1       HT       0.417000       1.00800           0
     45470 TIP3     7696     TIP3     H2       HT       0.417000       1.00800           0
     45471 TIP3     7697     TIP3     OH2      OT      -0.834000       15.9994           0
     45472 TIP3     7697     TIP3     H1       HT       0.417000       1.00800           0
     45473 TIP3     7697     TIP3     H2       HT       0.417000       1.00800           0
     45474 TIP3     7698     TIP3     OH2      OT      -0.834000       15.9994           0
     45475 TIP3     7698     TIP3     H1       HT       0.417000       1.00800           0
     45476 TIP3     7698     TIP3     H2       HT       0.417000       1.00800           0
     45477 TIP3     7699     TIP3     OH2      OT      -0.834000       15.9994           0
     45478 TIP3     7699     TIP3     H1       HT       0.417000       1.00800           0
     45479 TIP3     7699     TIP3     H2       HT       0.417000       1.00800           0
     45480 TIP3     7700     TIP3     OH2      OT      -0.834000       15.9994           0
     45481 TIP3     7700     TIP3     H1       HT       0.417000       1.00800           0
     45482 TIP3     7700     TIP3     H2       HT       0.417000       1.00800           0
     45483 TIP3     7701     TIP3     OH2      OT      -0.834000       15.9994           0
     45484 TIP3     7701     TIP3     H1       HT       0.417000       1.00800           0
     45485 TIP3     7701     TIP3     H2       HT       0.417000       1.00800           0
     45486 TIP3     7702     TIP3     OH2      OT      -0.834000       15.9994           0
     45487 TIP3     7702     TIP3     H1       HT       0.417000       1.00800           0
     45488 TIP3     7702     TIP3     H2       HT       0.417000       1.00800           0
     45489 TIP3     7703     TIP3     OH2      OT      -0.834000       15.9994           0
     45490 TIP3     7703     TIP3     H1       HT       0.417000       1.00800           0
     45491 TIP3     7703     TIP3     H2       HT       0.417000       1.00800           0
     45492 TIP3     7704     TIP3     OH2      OT      -0.834000       15.9994           0
     45493 TIP3     7704     TIP3     H1       HT       0.417000       1.00800           0
     45494 TIP3     7704     TIP3     H2       HT       0.417000       1.00800           0
     45495 TIP3     7705     TIP3     OH2      OT      -0.834000       15.9994           0
     45496 TIP3     7705     TIP3     H1       HT       0.417000       1.00800           0
     45497 TIP3     7705     TIP3     H2       HT       0.417000       1.00800           0
     45498 TIP3     7706     TIP3     OH2      OT      -0.834000       15.9994           0
     45499 TIP3     7706     TIP3     H1       HT       0.417000       1.00800           0
     45500 TIP3     7706     TIP3     H2       HT       0.417000       1.00800           0
     45501 TIP3     7707     TIP3     OH2      OT      -0.834000       15.9994           0
     45502 TIP3     7707     TIP3     H1       HT       0.417000       1.00800           0
     45503 TIP3     7707     TIP3     H2       HT       0.417000       1.00800           0
     45504 TIP3     7708     TIP3     OH2      OT      -0.834000       15.9994           0
     45505 TIP3     7708     TIP3     H1       HT       0.417000       1.00800           0
     45506 TIP3     7708     TIP3     H2       HT       0.417000       1.00800           0
     45507 TIP3     7709     TIP3     OH2      OT      -0.834000       15.9994           0
     45508 TIP3     7709     TIP3     H1       HT       0.417000       1.00800           0
     45509 TIP3     7709     TIP3     H2       HT       0.417000       1.00800           0
     45510 TIP3     7710     TIP3     OH2      OT      -0.834000       15.9994           0
     45511 TIP3     7710     TIP3     H1       HT       0.417000       1.00800           0
     45512 TIP3     7710     TIP3     H2       HT       0.417000       1.00800           0
     45513 TIP3     7711     TIP3     OH2      OT      -0.834000       15.9994           0
     45514 TIP3     7711     TIP3     H1       HT       0.417000       1.00800           0
     45515 TIP3     7711     TIP3     H2       HT       0.417000       1.00800           0
     45516 TIP3     7712     TIP3     OH2      OT      -0.834000       15.9994           0
     45517 TIP3     7712     TIP3     H1       HT       0.417000       1.00800           0
     45518 TIP3     7712     TIP3     H2       HT       0.417000       1.00800           0
     45519 TIP3     7713     TIP3     OH2      OT      -0.834000       15.9994           0
     45520 TIP3     7713     TIP3     H1       HT       0.417000       1.00800           0
     45521 TIP3     7713     TIP3     H2       HT       0.417000       1.00800           0
     45522 TIP3     7714     TIP3     OH2      OT      -0.834000       15.9994           0
     45523 TIP3     7714     TIP3     H1       HT       0.417000       1.00800           0
     45524 TIP3     7714     TIP3     H2       HT       0.417000       1.00800           0
     45525 TIP3     7715     TIP3     OH2      OT      -0.834000       15.9994           0
     45526 TIP3     7715     TIP3     H1       HT       0.417000       1.00800           0
     45527 TIP3     7715     TIP3     H2       HT       0.417000       1.00800           0
     45528 TIP3     7716     TIP3     OH2      OT      -0.834000       15.9994           0
     45529 TIP3     7716     TIP3     H1       HT       0.417000       1.00800           0
     45530 TIP3     7716     TIP3     H2       HT       0.417000       1.00800           0
     45531 TIP3     7717     TIP3     OH2      OT      -0.834000       15.9994           0
     45532 TIP3     7717     TIP3     H1       HT       0.417000       1.00800           0
     45533 TIP3     7717     TIP3     H2       HT       0.417000       1.00800           0
     45534 TIP3     7718     TIP3     OH2      OT      -0.834000       15.9994           0
     45535 TIP3     7718     TIP3     H1       HT       0.417000       1.00800           0
     45536 TIP3     7718     TIP3     H2       HT       0.417000       1.00800           0
     45537 TIP3     7719     TIP3     OH2      OT      -0.834000       15.9994           0
     45538 TIP3     7719     TIP3     H1       HT       0.417000       1.00800           0
     45539 TIP3     7719     TIP3     H2       HT       0.417000       1.00800           0
     45540 TIP3     7720     TIP3     OH2      OT      -0.834000       15.9994           0
     45541 TIP3     7720     TIP3     H1       HT       0.417000       1.00800           0
     45542 TIP3     7720     TIP3     H2       HT       0.417000       1.00800           0
     45543 TIP3     7721     TIP3     OH2      OT      -0.834000       15.9994           0
     45544 TIP3     7721     TIP3     H1       HT       0.417000       1.00800           0
     45545 TIP3     7721     TIP3     H2       HT       0.417000       1.00800           0
     45546 TIP3     7722     TIP3     OH2      OT      -0.834000       15.9994           0
     45547 TIP3     7722     TIP3     H1       HT       0.417000       1.00800           0
     45548 TIP3     7722     TIP3     H2       HT       0.417000       1.00800           0
     45549 TIP3     7723     TIP3     OH2      OT      -0.834000       15.9994           0
     45550 TIP3     7723     TIP3     H1       HT       0.417000       1.00800           0
     45551 TIP3     7723     TIP3     H2       HT       0.417000       1.00800           0
     45552 TIP3     7724     TIP3     OH2      OT      -0.834000       15.9994           0
     45553 TIP3     7724     TIP3     H1       HT       0.417000       1.00800           0
     45554 TIP3     7724     TIP3     H2       HT       0.417000       1.00800           0
     45555 TIP3     7725     TIP3     OH2      OT      -0.834000       15.9994           0
     45556 TIP3     7725     TIP3     H1       HT       0.417000       1.00800           0
     45557 TIP3     7725     TIP3     H2       HT       0.417000       1.00800           0
     45558 TIP3     7726     TIP3     OH2      OT      -0.834000       15.9994           0
     45559 TIP3     7726     TIP3     H1       HT       0.417000       1.00800           0
     45560 TIP3     7726     TIP3     H2       HT       0.417000       1.00800           0
     45561 TIP3     7727     TIP3     OH2      OT      -0.834000       15.9994           0
     45562 TIP3     7727     TIP3     H1       HT       0.417000       1.00800           0
     45563 TIP3     7727     TIP3     H2       HT       0.417000       1.00800           0
     45564 TIP3     7728     TIP3     OH2      OT      -0.834000       15.9994           0
     45565 TIP3     7728     TIP3     H1       HT       0.417000       1.00800           0
     45566 TIP3     7728     TIP3     H2       HT       0.417000       1.00800           0
     45567 TIP3     7729     TIP3     OH2      OT      -0.834000       15.9994           0
     45568 TIP3     7729     TIP3     H1       HT       0.417000       1.00800           0
     45569 TIP3     7729     TIP3     H2       HT       0.417000       1.00800           0
     45570 TIP3     7730     TIP3     OH2      OT      -0.834000       15.9994           0
     45571 TIP3     7730     TIP3     H1       HT       0.417000       1.00800           0
     45572 TIP3     7730     TIP3     H2       HT       0.417000       1.00800           0
     45573 TIP3     7731     TIP3     OH2      OT      -0.834000       15.9994           0
     45574 TIP3     7731     TIP3     H1       HT       0.417000       1.00800           0
     45575 TIP3     7731     TIP3     H2       HT       0.417000       1.00800           0
     45576 TIP3     7732     TIP3     OH2      OT      -0.834000       15.9994           0
     45577 TIP3     7732     TIP3     H1       HT       0.417000       1.00800           0
     45578 TIP3     7732     TIP3     H2       HT       0.417000       1.00800           0
     45579 TIP3     7733     TIP3     OH2      OT      -0.834000       15.9994           0
     45580 TIP3     7733     TIP3     H1       HT       0.417000       1.00800           0
     45581 TIP3     7733     TIP3     H2       HT       0.417000       1.00800           0
     45582 TIP3     7734     TIP3     OH2      OT      -0.834000       15.9994           0
     45583 TIP3     7734     TIP3     H1       HT       0.417000       1.00800           0
     45584 TIP3     7734     TIP3     H2       HT       0.417000       1.00800           0
     45585 TIP3     7735     TIP3     OH2      OT      -0.834000       15.9994           0
     45586 TIP3     7735     TIP3     H1       HT       0.417000       1.00800           0
     45587 TIP3     7735     TIP3     H2       HT       0.417000       1.00800           0
     45588 TIP3     7736     TIP3     OH2      OT      -0.834000       15.9994           0
     45589 TIP3     7736     TIP3     H1       HT       0.417000       1.00800           0
     45590 TIP3     7736     TIP3     H2       HT       0.417000       1.00800           0
     45591 TIP3     7737     TIP3     OH2      OT      -0.834000       15.9994           0
     45592 TIP3     7737     TIP3     H1       HT       0.417000       1.00800           0
     45593 TIP3     7737     TIP3     H2       HT       0.417000       1.00800           0
     45594 TIP3     7738     TIP3     OH2      OT      -0.834000       15.9994           0
     45595 TIP3     7738     TIP3     H1       HT       0.417000       1.00800           0
     45596 TIP3     7738     TIP3     H2       HT       0.417000       1.00800           0
     45597 TIP3     7739     TIP3     OH2      OT      -0.834000       15.9994           0
     45598 TIP3     7739     TIP3     H1       HT       0.417000       1.00800           0
     45599 TIP3     7739     TIP3     H2       HT       0.417000       1.00800           0
     45600 TIP3     7740     TIP3     OH2      OT      -0.834000       15.9994           0
     45601 TIP3     7740     TIP3     H1       HT       0.417000       1.00800           0
     45602 TIP3     7740     TIP3     H2       HT       0.417000       1.00800           0
     45603 TIP3     7741     TIP3     OH2      OT      -0.834000       15.9994           0
     45604 TIP3     7741     TIP3     H1       HT       0.417000       1.00800           0
     45605 TIP3     7741     TIP3     H2       HT       0.417000       1.00800           0
     45606 TIP3     7742     TIP3     OH2      OT      -0.834000       15.9994           0
     45607 TIP3     7742     TIP3     H1       HT       0.417000       1.00800           0
     45608 TIP3     7742     TIP3     H2       HT       0.417000       1.00800           0
     45609 TIP3     7743     TIP3     OH2      OT      -0.834000       15.9994           0
     45610 TIP3     7743     TIP3     H1       HT       0.417000       1.00800           0
     45611 TIP3     7743     TIP3     H2       HT       0.417000       1.00800           0
     45612 TIP3     7744     TIP3     OH2      OT      -0.834000       15.9994           0
     45613 TIP3     7744     TIP3     H1       HT       0.417000       1.00800           0
     45614 TIP3     7744     TIP3     H2       HT       0.417000       1.00800           0
     45615 TIP3     7745     TIP3     OH2      OT      -0.834000       15.9994           0
     45616 TIP3     7745     TIP3     H1       HT       0.417000       1.00800           0
     45617 TIP3     7745     TIP3     H2       HT       0.417000       1.00800           0
     45618 TIP3     7746     TIP3     OH2      OT      -0.834000       15.9994           0
     45619 TIP3     7746     TIP3     H1       HT       0.417000       1.00800           0
     45620 TIP3     7746     TIP3     H2       HT       0.417000       1.00800           0
     45621 TIP3     7747     TIP3     OH2      OT      -0.834000       15.9994           0
     45622 TIP3     7747     TIP3     H1       HT       0.417000       1.00800           0
     45623 TIP3     7747     TIP3     H2       HT       0.417000       1.00800           0
     45624 TIP3     7748     TIP3     OH2      OT      -0.834000       15.9994           0
     45625 TIP3     7748     TIP3     H1       HT       0.417000       1.00800           0
     45626 TIP3     7748     TIP3     H2       HT       0.417000       1.00800           0
     45627 TIP3     7749     TIP3     OH2      OT      -0.834000       15.9994           0
     45628 TIP3     7749     TIP3     H1       HT       0.417000       1.00800           0
     45629 TIP3     7749     TIP3     H2       HT       0.417000       1.00800           0
     45630 TIP3     7750     TIP3     OH2      OT      -0.834000       15.9994           0
     45631 TIP3     7750     TIP3     H1       HT       0.417000       1.00800           0
     45632 TIP3     7750     TIP3     H2       HT       0.417000       1.00800           0
     45633 TIP3     7751     TIP3     OH2      OT      -0.834000       15.9994           0
     45634 TIP3     7751     TIP3     H1       HT       0.417000       1.00800           0
     45635 TIP3     7751     TIP3     H2       HT       0.417000       1.00800           0
     45636 TIP3     7752     TIP3     OH2      OT      -0.834000       15.9994           0
     45637 TIP3     7752     TIP3     H1       HT       0.417000       1.00800           0
     45638 TIP3     7752     TIP3     H2       HT       0.417000       1.00800           0
     45639 TIP3     7753     TIP3     OH2      OT      -0.834000       15.9994           0
     45640 TIP3     7753     TIP3     H1       HT       0.417000       1.00800           0
     45641 TIP3     7753     TIP3     H2       HT       0.417000       1.00800           0
     45642 TIP3     7754     TIP3     OH2      OT      -0.834000       15.9994           0
     45643 TIP3     7754     TIP3     H1       HT       0.417000       1.00800           0
     45644 TIP3     7754     TIP3     H2       HT       0.417000       1.00800           0
     45645 TIP3     7755     TIP3     OH2      OT      -0.834000       15.9994           0
     45646 TIP3     7755     TIP3     H1       HT       0.417000       1.00800           0
     45647 TIP3     7755     TIP3     H2       HT       0.417000       1.00800           0
     45648 TIP3     7756     TIP3     OH2      OT      -0.834000       15.9994           0
     45649 TIP3     7756     TIP3     H1       HT       0.417000       1.00800           0
     45650 TIP3     7756     TIP3     H2       HT       0.417000       1.00800           0
     45651 TIP3     7757     TIP3     OH2      OT      -0.834000       15.9994           0
     45652 TIP3     7757     TIP3     H1       HT       0.417000       1.00800           0
     45653 TIP3     7757     TIP3     H2       HT       0.417000       1.00800           0
     45654 TIP3     7758     TIP3     OH2      OT      -0.834000       15.9994           0
     45655 TIP3     7758     TIP3     H1       HT       0.417000       1.00800           0
     45656 TIP3     7758     TIP3     H2       HT       0.417000       1.00800           0
     45657 TIP3     7759     TIP3     OH2      OT      -0.834000       15.9994           0
     45658 TIP3     7759     TIP3     H1       HT       0.417000       1.00800           0
     45659 TIP3     7759     TIP3     H2       HT       0.417000       1.00800           0
     45660 TIP3     7760     TIP3     OH2      OT      -0.834000       15.9994           0
     45661 TIP3     7760     TIP3     H1       HT       0.417000       1.00800           0
     45662 TIP3     7760     TIP3     H2       HT       0.417000       1.00800           0
     45663 TIP3     7761     TIP3     OH2      OT      -0.834000       15.9994           0
     45664 TIP3     7761     TIP3     H1       HT       0.417000       1.00800           0
     45665 TIP3     7761     TIP3     H2       HT       0.417000       1.00800           0
     45666 TIP3     7762     TIP3     OH2      OT      -0.834000       15.9994           0
     45667 TIP3     7762     TIP3     H1       HT       0.417000       1.00800           0
     45668 TIP3     7762     TIP3     H2       HT       0.417000       1.00800           0
     45669 TIP3     7763     TIP3     OH2      OT      -0.834000       15.9994           0
     45670 TIP3     7763     TIP3     H1       HT       0.417000       1.00800           0
     45671 TIP3     7763     TIP3     H2       HT       0.417000       1.00800           0
     45672 TIP3     7764     TIP3     OH2      OT      -0.834000       15.9994           0
     45673 TIP3     7764     TIP3     H1       HT       0.417000       1.00800           0
     45674 TIP3     7764     TIP3     H2       HT       0.417000       1.00800           0
     45675 TIP3     7765     TIP3     OH2      OT      -0.834000       15.9994           0
     45676 TIP3     7765     TIP3     H1       HT       0.417000       1.00800           0
     45677 TIP3     7765     TIP3     H2       HT       0.417000       1.00800           0
     45678 TIP3     7766     TIP3     OH2      OT      -0.834000       15.9994           0
     45679 TIP3     7766     TIP3     H1       HT       0.417000       1.00800           0
     45680 TIP3     7766     TIP3     H2       HT       0.417000       1.00800           0
     45681 TIP3     7767     TIP3     OH2      OT      -0.834000       15.9994           0
     45682 TIP3     7767     TIP3     H1       HT       0.417000       1.00800           0
     45683 TIP3     7767     TIP3     H2       HT       0.417000       1.00800           0
     45684 TIP3     7768     TIP3     OH2      OT      -0.834000       15.9994           0
     45685 TIP3     7768     TIP3     H1       HT       0.417000       1.00800           0
     45686 TIP3     7768     TIP3     H2       HT       0.417000       1.00800           0
     45687 TIP3     7769     TIP3     OH2      OT      -0.834000       15.9994           0
     45688 TIP3     7769     TIP3     H1       HT       0.417000       1.00800           0
     45689 TIP3     7769     TIP3     H2       HT       0.417000       1.00800           0
     45690 TIP3     7770     TIP3     OH2      OT      -0.834000       15.9994           0
     45691 TIP3     7770     TIP3     H1       HT       0.417000       1.00800           0
     45692 TIP3     7770     TIP3     H2       HT       0.417000       1.00800           0
     45693 TIP3     7771     TIP3     OH2      OT      -0.834000       15.9994           0
     45694 TIP3     7771     TIP3     H1       HT       0.417000       1.00800           0
     45695 TIP3     7771     TIP3     H2       HT       0.417000       1.00800           0
     45696 TIP3     7772     TIP3     OH2      OT      -0.834000       15.9994           0
     45697 TIP3     7772     TIP3     H1       HT       0.417000       1.00800           0
     45698 TIP3     7772     TIP3     H2       HT       0.417000       1.00800           0
     45699 TIP3     7773     TIP3     OH2      OT      -0.834000       15.9994           0
     45700 TIP3     7773     TIP3     H1       HT       0.417000       1.00800           0
     45701 TIP3     7773     TIP3     H2       HT       0.417000       1.00800           0
     45702 TIP3     7774     TIP3     OH2      OT      -0.834000       15.9994           0
     45703 TIP3     7774     TIP3     H1       HT       0.417000       1.00800           0
     45704 TIP3     7774     TIP3     H2       HT       0.417000       1.00800           0
     45705 TIP3     7775     TIP3     OH2      OT      -0.834000       15.9994           0
     45706 TIP3     7775     TIP3     H1       HT       0.417000       1.00800           0
     45707 TIP3     7775     TIP3     H2       HT       0.417000       1.00800           0
     45708 TIP3     7776     TIP3     OH2      OT      -0.834000       15.9994           0
     45709 TIP3     7776     TIP3     H1       HT       0.417000       1.00800           0
     45710 TIP3     7776     TIP3     H2       HT       0.417000       1.00800           0
     45711 TIP3     7777     TIP3     OH2      OT      -0.834000       15.9994           0
     45712 TIP3     7777     TIP3     H1       HT       0.417000       1.00800           0
     45713 TIP3     7777     TIP3     H2       HT       0.417000       1.00800           0
     45714 TIP3     7778     TIP3     OH2      OT      -0.834000       15.9994           0
     45715 TIP3     7778     TIP3     H1       HT       0.417000       1.00800           0
     45716 TIP3     7778     TIP3     H2       HT       0.417000       1.00800           0
     45717 TIP3     7779     TIP3     OH2      OT      -0.834000       15.9994           0
     45718 TIP3     7779     TIP3     H1       HT       0.417000       1.00800           0
     45719 TIP3     7779     TIP3     H2       HT       0.417000       1.00800           0
     45720 TIP3     7780     TIP3     OH2      OT      -0.834000       15.9994           0
     45721 TIP3     7780     TIP3     H1       HT       0.417000       1.00800           0
     45722 TIP3     7780     TIP3     H2       HT       0.417000       1.00800           0
     45723 TIP3     7781     TIP3     OH2      OT      -0.834000       15.9994           0
     45724 TIP3     7781     TIP3     H1       HT       0.417000       1.00800           0
     45725 TIP3     7781     TIP3     H2       HT       0.417000       1.00800           0
     45726 TIP3     7782     TIP3     OH2      OT      -0.834000       15.9994           0
     45727 TIP3     7782     TIP3     H1       HT       0.417000       1.00800           0
     45728 TIP3     7782     TIP3     H2       HT       0.417000       1.00800           0
     45729 TIP3     7783     TIP3     OH2      OT      -0.834000       15.9994           0
     45730 TIP3     7783     TIP3     H1       HT       0.417000       1.00800           0
     45731 TIP3     7783     TIP3     H2       HT       0.417000       1.00800           0
     45732 TIP3     7784     TIP3     OH2      OT      -0.834000       15.9994           0
     45733 TIP3     7784     TIP3     H1       HT       0.417000       1.00800           0
     45734 TIP3     7784     TIP3     H2       HT       0.417000       1.00800           0
     45735 TIP3     7785     TIP3     OH2      OT      -0.834000       15.9994           0
     45736 TIP3     7785     TIP3     H1       HT       0.417000       1.00800           0
     45737 TIP3     7785     TIP3     H2       HT       0.417000       1.00800           0
     45738 TIP3     7786     TIP3     OH2      OT      -0.834000       15.9994           0
     45739 TIP3     7786     TIP3     H1       HT       0.417000       1.00800           0
     45740 TIP3     7786     TIP3     H2       HT       0.417000       1.00800           0
     45741 TIP3     7787     TIP3     OH2      OT      -0.834000       15.9994           0
     45742 TIP3     7787     TIP3     H1       HT       0.417000       1.00800           0
     45743 TIP3     7787     TIP3     H2       HT       0.417000       1.00800           0
     45744 TIP3     7788     TIP3     OH2      OT      -0.834000       15.9994           0
     45745 TIP3     7788     TIP3     H1       HT       0.417000       1.00800           0
     45746 TIP3     7788     TIP3     H2       HT       0.417000       1.00800           0
     45747 TIP3     7789     TIP3     OH2      OT      -0.834000       15.9994           0
     45748 TIP3     7789     TIP3     H1       HT       0.417000       1.00800           0
     45749 TIP3     7789     TIP3     H2       HT       0.417000       1.00800           0
     45750 TIP3     7790     TIP3     OH2      OT      -0.834000       15.9994           0
     45751 TIP3     7790     TIP3     H1       HT       0.417000       1.00800           0
     45752 TIP3     7790     TIP3     H2       HT       0.417000       1.00800           0
     45753 TIP3     7791     TIP3     OH2      OT      -0.834000       15.9994           0
     45754 TIP3     7791     TIP3     H1       HT       0.417000       1.00800           0
     45755 TIP3     7791     TIP3     H2       HT       0.417000       1.00800           0
     45756 TIP3     7792     TIP3     OH2      OT      -0.834000       15.9994           0
     45757 TIP3     7792     TIP3     H1       HT       0.417000       1.00800           0
     45758 TIP3     7792     TIP3     H2       HT       0.417000       1.00800           0
     45759 TIP3     7793     TIP3     OH2      OT      -0.834000       15.9994           0
     45760 TIP3     7793     TIP3     H1       HT       0.417000       1.00800           0
     45761 TIP3     7793     TIP3     H2       HT       0.417000       1.00800           0
     45762 TIP3     7794     TIP3     OH2      OT      -0.834000       15.9994           0
     45763 TIP3     7794     TIP3     H1       HT       0.417000       1.00800           0
     45764 TIP3     7794     TIP3     H2       HT       0.417000       1.00800           0
     45765 TIP3     7795     TIP3     OH2      OT      -0.834000       15.9994           0
     45766 TIP3     7795     TIP3     H1       HT       0.417000       1.00800           0
     45767 TIP3     7795     TIP3     H2       HT       0.417000       1.00800           0
     45768 TIP3     7796     TIP3     OH2      OT      -0.834000       15.9994           0
     45769 TIP3     7796     TIP3     H1       HT       0.417000       1.00800           0
     45770 TIP3     7796     TIP3     H2       HT       0.417000       1.00800           0
     45771 TIP3     7797     TIP3     OH2      OT      -0.834000       15.9994           0
     45772 TIP3     7797     TIP3     H1       HT       0.417000       1.00800           0
     45773 TIP3     7797     TIP3     H2       HT       0.417000       1.00800           0
     45774 TIP3     7798     TIP3     OH2      OT      -0.834000       15.9994           0
     45775 TIP3     7798     TIP3     H1       HT       0.417000       1.00800           0
     45776 TIP3     7798     TIP3     H2       HT       0.417000       1.00800           0
     45777 TIP3     7799     TIP3     OH2      OT      -0.834000       15.9994           0
     45778 TIP3     7799     TIP3     H1       HT       0.417000       1.00800           0
     45779 TIP3     7799     TIP3     H2       HT       0.417000       1.00800           0
     45780 TIP3     7800     TIP3     OH2      OT      -0.834000       15.9994           0
     45781 TIP3     7800     TIP3     H1       HT       0.417000       1.00800           0
     45782 TIP3     7800     TIP3     H2       HT       0.417000       1.00800           0
     45783 TIP3     7801     TIP3     OH2      OT      -0.834000       15.9994           0
     45784 TIP3     7801     TIP3     H1       HT       0.417000       1.00800           0
     45785 TIP3     7801     TIP3     H2       HT       0.417000       1.00800           0
     45786 TIP3     7802     TIP3     OH2      OT      -0.834000       15.9994           0
     45787 TIP3     7802     TIP3     H1       HT       0.417000       1.00800           0
     45788 TIP3     7802     TIP3     H2       HT       0.417000       1.00800           0
     45789 TIP3     7803     TIP3     OH2      OT      -0.834000       15.9994           0
     45790 TIP3     7803     TIP3     H1       HT       0.417000       1.00800           0
     45791 TIP3     7803     TIP3     H2       HT       0.417000       1.00800           0
     45792 TIP3     7804     TIP3     OH2      OT      -0.834000       15.9994           0
     45793 TIP3     7804     TIP3     H1       HT       0.417000       1.00800           0
     45794 TIP3     7804     TIP3     H2       HT       0.417000       1.00800           0
     45795 TIP3     7805     TIP3     OH2      OT      -0.834000       15.9994           0
     45796 TIP3     7805     TIP3     H1       HT       0.417000       1.00800           0
     45797 TIP3     7805     TIP3     H2       HT       0.417000       1.00800           0
     45798 TIP3     7806     TIP3     OH2      OT      -0.834000       15.9994           0
     45799 TIP3     7806     TIP3     H1       HT       0.417000       1.00800           0
     45800 TIP3     7806     TIP3     H2       HT       0.417000       1.00800           0
     45801 TIP3     7807     TIP3     OH2      OT      -0.834000       15.9994           0
     45802 TIP3     7807     TIP3     H1       HT       0.417000       1.00800           0
     45803 TIP3     7807     TIP3     H2       HT       0.417000       1.00800           0
     45804 TIP3     7808     TIP3     OH2      OT      -0.834000       15.9994           0
     45805 TIP3     7808     TIP3     H1       HT       0.417000       1.00800           0
     45806 TIP3     7808     TIP3     H2       HT       0.417000       1.00800           0
     45807 TIP3     7809     TIP3     OH2      OT      -0.834000       15.9994           0
     45808 TIP3     7809     TIP3     H1       HT       0.417000       1.00800           0
     45809 TIP3     7809     TIP3     H2       HT       0.417000       1.00800           0
     45810 TIP3     7810     TIP3     OH2      OT      -0.834000       15.9994           0
     45811 TIP3     7810     TIP3     H1       HT       0.417000       1.00800           0
     45812 TIP3     7810     TIP3     H2       HT       0.417000       1.00800           0
     45813 TIP3     7811     TIP3     OH2      OT      -0.834000       15.9994           0
     45814 TIP3     7811     TIP3     H1       HT       0.417000       1.00800           0
     45815 TIP3     7811     TIP3     H2       HT       0.417000       1.00800           0
     45816 TIP3     7812     TIP3     OH2      OT      -0.834000       15.9994           0
     45817 TIP3     7812     TIP3     H1       HT       0.417000       1.00800           0
     45818 TIP3     7812     TIP3     H2       HT       0.417000       1.00800           0
     45819 TIP3     7813     TIP3     OH2      OT      -0.834000       15.9994           0
     45820 TIP3     7813     TIP3     H1       HT       0.417000       1.00800           0
     45821 TIP3     7813     TIP3     H2       HT       0.417000       1.00800           0
     45822 TIP3     7814     TIP3     OH2      OT      -0.834000       15.9994           0
     45823 TIP3     7814     TIP3     H1       HT       0.417000       1.00800           0
     45824 TIP3     7814     TIP3     H2       HT       0.417000       1.00800           0
     45825 TIP3     7815     TIP3     OH2      OT      -0.834000       15.9994           0
     45826 TIP3     7815     TIP3     H1       HT       0.417000       1.00800           0
     45827 TIP3     7815     TIP3     H2       HT       0.417000       1.00800           0
     45828 TIP3     7816     TIP3     OH2      OT      -0.834000       15.9994           0
     45829 TIP3     7816     TIP3     H1       HT       0.417000       1.00800           0
     45830 TIP3     7816     TIP3     H2       HT       0.417000       1.00800           0
     45831 TIP3     7817     TIP3     OH2      OT      -0.834000       15.9994           0
     45832 TIP3     7817     TIP3     H1       HT       0.417000       1.00800           0
     45833 TIP3     7817     TIP3     H2       HT       0.417000       1.00800           0
     45834 TIP3     7818     TIP3     OH2      OT      -0.834000       15.9994           0
     45835 TIP3     7818     TIP3     H1       HT       0.417000       1.00800           0
     45836 TIP3     7818     TIP3     H2       HT       0.417000       1.00800           0
     45837 TIP3     7819     TIP3     OH2      OT      -0.834000       15.9994           0
     45838 TIP3     7819     TIP3     H1       HT       0.417000       1.00800           0
     45839 TIP3     7819     TIP3     H2       HT       0.417000       1.00800           0
     45840 TIP3     7820     TIP3     OH2      OT      -0.834000       15.9994           0
     45841 TIP3     7820     TIP3     H1       HT       0.417000       1.00800           0
     45842 TIP3     7820     TIP3     H2       HT       0.417000       1.00800           0
     45843 TIP3     7821     TIP3     OH2      OT      -0.834000       15.9994           0
     45844 TIP3     7821     TIP3     H1       HT       0.417000       1.00800           0
     45845 TIP3     7821     TIP3     H2       HT       0.417000       1.00800           0
     45846 TIP3     7822     TIP3     OH2      OT      -0.834000       15.9994           0
     45847 TIP3     7822     TIP3     H1       HT       0.417000       1.00800           0
     45848 TIP3     7822     TIP3     H2       HT       0.417000       1.00800           0
     45849 TIP3     7823     TIP3     OH2      OT      -0.834000       15.9994           0
     45850 TIP3     7823     TIP3     H1       HT       0.417000       1.00800           0
     45851 TIP3     7823     TIP3     H2       HT       0.417000       1.00800           0
     45852 TIP3     7824     TIP3     OH2      OT      -0.834000       15.9994           0
     45853 TIP3     7824     TIP3     H1       HT       0.417000       1.00800           0
     45854 TIP3     7824     TIP3     H2       HT       0.417000       1.00800           0
     45855 TIP3     7825     TIP3     OH2      OT      -0.834000       15.9994           0
     45856 TIP3     7825     TIP3     H1       HT       0.417000       1.00800           0
     45857 TIP3     7825     TIP3     H2       HT       0.417000       1.00800           0
     45858 TIP3     7826     TIP3     OH2      OT      -0.834000       15.9994           0
     45859 TIP3     7826     TIP3     H1       HT       0.417000       1.00800           0
     45860 TIP3     7826     TIP3     H2       HT       0.417000       1.00800           0
     45861 TIP3     7827     TIP3     OH2      OT      -0.834000       15.9994           0
     45862 TIP3     7827     TIP3     H1       HT       0.417000       1.00800           0
     45863 TIP3     7827     TIP3     H2       HT       0.417000       1.00800           0
     45864 TIP3     7828     TIP3     OH2      OT      -0.834000       15.9994           0
     45865 TIP3     7828     TIP3     H1       HT       0.417000       1.00800           0
     45866 TIP3     7828     TIP3     H2       HT       0.417000       1.00800           0
     45867 TIP3     7829     TIP3     OH2      OT      -0.834000       15.9994           0
     45868 TIP3     7829     TIP3     H1       HT       0.417000       1.00800           0
     45869 TIP3     7829     TIP3     H2       HT       0.417000       1.00800           0
     45870 TIP3     7830     TIP3     OH2      OT      -0.834000       15.9994           0
     45871 TIP3     7830     TIP3     H1       HT       0.417000       1.00800           0
     45872 TIP3     7830     TIP3     H2       HT       0.417000       1.00800           0
     45873 TIP3     7831     TIP3     OH2      OT      -0.834000       15.9994           0
     45874 TIP3     7831     TIP3     H1       HT       0.417000       1.00800           0
     45875 TIP3     7831     TIP3     H2       HT       0.417000       1.00800           0
     45876 TIP3     7832     TIP3     OH2      OT      -0.834000       15.9994           0
     45877 TIP3     7832     TIP3     H1       HT       0.417000       1.00800           0
     45878 TIP3     7832     TIP3     H2       HT       0.417000       1.00800           0
     45879 TIP3     7833     TIP3     OH2      OT      -0.834000       15.9994           0
     45880 TIP3     7833     TIP3     H1       HT       0.417000       1.00800           0
     45881 TIP3     7833     TIP3     H2       HT       0.417000       1.00800           0
     45882 TIP3     7834     TIP3     OH2      OT      -0.834000       15.9994           0
     45883 TIP3     7834     TIP3     H1       HT       0.417000       1.00800           0
     45884 TIP3     7834     TIP3     H2       HT       0.417000       1.00800           0
     45885 TIP3     7835     TIP3     OH2      OT      -0.834000       15.9994           0
     45886 TIP3     7835     TIP3     H1       HT       0.417000       1.00800           0
     45887 TIP3     7835     TIP3     H2       HT       0.417000       1.00800           0
     45888 TIP3     7836     TIP3     OH2      OT      -0.834000       15.9994           0
     45889 TIP3     7836     TIP3     H1       HT       0.417000       1.00800           0
     45890 TIP3     7836     TIP3     H2       HT       0.417000       1.00800           0
     45891 TIP3     7837     TIP3     OH2      OT      -0.834000       15.9994           0
     45892 TIP3     7837     TIP3     H1       HT       0.417000       1.00800           0
     45893 TIP3     7837     TIP3     H2       HT       0.417000       1.00800           0
     45894 TIP3     7838     TIP3     OH2      OT      -0.834000       15.9994           0
     45895 TIP3     7838     TIP3     H1       HT       0.417000       1.00800           0
     45896 TIP3     7838     TIP3     H2       HT       0.417000       1.00800           0
     45897 TIP3     7839     TIP3     OH2      OT      -0.834000       15.9994           0
     45898 TIP3     7839     TIP3     H1       HT       0.417000       1.00800           0
     45899 TIP3     7839     TIP3     H2       HT       0.417000       1.00800           0
     45900 TIP3     7840     TIP3     OH2      OT      -0.834000       15.9994           0
     45901 TIP3     7840     TIP3     H1       HT       0.417000       1.00800           0
     45902 TIP3     7840     TIP3     H2       HT       0.417000       1.00800           0
     45903 TIP3     7841     TIP3     OH2      OT      -0.834000       15.9994           0
     45904 TIP3     7841     TIP3     H1       HT       0.417000       1.00800           0
     45905 TIP3     7841     TIP3     H2       HT       0.417000       1.00800           0
     45906 TIP3     7842     TIP3     OH2      OT      -0.834000       15.9994           0
     45907 TIP3     7842     TIP3     H1       HT       0.417000       1.00800           0
     45908 TIP3     7842     TIP3     H2       HT       0.417000       1.00800           0
     45909 TIP3     7843     TIP3     OH2      OT      -0.834000       15.9994           0
     45910 TIP3     7843     TIP3     H1       HT       0.417000       1.00800           0
     45911 TIP3     7843     TIP3     H2       HT       0.417000       1.00800           0
     45912 TIP3     7844     TIP3     OH2      OT      -0.834000       15.9994           0
     45913 TIP3     7844     TIP3     H1       HT       0.417000       1.00800           0
     45914 TIP3     7844     TIP3     H2       HT       0.417000       1.00800           0
     45915 TIP3     7845     TIP3     OH2      OT      -0.834000       15.9994           0
     45916 TIP3     7845     TIP3     H1       HT       0.417000       1.00800           0
     45917 TIP3     7845     TIP3     H2       HT       0.417000       1.00800           0
     45918 TIP3     7846     TIP3     OH2      OT      -0.834000       15.9994           0
     45919 TIP3     7846     TIP3     H1       HT       0.417000       1.00800           0
     45920 TIP3     7846     TIP3     H2       HT       0.417000       1.00800           0
     45921 TIP3     7847     TIP3     OH2      OT      -0.834000       15.9994           0
     45922 TIP3     7847     TIP3     H1       HT       0.417000       1.00800           0
     45923 TIP3     7847     TIP3     H2       HT       0.417000       1.00800           0
     45924 TIP3     7848     TIP3     OH2      OT      -0.834000       15.9994           0
     45925 TIP3     7848     TIP3     H1       HT       0.417000       1.00800           0
     45926 TIP3     7848     TIP3     H2       HT       0.417000       1.00800           0
     45927 TIP3     7849     TIP3     OH2      OT      -0.834000       15.9994           0
     45928 TIP3     7849     TIP3     H1       HT       0.417000       1.00800           0
     45929 TIP3     7849     TIP3     H2       HT       0.417000       1.00800           0
     45930 TIP3     7850     TIP3     OH2      OT      -0.834000       15.9994           0
     45931 TIP3     7850     TIP3     H1       HT       0.417000       1.00800           0
     45932 TIP3     7850     TIP3     H2       HT       0.417000       1.00800           0
     45933 TIP3     7851     TIP3     OH2      OT      -0.834000       15.9994           0
     45934 TIP3     7851     TIP3     H1       HT       0.417000       1.00800           0
     45935 TIP3     7851     TIP3     H2       HT       0.417000       1.00800           0
     45936 TIP3     7852     TIP3     OH2      OT      -0.834000       15.9994           0
     45937 TIP3     7852     TIP3     H1       HT       0.417000       1.00800           0
     45938 TIP3     7852     TIP3     H2       HT       0.417000       1.00800           0
     45939 TIP3     7853     TIP3     OH2      OT      -0.834000       15.9994           0
     45940 TIP3     7853     TIP3     H1       HT       0.417000       1.00800           0
     45941 TIP3     7853     TIP3     H2       HT       0.417000       1.00800           0
     45942 TIP3     7854     TIP3     OH2      OT      -0.834000       15.9994           0
     45943 TIP3     7854     TIP3     H1       HT       0.417000       1.00800           0
     45944 TIP3     7854     TIP3     H2       HT       0.417000       1.00800           0
     45945 TIP3     7855     TIP3     OH2      OT      -0.834000       15.9994           0
     45946 TIP3     7855     TIP3     H1       HT       0.417000       1.00800           0
     45947 TIP3     7855     TIP3     H2       HT       0.417000       1.00800           0
     45948 TIP3     7856     TIP3     OH2      OT      -0.834000       15.9994           0
     45949 TIP3     7856     TIP3     H1       HT       0.417000       1.00800           0
     45950 TIP3     7856     TIP3     H2       HT       0.417000       1.00800           0
     45951 TIP3     7857     TIP3     OH2      OT      -0.834000       15.9994           0
     45952 TIP3     7857     TIP3     H1       HT       0.417000       1.00800           0
     45953 TIP3     7857     TIP3     H2       HT       0.417000       1.00800           0
     45954 TIP3     7858     TIP3     OH2      OT      -0.834000       15.9994           0
     45955 TIP3     7858     TIP3     H1       HT       0.417000       1.00800           0
     45956 TIP3     7858     TIP3     H2       HT       0.417000       1.00800           0
     45957 TIP3     7859     TIP3     OH2      OT      -0.834000       15.9994           0
     45958 TIP3     7859     TIP3     H1       HT       0.417000       1.00800           0
     45959 TIP3     7859     TIP3     H2       HT       0.417000       1.00800           0
     45960 TIP3     7860     TIP3     OH2      OT      -0.834000       15.9994           0
     45961 TIP3     7860     TIP3     H1       HT       0.417000       1.00800           0
     45962 TIP3     7860     TIP3     H2       HT       0.417000       1.00800           0
     45963 TIP3     7861     TIP3     OH2      OT      -0.834000       15.9994           0
     45964 TIP3     7861     TIP3     H1       HT       0.417000       1.00800           0
     45965 TIP3     7861     TIP3     H2       HT       0.417000       1.00800           0
     45966 TIP3     7862     TIP3     OH2      OT      -0.834000       15.9994           0
     45967 TIP3     7862     TIP3     H1       HT       0.417000       1.00800           0
     45968 TIP3     7862     TIP3     H2       HT       0.417000       1.00800           0
     45969 TIP3     7863     TIP3     OH2      OT      -0.834000       15.9994           0
     45970 TIP3     7863     TIP3     H1       HT       0.417000       1.00800           0
     45971 TIP3     7863     TIP3     H2       HT       0.417000       1.00800           0
     45972 TIP3     7864     TIP3     OH2      OT      -0.834000       15.9994           0
     45973 TIP3     7864     TIP3     H1       HT       0.417000       1.00800           0
     45974 TIP3     7864     TIP3     H2       HT       0.417000       1.00800           0
     45975 TIP3     7865     TIP3     OH2      OT      -0.834000       15.9994           0
     45976 TIP3     7865     TIP3     H1       HT       0.417000       1.00800           0
     45977 TIP3     7865     TIP3     H2       HT       0.417000       1.00800           0
     45978 TIP3     7866     TIP3     OH2      OT      -0.834000       15.9994           0
     45979 TIP3     7866     TIP3     H1       HT       0.417000       1.00800           0
     45980 TIP3     7866     TIP3     H2       HT       0.417000       1.00800           0
     45981 TIP3     7867     TIP3     OH2      OT      -0.834000       15.9994           0
     45982 TIP3     7867     TIP3     H1       HT       0.417000       1.00800           0
     45983 TIP3     7867     TIP3     H2       HT       0.417000       1.00800           0
     45984 TIP3     7868     TIP3     OH2      OT      -0.834000       15.9994           0
     45985 TIP3     7868     TIP3     H1       HT       0.417000       1.00800           0
     45986 TIP3     7868     TIP3     H2       HT       0.417000       1.00800           0
     45987 TIP3     7869     TIP3     OH2      OT      -0.834000       15.9994           0
     45988 TIP3     7869     TIP3     H1       HT       0.417000       1.00800           0
     45989 TIP3     7869     TIP3     H2       HT       0.417000       1.00800           0
     45990 TIP3     7870     TIP3     OH2      OT      -0.834000       15.9994           0
     45991 TIP3     7870     TIP3     H1       HT       0.417000       1.00800           0
     45992 TIP3     7870     TIP3     H2       HT       0.417000       1.00800           0
     45993 TIP3     7871     TIP3     OH2      OT      -0.834000       15.9994           0
     45994 TIP3     7871     TIP3     H1       HT       0.417000       1.00800           0
     45995 TIP3     7871     TIP3     H2       HT       0.417000       1.00800           0
     45996 TIP3     7872     TIP3     OH2      OT      -0.834000       15.9994           0
     45997 TIP3     7872     TIP3     H1       HT       0.417000       1.00800           0
     45998 TIP3     7872     TIP3     H2       HT       0.417000       1.00800           0
     45999 TIP3     7873     TIP3     OH2      OT      -0.834000       15.9994           0
     46000 TIP3     7873     TIP3     H1       HT       0.417000       1.00800           0
     46001 TIP3     7873     TIP3     H2       HT       0.417000       1.00800           0
     46002 TIP3     7874     TIP3     OH2      OT      -0.834000       15.9994           0
     46003 TIP3     7874     TIP3     H1       HT       0.417000       1.00800           0
     46004 TIP3     7874     TIP3     H2       HT       0.417000       1.00800           0
     46005 TIP3     7875     TIP3     OH2      OT      -0.834000       15.9994           0
     46006 TIP3     7875     TIP3     H1       HT       0.417000       1.00800           0
     46007 TIP3     7875     TIP3     H2       HT       0.417000       1.00800           0
     46008 TIP3     7876     TIP3     OH2      OT      -0.834000       15.9994           0
     46009 TIP3     7876     TIP3     H1       HT       0.417000       1.00800           0
     46010 TIP3     7876     TIP3     H2       HT       0.417000       1.00800           0
     46011 TIP3     7877     TIP3     OH2      OT      -0.834000       15.9994           0
     46012 TIP3     7877     TIP3     H1       HT       0.417000       1.00800           0
     46013 TIP3     7877     TIP3     H2       HT       0.417000       1.00800           0
     46014 TIP3     7878     TIP3     OH2      OT      -0.834000       15.9994           0
     46015 TIP3     7878     TIP3     H1       HT       0.417000       1.00800           0
     46016 TIP3     7878     TIP3     H2       HT       0.417000       1.00800           0
     46017 TIP3     7879     TIP3     OH2      OT      -0.834000       15.9994           0
     46018 TIP3     7879     TIP3     H1       HT       0.417000       1.00800           0
     46019 TIP3     7879     TIP3     H2       HT       0.417000       1.00800           0
     46020 TIP3     7880     TIP3     OH2      OT      -0.834000       15.9994           0
     46021 TIP3     7880     TIP3     H1       HT       0.417000       1.00800           0
     46022 TIP3     7880     TIP3     H2       HT       0.417000       1.00800           0
     46023 TIP3     7881     TIP3     OH2      OT      -0.834000       15.9994           0
     46024 TIP3     7881     TIP3     H1       HT       0.417000       1.00800           0
     46025 TIP3     7881     TIP3     H2       HT       0.417000       1.00800           0
     46026 TIP3     7882     TIP3     OH2      OT      -0.834000       15.9994           0
     46027 TIP3     7882     TIP3     H1       HT       0.417000       1.00800           0
     46028 TIP3     7882     TIP3     H2       HT       0.417000       1.00800           0
     46029 TIP3     7883     TIP3     OH2      OT      -0.834000       15.9994           0
     46030 TIP3     7883     TIP3     H1       HT       0.417000       1.00800           0
     46031 TIP3     7883     TIP3     H2       HT       0.417000       1.00800           0
     46032 TIP3     7884     TIP3     OH2      OT      -0.834000       15.9994           0
     46033 TIP3     7884     TIP3     H1       HT       0.417000       1.00800           0
     46034 TIP3     7884     TIP3     H2       HT       0.417000       1.00800           0
     46035 TIP3     7885     TIP3     OH2      OT      -0.834000       15.9994           0
     46036 TIP3     7885     TIP3     H1       HT       0.417000       1.00800           0
     46037 TIP3     7885     TIP3     H2       HT       0.417000       1.00800           0
     46038 TIP3     7886     TIP3     OH2      OT      -0.834000       15.9994           0
     46039 TIP3     7886     TIP3     H1       HT       0.417000       1.00800           0
     46040 TIP3     7886     TIP3     H2       HT       0.417000       1.00800           0
     46041 TIP3     7887     TIP3     OH2      OT      -0.834000       15.9994           0
     46042 TIP3     7887     TIP3     H1       HT       0.417000       1.00800           0
     46043 TIP3     7887     TIP3     H2       HT       0.417000       1.00800           0
     46044 TIP3     7888     TIP3     OH2      OT      -0.834000       15.9994           0
     46045 TIP3     7888     TIP3     H1       HT       0.417000       1.00800           0
     46046 TIP3     7888     TIP3     H2       HT       0.417000       1.00800           0
     46047 TIP3     7889     TIP3     OH2      OT      -0.834000       15.9994           0
     46048 TIP3     7889     TIP3     H1       HT       0.417000       1.00800           0
     46049 TIP3     7889     TIP3     H2       HT       0.417000       1.00800           0
     46050 TIP3     7890     TIP3     OH2      OT      -0.834000       15.9994           0
     46051 TIP3     7890     TIP3     H1       HT       0.417000       1.00800           0
     46052 TIP3     7890     TIP3     H2       HT       0.417000       1.00800           0
     46053 TIP3     7891     TIP3     OH2      OT      -0.834000       15.9994           0
     46054 TIP3     7891     TIP3     H1       HT       0.417000       1.00800           0
     46055 TIP3     7891     TIP3     H2       HT       0.417000       1.00800           0
     46056 TIP3     7892     TIP3     OH2      OT      -0.834000       15.9994           0
     46057 TIP3     7892     TIP3     H1       HT       0.417000       1.00800           0
     46058 TIP3     7892     TIP3     H2       HT       0.417000       1.00800           0
     46059 TIP3     7893     TIP3     OH2      OT      -0.834000       15.9994           0
     46060 TIP3     7893     TIP3     H1       HT       0.417000       1.00800           0
     46061 TIP3     7893     TIP3     H2       HT       0.417000       1.00800           0
     46062 TIP3     7894     TIP3     OH2      OT      -0.834000       15.9994           0
     46063 TIP3     7894     TIP3     H1       HT       0.417000       1.00800           0
     46064 TIP3     7894     TIP3     H2       HT       0.417000       1.00800           0
     46065 TIP3     7895     TIP3     OH2      OT      -0.834000       15.9994           0
     46066 TIP3     7895     TIP3     H1       HT       0.417000       1.00800           0
     46067 TIP3     7895     TIP3     H2       HT       0.417000       1.00800           0
     46068 TIP3     7896     TIP3     OH2      OT      -0.834000       15.9994           0
     46069 TIP3     7896     TIP3     H1       HT       0.417000       1.00800           0
     46070 TIP3     7896     TIP3     H2       HT       0.417000       1.00800           0
     46071 TIP3     7897     TIP3     OH2      OT      -0.834000       15.9994           0
     46072 TIP3     7897     TIP3     H1       HT       0.417000       1.00800           0
     46073 TIP3     7897     TIP3     H2       HT       0.417000       1.00800           0
     46074 TIP3     7898     TIP3     OH2      OT      -0.834000       15.9994           0
     46075 TIP3     7898     TIP3     H1       HT       0.417000       1.00800           0
     46076 TIP3     7898     TIP3     H2       HT       0.417000       1.00800           0
     46077 TIP3     7899     TIP3     OH2      OT      -0.834000       15.9994           0
     46078 TIP3     7899     TIP3     H1       HT       0.417000       1.00800           0
     46079 TIP3     7899     TIP3     H2       HT       0.417000       1.00800           0
     46080 TIP3     7900     TIP3     OH2      OT      -0.834000       15.9994           0
     46081 TIP3     7900     TIP3     H1       HT       0.417000       1.00800           0
     46082 TIP3     7900     TIP3     H2       HT       0.417000       1.00800           0
     46083 TIP3     7901     TIP3     OH2      OT      -0.834000       15.9994           0
     46084 TIP3     7901     TIP3     H1       HT       0.417000       1.00800           0
     46085 TIP3     7901     TIP3     H2       HT       0.417000       1.00800           0
     46086 TIP3     7902     TIP3     OH2      OT      -0.834000       15.9994           0
     46087 TIP3     7902     TIP3     H1       HT       0.417000       1.00800           0
     46088 TIP3     7902     TIP3     H2       HT       0.417000       1.00800           0
     46089 TIP3     7903     TIP3     OH2      OT      -0.834000       15.9994           0
     46090 TIP3     7903     TIP3     H1       HT       0.417000       1.00800           0
     46091 TIP3     7903     TIP3     H2       HT       0.417000       1.00800           0
     46092 TIP3     7904     TIP3     OH2      OT      -0.834000       15.9994           0
     46093 TIP3     7904     TIP3     H1       HT       0.417000       1.00800           0
     46094 TIP3     7904     TIP3     H2       HT       0.417000       1.00800           0
     46095 TIP3     7905     TIP3     OH2      OT      -0.834000       15.9994           0
     46096 TIP3     7905     TIP3     H1       HT       0.417000       1.00800           0
     46097 TIP3     7905     TIP3     H2       HT       0.417000       1.00800           0
     46098 TIP3     7906     TIP3     OH2      OT      -0.834000       15.9994           0
     46099 TIP3     7906     TIP3     H1       HT       0.417000       1.00800           0
     46100 TIP3     7906     TIP3     H2       HT       0.417000       1.00800           0
     46101 TIP3     7907     TIP3     OH2      OT      -0.834000       15.9994           0
     46102 TIP3     7907     TIP3     H1       HT       0.417000       1.00800           0
     46103 TIP3     7907     TIP3     H2       HT       0.417000       1.00800           0
     46104 TIP3     7908     TIP3     OH2      OT      -0.834000       15.9994           0
     46105 TIP3     7908     TIP3     H1       HT       0.417000       1.00800           0
     46106 TIP3     7908     TIP3     H2       HT       0.417000       1.00800           0
     46107 TIP3     7909     TIP3     OH2      OT      -0.834000       15.9994           0
     46108 TIP3     7909     TIP3     H1       HT       0.417000       1.00800           0
     46109 TIP3     7909     TIP3     H2       HT       0.417000       1.00800           0
     46110 TIP3     7910     TIP3     OH2      OT      -0.834000       15.9994           0
     46111 TIP3     7910     TIP3     H1       HT       0.417000       1.00800           0
     46112 TIP3     7910     TIP3     H2       HT       0.417000       1.00800           0
     46113 TIP3     7911     TIP3     OH2      OT      -0.834000       15.9994           0
     46114 TIP3     7911     TIP3     H1       HT       0.417000       1.00800           0
     46115 TIP3     7911     TIP3     H2       HT       0.417000       1.00800           0
     46116 TIP3     7912     TIP3     OH2      OT      -0.834000       15.9994           0
     46117 TIP3     7912     TIP3     H1       HT       0.417000       1.00800           0
     46118 TIP3     7912     TIP3     H2       HT       0.417000       1.00800           0
     46119 TIP3     7913     TIP3     OH2      OT      -0.834000       15.9994           0
     46120 TIP3     7913     TIP3     H1       HT       0.417000       1.00800           0
     46121 TIP3     7913     TIP3     H2       HT       0.417000       1.00800           0
     46122 TIP3     7914     TIP3     OH2      OT      -0.834000       15.9994           0
     46123 TIP3     7914     TIP3     H1       HT       0.417000       1.00800           0
     46124 TIP3     7914     TIP3     H2       HT       0.417000       1.00800           0
     46125 TIP3     7915     TIP3     OH2      OT      -0.834000       15.9994           0
     46126 TIP3     7915     TIP3     H1       HT       0.417000       1.00800           0
     46127 TIP3     7915     TIP3     H2       HT       0.417000       1.00800           0
     46128 TIP3     7916     TIP3     OH2      OT      -0.834000       15.9994           0
     46129 TIP3     7916     TIP3     H1       HT       0.417000       1.00800           0
     46130 TIP3     7916     TIP3     H2       HT       0.417000       1.00800           0
     46131 TIP3     7917     TIP3     OH2      OT      -0.834000       15.9994           0
     46132 TIP3     7917     TIP3     H1       HT       0.417000       1.00800           0
     46133 TIP3     7917     TIP3     H2       HT       0.417000       1.00800           0
     46134 TIP3     7918     TIP3     OH2      OT      -0.834000       15.9994           0
     46135 TIP3     7918     TIP3     H1       HT       0.417000       1.00800           0
     46136 TIP3     7918     TIP3     H2       HT       0.417000       1.00800           0
     46137 TIP3     7919     TIP3     OH2      OT      -0.834000       15.9994           0
     46138 TIP3     7919     TIP3     H1       HT       0.417000       1.00800           0
     46139 TIP3     7919     TIP3     H2       HT       0.417000       1.00800           0
     46140 TIP3     7920     TIP3     OH2      OT      -0.834000       15.9994           0
     46141 TIP3     7920     TIP3     H1       HT       0.417000       1.00800           0
     46142 TIP3     7920     TIP3     H2       HT       0.417000       1.00800           0
     46143 TIP3     7921     TIP3     OH2      OT      -0.834000       15.9994           0
     46144 TIP3     7921     TIP3     H1       HT       0.417000       1.00800           0
     46145 TIP3     7921     TIP3     H2       HT       0.417000       1.00800           0
     46146 TIP3     7922     TIP3     OH2      OT      -0.834000       15.9994           0
     46147 TIP3     7922     TIP3     H1       HT       0.417000       1.00800           0
     46148 TIP3     7922     TIP3     H2       HT       0.417000       1.00800           0
     46149 TIP3     7923     TIP3     OH2      OT      -0.834000       15.9994           0
     46150 TIP3     7923     TIP3     H1       HT       0.417000       1.00800           0
     46151 TIP3     7923     TIP3     H2       HT       0.417000       1.00800           0
     46152 TIP3     7924     TIP3     OH2      OT      -0.834000       15.9994           0
     46153 TIP3     7924     TIP3     H1       HT       0.417000       1.00800           0
     46154 TIP3     7924     TIP3     H2       HT       0.417000       1.00800           0
     46155 TIP3     7925     TIP3     OH2      OT      -0.834000       15.9994           0
     46156 TIP3     7925     TIP3     H1       HT       0.417000       1.00800           0
     46157 TIP3     7925     TIP3     H2       HT       0.417000       1.00800           0
     46158 TIP3     7926     TIP3     OH2      OT      -0.834000       15.9994           0
     46159 TIP3     7926     TIP3     H1       HT       0.417000       1.00800           0
     46160 TIP3     7926     TIP3     H2       HT       0.417000       1.00800           0
     46161 TIP3     7927     TIP3     OH2      OT      -0.834000       15.9994           0
     46162 TIP3     7927     TIP3     H1       HT       0.417000       1.00800           0
     46163 TIP3     7927     TIP3     H2       HT       0.417000       1.00800           0
     46164 TIP3     7928     TIP3     OH2      OT      -0.834000       15.9994           0
     46165 TIP3     7928     TIP3     H1       HT       0.417000       1.00800           0
     46166 TIP3     7928     TIP3     H2       HT       0.417000       1.00800           0
     46167 TIP3     7929     TIP3     OH2      OT      -0.834000       15.9994           0
     46168 TIP3     7929     TIP3     H1       HT       0.417000       1.00800           0
     46169 TIP3     7929     TIP3     H2       HT       0.417000       1.00800           0
     46170 TIP3     7930     TIP3     OH2      OT      -0.834000       15.9994           0
     46171 TIP3     7930     TIP3     H1       HT       0.417000       1.00800           0
     46172 TIP3     7930     TIP3     H2       HT       0.417000       1.00800           0
     46173 TIP3     7931     TIP3     OH2      OT      -0.834000       15.9994           0
     46174 TIP3     7931     TIP3     H1       HT       0.417000       1.00800           0
     46175 TIP3     7931     TIP3     H2       HT       0.417000       1.00800           0
     46176 TIP3     7932     TIP3     OH2      OT      -0.834000       15.9994           0
     46177 TIP3     7932     TIP3     H1       HT       0.417000       1.00800           0
     46178 TIP3     7932     TIP3     H2       HT       0.417000       1.00800           0
     46179 TIP3     7933     TIP3     OH2      OT      -0.834000       15.9994           0
     46180 TIP3     7933     TIP3     H1       HT       0.417000       1.00800           0
     46181 TIP3     7933     TIP3     H2       HT       0.417000       1.00800           0
     46182 TIP3     7934     TIP3     OH2      OT      -0.834000       15.9994           0
     46183 TIP3     7934     TIP3     H1       HT       0.417000       1.00800           0
     46184 TIP3     7934     TIP3     H2       HT       0.417000       1.00800           0
     46185 TIP3     7935     TIP3     OH2      OT      -0.834000       15.9994           0
     46186 TIP3     7935     TIP3     H1       HT       0.417000       1.00800           0
     46187 TIP3     7935     TIP3     H2       HT       0.417000       1.00800           0
     46188 TIP3     7936     TIP3     OH2      OT      -0.834000       15.9994           0
     46189 TIP3     7936     TIP3     H1       HT       0.417000       1.00800           0
     46190 TIP3     7936     TIP3     H2       HT       0.417000       1.00800           0
     46191 TIP3     7937     TIP3     OH2      OT      -0.834000       15.9994           0
     46192 TIP3     7937     TIP3     H1       HT       0.417000       1.00800           0
     46193 TIP3     7937     TIP3     H2       HT       0.417000       1.00800           0
     46194 TIP3     7938     TIP3     OH2      OT      -0.834000       15.9994           0
     46195 TIP3     7938     TIP3     H1       HT       0.417000       1.00800           0
     46196 TIP3     7938     TIP3     H2       HT       0.417000       1.00800           0
     46197 TIP3     7939     TIP3     OH2      OT      -0.834000       15.9994           0
     46198 TIP3     7939     TIP3     H1       HT       0.417000       1.00800           0
     46199 TIP3     7939     TIP3     H2       HT       0.417000       1.00800           0
     46200 TIP3     7940     TIP3     OH2      OT      -0.834000       15.9994           0
     46201 TIP3     7940     TIP3     H1       HT       0.417000       1.00800           0
     46202 TIP3     7940     TIP3     H2       HT       0.417000       1.00800           0
     46203 TIP3     7941     TIP3     OH2      OT      -0.834000       15.9994           0
     46204 TIP3     7941     TIP3     H1       HT       0.417000       1.00800           0
     46205 TIP3     7941     TIP3     H2       HT       0.417000       1.00800           0
     46206 TIP3     7942     TIP3     OH2      OT      -0.834000       15.9994           0
     46207 TIP3     7942     TIP3     H1       HT       0.417000       1.00800           0
     46208 TIP3     7942     TIP3     H2       HT       0.417000       1.00800           0
     46209 TIP3     7943     TIP3     OH2      OT      -0.834000       15.9994           0
     46210 TIP3     7943     TIP3     H1       HT       0.417000       1.00800           0
     46211 TIP3     7943     TIP3     H2       HT       0.417000       1.00800           0
     46212 TIP3     7944     TIP3     OH2      OT      -0.834000       15.9994           0
     46213 TIP3     7944     TIP3     H1       HT       0.417000       1.00800           0
     46214 TIP3     7944     TIP3     H2       HT       0.417000       1.00800           0
     46215 TIP3     7945     TIP3     OH2      OT      -0.834000       15.9994           0
     46216 TIP3     7945     TIP3     H1       HT       0.417000       1.00800           0
     46217 TIP3     7945     TIP3     H2       HT       0.417000       1.00800           0
     46218 TIP3     7946     TIP3     OH2      OT      -0.834000       15.9994           0
     46219 TIP3     7946     TIP3     H1       HT       0.417000       1.00800           0
     46220 TIP3     7946     TIP3     H2       HT       0.417000       1.00800           0
     46221 TIP3     7947     TIP3     OH2      OT      -0.834000       15.9994           0
     46222 TIP3     7947     TIP3     H1       HT       0.417000       1.00800           0
     46223 TIP3     7947     TIP3     H2       HT       0.417000       1.00800           0
     46224 TIP3     7948     TIP3     OH2      OT      -0.834000       15.9994           0
     46225 TIP3     7948     TIP3     H1       HT       0.417000       1.00800           0
     46226 TIP3     7948     TIP3     H2       HT       0.417000       1.00800           0
     46227 TIP3     7949     TIP3     OH2      OT      -0.834000       15.9994           0
     46228 TIP3     7949     TIP3     H1       HT       0.417000       1.00800           0
     46229 TIP3     7949     TIP3     H2       HT       0.417000       1.00800           0
     46230 TIP3     7950     TIP3     OH2      OT      -0.834000       15.9994           0
     46231 TIP3     7950     TIP3     H1       HT       0.417000       1.00800           0
     46232 TIP3     7950     TIP3     H2       HT       0.417000       1.00800           0
     46233 TIP3     7951     TIP3     OH2      OT      -0.834000       15.9994           0
     46234 TIP3     7951     TIP3     H1       HT       0.417000       1.00800           0
     46235 TIP3     7951     TIP3     H2       HT       0.417000       1.00800           0
     46236 TIP3     7952     TIP3     OH2      OT      -0.834000       15.9994           0
     46237 TIP3     7952     TIP3     H1       HT       0.417000       1.00800           0
     46238 TIP3     7952     TIP3     H2       HT       0.417000       1.00800           0
     46239 TIP3     7953     TIP3     OH2      OT      -0.834000       15.9994           0
     46240 TIP3     7953     TIP3     H1       HT       0.417000       1.00800           0
     46241 TIP3     7953     TIP3     H2       HT       0.417000       1.00800           0
     46242 TIP3     7954     TIP3     OH2      OT      -0.834000       15.9994           0
     46243 TIP3     7954     TIP3     H1       HT       0.417000       1.00800           0
     46244 TIP3     7954     TIP3     H2       HT       0.417000       1.00800           0
     46245 TIP3     7955     TIP3     OH2      OT      -0.834000       15.9994           0
     46246 TIP3     7955     TIP3     H1       HT       0.417000       1.00800           0
     46247 TIP3     7955     TIP3     H2       HT       0.417000       1.00800           0
     46248 TIP3     7956     TIP3     OH2      OT      -0.834000       15.9994           0
     46249 TIP3     7956     TIP3     H1       HT       0.417000       1.00800           0
     46250 TIP3     7956     TIP3     H2       HT       0.417000       1.00800           0
     46251 TIP3     7957     TIP3     OH2      OT      -0.834000       15.9994           0
     46252 TIP3     7957     TIP3     H1       HT       0.417000       1.00800           0
     46253 TIP3     7957     TIP3     H2       HT       0.417000       1.00800           0
     46254 TIP3     7958     TIP3     OH2      OT      -0.834000       15.9994           0
     46255 TIP3     7958     TIP3     H1       HT       0.417000       1.00800           0
     46256 TIP3     7958     TIP3     H2       HT       0.417000       1.00800           0
     46257 TIP3     7959     TIP3     OH2      OT      -0.834000       15.9994           0
     46258 TIP3     7959     TIP3     H1       HT       0.417000       1.00800           0
     46259 TIP3     7959     TIP3     H2       HT       0.417000       1.00800           0
     46260 TIP3     7960     TIP3     OH2      OT      -0.834000       15.9994           0
     46261 TIP3     7960     TIP3     H1       HT       0.417000       1.00800           0
     46262 TIP3     7960     TIP3     H2       HT       0.417000       1.00800           0
     46263 TIP3     7961     TIP3     OH2      OT      -0.834000       15.9994           0
     46264 TIP3     7961     TIP3     H1       HT       0.417000       1.00800           0
     46265 TIP3     7961     TIP3     H2       HT       0.417000       1.00800           0
     46266 TIP3     7962     TIP3     OH2      OT      -0.834000       15.9994           0
     46267 TIP3     7962     TIP3     H1       HT       0.417000       1.00800           0
     46268 TIP3     7962     TIP3     H2       HT       0.417000       1.00800           0
     46269 TIP3     7963     TIP3     OH2      OT      -0.834000       15.9994           0
     46270 TIP3     7963     TIP3     H1       HT       0.417000       1.00800           0
     46271 TIP3     7963     TIP3     H2       HT       0.417000       1.00800           0
     46272 TIP3     7964     TIP3     OH2      OT      -0.834000       15.9994           0
     46273 TIP3     7964     TIP3     H1       HT       0.417000       1.00800           0
     46274 TIP3     7964     TIP3     H2       HT       0.417000       1.00800           0
     46275 TIP3     7965     TIP3     OH2      OT      -0.834000       15.9994           0
     46276 TIP3     7965     TIP3     H1       HT       0.417000       1.00800           0
     46277 TIP3     7965     TIP3     H2       HT       0.417000       1.00800           0
     46278 TIP3     7966     TIP3     OH2      OT      -0.834000       15.9994           0
     46279 TIP3     7966     TIP3     H1       HT       0.417000       1.00800           0
     46280 TIP3     7966     TIP3     H2       HT       0.417000       1.00800           0
     46281 TIP3     7967     TIP3     OH2      OT      -0.834000       15.9994           0
     46282 TIP3     7967     TIP3     H1       HT       0.417000       1.00800           0
     46283 TIP3     7967     TIP3     H2       HT       0.417000       1.00800           0
     46284 TIP3     7968     TIP3     OH2      OT      -0.834000       15.9994           0
     46285 TIP3     7968     TIP3     H1       HT       0.417000       1.00800           0
     46286 TIP3     7968     TIP3     H2       HT       0.417000       1.00800           0
     46287 TIP3     7969     TIP3     OH2      OT      -0.834000       15.9994           0
     46288 TIP3     7969     TIP3     H1       HT       0.417000       1.00800           0
     46289 TIP3     7969     TIP3     H2       HT       0.417000       1.00800           0
     46290 TIP3     7970     TIP3     OH2      OT      -0.834000       15.9994           0
     46291 TIP3     7970     TIP3     H1       HT       0.417000       1.00800           0
     46292 TIP3     7970     TIP3     H2       HT       0.417000       1.00800           0
     46293 TIP3     7971     TIP3     OH2      OT      -0.834000       15.9994           0
     46294 TIP3     7971     TIP3     H1       HT       0.417000       1.00800           0
     46295 TIP3     7971     TIP3     H2       HT       0.417000       1.00800           0
     46296 TIP3     7972     TIP3     OH2      OT      -0.834000       15.9994           0
     46297 TIP3     7972     TIP3     H1       HT       0.417000       1.00800           0
     46298 TIP3     7972     TIP3     H2       HT       0.417000       1.00800           0
     46299 TIP3     7973     TIP3     OH2      OT      -0.834000       15.9994           0
     46300 TIP3     7973     TIP3     H1       HT       0.417000       1.00800           0
     46301 TIP3     7973     TIP3     H2       HT       0.417000       1.00800           0
     46302 TIP3     7974     TIP3     OH2      OT      -0.834000       15.9994           0
     46303 TIP3     7974     TIP3     H1       HT       0.417000       1.00800           0
     46304 TIP3     7974     TIP3     H2       HT       0.417000       1.00800           0
     46305 TIP3     7975     TIP3     OH2      OT      -0.834000       15.9994           0
     46306 TIP3     7975     TIP3     H1       HT       0.417000       1.00800           0
     46307 TIP3     7975     TIP3     H2       HT       0.417000       1.00800           0
     46308 TIP3     7976     TIP3     OH2      OT      -0.834000       15.9994           0
     46309 TIP3     7976     TIP3     H1       HT       0.417000       1.00800           0
     46310 TIP3     7976     TIP3     H2       HT       0.417000       1.00800           0
     46311 TIP3     7977     TIP3     OH2      OT      -0.834000       15.9994           0
     46312 TIP3     7977     TIP3     H1       HT       0.417000       1.00800           0
     46313 TIP3     7977     TIP3     H2       HT       0.417000       1.00800           0
     46314 TIP3     7978     TIP3     OH2      OT      -0.834000       15.9994           0
     46315 TIP3     7978     TIP3     H1       HT       0.417000       1.00800           0
     46316 TIP3     7978     TIP3     H2       HT       0.417000       1.00800           0
     46317 TIP3     7979     TIP3     OH2      OT      -0.834000       15.9994           0
     46318 TIP3     7979     TIP3     H1       HT       0.417000       1.00800           0
     46319 TIP3     7979     TIP3     H2       HT       0.417000       1.00800           0
     46320 TIP3     7980     TIP3     OH2      OT      -0.834000       15.9994           0
     46321 TIP3     7980     TIP3     H1       HT       0.417000       1.00800           0
     46322 TIP3     7980     TIP3     H2       HT       0.417000       1.00800           0
     46323 TIP3     7981     TIP3     OH2      OT      -0.834000       15.9994           0
     46324 TIP3     7981     TIP3     H1       HT       0.417000       1.00800           0
     46325 TIP3     7981     TIP3     H2       HT       0.417000       1.00800           0
     46326 TIP3     7982     TIP3     OH2      OT      -0.834000       15.9994           0
     46327 TIP3     7982     TIP3     H1       HT       0.417000       1.00800           0
     46328 TIP3     7982     TIP3     H2       HT       0.417000       1.00800           0
     46329 TIP3     7983     TIP3     OH2      OT      -0.834000       15.9994           0
     46330 TIP3     7983     TIP3     H1       HT       0.417000       1.00800           0
     46331 TIP3     7983     TIP3     H2       HT       0.417000       1.00800           0
     46332 TIP3     7984     TIP3     OH2      OT      -0.834000       15.9994           0
     46333 TIP3     7984     TIP3     H1       HT       0.417000       1.00800           0
     46334 TIP3     7984     TIP3     H2       HT       0.417000       1.00800           0
     46335 TIP3     7985     TIP3     OH2      OT      -0.834000       15.9994           0
     46336 TIP3     7985     TIP3     H1       HT       0.417000       1.00800           0
     46337 TIP3     7985     TIP3     H2       HT       0.417000       1.00800           0
     46338 TIP3     7986     TIP3     OH2      OT      -0.834000       15.9994           0
     46339 TIP3     7986     TIP3     H1       HT       0.417000       1.00800           0
     46340 TIP3     7986     TIP3     H2       HT       0.417000       1.00800           0
     46341 TIP3     7987     TIP3     OH2      OT      -0.834000       15.9994           0
     46342 TIP3     7987     TIP3     H1       HT       0.417000       1.00800           0
     46343 TIP3     7987     TIP3     H2       HT       0.417000       1.00800           0
     46344 TIP3     7988     TIP3     OH2      OT      -0.834000       15.9994           0
     46345 TIP3     7988     TIP3     H1       HT       0.417000       1.00800           0
     46346 TIP3     7988     TIP3     H2       HT       0.417000       1.00800           0
     46347 TIP3     7989     TIP3     OH2      OT      -0.834000       15.9994           0
     46348 TIP3     7989     TIP3     H1       HT       0.417000       1.00800           0
     46349 TIP3     7989     TIP3     H2       HT       0.417000       1.00800           0
     46350 TIP3     7990     TIP3     OH2      OT      -0.834000       15.9994           0
     46351 TIP3     7990     TIP3     H1       HT       0.417000       1.00800           0
     46352 TIP3     7990     TIP3     H2       HT       0.417000       1.00800           0
     46353 TIP3     7991     TIP3     OH2      OT      -0.834000       15.9994           0
     46354 TIP3     7991     TIP3     H1       HT       0.417000       1.00800           0
     46355 TIP3     7991     TIP3     H2       HT       0.417000       1.00800           0
     46356 TIP3     7992     TIP3     OH2      OT      -0.834000       15.9994           0
     46357 TIP3     7992     TIP3     H1       HT       0.417000       1.00800           0
     46358 TIP3     7992     TIP3     H2       HT       0.417000       1.00800           0
     46359 TIP3     7993     TIP3     OH2      OT      -0.834000       15.9994           0
     46360 TIP3     7993     TIP3     H1       HT       0.417000       1.00800           0
     46361 TIP3     7993     TIP3     H2       HT       0.417000       1.00800           0
     46362 TIP3     7994     TIP3     OH2      OT      -0.834000       15.9994           0
     46363 TIP3     7994     TIP3     H1       HT       0.417000       1.00800           0
     46364 TIP3     7994     TIP3     H2       HT       0.417000       1.00800           0
     46365 TIP3     7995     TIP3     OH2      OT      -0.834000       15.9994           0
     46366 TIP3     7995     TIP3     H1       HT       0.417000       1.00800           0
     46367 TIP3     7995     TIP3     H2       HT       0.417000       1.00800           0
     46368 TIP3     7996     TIP3     OH2      OT      -0.834000       15.9994           0
     46369 TIP3     7996     TIP3     H1       HT       0.417000       1.00800           0
     46370 TIP3     7996     TIP3     H2       HT       0.417000       1.00800           0
     46371 TIP3     7997     TIP3     OH2      OT      -0.834000       15.9994           0
     46372 TIP3     7997     TIP3     H1       HT       0.417000       1.00800           0
     46373 TIP3     7997     TIP3     H2       HT       0.417000       1.00800           0
     46374 TIP3     7998     TIP3     OH2      OT      -0.834000       15.9994           0
     46375 TIP3     7998     TIP3     H1       HT       0.417000       1.00800           0
     46376 TIP3     7998     TIP3     H2       HT       0.417000       1.00800           0
     46377 TIP3     7999     TIP3     OH2      OT      -0.834000       15.9994           0
     46378 TIP3     7999     TIP3     H1       HT       0.417000       1.00800           0
     46379 TIP3     7999     TIP3     H2       HT       0.417000       1.00800           0
     46380 TIP3     8000     TIP3     OH2      OT      -0.834000       15.9994           0
     46381 TIP3     8000     TIP3     H1       HT       0.417000       1.00800           0
     46382 TIP3     8000     TIP3     H2       HT       0.417000       1.00800           0
     46383 TIP3     8001     TIP3     OH2      OT      -0.834000       15.9994           0
     46384 TIP3     8001     TIP3     H1       HT       0.417000       1.00800           0
     46385 TIP3     8001     TIP3     H2       HT       0.417000       1.00800           0
     46386 TIP3     8002     TIP3     OH2      OT      -0.834000       15.9994           0
     46387 TIP3     8002     TIP3     H1       HT       0.417000       1.00800           0
     46388 TIP3     8002     TIP3     H2       HT       0.417000       1.00800           0
     46389 TIP3     8003     TIP3     OH2      OT      -0.834000       15.9994           0
     46390 TIP3     8003     TIP3     H1       HT       0.417000       1.00800           0
     46391 TIP3     8003     TIP3     H2       HT       0.417000       1.00800           0
     46392 TIP3     8004     TIP3     OH2      OT      -0.834000       15.9994           0
     46393 TIP3     8004     TIP3     H1       HT       0.417000       1.00800           0
     46394 TIP3     8004     TIP3     H2       HT       0.417000       1.00800           0
     46395 TIP3     8005     TIP3     OH2      OT      -0.834000       15.9994           0
     46396 TIP3     8005     TIP3     H1       HT       0.417000       1.00800           0
     46397 TIP3     8005     TIP3     H2       HT       0.417000       1.00800           0
     46398 TIP3     8006     TIP3     OH2      OT      -0.834000       15.9994           0
     46399 TIP3     8006     TIP3     H1       HT       0.417000       1.00800           0
     46400 TIP3     8006     TIP3     H2       HT       0.417000       1.00800           0
     46401 TIP3     8007     TIP3     OH2      OT      -0.834000       15.9994           0
     46402 TIP3     8007     TIP3     H1       HT       0.417000       1.00800           0
     46403 TIP3     8007     TIP3     H2       HT       0.417000       1.00800           0
     46404 TIP3     8008     TIP3     OH2      OT      -0.834000       15.9994           0
     46405 TIP3     8008     TIP3     H1       HT       0.417000       1.00800           0
     46406 TIP3     8008     TIP3     H2       HT       0.417000       1.00800           0
     46407 TIP3     8009     TIP3     OH2      OT      -0.834000       15.9994           0
     46408 TIP3     8009     TIP3     H1       HT       0.417000       1.00800           0
     46409 TIP3     8009     TIP3     H2       HT       0.417000       1.00800           0
     46410 TIP3     8010     TIP3     OH2      OT      -0.834000       15.9994           0
     46411 TIP3     8010     TIP3     H1       HT       0.417000       1.00800           0
     46412 TIP3     8010     TIP3     H2       HT       0.417000       1.00800           0
     46413 TIP3     8011     TIP3     OH2      OT      -0.834000       15.9994           0
     46414 TIP3     8011     TIP3     H1       HT       0.417000       1.00800           0
     46415 TIP3     8011     TIP3     H2       HT       0.417000       1.00800           0
     46416 TIP3     8012     TIP3     OH2      OT      -0.834000       15.9994           0
     46417 TIP3     8012     TIP3     H1       HT       0.417000       1.00800           0
     46418 TIP3     8012     TIP3     H2       HT       0.417000       1.00800           0
     46419 TIP3     8013     TIP3     OH2      OT      -0.834000       15.9994           0
     46420 TIP3     8013     TIP3     H1       HT       0.417000       1.00800           0
     46421 TIP3     8013     TIP3     H2       HT       0.417000       1.00800           0
     46422 TIP3     8014     TIP3     OH2      OT      -0.834000       15.9994           0
     46423 TIP3     8014     TIP3     H1       HT       0.417000       1.00800           0
     46424 TIP3     8014     TIP3     H2       HT       0.417000       1.00800           0
     46425 TIP3     8015     TIP3     OH2      OT      -0.834000       15.9994           0
     46426 TIP3     8015     TIP3     H1       HT       0.417000       1.00800           0
     46427 TIP3     8015     TIP3     H2       HT       0.417000       1.00800           0
     46428 TIP3     8016     TIP3     OH2      OT      -0.834000       15.9994           0
     46429 TIP3     8016     TIP3     H1       HT       0.417000       1.00800           0
     46430 TIP3     8016     TIP3     H2       HT       0.417000       1.00800           0
     46431 TIP3     8017     TIP3     OH2      OT      -0.834000       15.9994           0
     46432 TIP3     8017     TIP3     H1       HT       0.417000       1.00800           0
     46433 TIP3     8017     TIP3     H2       HT       0.417000       1.00800           0
     46434 TIP3     8018     TIP3     OH2      OT      -0.834000       15.9994           0
     46435 TIP3     8018     TIP3     H1       HT       0.417000       1.00800           0
     46436 TIP3     8018     TIP3     H2       HT       0.417000       1.00800           0
     46437 TIP3     8019     TIP3     OH2      OT      -0.834000       15.9994           0
     46438 TIP3     8019     TIP3     H1       HT       0.417000       1.00800           0
     46439 TIP3     8019     TIP3     H2       HT       0.417000       1.00800           0
     46440 TIP3     8020     TIP3     OH2      OT      -0.834000       15.9994           0
     46441 TIP3     8020     TIP3     H1       HT       0.417000       1.00800           0
     46442 TIP3     8020     TIP3     H2       HT       0.417000       1.00800           0
     46443 TIP3     8021     TIP3     OH2      OT      -0.834000       15.9994           0
     46444 TIP3     8021     TIP3     H1       HT       0.417000       1.00800           0
     46445 TIP3     8021     TIP3     H2       HT       0.417000       1.00800           0
     46446 TIP3     8022     TIP3     OH2      OT      -0.834000       15.9994           0
     46447 TIP3     8022     TIP3     H1       HT       0.417000       1.00800           0
     46448 TIP3     8022     TIP3     H2       HT       0.417000       1.00800           0
     46449 TIP3     8023     TIP3     OH2      OT      -0.834000       15.9994           0
     46450 TIP3     8023     TIP3     H1       HT       0.417000       1.00800           0
     46451 TIP3     8023     TIP3     H2       HT       0.417000       1.00800           0
     46452 TIP3     8024     TIP3     OH2      OT      -0.834000       15.9994           0
     46453 TIP3     8024     TIP3     H1       HT       0.417000       1.00800           0
     46454 TIP3     8024     TIP3     H2       HT       0.417000       1.00800           0
     46455 TIP3     8025     TIP3     OH2      OT      -0.834000       15.9994           0
     46456 TIP3     8025     TIP3     H1       HT       0.417000       1.00800           0
     46457 TIP3     8025     TIP3     H2       HT       0.417000       1.00800           0
     46458 TIP3     8026     TIP3     OH2      OT      -0.834000       15.9994           0
     46459 TIP3     8026     TIP3     H1       HT       0.417000       1.00800           0
     46460 TIP3     8026     TIP3     H2       HT       0.417000       1.00800           0
     46461 TIP3     8027     TIP3     OH2      OT      -0.834000       15.9994           0
     46462 TIP3     8027     TIP3     H1       HT       0.417000       1.00800           0
     46463 TIP3     8027     TIP3     H2       HT       0.417000       1.00800           0
     46464 TIP3     8028     TIP3     OH2      OT      -0.834000       15.9994           0
     46465 TIP3     8028     TIP3     H1       HT       0.417000       1.00800           0
     46466 TIP3     8028     TIP3     H2       HT       0.417000       1.00800           0
     46467 TIP3     8029     TIP3     OH2      OT      -0.834000       15.9994           0
     46468 TIP3     8029     TIP3     H1       HT       0.417000       1.00800           0
     46469 TIP3     8029     TIP3     H2       HT       0.417000       1.00800           0
     46470 TIP3     8030     TIP3     OH2      OT      -0.834000       15.9994           0
     46471 TIP3     8030     TIP3     H1       HT       0.417000       1.00800           0
     46472 TIP3     8030     TIP3     H2       HT       0.417000       1.00800           0
     46473 TIP3     8031     TIP3     OH2      OT      -0.834000       15.9994           0
     46474 TIP3     8031     TIP3     H1       HT       0.417000       1.00800           0
     46475 TIP3     8031     TIP3     H2       HT       0.417000       1.00800           0
     46476 TIP3     8032     TIP3     OH2      OT      -0.834000       15.9994           0
     46477 TIP3     8032     TIP3     H1       HT       0.417000       1.00800           0
     46478 TIP3     8032     TIP3     H2       HT       0.417000       1.00800           0
     46479 TIP3     8033     TIP3     OH2      OT      -0.834000       15.9994           0
     46480 TIP3     8033     TIP3     H1       HT       0.417000       1.00800           0
     46481 TIP3     8033     TIP3     H2       HT       0.417000       1.00800           0
     46482 TIP3     8034     TIP3     OH2      OT      -0.834000       15.9994           0
     46483 TIP3     8034     TIP3     H1       HT       0.417000       1.00800           0
     46484 TIP3     8034     TIP3     H2       HT       0.417000       1.00800           0
     46485 TIP3     8035     TIP3     OH2      OT      -0.834000       15.9994           0
     46486 TIP3     8035     TIP3     H1       HT       0.417000       1.00800           0
     46487 TIP3     8035     TIP3     H2       HT       0.417000       1.00800           0
     46488 TIP3     8036     TIP3     OH2      OT      -0.834000       15.9994           0
     46489 TIP3     8036     TIP3     H1       HT       0.417000       1.00800           0
     46490 TIP3     8036     TIP3     H2       HT       0.417000       1.00800           0
     46491 TIP3     8037     TIP3     OH2      OT      -0.834000       15.9994           0
     46492 TIP3     8037     TIP3     H1       HT       0.417000       1.00800           0
     46493 TIP3     8037     TIP3     H2       HT       0.417000       1.00800           0
     46494 TIP3     8038     TIP3     OH2      OT      -0.834000       15.9994           0
     46495 TIP3     8038     TIP3     H1       HT       0.417000       1.00800           0
     46496 TIP3     8038     TIP3     H2       HT       0.417000       1.00800           0
     46497 TIP3     8039     TIP3     OH2      OT      -0.834000       15.9994           0
     46498 TIP3     8039     TIP3     H1       HT       0.417000       1.00800           0
     46499 TIP3     8039     TIP3     H2       HT       0.417000       1.00800           0
     46500 TIP3     8040     TIP3     OH2      OT      -0.834000       15.9994           0
     46501 TIP3     8040     TIP3     H1       HT       0.417000       1.00800           0
     46502 TIP3     8040     TIP3     H2       HT       0.417000       1.00800           0
     46503 TIP3     8041     TIP3     OH2      OT      -0.834000       15.9994           0
     46504 TIP3     8041     TIP3     H1       HT       0.417000       1.00800           0
     46505 TIP3     8041     TIP3     H2       HT       0.417000       1.00800           0
     46506 TIP3     8042     TIP3     OH2      OT      -0.834000       15.9994           0
     46507 TIP3     8042     TIP3     H1       HT       0.417000       1.00800           0
     46508 TIP3     8042     TIP3     H2       HT       0.417000       1.00800           0
     46509 TIP3     8043     TIP3     OH2      OT      -0.834000       15.9994           0
     46510 TIP3     8043     TIP3     H1       HT       0.417000       1.00800           0
     46511 TIP3     8043     TIP3     H2       HT       0.417000       1.00800           0
     46512 TIP3     8044     TIP3     OH2      OT      -0.834000       15.9994           0
     46513 TIP3     8044     TIP3     H1       HT       0.417000       1.00800           0
     46514 TIP3     8044     TIP3     H2       HT       0.417000       1.00800           0
     46515 TIP3     8045     TIP3     OH2      OT      -0.834000       15.9994           0
     46516 TIP3     8045     TIP3     H1       HT       0.417000       1.00800           0
     46517 TIP3     8045     TIP3     H2       HT       0.417000       1.00800           0
     46518 TIP3     8046     TIP3     OH2      OT      -0.834000       15.9994           0
     46519 TIP3     8046     TIP3     H1       HT       0.417000       1.00800           0
     46520 TIP3     8046     TIP3     H2       HT       0.417000       1.00800           0
     46521 TIP3     8047     TIP3     OH2      OT      -0.834000       15.9994           0
     46522 TIP3     8047     TIP3     H1       HT       0.417000       1.00800           0
     46523 TIP3     8047     TIP3     H2       HT       0.417000       1.00800           0
     46524 TIP3     8048     TIP3     OH2      OT      -0.834000       15.9994           0
     46525 TIP3     8048     TIP3     H1       HT       0.417000       1.00800           0
     46526 TIP3     8048     TIP3     H2       HT       0.417000       1.00800           0
     46527 TIP3     8049     TIP3     OH2      OT      -0.834000       15.9994           0
     46528 TIP3     8049     TIP3     H1       HT       0.417000       1.00800           0
     46529 TIP3     8049     TIP3     H2       HT       0.417000       1.00800           0
     46530 TIP3     8050     TIP3     OH2      OT      -0.834000       15.9994           0
     46531 TIP3     8050     TIP3     H1       HT       0.417000       1.00800           0
     46532 TIP3     8050     TIP3     H2       HT       0.417000       1.00800           0
     46533 TIP3     8051     TIP3     OH2      OT      -0.834000       15.9994           0
     46534 TIP3     8051     TIP3     H1       HT       0.417000       1.00800           0
     46535 TIP3     8051     TIP3     H2       HT       0.417000       1.00800           0
     46536 TIP3     8052     TIP3     OH2      OT      -0.834000       15.9994           0
     46537 TIP3     8052     TIP3     H1       HT       0.417000       1.00800           0
     46538 TIP3     8052     TIP3     H2       HT       0.417000       1.00800           0
     46539 TIP3     8053     TIP3     OH2      OT      -0.834000       15.9994           0
     46540 TIP3     8053     TIP3     H1       HT       0.417000       1.00800           0
     46541 TIP3     8053     TIP3     H2       HT       0.417000       1.00800           0
     46542 TIP3     8054     TIP3     OH2      OT      -0.834000       15.9994           0
     46543 TIP3     8054     TIP3     H1       HT       0.417000       1.00800           0
     46544 TIP3     8054     TIP3     H2       HT       0.417000       1.00800           0
     46545 TIP3     8055     TIP3     OH2      OT      -0.834000       15.9994           0
     46546 TIP3     8055     TIP3     H1       HT       0.417000       1.00800           0
     46547 TIP3     8055     TIP3     H2       HT       0.417000       1.00800           0
     46548 TIP3     8056     TIP3     OH2      OT      -0.834000       15.9994           0
     46549 TIP3     8056     TIP3     H1       HT       0.417000       1.00800           0
     46550 TIP3     8056     TIP3     H2       HT       0.417000       1.00800           0
     46551 TIP3     8057     TIP3     OH2      OT      -0.834000       15.9994           0
     46552 TIP3     8057     TIP3     H1       HT       0.417000       1.00800           0
     46553 TIP3     8057     TIP3     H2       HT       0.417000       1.00800           0
     46554 TIP3     8058     TIP3     OH2      OT      -0.834000       15.9994           0
     46555 TIP3     8058     TIP3     H1       HT       0.417000       1.00800           0
     46556 TIP3     8058     TIP3     H2       HT       0.417000       1.00800           0
     46557 TIP3     8059     TIP3     OH2      OT      -0.834000       15.9994           0
     46558 TIP3     8059     TIP3     H1       HT       0.417000       1.00800           0
     46559 TIP3     8059     TIP3     H2       HT       0.417000       1.00800           0
     46560 TIP3     8060     TIP3     OH2      OT      -0.834000       15.9994           0
     46561 TIP3     8060     TIP3     H1       HT       0.417000       1.00800           0
     46562 TIP3     8060     TIP3     H2       HT       0.417000       1.00800           0
     46563 TIP3     8061     TIP3     OH2      OT      -0.834000       15.9994           0
     46564 TIP3     8061     TIP3     H1       HT       0.417000       1.00800           0
     46565 TIP3     8061     TIP3     H2       HT       0.417000       1.00800           0
     46566 TIP3     8062     TIP3     OH2      OT      -0.834000       15.9994           0
     46567 TIP3     8062     TIP3     H1       HT       0.417000       1.00800           0
     46568 TIP3     8062     TIP3     H2       HT       0.417000       1.00800           0
     46569 TIP3     8063     TIP3     OH2      OT      -0.834000       15.9994           0
     46570 TIP3     8063     TIP3     H1       HT       0.417000       1.00800           0
     46571 TIP3     8063     TIP3     H2       HT       0.417000       1.00800           0
     46572 TIP3     8064     TIP3     OH2      OT      -0.834000       15.9994           0
     46573 TIP3     8064     TIP3     H1       HT       0.417000       1.00800           0
     46574 TIP3     8064     TIP3     H2       HT       0.417000       1.00800           0
     46575 TIP3     8065     TIP3     OH2      OT      -0.834000       15.9994           0
     46576 TIP3     8065     TIP3     H1       HT       0.417000       1.00800           0
     46577 TIP3     8065     TIP3     H2       HT       0.417000       1.00800           0
     46578 TIP3     8066     TIP3     OH2      OT      -0.834000       15.9994           0
     46579 TIP3     8066     TIP3     H1       HT       0.417000       1.00800           0
     46580 TIP3     8066     TIP3     H2       HT       0.417000       1.00800           0
     46581 TIP3     8067     TIP3     OH2      OT      -0.834000       15.9994           0
     46582 TIP3     8067     TIP3     H1       HT       0.417000       1.00800           0
     46583 TIP3     8067     TIP3     H2       HT       0.417000       1.00800           0
     46584 TIP3     8068     TIP3     OH2      OT      -0.834000       15.9994           0
     46585 TIP3     8068     TIP3     H1       HT       0.417000       1.00800           0
     46586 TIP3     8068     TIP3     H2       HT       0.417000       1.00800           0
     46587 TIP3     8069     TIP3     OH2      OT      -0.834000       15.9994           0
     46588 TIP3     8069     TIP3     H1       HT       0.417000       1.00800           0
     46589 TIP3     8069     TIP3     H2       HT       0.417000       1.00800           0
     46590 TIP3     8070     TIP3     OH2      OT      -0.834000       15.9994           0
     46591 TIP3     8070     TIP3     H1       HT       0.417000       1.00800           0
     46592 TIP3     8070     TIP3     H2       HT       0.417000       1.00800           0
     46593 TIP3     8071     TIP3     OH2      OT      -0.834000       15.9994           0
     46594 TIP3     8071     TIP3     H1       HT       0.417000       1.00800           0
     46595 TIP3     8071     TIP3     H2       HT       0.417000       1.00800           0
     46596 TIP3     8072     TIP3     OH2      OT      -0.834000       15.9994           0
     46597 TIP3     8072     TIP3     H1       HT       0.417000       1.00800           0
     46598 TIP3     8072     TIP3     H2       HT       0.417000       1.00800           0
     46599 TIP3     8073     TIP3     OH2      OT      -0.834000       15.9994           0
     46600 TIP3     8073     TIP3     H1       HT       0.417000       1.00800           0
     46601 TIP3     8073     TIP3     H2       HT       0.417000       1.00800           0
     46602 TIP3     8074     TIP3     OH2      OT      -0.834000       15.9994           0
     46603 TIP3     8074     TIP3     H1       HT       0.417000       1.00800           0
     46604 TIP3     8074     TIP3     H2       HT       0.417000       1.00800           0
     46605 TIP3     8075     TIP3     OH2      OT      -0.834000       15.9994           0
     46606 TIP3     8075     TIP3     H1       HT       0.417000       1.00800           0
     46607 TIP3     8075     TIP3     H2       HT       0.417000       1.00800           0
     46608 TIP3     8076     TIP3     OH2      OT      -0.834000       15.9994           0
     46609 TIP3     8076     TIP3     H1       HT       0.417000       1.00800           0
     46610 TIP3     8076     TIP3     H2       HT       0.417000       1.00800           0
     46611 TIP3     8077     TIP3     OH2      OT      -0.834000       15.9994           0
     46612 TIP3     8077     TIP3     H1       HT       0.417000       1.00800           0
     46613 TIP3     8077     TIP3     H2       HT       0.417000       1.00800           0
     46614 TIP3     8078     TIP3     OH2      OT      -0.834000       15.9994           0
     46615 TIP3     8078     TIP3     H1       HT       0.417000       1.00800           0
     46616 TIP3     8078     TIP3     H2       HT       0.417000       1.00800           0
     46617 TIP3     8079     TIP3     OH2      OT      -0.834000       15.9994           0
     46618 TIP3     8079     TIP3     H1       HT       0.417000       1.00800           0
     46619 TIP3     8079     TIP3     H2       HT       0.417000       1.00800           0
     46620 TIP3     8080     TIP3     OH2      OT      -0.834000       15.9994           0
     46621 TIP3     8080     TIP3     H1       HT       0.417000       1.00800           0
     46622 TIP3     8080     TIP3     H2       HT       0.417000       1.00800           0
     46623 TIP3     8081     TIP3     OH2      OT      -0.834000       15.9994           0
     46624 TIP3     8081     TIP3     H1       HT       0.417000       1.00800           0
     46625 TIP3     8081     TIP3     H2       HT       0.417000       1.00800           0
     46626 TIP3     8082     TIP3     OH2      OT      -0.834000       15.9994           0
     46627 TIP3     8082     TIP3     H1       HT       0.417000       1.00800           0
     46628 TIP3     8082     TIP3     H2       HT       0.417000       1.00800           0
     46629 TIP3     8083     TIP3     OH2      OT      -0.834000       15.9994           0
     46630 TIP3     8083     TIP3     H1       HT       0.417000       1.00800           0
     46631 TIP3     8083     TIP3     H2       HT       0.417000       1.00800           0
     46632 TIP3     8084     TIP3     OH2      OT      -0.834000       15.9994           0
     46633 TIP3     8084     TIP3     H1       HT       0.417000       1.00800           0
     46634 TIP3     8084     TIP3     H2       HT       0.417000       1.00800           0
     46635 TIP3     8085     TIP3     OH2      OT      -0.834000       15.9994           0
     46636 TIP3     8085     TIP3     H1       HT       0.417000       1.00800           0
     46637 TIP3     8085     TIP3     H2       HT       0.417000       1.00800           0
     46638 TIP3     8086     TIP3     OH2      OT      -0.834000       15.9994           0
     46639 TIP3     8086     TIP3     H1       HT       0.417000       1.00800           0
     46640 TIP3     8086     TIP3     H2       HT       0.417000       1.00800           0
     46641 TIP3     8087     TIP3     OH2      OT      -0.834000       15.9994           0
     46642 TIP3     8087     TIP3     H1       HT       0.417000       1.00800           0
     46643 TIP3     8087     TIP3     H2       HT       0.417000       1.00800           0
     46644 TIP3     8088     TIP3     OH2      OT      -0.834000       15.9994           0
     46645 TIP3     8088     TIP3     H1       HT       0.417000       1.00800           0
     46646 TIP3     8088     TIP3     H2       HT       0.417000       1.00800           0
     46647 TIP3     8089     TIP3     OH2      OT      -0.834000       15.9994           0
     46648 TIP3     8089     TIP3     H1       HT       0.417000       1.00800           0
     46649 TIP3     8089     TIP3     H2       HT       0.417000       1.00800           0
     46650 TIP3     8090     TIP3     OH2      OT      -0.834000       15.9994           0
     46651 TIP3     8090     TIP3     H1       HT       0.417000       1.00800           0
     46652 TIP3     8090     TIP3     H2       HT       0.417000       1.00800           0
     46653 TIP3     8091     TIP3     OH2      OT      -0.834000       15.9994           0
     46654 TIP3     8091     TIP3     H1       HT       0.417000       1.00800           0
     46655 TIP3     8091     TIP3     H2       HT       0.417000       1.00800           0
     46656 TIP3     8092     TIP3     OH2      OT      -0.834000       15.9994           0
     46657 TIP3     8092     TIP3     H1       HT       0.417000       1.00800           0
     46658 TIP3     8092     TIP3     H2       HT       0.417000       1.00800           0
     46659 TIP3     8093     TIP3     OH2      OT      -0.834000       15.9994           0
     46660 TIP3     8093     TIP3     H1       HT       0.417000       1.00800           0
     46661 TIP3     8093     TIP3     H2       HT       0.417000       1.00800           0
     46662 TIP3     8094     TIP3     OH2      OT      -0.834000       15.9994           0
     46663 TIP3     8094     TIP3     H1       HT       0.417000       1.00800           0
     46664 TIP3     8094     TIP3     H2       HT       0.417000       1.00800           0
     46665 TIP3     8095     TIP3     OH2      OT      -0.834000       15.9994           0
     46666 TIP3     8095     TIP3     H1       HT       0.417000       1.00800           0
     46667 TIP3     8095     TIP3     H2       HT       0.417000       1.00800           0
     46668 TIP3     8096     TIP3     OH2      OT      -0.834000       15.9994           0
     46669 TIP3     8096     TIP3     H1       HT       0.417000       1.00800           0
     46670 TIP3     8096     TIP3     H2       HT       0.417000       1.00800           0
     46671 TIP3     8097     TIP3     OH2      OT      -0.834000       15.9994           0
     46672 TIP3     8097     TIP3     H1       HT       0.417000       1.00800           0
     46673 TIP3     8097     TIP3     H2       HT       0.417000       1.00800           0
     46674 TIP3     8098     TIP3     OH2      OT      -0.834000       15.9994           0
     46675 TIP3     8098     TIP3     H1       HT       0.417000       1.00800           0
     46676 TIP3     8098     TIP3     H2       HT       0.417000       1.00800           0
     46677 TIP3     8099     TIP3     OH2      OT      -0.834000       15.9994           0
     46678 TIP3     8099     TIP3     H1       HT       0.417000       1.00800           0
     46679 TIP3     8099     TIP3     H2       HT       0.417000       1.00800           0
     46680 TIP3     8100     TIP3     OH2      OT      -0.834000       15.9994           0
     46681 TIP3     8100     TIP3     H1       HT       0.417000       1.00800           0
     46682 TIP3     8100     TIP3     H2       HT       0.417000       1.00800           0
     46683 TIP3     8101     TIP3     OH2      OT      -0.834000       15.9994           0
     46684 TIP3     8101     TIP3     H1       HT       0.417000       1.00800           0
     46685 TIP3     8101     TIP3     H2       HT       0.417000       1.00800           0
     46686 TIP3     8102     TIP3     OH2      OT      -0.834000       15.9994           0
     46687 TIP3     8102     TIP3     H1       HT       0.417000       1.00800           0
     46688 TIP3     8102     TIP3     H2       HT       0.417000       1.00800           0
     46689 TIP3     8103     TIP3     OH2      OT      -0.834000       15.9994           0
     46690 TIP3     8103     TIP3     H1       HT       0.417000       1.00800           0
     46691 TIP3     8103     TIP3     H2       HT       0.417000       1.00800           0
     46692 TIP3     8104     TIP3     OH2      OT      -0.834000       15.9994           0
     46693 TIP3     8104     TIP3     H1       HT       0.417000       1.00800           0
     46694 TIP3     8104     TIP3     H2       HT       0.417000       1.00800           0
     46695 TIP3     8105     TIP3     OH2      OT      -0.834000       15.9994           0
     46696 TIP3     8105     TIP3     H1       HT       0.417000       1.00800           0
     46697 TIP3     8105     TIP3     H2       HT       0.417000       1.00800           0
     46698 TIP3     8106     TIP3     OH2      OT      -0.834000       15.9994           0
     46699 TIP3     8106     TIP3     H1       HT       0.417000       1.00800           0
     46700 TIP3     8106     TIP3     H2       HT       0.417000       1.00800           0
     46701 TIP3     8107     TIP3     OH2      OT      -0.834000       15.9994           0
     46702 TIP3     8107     TIP3     H1       HT       0.417000       1.00800           0
     46703 TIP3     8107     TIP3     H2       HT       0.417000       1.00800           0
     46704 TIP3     8108     TIP3     OH2      OT      -0.834000       15.9994           0
     46705 TIP3     8108     TIP3     H1       HT       0.417000       1.00800           0
     46706 TIP3     8108     TIP3     H2       HT       0.417000       1.00800           0
     46707 TIP3     8109     TIP3     OH2      OT      -0.834000       15.9994           0
     46708 TIP3     8109     TIP3     H1       HT       0.417000       1.00800           0
     46709 TIP3     8109     TIP3     H2       HT       0.417000       1.00800           0
     46710 TIP3     8110     TIP3     OH2      OT      -0.834000       15.9994           0
     46711 TIP3     8110     TIP3     H1       HT       0.417000       1.00800           0
     46712 TIP3     8110     TIP3     H2       HT       0.417000       1.00800           0
     46713 TIP3     8111     TIP3     OH2      OT      -0.834000       15.9994           0
     46714 TIP3     8111     TIP3     H1       HT       0.417000       1.00800           0
     46715 TIP3     8111     TIP3     H2       HT       0.417000       1.00800           0
     46716 TIP3     8112     TIP3     OH2      OT      -0.834000       15.9994           0
     46717 TIP3     8112     TIP3     H1       HT       0.417000       1.00800           0
     46718 TIP3     8112     TIP3     H2       HT       0.417000       1.00800           0
     46719 TIP3     8113     TIP3     OH2      OT      -0.834000       15.9994           0
     46720 TIP3     8113     TIP3     H1       HT       0.417000       1.00800           0
     46721 TIP3     8113     TIP3     H2       HT       0.417000       1.00800           0
     46722 TIP3     8114     TIP3     OH2      OT      -0.834000       15.9994           0
     46723 TIP3     8114     TIP3     H1       HT       0.417000       1.00800           0
     46724 TIP3     8114     TIP3     H2       HT       0.417000       1.00800           0
     46725 TIP3     8115     TIP3     OH2      OT      -0.834000       15.9994           0
     46726 TIP3     8115     TIP3     H1       HT       0.417000       1.00800           0
     46727 TIP3     8115     TIP3     H2       HT       0.417000       1.00800           0
     46728 TIP3     8116     TIP3     OH2      OT      -0.834000       15.9994           0
     46729 TIP3     8116     TIP3     H1       HT       0.417000       1.00800           0
     46730 TIP3     8116     TIP3     H2       HT       0.417000       1.00800           0
     46731 TIP3     8117     TIP3     OH2      OT      -0.834000       15.9994           0
     46732 TIP3     8117     TIP3     H1       HT       0.417000       1.00800           0
     46733 TIP3     8117     TIP3     H2       HT       0.417000       1.00800           0
     46734 TIP3     8118     TIP3     OH2      OT      -0.834000       15.9994           0
     46735 TIP3     8118     TIP3     H1       HT       0.417000       1.00800           0
     46736 TIP3     8118     TIP3     H2       HT       0.417000       1.00800           0
     46737 TIP3     8119     TIP3     OH2      OT      -0.834000       15.9994           0
     46738 TIP3     8119     TIP3     H1       HT       0.417000       1.00800           0
     46739 TIP3     8119     TIP3     H2       HT       0.417000       1.00800           0
     46740 TIP3     8120     TIP3     OH2      OT      -0.834000       15.9994           0
     46741 TIP3     8120     TIP3     H1       HT       0.417000       1.00800           0
     46742 TIP3     8120     TIP3     H2       HT       0.417000       1.00800           0
     46743 TIP3     8121     TIP3     OH2      OT      -0.834000       15.9994           0
     46744 TIP3     8121     TIP3     H1       HT       0.417000       1.00800           0
     46745 TIP3     8121     TIP3     H2       HT       0.417000       1.00800           0
     46746 TIP3     8122     TIP3     OH2      OT      -0.834000       15.9994           0
     46747 TIP3     8122     TIP3     H1       HT       0.417000       1.00800           0
     46748 TIP3     8122     TIP3     H2       HT       0.417000       1.00800           0
     46749 TIP3     8123     TIP3     OH2      OT      -0.834000       15.9994           0
     46750 TIP3     8123     TIP3     H1       HT       0.417000       1.00800           0
     46751 TIP3     8123     TIP3     H2       HT       0.417000       1.00800           0
     46752 TIP3     8124     TIP3     OH2      OT      -0.834000       15.9994           0
     46753 TIP3     8124     TIP3     H1       HT       0.417000       1.00800           0
     46754 TIP3     8124     TIP3     H2       HT       0.417000       1.00800           0
     46755 TIP3     8125     TIP3     OH2      OT      -0.834000       15.9994           0
     46756 TIP3     8125     TIP3     H1       HT       0.417000       1.00800           0
     46757 TIP3     8125     TIP3     H2       HT       0.417000       1.00800           0
     46758 TIP3     8126     TIP3     OH2      OT      -0.834000       15.9994           0
     46759 TIP3     8126     TIP3     H1       HT       0.417000       1.00800           0
     46760 TIP3     8126     TIP3     H2       HT       0.417000       1.00800           0
     46761 TIP3     8127     TIP3     OH2      OT      -0.834000       15.9994           0
     46762 TIP3     8127     TIP3     H1       HT       0.417000       1.00800           0
     46763 TIP3     8127     TIP3     H2       HT       0.417000       1.00800           0
     46764 TIP3     8128     TIP3     OH2      OT      -0.834000       15.9994           0
     46765 TIP3     8128     TIP3     H1       HT       0.417000       1.00800           0
     46766 TIP3     8128     TIP3     H2       HT       0.417000       1.00800           0
     46767 TIP3     8129     TIP3     OH2      OT      -0.834000       15.9994           0
     46768 TIP3     8129     TIP3     H1       HT       0.417000       1.00800           0
     46769 TIP3     8129     TIP3     H2       HT       0.417000       1.00800           0
     46770 TIP3     8130     TIP3     OH2      OT      -0.834000       15.9994           0
     46771 TIP3     8130     TIP3     H1       HT       0.417000       1.00800           0
     46772 TIP3     8130     TIP3     H2       HT       0.417000       1.00800           0
     46773 TIP3     8131     TIP3     OH2      OT      -0.834000       15.9994           0
     46774 TIP3     8131     TIP3     H1       HT       0.417000       1.00800           0
     46775 TIP3     8131     TIP3     H2       HT       0.417000       1.00800           0
     46776 TIP3     8132     TIP3     OH2      OT      -0.834000       15.9994           0
     46777 TIP3     8132     TIP3     H1       HT       0.417000       1.00800           0
     46778 TIP3     8132     TIP3     H2       HT       0.417000       1.00800           0
     46779 TIP3     8133     TIP3     OH2      OT      -0.834000       15.9994           0
     46780 TIP3     8133     TIP3     H1       HT       0.417000       1.00800           0
     46781 TIP3     8133     TIP3     H2       HT       0.417000       1.00800           0
     46782 TIP3     8134     TIP3     OH2      OT      -0.834000       15.9994           0
     46783 TIP3     8134     TIP3     H1       HT       0.417000       1.00800           0
     46784 TIP3     8134     TIP3     H2       HT       0.417000       1.00800           0
     46785 TIP3     8135     TIP3     OH2      OT      -0.834000       15.9994           0
     46786 TIP3     8135     TIP3     H1       HT       0.417000       1.00800           0
     46787 TIP3     8135     TIP3     H2       HT       0.417000       1.00800           0
     46788 TIP3     8136     TIP3     OH2      OT      -0.834000       15.9994           0
     46789 TIP3     8136     TIP3     H1       HT       0.417000       1.00800           0
     46790 TIP3     8136     TIP3     H2       HT       0.417000       1.00800           0
     46791 TIP3     8137     TIP3     OH2      OT      -0.834000       15.9994           0
     46792 TIP3     8137     TIP3     H1       HT       0.417000       1.00800           0
     46793 TIP3     8137     TIP3     H2       HT       0.417000       1.00800           0
     46794 TIP3     8138     TIP3     OH2      OT      -0.834000       15.9994           0
     46795 TIP3     8138     TIP3     H1       HT       0.417000       1.00800           0
     46796 TIP3     8138     TIP3     H2       HT       0.417000       1.00800           0
     46797 TIP3     8139     TIP3     OH2      OT      -0.834000       15.9994           0
     46798 TIP3     8139     TIP3     H1       HT       0.417000       1.00800           0
     46799 TIP3     8139     TIP3     H2       HT       0.417000       1.00800           0
     46800 TIP3     8140     TIP3     OH2      OT      -0.834000       15.9994           0
     46801 TIP3     8140     TIP3     H1       HT       0.417000       1.00800           0
     46802 TIP3     8140     TIP3     H2       HT       0.417000       1.00800           0
     46803 TIP3     8141     TIP3     OH2      OT      -0.834000       15.9994           0
     46804 TIP3     8141     TIP3     H1       HT       0.417000       1.00800           0
     46805 TIP3     8141     TIP3     H2       HT       0.417000       1.00800           0
     46806 TIP3     8142     TIP3     OH2      OT      -0.834000       15.9994           0
     46807 TIP3     8142     TIP3     H1       HT       0.417000       1.00800           0
     46808 TIP3     8142     TIP3     H2       HT       0.417000       1.00800           0
     46809 TIP3     8143     TIP3     OH2      OT      -0.834000       15.9994           0
     46810 TIP3     8143     TIP3     H1       HT       0.417000       1.00800           0
     46811 TIP3     8143     TIP3     H2       HT       0.417000       1.00800           0
     46812 TIP3     8144     TIP3     OH2      OT      -0.834000       15.9994           0
     46813 TIP3     8144     TIP3     H1       HT       0.417000       1.00800           0
     46814 TIP3     8144     TIP3     H2       HT       0.417000       1.00800           0
     46815 TIP3     8145     TIP3     OH2      OT      -0.834000       15.9994           0
     46816 TIP3     8145     TIP3     H1       HT       0.417000       1.00800           0
     46817 TIP3     8145     TIP3     H2       HT       0.417000       1.00800           0
     46818 TIP3     8146     TIP3     OH2      OT      -0.834000       15.9994           0
     46819 TIP3     8146     TIP3     H1       HT       0.417000       1.00800           0
     46820 TIP3     8146     TIP3     H2       HT       0.417000       1.00800           0
     46821 TIP3     8147     TIP3     OH2      OT      -0.834000       15.9994           0
     46822 TIP3     8147     TIP3     H1       HT       0.417000       1.00800           0
     46823 TIP3     8147     TIP3     H2       HT       0.417000       1.00800           0
     46824 TIP3     8148     TIP3     OH2      OT      -0.834000       15.9994           0
     46825 TIP3     8148     TIP3     H1       HT       0.417000       1.00800           0
     46826 TIP3     8148     TIP3     H2       HT       0.417000       1.00800           0
     46827 TIP3     8149     TIP3     OH2      OT      -0.834000       15.9994           0
     46828 TIP3     8149     TIP3     H1       HT       0.417000       1.00800           0
     46829 TIP3     8149     TIP3     H2       HT       0.417000       1.00800           0
     46830 TIP3     8150     TIP3     OH2      OT      -0.834000       15.9994           0
     46831 TIP3     8150     TIP3     H1       HT       0.417000       1.00800           0
     46832 TIP3     8150     TIP3     H2       HT       0.417000       1.00800           0
     46833 TIP3     8151     TIP3     OH2      OT      -0.834000       15.9994           0
     46834 TIP3     8151     TIP3     H1       HT       0.417000       1.00800           0
     46835 TIP3     8151     TIP3     H2       HT       0.417000       1.00800           0
     46836 TIP3     8152     TIP3     OH2      OT      -0.834000       15.9994           0
     46837 TIP3     8152     TIP3     H1       HT       0.417000       1.00800           0
     46838 TIP3     8152     TIP3     H2       HT       0.417000       1.00800           0
     46839 TIP3     8153     TIP3     OH2      OT      -0.834000       15.9994           0
     46840 TIP3     8153     TIP3     H1       HT       0.417000       1.00800           0
     46841 TIP3     8153     TIP3     H2       HT       0.417000       1.00800           0
     46842 TIP3     8154     TIP3     OH2      OT      -0.834000       15.9994           0
     46843 TIP3     8154     TIP3     H1       HT       0.417000       1.00800           0
     46844 TIP3     8154     TIP3     H2       HT       0.417000       1.00800           0
     46845 TIP3     8155     TIP3     OH2      OT      -0.834000       15.9994           0
     46846 TIP3     8155     TIP3     H1       HT       0.417000       1.00800           0
     46847 TIP3     8155     TIP3     H2       HT       0.417000       1.00800           0
     46848 TIP3     8156     TIP3     OH2      OT      -0.834000       15.9994           0
     46849 TIP3     8156     TIP3     H1       HT       0.417000       1.00800           0
     46850 TIP3     8156     TIP3     H2       HT       0.417000       1.00800           0
     46851 TIP3     8157     TIP3     OH2      OT      -0.834000       15.9994           0
     46852 TIP3     8157     TIP3     H1       HT       0.417000       1.00800           0
     46853 TIP3     8157     TIP3     H2       HT       0.417000       1.00800           0
     46854 TIP3     8158     TIP3     OH2      OT      -0.834000       15.9994           0
     46855 TIP3     8158     TIP3     H1       HT       0.417000       1.00800           0
     46856 TIP3     8158     TIP3     H2       HT       0.417000       1.00800           0
     46857 TIP3     8159     TIP3     OH2      OT      -0.834000       15.9994           0
     46858 TIP3     8159     TIP3     H1       HT       0.417000       1.00800           0
     46859 TIP3     8159     TIP3     H2       HT       0.417000       1.00800           0
     46860 TIP3     8160     TIP3     OH2      OT      -0.834000       15.9994           0
     46861 TIP3     8160     TIP3     H1       HT       0.417000       1.00800           0
     46862 TIP3     8160     TIP3     H2       HT       0.417000       1.00800           0
     46863 TIP3     8161     TIP3     OH2      OT      -0.834000       15.9994           0
     46864 TIP3     8161     TIP3     H1       HT       0.417000       1.00800           0
     46865 TIP3     8161     TIP3     H2       HT       0.417000       1.00800           0
     46866 TIP3     8162     TIP3     OH2      OT      -0.834000       15.9994           0
     46867 TIP3     8162     TIP3     H1       HT       0.417000       1.00800           0
     46868 TIP3     8162     TIP3     H2       HT       0.417000       1.00800           0
     46869 TIP3     8163     TIP3     OH2      OT      -0.834000       15.9994           0
     46870 TIP3     8163     TIP3     H1       HT       0.417000       1.00800           0
     46871 TIP3     8163     TIP3     H2       HT       0.417000       1.00800           0
     46872 TIP3     8164     TIP3     OH2      OT      -0.834000       15.9994           0
     46873 TIP3     8164     TIP3     H1       HT       0.417000       1.00800           0
     46874 TIP3     8164     TIP3     H2       HT       0.417000       1.00800           0
     46875 TIP3     8165     TIP3     OH2      OT      -0.834000       15.9994           0
     46876 TIP3     8165     TIP3     H1       HT       0.417000       1.00800           0
     46877 TIP3     8165     TIP3     H2       HT       0.417000       1.00800           0
     46878 TIP3     8166     TIP3     OH2      OT      -0.834000       15.9994           0
     46879 TIP3     8166     TIP3     H1       HT       0.417000       1.00800           0
     46880 TIP3     8166     TIP3     H2       HT       0.417000       1.00800           0
     46881 TIP3     8167     TIP3     OH2      OT      -0.834000       15.9994           0
     46882 TIP3     8167     TIP3     H1       HT       0.417000       1.00800           0
     46883 TIP3     8167     TIP3     H2       HT       0.417000       1.00800           0
     46884 TIP3     8168     TIP3     OH2      OT      -0.834000       15.9994           0
     46885 TIP3     8168     TIP3     H1       HT       0.417000       1.00800           0
     46886 TIP3     8168     TIP3     H2       HT       0.417000       1.00800           0
     46887 TIP3     8169     TIP3     OH2      OT      -0.834000       15.9994           0
     46888 TIP3     8169     TIP3     H1       HT       0.417000       1.00800           0
     46889 TIP3     8169     TIP3     H2       HT       0.417000       1.00800           0
     46890 TIP3     8170     TIP3     OH2      OT      -0.834000       15.9994           0
     46891 TIP3     8170     TIP3     H1       HT       0.417000       1.00800           0
     46892 TIP3     8170     TIP3     H2       HT       0.417000       1.00800           0
     46893 TIP3     8171     TIP3     OH2      OT      -0.834000       15.9994           0
     46894 TIP3     8171     TIP3     H1       HT       0.417000       1.00800           0
     46895 TIP3     8171     TIP3     H2       HT       0.417000       1.00800           0
     46896 TIP3     8172     TIP3     OH2      OT      -0.834000       15.9994           0
     46897 TIP3     8172     TIP3     H1       HT       0.417000       1.00800           0
     46898 TIP3     8172     TIP3     H2       HT       0.417000       1.00800           0
     46899 TIP3     8173     TIP3     OH2      OT      -0.834000       15.9994           0
     46900 TIP3     8173     TIP3     H1       HT       0.417000       1.00800           0
     46901 TIP3     8173     TIP3     H2       HT       0.417000       1.00800           0
     46902 TIP3     8174     TIP3     OH2      OT      -0.834000       15.9994           0
     46903 TIP3     8174     TIP3     H1       HT       0.417000       1.00800           0
     46904 TIP3     8174     TIP3     H2       HT       0.417000       1.00800           0
     46905 TIP3     8175     TIP3     OH2      OT      -0.834000       15.9994           0
     46906 TIP3     8175     TIP3     H1       HT       0.417000       1.00800           0
     46907 TIP3     8175     TIP3     H2       HT       0.417000       1.00800           0
     46908 TIP3     8176     TIP3     OH2      OT      -0.834000       15.9994           0
     46909 TIP3     8176     TIP3     H1       HT       0.417000       1.00800           0
     46910 TIP3     8176     TIP3     H2       HT       0.417000       1.00800           0
     46911 TIP3     8177     TIP3     OH2      OT      -0.834000       15.9994           0
     46912 TIP3     8177     TIP3     H1       HT       0.417000       1.00800           0
     46913 TIP3     8177     TIP3     H2       HT       0.417000       1.00800           0
     46914 TIP3     8178     TIP3     OH2      OT      -0.834000       15.9994           0
     46915 TIP3     8178     TIP3     H1       HT       0.417000       1.00800           0
     46916 TIP3     8178     TIP3     H2       HT       0.417000       1.00800           0
     46917 TIP3     8179     TIP3     OH2      OT      -0.834000       15.9994           0
     46918 TIP3     8179     TIP3     H1       HT       0.417000       1.00800           0
     46919 TIP3     8179     TIP3     H2       HT       0.417000       1.00800           0
     46920 TIP3     8180     TIP3     OH2      OT      -0.834000       15.9994           0
     46921 TIP3     8180     TIP3     H1       HT       0.417000       1.00800           0
     46922 TIP3     8180     TIP3     H2       HT       0.417000       1.00800           0
     46923 TIP3     8181     TIP3     OH2      OT      -0.834000       15.9994           0
     46924 TIP3     8181     TIP3     H1       HT       0.417000       1.00800           0
     46925 TIP3     8181     TIP3     H2       HT       0.417000       1.00800           0
     46926 TIP3     8182     TIP3     OH2      OT      -0.834000       15.9994           0
     46927 TIP3     8182     TIP3     H1       HT       0.417000       1.00800           0
     46928 TIP3     8182     TIP3     H2       HT       0.417000       1.00800           0
     46929 TIP3     8183     TIP3     OH2      OT      -0.834000       15.9994           0
     46930 TIP3     8183     TIP3     H1       HT       0.417000       1.00800           0
     46931 TIP3     8183     TIP3     H2       HT       0.417000       1.00800           0
     46932 TIP3     8184     TIP3     OH2      OT      -0.834000       15.9994           0
     46933 TIP3     8184     TIP3     H1       HT       0.417000       1.00800           0
     46934 TIP3     8184     TIP3     H2       HT       0.417000       1.00800           0
     46935 TIP3     8185     TIP3     OH2      OT      -0.834000       15.9994           0
     46936 TIP3     8185     TIP3     H1       HT       0.417000       1.00800           0
     46937 TIP3     8185     TIP3     H2       HT       0.417000       1.00800           0
     46938 TIP3     8186     TIP3     OH2      OT      -0.834000       15.9994           0
     46939 TIP3     8186     TIP3     H1       HT       0.417000       1.00800           0
     46940 TIP3     8186     TIP3     H2       HT       0.417000       1.00800           0
     46941 TIP3     8187     TIP3     OH2      OT      -0.834000       15.9994           0
     46942 TIP3     8187     TIP3     H1       HT       0.417000       1.00800           0
     46943 TIP3     8187     TIP3     H2       HT       0.417000       1.00800           0
     46944 TIP3     8188     TIP3     OH2      OT      -0.834000       15.9994           0
     46945 TIP3     8188     TIP3     H1       HT       0.417000       1.00800           0
     46946 TIP3     8188     TIP3     H2       HT       0.417000       1.00800           0
     46947 TIP3     8189     TIP3     OH2      OT      -0.834000       15.9994           0
     46948 TIP3     8189     TIP3     H1       HT       0.417000       1.00800           0
     46949 TIP3     8189     TIP3     H2       HT       0.417000       1.00800           0
     46950 TIP3     8190     TIP3     OH2      OT      -0.834000       15.9994           0
     46951 TIP3     8190     TIP3     H1       HT       0.417000       1.00800           0
     46952 TIP3     8190     TIP3     H2       HT       0.417000       1.00800           0
     46953 TIP3     8191     TIP3     OH2      OT      -0.834000       15.9994           0
     46954 TIP3     8191     TIP3     H1       HT       0.417000       1.00800           0
     46955 TIP3     8191     TIP3     H2       HT       0.417000       1.00800           0
     46956 TIP3     8192     TIP3     OH2      OT      -0.834000       15.9994           0
     46957 TIP3     8192     TIP3     H1       HT       0.417000       1.00800           0
     46958 TIP3     8192     TIP3     H2       HT       0.417000       1.00800           0
     46959 TIP3     8193     TIP3     OH2      OT      -0.834000       15.9994           0
     46960 TIP3     8193     TIP3     H1       HT       0.417000       1.00800           0
     46961 TIP3     8193     TIP3     H2       HT       0.417000       1.00800           0
     46962 TIP3     8194     TIP3     OH2      OT      -0.834000       15.9994           0
     46963 TIP3     8194     TIP3     H1       HT       0.417000       1.00800           0
     46964 TIP3     8194     TIP3     H2       HT       0.417000       1.00800           0
     46965 TIP3     8195     TIP3     OH2      OT      -0.834000       15.9994           0
     46966 TIP3     8195     TIP3     H1       HT       0.417000       1.00800           0
     46967 TIP3     8195     TIP3     H2       HT       0.417000       1.00800           0
     46968 TIP3     8196     TIP3     OH2      OT      -0.834000       15.9994           0
     46969 TIP3     8196     TIP3     H1       HT       0.417000       1.00800           0
     46970 TIP3     8196     TIP3     H2       HT       0.417000       1.00800           0
     46971 TIP3     8197     TIP3     OH2      OT      -0.834000       15.9994           0
     46972 TIP3     8197     TIP3     H1       HT       0.417000       1.00800           0
     46973 TIP3     8197     TIP3     H2       HT       0.417000       1.00800           0
     46974 TIP3     8198     TIP3     OH2      OT      -0.834000       15.9994           0
     46975 TIP3     8198     TIP3     H1       HT       0.417000       1.00800           0
     46976 TIP3     8198     TIP3     H2       HT       0.417000       1.00800           0
     46977 TIP3     8199     TIP3     OH2      OT      -0.834000       15.9994           0
     46978 TIP3     8199     TIP3     H1       HT       0.417000       1.00800           0
     46979 TIP3     8199     TIP3     H2       HT       0.417000       1.00800           0
     46980 TIP3     8200     TIP3     OH2      OT      -0.834000       15.9994           0
     46981 TIP3     8200     TIP3     H1       HT       0.417000       1.00800           0
     46982 TIP3     8200     TIP3     H2       HT       0.417000       1.00800           0
     46983 TIP3     8201     TIP3     OH2      OT      -0.834000       15.9994           0
     46984 TIP3     8201     TIP3     H1       HT       0.417000       1.00800           0
     46985 TIP3     8201     TIP3     H2       HT       0.417000       1.00800           0
     46986 TIP3     8202     TIP3     OH2      OT      -0.834000       15.9994           0
     46987 TIP3     8202     TIP3     H1       HT       0.417000       1.00800           0
     46988 TIP3     8202     TIP3     H2       HT       0.417000       1.00800           0
     46989 TIP3     8203     TIP3     OH2      OT      -0.834000       15.9994           0
     46990 TIP3     8203     TIP3     H1       HT       0.417000       1.00800           0
     46991 TIP3     8203     TIP3     H2       HT       0.417000       1.00800           0
     46992 TIP3     8204     TIP3     OH2      OT      -0.834000       15.9994           0
     46993 TIP3     8204     TIP3     H1       HT       0.417000       1.00800           0
     46994 TIP3     8204     TIP3     H2       HT       0.417000       1.00800           0
     46995 TIP3     8205     TIP3     OH2      OT      -0.834000       15.9994           0
     46996 TIP3     8205     TIP3     H1       HT       0.417000       1.00800           0
     46997 TIP3     8205     TIP3     H2       HT       0.417000       1.00800           0
     46998 TIP3     8206     TIP3     OH2      OT      -0.834000       15.9994           0
     46999 TIP3     8206     TIP3     H1       HT       0.417000       1.00800           0
     47000 TIP3     8206     TIP3     H2       HT       0.417000       1.00800           0
     47001 TIP3     8207     TIP3     OH2      OT      -0.834000       15.9994           0
     47002 TIP3     8207     TIP3     H1       HT       0.417000       1.00800           0
     47003 TIP3     8207     TIP3     H2       HT       0.417000       1.00800           0
     47004 TIP3     8208     TIP3     OH2      OT      -0.834000       15.9994           0
     47005 TIP3     8208     TIP3     H1       HT       0.417000       1.00800           0
     47006 TIP3     8208     TIP3     H2       HT       0.417000       1.00800           0
     47007 TIP3     8209     TIP3     OH2      OT      -0.834000       15.9994           0
     47008 TIP3     8209     TIP3     H1       HT       0.417000       1.00800           0
     47009 TIP3     8209     TIP3     H2       HT       0.417000       1.00800           0
     47010 TIP3     8210     TIP3     OH2      OT      -0.834000       15.9994           0
     47011 TIP3     8210     TIP3     H1       HT       0.417000       1.00800           0
     47012 TIP3     8210     TIP3     H2       HT       0.417000       1.00800           0
     47013 TIP3     8211     TIP3     OH2      OT      -0.834000       15.9994           0
     47014 TIP3     8211     TIP3     H1       HT       0.417000       1.00800           0
     47015 TIP3     8211     TIP3     H2       HT       0.417000       1.00800           0
     47016 TIP3     8212     TIP3     OH2      OT      -0.834000       15.9994           0
     47017 TIP3     8212     TIP3     H1       HT       0.417000       1.00800           0
     47018 TIP3     8212     TIP3     H2       HT       0.417000       1.00800           0
     47019 TIP3     8213     TIP3     OH2      OT      -0.834000       15.9994           0
     47020 TIP3     8213     TIP3     H1       HT       0.417000       1.00800           0
     47021 TIP3     8213     TIP3     H2       HT       0.417000       1.00800           0
     47022 TIP3     8214     TIP3     OH2      OT      -0.834000       15.9994           0
     47023 TIP3     8214     TIP3     H1       HT       0.417000       1.00800           0
     47024 TIP3     8214     TIP3     H2       HT       0.417000       1.00800           0
     47025 TIP3     8215     TIP3     OH2      OT      -0.834000       15.9994           0
     47026 TIP3     8215     TIP3     H1       HT       0.417000       1.00800           0
     47027 TIP3     8215     TIP3     H2       HT       0.417000       1.00800           0
     47028 TIP3     8216     TIP3     OH2      OT      -0.834000       15.9994           0
     47029 TIP3     8216     TIP3     H1       HT       0.417000       1.00800           0
     47030 TIP3     8216     TIP3     H2       HT       0.417000       1.00800           0
     47031 TIP3     8217     TIP3     OH2      OT      -0.834000       15.9994           0
     47032 TIP3     8217     TIP3     H1       HT       0.417000       1.00800           0
     47033 TIP3     8217     TIP3     H2       HT       0.417000       1.00800           0
     47034 TIP3     8218     TIP3     OH2      OT      -0.834000       15.9994           0
     47035 TIP3     8218     TIP3     H1       HT       0.417000       1.00800           0
     47036 TIP3     8218     TIP3     H2       HT       0.417000       1.00800           0
     47037 TIP3     8219     TIP3     OH2      OT      -0.834000       15.9994           0
     47038 TIP3     8219     TIP3     H1       HT       0.417000       1.00800           0
     47039 TIP3     8219     TIP3     H2       HT       0.417000       1.00800           0
     47040 TIP3     8220     TIP3     OH2      OT      -0.834000       15.9994           0
     47041 TIP3     8220     TIP3     H1       HT       0.417000       1.00800           0
     47042 TIP3     8220     TIP3     H2       HT       0.417000       1.00800           0
     47043 TIP3     8221     TIP3     OH2      OT      -0.834000       15.9994           0
     47044 TIP3     8221     TIP3     H1       HT       0.417000       1.00800           0
     47045 TIP3     8221     TIP3     H2       HT       0.417000       1.00800           0
     47046 TIP3     8222     TIP3     OH2      OT      -0.834000       15.9994           0
     47047 TIP3     8222     TIP3     H1       HT       0.417000       1.00800           0
     47048 TIP3     8222     TIP3     H2       HT       0.417000       1.00800           0
     47049 TIP3     8223     TIP3     OH2      OT      -0.834000       15.9994           0
     47050 TIP3     8223     TIP3     H1       HT       0.417000       1.00800           0
     47051 TIP3     8223     TIP3     H2       HT       0.417000       1.00800           0
     47052 TIP3     8224     TIP3     OH2      OT      -0.834000       15.9994           0
     47053 TIP3     8224     TIP3     H1       HT       0.417000       1.00800           0
     47054 TIP3     8224     TIP3     H2       HT       0.417000       1.00800           0
     47055 TIP3     8225     TIP3     OH2      OT      -0.834000       15.9994           0
     47056 TIP3     8225     TIP3     H1       HT       0.417000       1.00800           0
     47057 TIP3     8225     TIP3     H2       HT       0.417000       1.00800           0
     47058 TIP3     8226     TIP3     OH2      OT      -0.834000       15.9994           0
     47059 TIP3     8226     TIP3     H1       HT       0.417000       1.00800           0
     47060 TIP3     8226     TIP3     H2       HT       0.417000       1.00800           0
     47061 TIP3     8227     TIP3     OH2      OT      -0.834000       15.9994           0
     47062 TIP3     8227     TIP3     H1       HT       0.417000       1.00800           0
     47063 TIP3     8227     TIP3     H2       HT       0.417000       1.00800           0
     47064 TIP3     8228     TIP3     OH2      OT      -0.834000       15.9994           0
     47065 TIP3     8228     TIP3     H1       HT       0.417000       1.00800           0
     47066 TIP3     8228     TIP3     H2       HT       0.417000       1.00800           0
     47067 TIP3     8229     TIP3     OH2      OT      -0.834000       15.9994           0
     47068 TIP3     8229     TIP3     H1       HT       0.417000       1.00800           0
     47069 TIP3     8229     TIP3     H2       HT       0.417000       1.00800           0
     47070 TIP3     8230     TIP3     OH2      OT      -0.834000       15.9994           0
     47071 TIP3     8230     TIP3     H1       HT       0.417000       1.00800           0
     47072 TIP3     8230     TIP3     H2       HT       0.417000       1.00800           0
     47073 TIP3     8231     TIP3     OH2      OT      -0.834000       15.9994           0
     47074 TIP3     8231     TIP3     H1       HT       0.417000       1.00800           0
     47075 TIP3     8231     TIP3     H2       HT       0.417000       1.00800           0
     47076 TIP3     8232     TIP3     OH2      OT      -0.834000       15.9994           0
     47077 TIP3     8232     TIP3     H1       HT       0.417000       1.00800           0
     47078 TIP3     8232     TIP3     H2       HT       0.417000       1.00800           0
     47079 TIP3     8233     TIP3     OH2      OT      -0.834000       15.9994           0
     47080 TIP3     8233     TIP3     H1       HT       0.417000       1.00800           0
     47081 TIP3     8233     TIP3     H2       HT       0.417000       1.00800           0
     47082 TIP3     8234     TIP3     OH2      OT      -0.834000       15.9994           0
     47083 TIP3     8234     TIP3     H1       HT       0.417000       1.00800           0
     47084 TIP3     8234     TIP3     H2       HT       0.417000       1.00800           0
     47085 TIP3     8235     TIP3     OH2      OT      -0.834000       15.9994           0
     47086 TIP3     8235     TIP3     H1       HT       0.417000       1.00800           0
     47087 TIP3     8235     TIP3     H2       HT       0.417000       1.00800           0
     47088 TIP3     8236     TIP3     OH2      OT      -0.834000       15.9994           0
     47089 TIP3     8236     TIP3     H1       HT       0.417000       1.00800           0
     47090 TIP3     8236     TIP3     H2       HT       0.417000       1.00800           0
     47091 TIP3     8237     TIP3     OH2      OT      -0.834000       15.9994           0
     47092 TIP3     8237     TIP3     H1       HT       0.417000       1.00800           0
     47093 TIP3     8237     TIP3     H2       HT       0.417000       1.00800           0
     47094 TIP3     8238     TIP3     OH2      OT      -0.834000       15.9994           0
     47095 TIP3     8238     TIP3     H1       HT       0.417000       1.00800           0
     47096 TIP3     8238     TIP3     H2       HT       0.417000       1.00800           0
     47097 TIP3     8239     TIP3     OH2      OT      -0.834000       15.9994           0
     47098 TIP3     8239     TIP3     H1       HT       0.417000       1.00800           0
     47099 TIP3     8239     TIP3     H2       HT       0.417000       1.00800           0
     47100 TIP3     8240     TIP3     OH2      OT      -0.834000       15.9994           0
     47101 TIP3     8240     TIP3     H1       HT       0.417000       1.00800           0
     47102 TIP3     8240     TIP3     H2       HT       0.417000       1.00800           0
     47103 TIP3     8241     TIP3     OH2      OT      -0.834000       15.9994           0
     47104 TIP3     8241     TIP3     H1       HT       0.417000       1.00800           0
     47105 TIP3     8241     TIP3     H2       HT       0.417000       1.00800           0
     47106 TIP3     8242     TIP3     OH2      OT      -0.834000       15.9994           0
     47107 TIP3     8242     TIP3     H1       HT       0.417000       1.00800           0
     47108 TIP3     8242     TIP3     H2       HT       0.417000       1.00800           0
     47109 TIP3     8243     TIP3     OH2      OT      -0.834000       15.9994           0
     47110 TIP3     8243     TIP3     H1       HT       0.417000       1.00800           0
     47111 TIP3     8243     TIP3     H2       HT       0.417000       1.00800           0
     47112 TIP3     8244     TIP3     OH2      OT      -0.834000       15.9994           0
     47113 TIP3     8244     TIP3     H1       HT       0.417000       1.00800           0
     47114 TIP3     8244     TIP3     H2       HT       0.417000       1.00800           0
     47115 TIP3     8245     TIP3     OH2      OT      -0.834000       15.9994           0
     47116 TIP3     8245     TIP3     H1       HT       0.417000       1.00800           0
     47117 TIP3     8245     TIP3     H2       HT       0.417000       1.00800           0
     47118 TIP3     8246     TIP3     OH2      OT      -0.834000       15.9994           0
     47119 TIP3     8246     TIP3     H1       HT       0.417000       1.00800           0
     47120 TIP3     8246     TIP3     H2       HT       0.417000       1.00800           0
     47121 TIP3     8247     TIP3     OH2      OT      -0.834000       15.9994           0
     47122 TIP3     8247     TIP3     H1       HT       0.417000       1.00800           0
     47123 TIP3     8247     TIP3     H2       HT       0.417000       1.00800           0
     47124 TIP3     8248     TIP3     OH2      OT      -0.834000       15.9994           0
     47125 TIP3     8248     TIP3     H1       HT       0.417000       1.00800           0
     47126 TIP3     8248     TIP3     H2       HT       0.417000       1.00800           0
     47127 TIP3     8249     TIP3     OH2      OT      -0.834000       15.9994           0
     47128 TIP3     8249     TIP3     H1       HT       0.417000       1.00800           0
     47129 TIP3     8249     TIP3     H2       HT       0.417000       1.00800           0
     47130 TIP3     8250     TIP3     OH2      OT      -0.834000       15.9994           0
     47131 TIP3     8250     TIP3     H1       HT       0.417000       1.00800           0
     47132 TIP3     8250     TIP3     H2       HT       0.417000       1.00800           0
     47133 TIP3     8251     TIP3     OH2      OT      -0.834000       15.9994           0
     47134 TIP3     8251     TIP3     H1       HT       0.417000       1.00800           0
     47135 TIP3     8251     TIP3     H2       HT       0.417000       1.00800           0
     47136 TIP3     8252     TIP3     OH2      OT      -0.834000       15.9994           0
     47137 TIP3     8252     TIP3     H1       HT       0.417000       1.00800           0
     47138 TIP3     8252     TIP3     H2       HT       0.417000       1.00800           0
     47139 TIP3     8253     TIP3     OH2      OT      -0.834000       15.9994           0
     47140 TIP3     8253     TIP3     H1       HT       0.417000       1.00800           0
     47141 TIP3     8253     TIP3     H2       HT       0.417000       1.00800           0
     47142 TIP3     8254     TIP3     OH2      OT      -0.834000       15.9994           0
     47143 TIP3     8254     TIP3     H1       HT       0.417000       1.00800           0
     47144 TIP3     8254     TIP3     H2       HT       0.417000       1.00800           0
     47145 TIP3     8255     TIP3     OH2      OT      -0.834000       15.9994           0
     47146 TIP3     8255     TIP3     H1       HT       0.417000       1.00800           0
     47147 TIP3     8255     TIP3     H2       HT       0.417000       1.00800           0
     47148 TIP3     8256     TIP3     OH2      OT      -0.834000       15.9994           0
     47149 TIP3     8256     TIP3     H1       HT       0.417000       1.00800           0
     47150 TIP3     8256     TIP3     H2       HT       0.417000       1.00800           0
     47151 TIP3     8257     TIP3     OH2      OT      -0.834000       15.9994           0
     47152 TIP3     8257     TIP3     H1       HT       0.417000       1.00800           0
     47153 TIP3     8257     TIP3     H2       HT       0.417000       1.00800           0
     47154 TIP3     8258     TIP3     OH2      OT      -0.834000       15.9994           0
     47155 TIP3     8258     TIP3     H1       HT       0.417000       1.00800           0
     47156 TIP3     8258     TIP3     H2       HT       0.417000       1.00800           0
     47157 TIP3     8259     TIP3     OH2      OT      -0.834000       15.9994           0
     47158 TIP3     8259     TIP3     H1       HT       0.417000       1.00800           0
     47159 TIP3     8259     TIP3     H2       HT       0.417000       1.00800           0
     47160 TIP3     8260     TIP3     OH2      OT      -0.834000       15.9994           0
     47161 TIP3     8260     TIP3     H1       HT       0.417000       1.00800           0
     47162 TIP3     8260     TIP3     H2       HT       0.417000       1.00800           0
     47163 TIP3     8261     TIP3     OH2      OT      -0.834000       15.9994           0
     47164 TIP3     8261     TIP3     H1       HT       0.417000       1.00800           0
     47165 TIP3     8261     TIP3     H2       HT       0.417000       1.00800           0
     47166 TIP3     8262     TIP3     OH2      OT      -0.834000       15.9994           0
     47167 TIP3     8262     TIP3     H1       HT       0.417000       1.00800           0
     47168 TIP3     8262     TIP3     H2       HT       0.417000       1.00800           0
     47169 TIP3     8263     TIP3     OH2      OT      -0.834000       15.9994           0
     47170 TIP3     8263     TIP3     H1       HT       0.417000       1.00800           0
     47171 TIP3     8263     TIP3     H2       HT       0.417000       1.00800           0
     47172 TIP3     8264     TIP3     OH2      OT      -0.834000       15.9994           0
     47173 TIP3     8264     TIP3     H1       HT       0.417000       1.00800           0
     47174 TIP3     8264     TIP3     H2       HT       0.417000       1.00800           0
     47175 TIP3     8265     TIP3     OH2      OT      -0.834000       15.9994           0
     47176 TIP3     8265     TIP3     H1       HT       0.417000       1.00800           0
     47177 TIP3     8265     TIP3     H2       HT       0.417000       1.00800           0
     47178 TIP3     8266     TIP3     OH2      OT      -0.834000       15.9994           0
     47179 TIP3     8266     TIP3     H1       HT       0.417000       1.00800           0
     47180 TIP3     8266     TIP3     H2       HT       0.417000       1.00800           0
     47181 TIP3     8267     TIP3     OH2      OT      -0.834000       15.9994           0
     47182 TIP3     8267     TIP3     H1       HT       0.417000       1.00800           0
     47183 TIP3     8267     TIP3     H2       HT       0.417000       1.00800           0
     47184 TIP3     8268     TIP3     OH2      OT      -0.834000       15.9994           0
     47185 TIP3     8268     TIP3     H1       HT       0.417000       1.00800           0
     47186 TIP3     8268     TIP3     H2       HT       0.417000       1.00800           0
     47187 TIP3     8269     TIP3     OH2      OT      -0.834000       15.9994           0
     47188 TIP3     8269     TIP3     H1       HT       0.417000       1.00800           0
     47189 TIP3     8269     TIP3     H2       HT       0.417000       1.00800           0
     47190 TIP3     8270     TIP3     OH2      OT      -0.834000       15.9994           0
     47191 TIP3     8270     TIP3     H1       HT       0.417000       1.00800           0
     47192 TIP3     8270     TIP3     H2       HT       0.417000       1.00800           0
     47193 TIP3     8271     TIP3     OH2      OT      -0.834000       15.9994           0
     47194 TIP3     8271     TIP3     H1       HT       0.417000       1.00800           0
     47195 TIP3     8271     TIP3     H2       HT       0.417000       1.00800           0
     47196 TIP3     8272     TIP3     OH2      OT      -0.834000       15.9994           0
     47197 TIP3     8272     TIP3     H1       HT       0.417000       1.00800           0
     47198 TIP3     8272     TIP3     H2       HT       0.417000       1.00800           0
     47199 TIP3     8273     TIP3     OH2      OT      -0.834000       15.9994           0
     47200 TIP3     8273     TIP3     H1       HT       0.417000       1.00800           0
     47201 TIP3     8273     TIP3     H2       HT       0.417000       1.00800           0
     47202 TIP3     8274     TIP3     OH2      OT      -0.834000       15.9994           0
     47203 TIP3     8274     TIP3     H1       HT       0.417000       1.00800           0
     47204 TIP3     8274     TIP3     H2       HT       0.417000       1.00800           0
     47205 TIP3     8275     TIP3     OH2      OT      -0.834000       15.9994           0
     47206 TIP3     8275     TIP3     H1       HT       0.417000       1.00800           0
     47207 TIP3     8275     TIP3     H2       HT       0.417000       1.00800           0
     47208 TIP3     8276     TIP3     OH2      OT      -0.834000       15.9994           0
     47209 TIP3     8276     TIP3     H1       HT       0.417000       1.00800           0
     47210 TIP3     8276     TIP3     H2       HT       0.417000       1.00800           0
     47211 TIP3     8277     TIP3     OH2      OT      -0.834000       15.9994           0
     47212 TIP3     8277     TIP3     H1       HT       0.417000       1.00800           0
     47213 TIP3     8277     TIP3     H2       HT       0.417000       1.00800           0
     47214 TIP3     8278     TIP3     OH2      OT      -0.834000       15.9994           0
     47215 TIP3     8278     TIP3     H1       HT       0.417000       1.00800           0
     47216 TIP3     8278     TIP3     H2       HT       0.417000       1.00800           0
     47217 TIP3     8279     TIP3     OH2      OT      -0.834000       15.9994           0
     47218 TIP3     8279     TIP3     H1       HT       0.417000       1.00800           0
     47219 TIP3     8279     TIP3     H2       HT       0.417000       1.00800           0
     47220 TIP3     8280     TIP3     OH2      OT      -0.834000       15.9994           0
     47221 TIP3     8280     TIP3     H1       HT       0.417000       1.00800           0
     47222 TIP3     8280     TIP3     H2       HT       0.417000       1.00800           0
     47223 TIP3     8281     TIP3     OH2      OT      -0.834000       15.9994           0
     47224 TIP3     8281     TIP3     H1       HT       0.417000       1.00800           0
     47225 TIP3     8281     TIP3     H2       HT       0.417000       1.00800           0
     47226 TIP3     8282     TIP3     OH2      OT      -0.834000       15.9994           0
     47227 TIP3     8282     TIP3     H1       HT       0.417000       1.00800           0
     47228 TIP3     8282     TIP3     H2       HT       0.417000       1.00800           0
     47229 TIP3     8283     TIP3     OH2      OT      -0.834000       15.9994           0
     47230 TIP3     8283     TIP3     H1       HT       0.417000       1.00800           0
     47231 TIP3     8283     TIP3     H2       HT       0.417000       1.00800           0
     47232 TIP3     8284     TIP3     OH2      OT      -0.834000       15.9994           0
     47233 TIP3     8284     TIP3     H1       HT       0.417000       1.00800           0
     47234 TIP3     8284     TIP3     H2       HT       0.417000       1.00800           0
     47235 TIP3     8285     TIP3     OH2      OT      -0.834000       15.9994           0
     47236 TIP3     8285     TIP3     H1       HT       0.417000       1.00800           0
     47237 TIP3     8285     TIP3     H2       HT       0.417000       1.00800           0
     47238 TIP3     8286     TIP3     OH2      OT      -0.834000       15.9994           0
     47239 TIP3     8286     TIP3     H1       HT       0.417000       1.00800           0
     47240 TIP3     8286     TIP3     H2       HT       0.417000       1.00800           0
     47241 TIP3     8287     TIP3     OH2      OT      -0.834000       15.9994           0
     47242 TIP3     8287     TIP3     H1       HT       0.417000       1.00800           0
     47243 TIP3     8287     TIP3     H2       HT       0.417000       1.00800           0
     47244 TIP3     8288     TIP3     OH2      OT      -0.834000       15.9994           0
     47245 TIP3     8288     TIP3     H1       HT       0.417000       1.00800           0
     47246 TIP3     8288     TIP3     H2       HT       0.417000       1.00800           0
     47247 TIP3     8289     TIP3     OH2      OT      -0.834000       15.9994           0
     47248 TIP3     8289     TIP3     H1       HT       0.417000       1.00800           0
     47249 TIP3     8289     TIP3     H2       HT       0.417000       1.00800           0
     47250 TIP3     8290     TIP3     OH2      OT      -0.834000       15.9994           0
     47251 TIP3     8290     TIP3     H1       HT       0.417000       1.00800           0
     47252 TIP3     8290     TIP3     H2       HT       0.417000       1.00800           0
     47253 TIP3     8291     TIP3     OH2      OT      -0.834000       15.9994           0
     47254 TIP3     8291     TIP3     H1       HT       0.417000       1.00800           0
     47255 TIP3     8291     TIP3     H2       HT       0.417000       1.00800           0
     47256 TIP3     8292     TIP3     OH2      OT      -0.834000       15.9994           0
     47257 TIP3     8292     TIP3     H1       HT       0.417000       1.00800           0
     47258 TIP3     8292     TIP3     H2       HT       0.417000       1.00800           0
     47259 TIP3     8293     TIP3     OH2      OT      -0.834000       15.9994           0
     47260 TIP3     8293     TIP3     H1       HT       0.417000       1.00800           0
     47261 TIP3     8293     TIP3     H2       HT       0.417000       1.00800           0
     47262 TIP3     8294     TIP3     OH2      OT      -0.834000       15.9994           0
     47263 TIP3     8294     TIP3     H1       HT       0.417000       1.00800           0
     47264 TIP3     8294     TIP3     H2       HT       0.417000       1.00800           0
     47265 TIP3     8295     TIP3     OH2      OT      -0.834000       15.9994           0
     47266 TIP3     8295     TIP3     H1       HT       0.417000       1.00800           0
     47267 TIP3     8295     TIP3     H2       HT       0.417000       1.00800           0
     47268 TIP3     8296     TIP3     OH2      OT      -0.834000       15.9994           0
     47269 TIP3     8296     TIP3     H1       HT       0.417000       1.00800           0
     47270 TIP3     8296     TIP3     H2       HT       0.417000       1.00800           0
     47271 TIP3     8297     TIP3     OH2      OT      -0.834000       15.9994           0
     47272 TIP3     8297     TIP3     H1       HT       0.417000       1.00800           0
     47273 TIP3     8297     TIP3     H2       HT       0.417000       1.00800           0
     47274 TIP3     8298     TIP3     OH2      OT      -0.834000       15.9994           0
     47275 TIP3     8298     TIP3     H1       HT       0.417000       1.00800           0
     47276 TIP3     8298     TIP3     H2       HT       0.417000       1.00800           0
     47277 TIP3     8299     TIP3     OH2      OT      -0.834000       15.9994           0
     47278 TIP3     8299     TIP3     H1       HT       0.417000       1.00800           0
     47279 TIP3     8299     TIP3     H2       HT       0.417000       1.00800           0
     47280 TIP3     8300     TIP3     OH2      OT      -0.834000       15.9994           0
     47281 TIP3     8300     TIP3     H1       HT       0.417000       1.00800           0
     47282 TIP3     8300     TIP3     H2       HT       0.417000       1.00800           0
     47283 TIP3     8301     TIP3     OH2      OT      -0.834000       15.9994           0
     47284 TIP3     8301     TIP3     H1       HT       0.417000       1.00800           0
     47285 TIP3     8301     TIP3     H2       HT       0.417000       1.00800           0
     47286 TIP3     8302     TIP3     OH2      OT      -0.834000       15.9994           0
     47287 TIP3     8302     TIP3     H1       HT       0.417000       1.00800           0
     47288 TIP3     8302     TIP3     H2       HT       0.417000       1.00800           0
     47289 TIP3     8303     TIP3     OH2      OT      -0.834000       15.9994           0
     47290 TIP3     8303     TIP3     H1       HT       0.417000       1.00800           0
     47291 TIP3     8303     TIP3     H2       HT       0.417000       1.00800           0
     47292 TIP3     8304     TIP3     OH2      OT      -0.834000       15.9994           0
     47293 TIP3     8304     TIP3     H1       HT       0.417000       1.00800           0
     47294 TIP3     8304     TIP3     H2       HT       0.417000       1.00800           0
     47295 TIP3     8305     TIP3     OH2      OT      -0.834000       15.9994           0
     47296 TIP3     8305     TIP3     H1       HT       0.417000       1.00800           0
     47297 TIP3     8305     TIP3     H2       HT       0.417000       1.00800           0
     47298 TIP3     8306     TIP3     OH2      OT      -0.834000       15.9994           0
     47299 TIP3     8306     TIP3     H1       HT       0.417000       1.00800           0
     47300 TIP3     8306     TIP3     H2       HT       0.417000       1.00800           0
     47301 TIP3     8307     TIP3     OH2      OT      -0.834000       15.9994           0
     47302 TIP3     8307     TIP3     H1       HT       0.417000       1.00800           0
     47303 TIP3     8307     TIP3     H2       HT       0.417000       1.00800           0
     47304 TIP3     8308     TIP3     OH2      OT      -0.834000       15.9994           0
     47305 TIP3     8308     TIP3     H1       HT       0.417000       1.00800           0
     47306 TIP3     8308     TIP3     H2       HT       0.417000       1.00800           0
     47307 TIP3     8309     TIP3     OH2      OT      -0.834000       15.9994           0
     47308 TIP3     8309     TIP3     H1       HT       0.417000       1.00800           0
     47309 TIP3     8309     TIP3     H2       HT       0.417000       1.00800           0
     47310 TIP3     8310     TIP3     OH2      OT      -0.834000       15.9994           0
     47311 TIP3     8310     TIP3     H1       HT       0.417000       1.00800           0
     47312 TIP3     8310     TIP3     H2       HT       0.417000       1.00800           0
     47313 TIP3     8311     TIP3     OH2      OT      -0.834000       15.9994           0
     47314 TIP3     8311     TIP3     H1       HT       0.417000       1.00800           0
     47315 TIP3     8311     TIP3     H2       HT       0.417000       1.00800           0
     47316 TIP3     8312     TIP3     OH2      OT      -0.834000       15.9994           0
     47317 TIP3     8312     TIP3     H1       HT       0.417000       1.00800           0
     47318 TIP3     8312     TIP3     H2       HT       0.417000       1.00800           0
     47319 TIP3     8313     TIP3     OH2      OT      -0.834000       15.9994           0
     47320 TIP3     8313     TIP3     H1       HT       0.417000       1.00800           0
     47321 TIP3     8313     TIP3     H2       HT       0.417000       1.00800           0
     47322 TIP3     8314     TIP3     OH2      OT      -0.834000       15.9994           0
     47323 TIP3     8314     TIP3     H1       HT       0.417000       1.00800           0
     47324 TIP3     8314     TIP3     H2       HT       0.417000       1.00800           0
     47325 TIP3     8315     TIP3     OH2      OT      -0.834000       15.9994           0
     47326 TIP3     8315     TIP3     H1       HT       0.417000       1.00800           0
     47327 TIP3     8315     TIP3     H2       HT       0.417000       1.00800           0
     47328 TIP3     8316     TIP3     OH2      OT      -0.834000       15.9994           0
     47329 TIP3     8316     TIP3     H1       HT       0.417000       1.00800           0
     47330 TIP3     8316     TIP3     H2       HT       0.417000       1.00800           0
     47331 TIP3     8317     TIP3     OH2      OT      -0.834000       15.9994           0
     47332 TIP3     8317     TIP3     H1       HT       0.417000       1.00800           0
     47333 TIP3     8317     TIP3     H2       HT       0.417000       1.00800           0
     47334 TIP3     8318     TIP3     OH2      OT      -0.834000       15.9994           0
     47335 TIP3     8318     TIP3     H1       HT       0.417000       1.00800           0
     47336 TIP3     8318     TIP3     H2       HT       0.417000       1.00800           0
     47337 TIP3     8319     TIP3     OH2      OT      -0.834000       15.9994           0
     47338 TIP3     8319     TIP3     H1       HT       0.417000       1.00800           0
     47339 TIP3     8319     TIP3     H2       HT       0.417000       1.00800           0
     47340 TIP3     8320     TIP3     OH2      OT      -0.834000       15.9994           0
     47341 TIP3     8320     TIP3     H1       HT       0.417000       1.00800           0
     47342 TIP3     8320     TIP3     H2       HT       0.417000       1.00800           0
     47343 TIP3     8321     TIP3     OH2      OT      -0.834000       15.9994           0
     47344 TIP3     8321     TIP3     H1       HT       0.417000       1.00800           0
     47345 TIP3     8321     TIP3     H2       HT       0.417000       1.00800           0
     47346 TIP3     8322     TIP3     OH2      OT      -0.834000       15.9994           0
     47347 TIP3     8322     TIP3     H1       HT       0.417000       1.00800           0
     47348 TIP3     8322     TIP3     H2       HT       0.417000       1.00800           0
     47349 TIP3     8323     TIP3     OH2      OT      -0.834000       15.9994           0
     47350 TIP3     8323     TIP3     H1       HT       0.417000       1.00800           0
     47351 TIP3     8323     TIP3     H2       HT       0.417000       1.00800           0
     47352 TIP3     8324     TIP3     OH2      OT      -0.834000       15.9994           0
     47353 TIP3     8324     TIP3     H1       HT       0.417000       1.00800           0
     47354 TIP3     8324     TIP3     H2       HT       0.417000       1.00800           0
     47355 TIP3     8325     TIP3     OH2      OT      -0.834000       15.9994           0
     47356 TIP3     8325     TIP3     H1       HT       0.417000       1.00800           0
     47357 TIP3     8325     TIP3     H2       HT       0.417000       1.00800           0
     47358 TIP3     8326     TIP3     OH2      OT      -0.834000       15.9994           0
     47359 TIP3     8326     TIP3     H1       HT       0.417000       1.00800           0
     47360 TIP3     8326     TIP3     H2       HT       0.417000       1.00800           0
     47361 TIP3     8327     TIP3     OH2      OT      -0.834000       15.9994           0
     47362 TIP3     8327     TIP3     H1       HT       0.417000       1.00800           0
     47363 TIP3     8327     TIP3     H2       HT       0.417000       1.00800           0
     47364 TIP3     8328     TIP3     OH2      OT      -0.834000       15.9994           0
     47365 TIP3     8328     TIP3     H1       HT       0.417000       1.00800           0
     47366 TIP3     8328     TIP3     H2       HT       0.417000       1.00800           0
     47367 TIP3     8329     TIP3     OH2      OT      -0.834000       15.9994           0
     47368 TIP3     8329     TIP3     H1       HT       0.417000       1.00800           0
     47369 TIP3     8329     TIP3     H2       HT       0.417000       1.00800           0
     47370 TIP3     8330     TIP3     OH2      OT      -0.834000       15.9994           0
     47371 TIP3     8330     TIP3     H1       HT       0.417000       1.00800           0
     47372 TIP3     8330     TIP3     H2       HT       0.417000       1.00800           0
     47373 TIP3     8331     TIP3     OH2      OT      -0.834000       15.9994           0
     47374 TIP3     8331     TIP3     H1       HT       0.417000       1.00800           0
     47375 TIP3     8331     TIP3     H2       HT       0.417000       1.00800           0
     47376 TIP3     8332     TIP3     OH2      OT      -0.834000       15.9994           0
     47377 TIP3     8332     TIP3     H1       HT       0.417000       1.00800           0
     47378 TIP3     8332     TIP3     H2       HT       0.417000       1.00800           0
     47379 TIP3     8333     TIP3     OH2      OT      -0.834000       15.9994           0
     47380 TIP3     8333     TIP3     H1       HT       0.417000       1.00800           0
     47381 TIP3     8333     TIP3     H2       HT       0.417000       1.00800           0
     47382 TIP3     8334     TIP3     OH2      OT      -0.834000       15.9994           0
     47383 TIP3     8334     TIP3     H1       HT       0.417000       1.00800           0
     47384 TIP3     8334     TIP3     H2       HT       0.417000       1.00800           0
     47385 TIP3     8335     TIP3     OH2      OT      -0.834000       15.9994           0
     47386 TIP3     8335     TIP3     H1       HT       0.417000       1.00800           0
     47387 TIP3     8335     TIP3     H2       HT       0.417000       1.00800           0
     47388 TIP3     8336     TIP3     OH2      OT      -0.834000       15.9994           0
     47389 TIP3     8336     TIP3     H1       HT       0.417000       1.00800           0
     47390 TIP3     8336     TIP3     H2       HT       0.417000       1.00800           0
     47391 TIP3     8337     TIP3     OH2      OT      -0.834000       15.9994           0
     47392 TIP3     8337     TIP3     H1       HT       0.417000       1.00800           0
     47393 TIP3     8337     TIP3     H2       HT       0.417000       1.00800           0
     47394 TIP3     8338     TIP3     OH2      OT      -0.834000       15.9994           0
     47395 TIP3     8338     TIP3     H1       HT       0.417000       1.00800           0
     47396 TIP3     8338     TIP3     H2       HT       0.417000       1.00800           0
     47397 TIP3     8339     TIP3     OH2      OT      -0.834000       15.9994           0
     47398 TIP3     8339     TIP3     H1       HT       0.417000       1.00800           0
     47399 TIP3     8339     TIP3     H2       HT       0.417000       1.00800           0
     47400 TIP3     8340     TIP3     OH2      OT      -0.834000       15.9994           0
     47401 TIP3     8340     TIP3     H1       HT       0.417000       1.00800           0
     47402 TIP3     8340     TIP3     H2       HT       0.417000       1.00800           0
     47403 TIP3     8341     TIP3     OH2      OT      -0.834000       15.9994           0
     47404 TIP3     8341     TIP3     H1       HT       0.417000       1.00800           0
     47405 TIP3     8341     TIP3     H2       HT       0.417000       1.00800           0
     47406 TIP3     8342     TIP3     OH2      OT      -0.834000       15.9994           0
     47407 TIP3     8342     TIP3     H1       HT       0.417000       1.00800           0
     47408 TIP3     8342     TIP3     H2       HT       0.417000       1.00800           0
     47409 TIP3     8343     TIP3     OH2      OT      -0.834000       15.9994           0
     47410 TIP3     8343     TIP3     H1       HT       0.417000       1.00800           0
     47411 TIP3     8343     TIP3     H2       HT       0.417000       1.00800           0
     47412 TIP3     8344     TIP3     OH2      OT      -0.834000       15.9994           0
     47413 TIP3     8344     TIP3     H1       HT       0.417000       1.00800           0
     47414 TIP3     8344     TIP3     H2       HT       0.417000       1.00800           0
     47415 TIP3     8345     TIP3     OH2      OT      -0.834000       15.9994           0
     47416 TIP3     8345     TIP3     H1       HT       0.417000       1.00800           0
     47417 TIP3     8345     TIP3     H2       HT       0.417000       1.00800           0
     47418 TIP3     8346     TIP3     OH2      OT      -0.834000       15.9994           0
     47419 TIP3     8346     TIP3     H1       HT       0.417000       1.00800           0
     47420 TIP3     8346     TIP3     H2       HT       0.417000       1.00800           0
     47421 TIP3     8347     TIP3     OH2      OT      -0.834000       15.9994           0
     47422 TIP3     8347     TIP3     H1       HT       0.417000       1.00800           0
     47423 TIP3     8347     TIP3     H2       HT       0.417000       1.00800           0
     47424 TIP3     8348     TIP3     OH2      OT      -0.834000       15.9994           0
     47425 TIP3     8348     TIP3     H1       HT       0.417000       1.00800           0
     47426 TIP3     8348     TIP3     H2       HT       0.417000       1.00800           0
     47427 TIP3     8349     TIP3     OH2      OT      -0.834000       15.9994           0
     47428 TIP3     8349     TIP3     H1       HT       0.417000       1.00800           0
     47429 TIP3     8349     TIP3     H2       HT       0.417000       1.00800           0
     47430 TIP3     8350     TIP3     OH2      OT      -0.834000       15.9994           0
     47431 TIP3     8350     TIP3     H1       HT       0.417000       1.00800           0
     47432 TIP3     8350     TIP3     H2       HT       0.417000       1.00800           0
     47433 TIP3     8351     TIP3     OH2      OT      -0.834000       15.9994           0
     47434 TIP3     8351     TIP3     H1       HT       0.417000       1.00800           0
     47435 TIP3     8351     TIP3     H2       HT       0.417000       1.00800           0
     47436 TIP3     8352     TIP3     OH2      OT      -0.834000       15.9994           0
     47437 TIP3     8352     TIP3     H1       HT       0.417000       1.00800           0
     47438 TIP3     8352     TIP3     H2       HT       0.417000       1.00800           0
     47439 TIP3     8353     TIP3     OH2      OT      -0.834000       15.9994           0
     47440 TIP3     8353     TIP3     H1       HT       0.417000       1.00800           0
     47441 TIP3     8353     TIP3     H2       HT       0.417000       1.00800           0
     47442 TIP3     8354     TIP3     OH2      OT      -0.834000       15.9994           0
     47443 TIP3     8354     TIP3     H1       HT       0.417000       1.00800           0
     47444 TIP3     8354     TIP3     H2       HT       0.417000       1.00800           0
     47445 TIP3     8355     TIP3     OH2      OT      -0.834000       15.9994           0
     47446 TIP3     8355     TIP3     H1       HT       0.417000       1.00800           0
     47447 TIP3     8355     TIP3     H2       HT       0.417000       1.00800           0
     47448 TIP3     8356     TIP3     OH2      OT      -0.834000       15.9994           0
     47449 TIP3     8356     TIP3     H1       HT       0.417000       1.00800           0
     47450 TIP3     8356     TIP3     H2       HT       0.417000       1.00800           0
     47451 TIP3     8357     TIP3     OH2      OT      -0.834000       15.9994           0
     47452 TIP3     8357     TIP3     H1       HT       0.417000       1.00800           0
     47453 TIP3     8357     TIP3     H2       HT       0.417000       1.00800           0
     47454 TIP3     8358     TIP3     OH2      OT      -0.834000       15.9994           0
     47455 TIP3     8358     TIP3     H1       HT       0.417000       1.00800           0
     47456 TIP3     8358     TIP3     H2       HT       0.417000       1.00800           0
     47457 TIP3     8359     TIP3     OH2      OT      -0.834000       15.9994           0
     47458 TIP3     8359     TIP3     H1       HT       0.417000       1.00800           0
     47459 TIP3     8359     TIP3     H2       HT       0.417000       1.00800           0
     47460 TIP3     8360     TIP3     OH2      OT      -0.834000       15.9994           0
     47461 TIP3     8360     TIP3     H1       HT       0.417000       1.00800           0
     47462 TIP3     8360     TIP3     H2       HT       0.417000       1.00800           0
     47463 TIP3     8361     TIP3     OH2      OT      -0.834000       15.9994           0
     47464 TIP3     8361     TIP3     H1       HT       0.417000       1.00800           0
     47465 TIP3     8361     TIP3     H2       HT       0.417000       1.00800           0
     47466 TIP3     8362     TIP3     OH2      OT      -0.834000       15.9994           0
     47467 TIP3     8362     TIP3     H1       HT       0.417000       1.00800           0
     47468 TIP3     8362     TIP3     H2       HT       0.417000       1.00800           0
     47469 TIP3     8363     TIP3     OH2      OT      -0.834000       15.9994           0
     47470 TIP3     8363     TIP3     H1       HT       0.417000       1.00800           0
     47471 TIP3     8363     TIP3     H2       HT       0.417000       1.00800           0
     47472 TIP3     8364     TIP3     OH2      OT      -0.834000       15.9994           0
     47473 TIP3     8364     TIP3     H1       HT       0.417000       1.00800           0
     47474 TIP3     8364     TIP3     H2       HT       0.417000       1.00800           0
     47475 TIP3     8365     TIP3     OH2      OT      -0.834000       15.9994           0
     47476 TIP3     8365     TIP3     H1       HT       0.417000       1.00800           0
     47477 TIP3     8365     TIP3     H2       HT       0.417000       1.00800           0
     47478 TIP3     8366     TIP3     OH2      OT      -0.834000       15.9994           0
     47479 TIP3     8366     TIP3     H1       HT       0.417000       1.00800           0
     47480 TIP3     8366     TIP3     H2       HT       0.417000       1.00800           0
     47481 TIP3     8367     TIP3     OH2      OT      -0.834000       15.9994           0
     47482 TIP3     8367     TIP3     H1       HT       0.417000       1.00800           0
     47483 TIP3     8367     TIP3     H2       HT       0.417000       1.00800           0
     47484 TIP3     8368     TIP3     OH2      OT      -0.834000       15.9994           0
     47485 TIP3     8368     TIP3     H1       HT       0.417000       1.00800           0
     47486 TIP3     8368     TIP3     H2       HT       0.417000       1.00800           0
     47487 TIP3     8369     TIP3     OH2      OT      -0.834000       15.9994           0
     47488 TIP3     8369     TIP3     H1       HT       0.417000       1.00800           0
     47489 TIP3     8369     TIP3     H2       HT       0.417000       1.00800           0
     47490 TIP3     8370     TIP3     OH2      OT      -0.834000       15.9994           0
     47491 TIP3     8370     TIP3     H1       HT       0.417000       1.00800           0
     47492 TIP3     8370     TIP3     H2       HT       0.417000       1.00800           0
     47493 TIP3     8371     TIP3     OH2      OT      -0.834000       15.9994           0
     47494 TIP3     8371     TIP3     H1       HT       0.417000       1.00800           0
     47495 TIP3     8371     TIP3     H2       HT       0.417000       1.00800           0
     47496 TIP3     8372     TIP3     OH2      OT      -0.834000       15.9994           0
     47497 TIP3     8372     TIP3     H1       HT       0.417000       1.00800           0
     47498 TIP3     8372     TIP3     H2       HT       0.417000       1.00800           0
     47499 TIP3     8373     TIP3     OH2      OT      -0.834000       15.9994           0
     47500 TIP3     8373     TIP3     H1       HT       0.417000       1.00800           0
     47501 TIP3     8373     TIP3     H2       HT       0.417000       1.00800           0
     47502 TIP3     8374     TIP3     OH2      OT      -0.834000       15.9994           0
     47503 TIP3     8374     TIP3     H1       HT       0.417000       1.00800           0
     47504 TIP3     8374     TIP3     H2       HT       0.417000       1.00800           0
     47505 TIP3     8375     TIP3     OH2      OT      -0.834000       15.9994           0
     47506 TIP3     8375     TIP3     H1       HT       0.417000       1.00800           0
     47507 TIP3     8375     TIP3     H2       HT       0.417000       1.00800           0
     47508 TIP3     8376     TIP3     OH2      OT      -0.834000       15.9994           0
     47509 TIP3     8376     TIP3     H1       HT       0.417000       1.00800           0
     47510 TIP3     8376     TIP3     H2       HT       0.417000       1.00800           0
     47511 TIP3     8377     TIP3     OH2      OT      -0.834000       15.9994           0
     47512 TIP3     8377     TIP3     H1       HT       0.417000       1.00800           0
     47513 TIP3     8377     TIP3     H2       HT       0.417000       1.00800           0
     47514 TIP3     8378     TIP3     OH2      OT      -0.834000       15.9994           0
     47515 TIP3     8378     TIP3     H1       HT       0.417000       1.00800           0
     47516 TIP3     8378     TIP3     H2       HT       0.417000       1.00800           0
     47517 TIP3     8379     TIP3     OH2      OT      -0.834000       15.9994           0
     47518 TIP3     8379     TIP3     H1       HT       0.417000       1.00800           0
     47519 TIP3     8379     TIP3     H2       HT       0.417000       1.00800           0
     47520 TIP3     8380     TIP3     OH2      OT      -0.834000       15.9994           0
     47521 TIP3     8380     TIP3     H1       HT       0.417000       1.00800           0
     47522 TIP3     8380     TIP3     H2       HT       0.417000       1.00800           0
     47523 TIP3     8381     TIP3     OH2      OT      -0.834000       15.9994           0
     47524 TIP3     8381     TIP3     H1       HT       0.417000       1.00800           0
     47525 TIP3     8381     TIP3     H2       HT       0.417000       1.00800           0
     47526 TIP3     8382     TIP3     OH2      OT      -0.834000       15.9994           0
     47527 TIP3     8382     TIP3     H1       HT       0.417000       1.00800           0
     47528 TIP3     8382     TIP3     H2       HT       0.417000       1.00800           0
     47529 TIP3     8383     TIP3     OH2      OT      -0.834000       15.9994           0
     47530 TIP3     8383     TIP3     H1       HT       0.417000       1.00800           0
     47531 TIP3     8383     TIP3     H2       HT       0.417000       1.00800           0
     47532 TIP3     8384     TIP3     OH2      OT      -0.834000       15.9994           0
     47533 TIP3     8384     TIP3     H1       HT       0.417000       1.00800           0
     47534 TIP3     8384     TIP3     H2       HT       0.417000       1.00800           0
     47535 TIP3     8385     TIP3     OH2      OT      -0.834000       15.9994           0
     47536 TIP3     8385     TIP3     H1       HT       0.417000       1.00800           0
     47537 TIP3     8385     TIP3     H2       HT       0.417000       1.00800           0
     47538 TIP3     8386     TIP3     OH2      OT      -0.834000       15.9994           0
     47539 TIP3     8386     TIP3     H1       HT       0.417000       1.00800           0
     47540 TIP3     8386     TIP3     H2       HT       0.417000       1.00800           0
     47541 TIP3     8387     TIP3     OH2      OT      -0.834000       15.9994           0
     47542 TIP3     8387     TIP3     H1       HT       0.417000       1.00800           0
     47543 TIP3     8387     TIP3     H2       HT       0.417000       1.00800           0
     47544 TIP3     8388     TIP3     OH2      OT      -0.834000       15.9994           0
     47545 TIP3     8388     TIP3     H1       HT       0.417000       1.00800           0
     47546 TIP3     8388     TIP3     H2       HT       0.417000       1.00800           0
     47547 TIP3     8389     TIP3     OH2      OT      -0.834000       15.9994           0
     47548 TIP3     8389     TIP3     H1       HT       0.417000       1.00800           0
     47549 TIP3     8389     TIP3     H2       HT       0.417000       1.00800           0
     47550 TIP3     8390     TIP3     OH2      OT      -0.834000       15.9994           0
     47551 TIP3     8390     TIP3     H1       HT       0.417000       1.00800           0
     47552 TIP3     8390     TIP3     H2       HT       0.417000       1.00800           0
     47553 TIP3     8391     TIP3     OH2      OT      -0.834000       15.9994           0
     47554 TIP3     8391     TIP3     H1       HT       0.417000       1.00800           0
     47555 TIP3     8391     TIP3     H2       HT       0.417000       1.00800           0
     47556 TIP3     8392     TIP3     OH2      OT      -0.834000       15.9994           0
     47557 TIP3     8392     TIP3     H1       HT       0.417000       1.00800           0
     47558 TIP3     8392     TIP3     H2       HT       0.417000       1.00800           0
     47559 TIP3     8393     TIP3     OH2      OT      -0.834000       15.9994           0
     47560 TIP3     8393     TIP3     H1       HT       0.417000       1.00800           0
     47561 TIP3     8393     TIP3     H2       HT       0.417000       1.00800           0
     47562 TIP3     8394     TIP3     OH2      OT      -0.834000       15.9994           0
     47563 TIP3     8394     TIP3     H1       HT       0.417000       1.00800           0
     47564 TIP3     8394     TIP3     H2       HT       0.417000       1.00800           0
     47565 TIP3     8395     TIP3     OH2      OT      -0.834000       15.9994           0
     47566 TIP3     8395     TIP3     H1       HT       0.417000       1.00800           0
     47567 TIP3     8395     TIP3     H2       HT       0.417000       1.00800           0
     47568 TIP3     8396     TIP3     OH2      OT      -0.834000       15.9994           0
     47569 TIP3     8396     TIP3     H1       HT       0.417000       1.00800           0
     47570 TIP3     8396     TIP3     H2       HT       0.417000       1.00800           0
     47571 TIP3     8397     TIP3     OH2      OT      -0.834000       15.9994           0
     47572 TIP3     8397     TIP3     H1       HT       0.417000       1.00800           0
     47573 TIP3     8397     TIP3     H2       HT       0.417000       1.00800           0
     47574 TIP3     8398     TIP3     OH2      OT      -0.834000       15.9994           0
     47575 TIP3     8398     TIP3     H1       HT       0.417000       1.00800           0
     47576 TIP3     8398     TIP3     H2       HT       0.417000       1.00800           0
     47577 TIP3     8399     TIP3     OH2      OT      -0.834000       15.9994           0
     47578 TIP3     8399     TIP3     H1       HT       0.417000       1.00800           0
     47579 TIP3     8399     TIP3     H2       HT       0.417000       1.00800           0
     47580 TIP3     8400     TIP3     OH2      OT      -0.834000       15.9994           0
     47581 TIP3     8400     TIP3     H1       HT       0.417000       1.00800           0
     47582 TIP3     8400     TIP3     H2       HT       0.417000       1.00800           0
     47583 TIP3     8401     TIP3     OH2      OT      -0.834000       15.9994           0
     47584 TIP3     8401     TIP3     H1       HT       0.417000       1.00800           0
     47585 TIP3     8401     TIP3     H2       HT       0.417000       1.00800           0
     47586 TIP3     8402     TIP3     OH2      OT      -0.834000       15.9994           0
     47587 TIP3     8402     TIP3     H1       HT       0.417000       1.00800           0
     47588 TIP3     8402     TIP3     H2       HT       0.417000       1.00800           0
     47589 TIP3     8403     TIP3     OH2      OT      -0.834000       15.9994           0
     47590 TIP3     8403     TIP3     H1       HT       0.417000       1.00800           0
     47591 TIP3     8403     TIP3     H2       HT       0.417000       1.00800           0
     47592 TIP3     8404     TIP3     OH2      OT      -0.834000       15.9994           0
     47593 TIP3     8404     TIP3     H1       HT       0.417000       1.00800           0
     47594 TIP3     8404     TIP3     H2       HT       0.417000       1.00800           0
     47595 TIP3     8405     TIP3     OH2      OT      -0.834000       15.9994           0
     47596 TIP3     8405     TIP3     H1       HT       0.417000       1.00800           0
     47597 TIP3     8405     TIP3     H2       HT       0.417000       1.00800           0
     47598 TIP3     8406     TIP3     OH2      OT      -0.834000       15.9994           0
     47599 TIP3     8406     TIP3     H1       HT       0.417000       1.00800           0
     47600 TIP3     8406     TIP3     H2       HT       0.417000       1.00800           0
     47601 TIP3     8407     TIP3     OH2      OT      -0.834000       15.9994           0
     47602 TIP3     8407     TIP3     H1       HT       0.417000       1.00800           0
     47603 TIP3     8407     TIP3     H2       HT       0.417000       1.00800           0
     47604 TIP3     8408     TIP3     OH2      OT      -0.834000       15.9994           0
     47605 TIP3     8408     TIP3     H1       HT       0.417000       1.00800           0
     47606 TIP3     8408     TIP3     H2       HT       0.417000       1.00800           0
     47607 TIP3     8409     TIP3     OH2      OT      -0.834000       15.9994           0
     47608 TIP3     8409     TIP3     H1       HT       0.417000       1.00800           0
     47609 TIP3     8409     TIP3     H2       HT       0.417000       1.00800           0
     47610 TIP3     8410     TIP3     OH2      OT      -0.834000       15.9994           0
     47611 TIP3     8410     TIP3     H1       HT       0.417000       1.00800           0
     47612 TIP3     8410     TIP3     H2       HT       0.417000       1.00800           0
     47613 TIP3     8411     TIP3     OH2      OT      -0.834000       15.9994           0
     47614 TIP3     8411     TIP3     H1       HT       0.417000       1.00800           0
     47615 TIP3     8411     TIP3     H2       HT       0.417000       1.00800           0
     47616 TIP3     8412     TIP3     OH2      OT      -0.834000       15.9994           0
     47617 TIP3     8412     TIP3     H1       HT       0.417000       1.00800           0
     47618 TIP3     8412     TIP3     H2       HT       0.417000       1.00800           0
     47619 TIP3     8413     TIP3     OH2      OT      -0.834000       15.9994           0
     47620 TIP3     8413     TIP3     H1       HT       0.417000       1.00800           0
     47621 TIP3     8413     TIP3     H2       HT       0.417000       1.00800           0
     47622 TIP3     8414     TIP3     OH2      OT      -0.834000       15.9994           0
     47623 TIP3     8414     TIP3     H1       HT       0.417000       1.00800           0
     47624 TIP3     8414     TIP3     H2       HT       0.417000       1.00800           0
     47625 TIP3     8415     TIP3     OH2      OT      -0.834000       15.9994           0
     47626 TIP3     8415     TIP3     H1       HT       0.417000       1.00800           0
     47627 TIP3     8415     TIP3     H2       HT       0.417000       1.00800           0
     47628 TIP3     8416     TIP3     OH2      OT      -0.834000       15.9994           0
     47629 TIP3     8416     TIP3     H1       HT       0.417000       1.00800           0
     47630 TIP3     8416     TIP3     H2       HT       0.417000       1.00800           0
     47631 TIP3     8417     TIP3     OH2      OT      -0.834000       15.9994           0
     47632 TIP3     8417     TIP3     H1       HT       0.417000       1.00800           0
     47633 TIP3     8417     TIP3     H2       HT       0.417000       1.00800           0
     47634 TIP3     8418     TIP3     OH2      OT      -0.834000       15.9994           0
     47635 TIP3     8418     TIP3     H1       HT       0.417000       1.00800           0
     47636 TIP3     8418     TIP3     H2       HT       0.417000       1.00800           0
     47637 TIP3     8419     TIP3     OH2      OT      -0.834000       15.9994           0
     47638 TIP3     8419     TIP3     H1       HT       0.417000       1.00800           0
     47639 TIP3     8419     TIP3     H2       HT       0.417000       1.00800           0
     47640 TIP3     8420     TIP3     OH2      OT      -0.834000       15.9994           0
     47641 TIP3     8420     TIP3     H1       HT       0.417000       1.00800           0
     47642 TIP3     8420     TIP3     H2       HT       0.417000       1.00800           0
     47643 TIP3     8421     TIP3     OH2      OT      -0.834000       15.9994           0
     47644 TIP3     8421     TIP3     H1       HT       0.417000       1.00800           0
     47645 TIP3     8421     TIP3     H2       HT       0.417000       1.00800           0
     47646 TIP3     8422     TIP3     OH2      OT      -0.834000       15.9994           0
     47647 TIP3     8422     TIP3     H1       HT       0.417000       1.00800           0
     47648 TIP3     8422     TIP3     H2       HT       0.417000       1.00800           0
     47649 TIP3     8423     TIP3     OH2      OT      -0.834000       15.9994           0
     47650 TIP3     8423     TIP3     H1       HT       0.417000       1.00800           0
     47651 TIP3     8423     TIP3     H2       HT       0.417000       1.00800           0
     47652 TIP3     8424     TIP3     OH2      OT      -0.834000       15.9994           0
     47653 TIP3     8424     TIP3     H1       HT       0.417000       1.00800           0
     47654 TIP3     8424     TIP3     H2       HT       0.417000       1.00800           0
     47655 TIP3     8425     TIP3     OH2      OT      -0.834000       15.9994           0
     47656 TIP3     8425     TIP3     H1       HT       0.417000       1.00800           0
     47657 TIP3     8425     TIP3     H2       HT       0.417000       1.00800           0
     47658 TIP3     8426     TIP3     OH2      OT      -0.834000       15.9994           0
     47659 TIP3     8426     TIP3     H1       HT       0.417000       1.00800           0
     47660 TIP3     8426     TIP3     H2       HT       0.417000       1.00800           0
     47661 TIP3     8427     TIP3     OH2      OT      -0.834000       15.9994           0
     47662 TIP3     8427     TIP3     H1       HT       0.417000       1.00800           0
     47663 TIP3     8427     TIP3     H2       HT       0.417000       1.00800           0
     47664 TIP3     8428     TIP3     OH2      OT      -0.834000       15.9994           0
     47665 TIP3     8428     TIP3     H1       HT       0.417000       1.00800           0
     47666 TIP3     8428     TIP3     H2       HT       0.417000       1.00800           0
     47667 TIP3     8429     TIP3     OH2      OT      -0.834000       15.9994           0
     47668 TIP3     8429     TIP3     H1       HT       0.417000       1.00800           0
     47669 TIP3     8429     TIP3     H2       HT       0.417000       1.00800           0
     47670 TIP3     8430     TIP3     OH2      OT      -0.834000       15.9994           0
     47671 TIP3     8430     TIP3     H1       HT       0.417000       1.00800           0
     47672 TIP3     8430     TIP3     H2       HT       0.417000       1.00800           0
     47673 TIP3     8431     TIP3     OH2      OT      -0.834000       15.9994           0
     47674 TIP3     8431     TIP3     H1       HT       0.417000       1.00800           0
     47675 TIP3     8431     TIP3     H2       HT       0.417000       1.00800           0
     47676 TIP3     8432     TIP3     OH2      OT      -0.834000       15.9994           0
     47677 TIP3     8432     TIP3     H1       HT       0.417000       1.00800           0
     47678 TIP3     8432     TIP3     H2       HT       0.417000       1.00800           0
     47679 TIP3     8433     TIP3     OH2      OT      -0.834000       15.9994           0
     47680 TIP3     8433     TIP3     H1       HT       0.417000       1.00800           0
     47681 TIP3     8433     TIP3     H2       HT       0.417000       1.00800           0
     47682 TIP3     8434     TIP3     OH2      OT      -0.834000       15.9994           0
     47683 TIP3     8434     TIP3     H1       HT       0.417000       1.00800           0
     47684 TIP3     8434     TIP3     H2       HT       0.417000       1.00800           0
     47685 TIP3     8435     TIP3     OH2      OT      -0.834000       15.9994           0
     47686 TIP3     8435     TIP3     H1       HT       0.417000       1.00800           0
     47687 TIP3     8435     TIP3     H2       HT       0.417000       1.00800           0
     47688 TIP3     8436     TIP3     OH2      OT      -0.834000       15.9994           0
     47689 TIP3     8436     TIP3     H1       HT       0.417000       1.00800           0
     47690 TIP3     8436     TIP3     H2       HT       0.417000       1.00800           0
     47691 TIP3     8437     TIP3     OH2      OT      -0.834000       15.9994           0
     47692 TIP3     8437     TIP3     H1       HT       0.417000       1.00800           0
     47693 TIP3     8437     TIP3     H2       HT       0.417000       1.00800           0
     47694 TIP3     8438     TIP3     OH2      OT      -0.834000       15.9994           0
     47695 TIP3     8438     TIP3     H1       HT       0.417000       1.00800           0
     47696 TIP3     8438     TIP3     H2       HT       0.417000       1.00800           0
     47697 TIP3     8439     TIP3     OH2      OT      -0.834000       15.9994           0
     47698 TIP3     8439     TIP3     H1       HT       0.417000       1.00800           0
     47699 TIP3     8439     TIP3     H2       HT       0.417000       1.00800           0
     47700 TIP3     8440     TIP3     OH2      OT      -0.834000       15.9994           0
     47701 TIP3     8440     TIP3     H1       HT       0.417000       1.00800           0
     47702 TIP3     8440     TIP3     H2       HT       0.417000       1.00800           0
     47703 TIP3     8441     TIP3     OH2      OT      -0.834000       15.9994           0
     47704 TIP3     8441     TIP3     H1       HT       0.417000       1.00800           0
     47705 TIP3     8441     TIP3     H2       HT       0.417000       1.00800           0
     47706 TIP3     8442     TIP3     OH2      OT      -0.834000       15.9994           0
     47707 TIP3     8442     TIP3     H1       HT       0.417000       1.00800           0
     47708 TIP3     8442     TIP3     H2       HT       0.417000       1.00800           0
     47709 TIP3     8443     TIP3     OH2      OT      -0.834000       15.9994           0
     47710 TIP3     8443     TIP3     H1       HT       0.417000       1.00800           0
     47711 TIP3     8443     TIP3     H2       HT       0.417000       1.00800           0
     47712 TIP3     8444     TIP3     OH2      OT      -0.834000       15.9994           0
     47713 TIP3     8444     TIP3     H1       HT       0.417000       1.00800           0
     47714 TIP3     8444     TIP3     H2       HT       0.417000       1.00800           0
     47715 TIP3     8445     TIP3     OH2      OT      -0.834000       15.9994           0
     47716 TIP3     8445     TIP3     H1       HT       0.417000       1.00800           0
     47717 TIP3     8445     TIP3     H2       HT       0.417000       1.00800           0
     47718 TIP3     8446     TIP3     OH2      OT      -0.834000       15.9994           0
     47719 TIP3     8446     TIP3     H1       HT       0.417000       1.00800           0
     47720 TIP3     8446     TIP3     H2       HT       0.417000       1.00800           0
     47721 TIP3     8447     TIP3     OH2      OT      -0.834000       15.9994           0
     47722 TIP3     8447     TIP3     H1       HT       0.417000       1.00800           0
     47723 TIP3     8447     TIP3     H2       HT       0.417000       1.00800           0
     47724 TIP3     8448     TIP3     OH2      OT      -0.834000       15.9994           0
     47725 TIP3     8448     TIP3     H1       HT       0.417000       1.00800           0
     47726 TIP3     8448     TIP3     H2       HT       0.417000       1.00800           0
     47727 TIP3     8449     TIP3     OH2      OT      -0.834000       15.9994           0
     47728 TIP3     8449     TIP3     H1       HT       0.417000       1.00800           0
     47729 TIP3     8449     TIP3     H2       HT       0.417000       1.00800           0
     47730 TIP3     8450     TIP3     OH2      OT      -0.834000       15.9994           0
     47731 TIP3     8450     TIP3     H1       HT       0.417000       1.00800           0
     47732 TIP3     8450     TIP3     H2       HT       0.417000       1.00800           0
     47733 TIP3     8451     TIP3     OH2      OT      -0.834000       15.9994           0
     47734 TIP3     8451     TIP3     H1       HT       0.417000       1.00800           0
     47735 TIP3     8451     TIP3     H2       HT       0.417000       1.00800           0
     47736 TIP3     8452     TIP3     OH2      OT      -0.834000       15.9994           0
     47737 TIP3     8452     TIP3     H1       HT       0.417000       1.00800           0
     47738 TIP3     8452     TIP3     H2       HT       0.417000       1.00800           0
     47739 TIP3     8453     TIP3     OH2      OT      -0.834000       15.9994           0
     47740 TIP3     8453     TIP3     H1       HT       0.417000       1.00800           0
     47741 TIP3     8453     TIP3     H2       HT       0.417000       1.00800           0
     47742 TIP3     8454     TIP3     OH2      OT      -0.834000       15.9994           0
     47743 TIP3     8454     TIP3     H1       HT       0.417000       1.00800           0
     47744 TIP3     8454     TIP3     H2       HT       0.417000       1.00800           0
     47745 TIP3     8455     TIP3     OH2      OT      -0.834000       15.9994           0
     47746 TIP3     8455     TIP3     H1       HT       0.417000       1.00800           0
     47747 TIP3     8455     TIP3     H2       HT       0.417000       1.00800           0
     47748 TIP3     8456     TIP3     OH2      OT      -0.834000       15.9994           0
     47749 TIP3     8456     TIP3     H1       HT       0.417000       1.00800           0
     47750 TIP3     8456     TIP3     H2       HT       0.417000       1.00800           0
     47751 TIP3     8457     TIP3     OH2      OT      -0.834000       15.9994           0
     47752 TIP3     8457     TIP3     H1       HT       0.417000       1.00800           0
     47753 TIP3     8457     TIP3     H2       HT       0.417000       1.00800           0
     47754 TIP3     8458     TIP3     OH2      OT      -0.834000       15.9994           0
     47755 TIP3     8458     TIP3     H1       HT       0.417000       1.00800           0
     47756 TIP3     8458     TIP3     H2       HT       0.417000       1.00800           0
     47757 TIP3     8459     TIP3     OH2      OT      -0.834000       15.9994           0
     47758 TIP3     8459     TIP3     H1       HT       0.417000       1.00800           0
     47759 TIP3     8459     TIP3     H2       HT       0.417000       1.00800           0
     47760 TIP3     8460     TIP3     OH2      OT      -0.834000       15.9994           0
     47761 TIP3     8460     TIP3     H1       HT       0.417000       1.00800           0
     47762 TIP3     8460     TIP3     H2       HT       0.417000       1.00800           0
     47763 TIP3     8461     TIP3     OH2      OT      -0.834000       15.9994           0
     47764 TIP3     8461     TIP3     H1       HT       0.417000       1.00800           0
     47765 TIP3     8461     TIP3     H2       HT       0.417000       1.00800           0
     47766 TIP3     8462     TIP3     OH2      OT      -0.834000       15.9994           0
     47767 TIP3     8462     TIP3     H1       HT       0.417000       1.00800           0
     47768 TIP3     8462     TIP3     H2       HT       0.417000       1.00800           0
     47769 TIP3     8463     TIP3     OH2      OT      -0.834000       15.9994           0
     47770 TIP3     8463     TIP3     H1       HT       0.417000       1.00800           0
     47771 TIP3     8463     TIP3     H2       HT       0.417000       1.00800           0
     47772 TIP3     8464     TIP3     OH2      OT      -0.834000       15.9994           0
     47773 TIP3     8464     TIP3     H1       HT       0.417000       1.00800           0
     47774 TIP3     8464     TIP3     H2       HT       0.417000       1.00800           0
     47775 TIP3     8465     TIP3     OH2      OT      -0.834000       15.9994           0
     47776 TIP3     8465     TIP3     H1       HT       0.417000       1.00800           0
     47777 TIP3     8465     TIP3     H2       HT       0.417000       1.00800           0
     47778 TIP3     8466     TIP3     OH2      OT      -0.834000       15.9994           0
     47779 TIP3     8466     TIP3     H1       HT       0.417000       1.00800           0
     47780 TIP3     8466     TIP3     H2       HT       0.417000       1.00800           0
     47781 TIP3     8467     TIP3     OH2      OT      -0.834000       15.9994           0
     47782 TIP3     8467     TIP3     H1       HT       0.417000       1.00800           0
     47783 TIP3     8467     TIP3     H2       HT       0.417000       1.00800           0
     47784 TIP3     8468     TIP3     OH2      OT      -0.834000       15.9994           0
     47785 TIP3     8468     TIP3     H1       HT       0.417000       1.00800           0
     47786 TIP3     8468     TIP3     H2       HT       0.417000       1.00800           0
     47787 TIP3     8469     TIP3     OH2      OT      -0.834000       15.9994           0
     47788 TIP3     8469     TIP3     H1       HT       0.417000       1.00800           0
     47789 TIP3     8469     TIP3     H2       HT       0.417000       1.00800           0
     47790 TIP3     8470     TIP3     OH2      OT      -0.834000       15.9994           0
     47791 TIP3     8470     TIP3     H1       HT       0.417000       1.00800           0
     47792 TIP3     8470     TIP3     H2       HT       0.417000       1.00800           0
     47793 TIP3     8471     TIP3     OH2      OT      -0.834000       15.9994           0
     47794 TIP3     8471     TIP3     H1       HT       0.417000       1.00800           0
     47795 TIP3     8471     TIP3     H2       HT       0.417000       1.00800           0
     47796 TIP3     8472     TIP3     OH2      OT      -0.834000       15.9994           0
     47797 TIP3     8472     TIP3     H1       HT       0.417000       1.00800           0
     47798 TIP3     8472     TIP3     H2       HT       0.417000       1.00800           0
     47799 TIP3     8473     TIP3     OH2      OT      -0.834000       15.9994           0
     47800 TIP3     8473     TIP3     H1       HT       0.417000       1.00800           0
     47801 TIP3     8473     TIP3     H2       HT       0.417000       1.00800           0
     47802 TIP3     8474     TIP3     OH2      OT      -0.834000       15.9994           0
     47803 TIP3     8474     TIP3     H1       HT       0.417000       1.00800           0
     47804 TIP3     8474     TIP3     H2       HT       0.417000       1.00800           0
     47805 TIP3     8475     TIP3     OH2      OT      -0.834000       15.9994           0
     47806 TIP3     8475     TIP3     H1       HT       0.417000       1.00800           0
     47807 TIP3     8475     TIP3     H2       HT       0.417000       1.00800           0
     47808 TIP3     8476     TIP3     OH2      OT      -0.834000       15.9994           0
     47809 TIP3     8476     TIP3     H1       HT       0.417000       1.00800           0
     47810 TIP3     8476     TIP3     H2       HT       0.417000       1.00800           0
     47811 TIP3     8477     TIP3     OH2      OT      -0.834000       15.9994           0
     47812 TIP3     8477     TIP3     H1       HT       0.417000       1.00800           0
     47813 TIP3     8477     TIP3     H2       HT       0.417000       1.00800           0
     47814 TIP3     8478     TIP3     OH2      OT      -0.834000       15.9994           0
     47815 TIP3     8478     TIP3     H1       HT       0.417000       1.00800           0
     47816 TIP3     8478     TIP3     H2       HT       0.417000       1.00800           0
     47817 TIP3     8479     TIP3     OH2      OT      -0.834000       15.9994           0
     47818 TIP3     8479     TIP3     H1       HT       0.417000       1.00800           0
     47819 TIP3     8479     TIP3     H2       HT       0.417000       1.00800           0
     47820 TIP3     8480     TIP3     OH2      OT      -0.834000       15.9994           0
     47821 TIP3     8480     TIP3     H1       HT       0.417000       1.00800           0
     47822 TIP3     8480     TIP3     H2       HT       0.417000       1.00800           0
     47823 TIP3     8481     TIP3     OH2      OT      -0.834000       15.9994           0
     47824 TIP3     8481     TIP3     H1       HT       0.417000       1.00800           0
     47825 TIP3     8481     TIP3     H2       HT       0.417000       1.00800           0
     47826 TIP3     8482     TIP3     OH2      OT      -0.834000       15.9994           0
     47827 TIP3     8482     TIP3     H1       HT       0.417000       1.00800           0
     47828 TIP3     8482     TIP3     H2       HT       0.417000       1.00800           0
     47829 TIP3     8483     TIP3     OH2      OT      -0.834000       15.9994           0
     47830 TIP3     8483     TIP3     H1       HT       0.417000       1.00800           0
     47831 TIP3     8483     TIP3     H2       HT       0.417000       1.00800           0
     47832 TIP3     8484     TIP3     OH2      OT      -0.834000       15.9994           0
     47833 TIP3     8484     TIP3     H1       HT       0.417000       1.00800           0
     47834 TIP3     8484     TIP3     H2       HT       0.417000       1.00800           0
     47835 TIP3     8485     TIP3     OH2      OT      -0.834000       15.9994           0
     47836 TIP3     8485     TIP3     H1       HT       0.417000       1.00800           0
     47837 TIP3     8485     TIP3     H2       HT       0.417000       1.00800           0
     47838 TIP3     8486     TIP3     OH2      OT      -0.834000       15.9994           0
     47839 TIP3     8486     TIP3     H1       HT       0.417000       1.00800           0
     47840 TIP3     8486     TIP3     H2       HT       0.417000       1.00800           0
     47841 TIP3     8487     TIP3     OH2      OT      -0.834000       15.9994           0
     47842 TIP3     8487     TIP3     H1       HT       0.417000       1.00800           0
     47843 TIP3     8487     TIP3     H2       HT       0.417000       1.00800           0
     47844 TIP3     8488     TIP3     OH2      OT      -0.834000       15.9994           0
     47845 TIP3     8488     TIP3     H1       HT       0.417000       1.00800           0
     47846 TIP3     8488     TIP3     H2       HT       0.417000       1.00800           0
     47847 TIP3     8489     TIP3     OH2      OT      -0.834000       15.9994           0
     47848 TIP3     8489     TIP3     H1       HT       0.417000       1.00800           0
     47849 TIP3     8489     TIP3     H2       HT       0.417000       1.00800           0
     47850 TIP3     8490     TIP3     OH2      OT      -0.834000       15.9994           0
     47851 TIP3     8490     TIP3     H1       HT       0.417000       1.00800           0
     47852 TIP3     8490     TIP3     H2       HT       0.417000       1.00800           0
     47853 TIP3     8491     TIP3     OH2      OT      -0.834000       15.9994           0
     47854 TIP3     8491     TIP3     H1       HT       0.417000       1.00800           0
     47855 TIP3     8491     TIP3     H2       HT       0.417000       1.00800           0
     47856 TIP3     8492     TIP3     OH2      OT      -0.834000       15.9994           0
     47857 TIP3     8492     TIP3     H1       HT       0.417000       1.00800           0
     47858 TIP3     8492     TIP3     H2       HT       0.417000       1.00800           0
     47859 TIP3     8493     TIP3     OH2      OT      -0.834000       15.9994           0
     47860 TIP3     8493     TIP3     H1       HT       0.417000       1.00800           0
     47861 TIP3     8493     TIP3     H2       HT       0.417000       1.00800           0
     47862 TIP3     8494     TIP3     OH2      OT      -0.834000       15.9994           0
     47863 TIP3     8494     TIP3     H1       HT       0.417000       1.00800           0
     47864 TIP3     8494     TIP3     H2       HT       0.417000       1.00800           0
     47865 TIP3     8495     TIP3     OH2      OT      -0.834000       15.9994           0
     47866 TIP3     8495     TIP3     H1       HT       0.417000       1.00800           0
     47867 TIP3     8495     TIP3     H2       HT       0.417000       1.00800           0
     47868 TIP3     8496     TIP3     OH2      OT      -0.834000       15.9994           0
     47869 TIP3     8496     TIP3     H1       HT       0.417000       1.00800           0
     47870 TIP3     8496     TIP3     H2       HT       0.417000       1.00800           0
     47871 TIP3     8497     TIP3     OH2      OT      -0.834000       15.9994           0
     47872 TIP3     8497     TIP3     H1       HT       0.417000       1.00800           0
     47873 TIP3     8497     TIP3     H2       HT       0.417000       1.00800           0
     47874 TIP3     8498     TIP3     OH2      OT      -0.834000       15.9994           0
     47875 TIP3     8498     TIP3     H1       HT       0.417000       1.00800           0
     47876 TIP3     8498     TIP3     H2       HT       0.417000       1.00800           0
     47877 TIP3     8499     TIP3     OH2      OT      -0.834000       15.9994           0
     47878 TIP3     8499     TIP3     H1       HT       0.417000       1.00800           0
     47879 TIP3     8499     TIP3     H2       HT       0.417000       1.00800           0
     47880 TIP3     8500     TIP3     OH2      OT      -0.834000       15.9994           0
     47881 TIP3     8500     TIP3     H1       HT       0.417000       1.00800           0
     47882 TIP3     8500     TIP3     H2       HT       0.417000       1.00800           0
     47883 TIP3     8501     TIP3     OH2      OT      -0.834000       15.9994           0
     47884 TIP3     8501     TIP3     H1       HT       0.417000       1.00800           0
     47885 TIP3     8501     TIP3     H2       HT       0.417000       1.00800           0
     47886 TIP3     8502     TIP3     OH2      OT      -0.834000       15.9994           0
     47887 TIP3     8502     TIP3     H1       HT       0.417000       1.00800           0
     47888 TIP3     8502     TIP3     H2       HT       0.417000       1.00800           0
     47889 TIP3     8503     TIP3     OH2      OT      -0.834000       15.9994           0
     47890 TIP3     8503     TIP3     H1       HT       0.417000       1.00800           0
     47891 TIP3     8503     TIP3     H2       HT       0.417000       1.00800           0
     47892 TIP3     8504     TIP3     OH2      OT      -0.834000       15.9994           0
     47893 TIP3     8504     TIP3     H1       HT       0.417000       1.00800           0
     47894 TIP3     8504     TIP3     H2       HT       0.417000       1.00800           0
     47895 TIP3     8505     TIP3     OH2      OT      -0.834000       15.9994           0
     47896 TIP3     8505     TIP3     H1       HT       0.417000       1.00800           0
     47897 TIP3     8505     TIP3     H2       HT       0.417000       1.00800           0
     47898 TIP3     8506     TIP3     OH2      OT      -0.834000       15.9994           0
     47899 TIP3     8506     TIP3     H1       HT       0.417000       1.00800           0
     47900 TIP3     8506     TIP3     H2       HT       0.417000       1.00800           0
     47901 TIP3     8507     TIP3     OH2      OT      -0.834000       15.9994           0
     47902 TIP3     8507     TIP3     H1       HT       0.417000       1.00800           0
     47903 TIP3     8507     TIP3     H2       HT       0.417000       1.00800           0
     47904 TIP3     8508     TIP3     OH2      OT      -0.834000       15.9994           0
     47905 TIP3     8508     TIP3     H1       HT       0.417000       1.00800           0
     47906 TIP3     8508     TIP3     H2       HT       0.417000       1.00800           0
     47907 TIP3     8509     TIP3     OH2      OT      -0.834000       15.9994           0
     47908 TIP3     8509     TIP3     H1       HT       0.417000       1.00800           0
     47909 TIP3     8509     TIP3     H2       HT       0.417000       1.00800           0
     47910 TIP3     8510     TIP3     OH2      OT      -0.834000       15.9994           0
     47911 TIP3     8510     TIP3     H1       HT       0.417000       1.00800           0
     47912 TIP3     8510     TIP3     H2       HT       0.417000       1.00800           0
     47913 TIP3     8511     TIP3     OH2      OT      -0.834000       15.9994           0
     47914 TIP3     8511     TIP3     H1       HT       0.417000       1.00800           0
     47915 TIP3     8511     TIP3     H2       HT       0.417000       1.00800           0
     47916 TIP3     8512     TIP3     OH2      OT      -0.834000       15.9994           0
     47917 TIP3     8512     TIP3     H1       HT       0.417000       1.00800           0
     47918 TIP3     8512     TIP3     H2       HT       0.417000       1.00800           0
     47919 TIP3     8513     TIP3     OH2      OT      -0.834000       15.9994           0
     47920 TIP3     8513     TIP3     H1       HT       0.417000       1.00800           0
     47921 TIP3     8513     TIP3     H2       HT       0.417000       1.00800           0
     47922 TIP3     8514     TIP3     OH2      OT      -0.834000       15.9994           0
     47923 TIP3     8514     TIP3     H1       HT       0.417000       1.00800           0
     47924 TIP3     8514     TIP3     H2       HT       0.417000       1.00800           0
     47925 TIP3     8515     TIP3     OH2      OT      -0.834000       15.9994           0
     47926 TIP3     8515     TIP3     H1       HT       0.417000       1.00800           0
     47927 TIP3     8515     TIP3     H2       HT       0.417000       1.00800           0
     47928 TIP3     8516     TIP3     OH2      OT      -0.834000       15.9994           0
     47929 TIP3     8516     TIP3     H1       HT       0.417000       1.00800           0
     47930 TIP3     8516     TIP3     H2       HT       0.417000       1.00800           0
     47931 TIP3     8517     TIP3     OH2      OT      -0.834000       15.9994           0
     47932 TIP3     8517     TIP3     H1       HT       0.417000       1.00800           0
     47933 TIP3     8517     TIP3     H2       HT       0.417000       1.00800           0
     47934 TIP3     8518     TIP3     OH2      OT      -0.834000       15.9994           0
     47935 TIP3     8518     TIP3     H1       HT       0.417000       1.00800           0
     47936 TIP3     8518     TIP3     H2       HT       0.417000       1.00800           0
     47937 TIP3     8519     TIP3     OH2      OT      -0.834000       15.9994           0
     47938 TIP3     8519     TIP3     H1       HT       0.417000       1.00800           0
     47939 TIP3     8519     TIP3     H2       HT       0.417000       1.00800           0
     47940 TIP3     8520     TIP3     OH2      OT      -0.834000       15.9994           0
     47941 TIP3     8520     TIP3     H1       HT       0.417000       1.00800           0
     47942 TIP3     8520     TIP3     H2       HT       0.417000       1.00800           0
     47943 TIP3     8521     TIP3     OH2      OT      -0.834000       15.9994           0
     47944 TIP3     8521     TIP3     H1       HT       0.417000       1.00800           0
     47945 TIP3     8521     TIP3     H2       HT       0.417000       1.00800           0
     47946 TIP3     8522     TIP3     OH2      OT      -0.834000       15.9994           0
     47947 TIP3     8522     TIP3     H1       HT       0.417000       1.00800           0
     47948 TIP3     8522     TIP3     H2       HT       0.417000       1.00800           0
     47949 TIP3     8523     TIP3     OH2      OT      -0.834000       15.9994           0
     47950 TIP3     8523     TIP3     H1       HT       0.417000       1.00800           0
     47951 TIP3     8523     TIP3     H2       HT       0.417000       1.00800           0
     47952 TIP3     8524     TIP3     OH2      OT      -0.834000       15.9994           0
     47953 TIP3     8524     TIP3     H1       HT       0.417000       1.00800           0
     47954 TIP3     8524     TIP3     H2       HT       0.417000       1.00800           0
     47955 TIP3     8525     TIP3     OH2      OT      -0.834000       15.9994           0
     47956 TIP3     8525     TIP3     H1       HT       0.417000       1.00800           0
     47957 TIP3     8525     TIP3     H2       HT       0.417000       1.00800           0
     47958 TIP3     8526     TIP3     OH2      OT      -0.834000       15.9994           0
     47959 TIP3     8526     TIP3     H1       HT       0.417000       1.00800           0
     47960 TIP3     8526     TIP3     H2       HT       0.417000       1.00800           0
     47961 TIP3     8527     TIP3     OH2      OT      -0.834000       15.9994           0
     47962 TIP3     8527     TIP3     H1       HT       0.417000       1.00800           0
     47963 TIP3     8527     TIP3     H2       HT       0.417000       1.00800           0
     47964 TIP3     8528     TIP3     OH2      OT      -0.834000       15.9994           0
     47965 TIP3     8528     TIP3     H1       HT       0.417000       1.00800           0
     47966 TIP3     8528     TIP3     H2       HT       0.417000       1.00800           0
     47967 TIP3     8529     TIP3     OH2      OT      -0.834000       15.9994           0
     47968 TIP3     8529     TIP3     H1       HT       0.417000       1.00800           0
     47969 TIP3     8529     TIP3     H2       HT       0.417000       1.00800           0
     47970 TIP3     8530     TIP3     OH2      OT      -0.834000       15.9994           0
     47971 TIP3     8530     TIP3     H1       HT       0.417000       1.00800           0
     47972 TIP3     8530     TIP3     H2       HT       0.417000       1.00800           0
     47973 TIP3     8531     TIP3     OH2      OT      -0.834000       15.9994           0
     47974 TIP3     8531     TIP3     H1       HT       0.417000       1.00800           0
     47975 TIP3     8531     TIP3     H2       HT       0.417000       1.00800           0
     47976 TIP3     8532     TIP3     OH2      OT      -0.834000       15.9994           0
     47977 TIP3     8532     TIP3     H1       HT       0.417000       1.00800           0
     47978 TIP3     8532     TIP3     H2       HT       0.417000       1.00800           0
     47979 TIP3     8533     TIP3     OH2      OT      -0.834000       15.9994           0
     47980 TIP3     8533     TIP3     H1       HT       0.417000       1.00800           0
     47981 TIP3     8533     TIP3     H2       HT       0.417000       1.00800           0
     47982 TIP3     8534     TIP3     OH2      OT      -0.834000       15.9994           0
     47983 TIP3     8534     TIP3     H1       HT       0.417000       1.00800           0
     47984 TIP3     8534     TIP3     H2       HT       0.417000       1.00800           0
     47985 TIP3     8535     TIP3     OH2      OT      -0.834000       15.9994           0
     47986 TIP3     8535     TIP3     H1       HT       0.417000       1.00800           0
     47987 TIP3     8535     TIP3     H2       HT       0.417000       1.00800           0
     47988 TIP3     8536     TIP3     OH2      OT      -0.834000       15.9994           0
     47989 TIP3     8536     TIP3     H1       HT       0.417000       1.00800           0
     47990 TIP3     8536     TIP3     H2       HT       0.417000       1.00800           0
     47991 TIP3     8537     TIP3     OH2      OT      -0.834000       15.9994           0
     47992 TIP3     8537     TIP3     H1       HT       0.417000       1.00800           0
     47993 TIP3     8537     TIP3     H2       HT       0.417000       1.00800           0
     47994 TIP3     8538     TIP3     OH2      OT      -0.834000       15.9994           0
     47995 TIP3     8538     TIP3     H1       HT       0.417000       1.00800           0
     47996 TIP3     8538     TIP3     H2       HT       0.417000       1.00800           0
     47997 TIP3     8539     TIP3     OH2      OT      -0.834000       15.9994           0
     47998 TIP3     8539     TIP3     H1       HT       0.417000       1.00800           0
     47999 TIP3     8539     TIP3     H2       HT       0.417000       1.00800           0
     48000 TIP3     8540     TIP3     OH2      OT      -0.834000       15.9994           0
     48001 TIP3     8540     TIP3     H1       HT       0.417000       1.00800           0
     48002 TIP3     8540     TIP3     H2       HT       0.417000       1.00800           0
     48003 TIP3     8541     TIP3     OH2      OT      -0.834000       15.9994           0
     48004 TIP3     8541     TIP3     H1       HT       0.417000       1.00800           0
     48005 TIP3     8541     TIP3     H2       HT       0.417000       1.00800           0
     48006 TIP3     8542     TIP3     OH2      OT      -0.834000       15.9994           0
     48007 TIP3     8542     TIP3     H1       HT       0.417000       1.00800           0
     48008 TIP3     8542     TIP3     H2       HT       0.417000       1.00800           0
     48009 TIP3     8543     TIP3     OH2      OT      -0.834000       15.9994           0
     48010 TIP3     8543     TIP3     H1       HT       0.417000       1.00800           0
     48011 TIP3     8543     TIP3     H2       HT       0.417000       1.00800           0
     48012 TIP3     8544     TIP3     OH2      OT      -0.834000       15.9994           0
     48013 TIP3     8544     TIP3     H1       HT       0.417000       1.00800           0
     48014 TIP3     8544     TIP3     H2       HT       0.417000       1.00800           0
     48015 TIP3     8545     TIP3     OH2      OT      -0.834000       15.9994           0
     48016 TIP3     8545     TIP3     H1       HT       0.417000       1.00800           0
     48017 TIP3     8545     TIP3     H2       HT       0.417000       1.00800           0
     48018 TIP3     8546     TIP3     OH2      OT      -0.834000       15.9994           0
     48019 TIP3     8546     TIP3     H1       HT       0.417000       1.00800           0
     48020 TIP3     8546     TIP3     H2       HT       0.417000       1.00800           0
     48021 TIP3     8547     TIP3     OH2      OT      -0.834000       15.9994           0
     48022 TIP3     8547     TIP3     H1       HT       0.417000       1.00800           0
     48023 TIP3     8547     TIP3     H2       HT       0.417000       1.00800           0
     48024 TIP3     8548     TIP3     OH2      OT      -0.834000       15.9994           0
     48025 TIP3     8548     TIP3     H1       HT       0.417000       1.00800           0
     48026 TIP3     8548     TIP3     H2       HT       0.417000       1.00800           0
     48027 TIP3     8549     TIP3     OH2      OT      -0.834000       15.9994           0
     48028 TIP3     8549     TIP3     H1       HT       0.417000       1.00800           0
     48029 TIP3     8549     TIP3     H2       HT       0.417000       1.00800           0
     48030 TIP3     8550     TIP3     OH2      OT      -0.834000       15.9994           0
     48031 TIP3     8550     TIP3     H1       HT       0.417000       1.00800           0
     48032 TIP3     8550     TIP3     H2       HT       0.417000       1.00800           0
     48033 TIP3     8551     TIP3     OH2      OT      -0.834000       15.9994           0
     48034 TIP3     8551     TIP3     H1       HT       0.417000       1.00800           0
     48035 TIP3     8551     TIP3     H2       HT       0.417000       1.00800           0
     48036 TIP3     8552     TIP3     OH2      OT      -0.834000       15.9994           0
     48037 TIP3     8552     TIP3     H1       HT       0.417000       1.00800           0
     48038 TIP3     8552     TIP3     H2       HT       0.417000       1.00800           0
     48039 TIP3     8553     TIP3     OH2      OT      -0.834000       15.9994           0
     48040 TIP3     8553     TIP3     H1       HT       0.417000       1.00800           0
     48041 TIP3     8553     TIP3     H2       HT       0.417000       1.00800           0
     48042 TIP3     8554     TIP3     OH2      OT      -0.834000       15.9994           0
     48043 TIP3     8554     TIP3     H1       HT       0.417000       1.00800           0
     48044 TIP3     8554     TIP3     H2       HT       0.417000       1.00800           0
     48045 TIP3     8555     TIP3     OH2      OT      -0.834000       15.9994           0
     48046 TIP3     8555     TIP3     H1       HT       0.417000       1.00800           0
     48047 TIP3     8555     TIP3     H2       HT       0.417000       1.00800           0
     48048 TIP3     8556     TIP3     OH2      OT      -0.834000       15.9994           0
     48049 TIP3     8556     TIP3     H1       HT       0.417000       1.00800           0
     48050 TIP3     8556     TIP3     H2       HT       0.417000       1.00800           0
     48051 TIP3     8557     TIP3     OH2      OT      -0.834000       15.9994           0
     48052 TIP3     8557     TIP3     H1       HT       0.417000       1.00800           0
     48053 TIP3     8557     TIP3     H2       HT       0.417000       1.00800           0
     48054 TIP3     8558     TIP3     OH2      OT      -0.834000       15.9994           0
     48055 TIP3     8558     TIP3     H1       HT       0.417000       1.00800           0
     48056 TIP3     8558     TIP3     H2       HT       0.417000       1.00800           0
     48057 TIP3     8559     TIP3     OH2      OT      -0.834000       15.9994           0
     48058 TIP3     8559     TIP3     H1       HT       0.417000       1.00800           0
     48059 TIP3     8559     TIP3     H2       HT       0.417000       1.00800           0
     48060 TIP3     8560     TIP3     OH2      OT      -0.834000       15.9994           0
     48061 TIP3     8560     TIP3     H1       HT       0.417000       1.00800           0
     48062 TIP3     8560     TIP3     H2       HT       0.417000       1.00800           0
     48063 TIP3     8561     TIP3     OH2      OT      -0.834000       15.9994           0
     48064 TIP3     8561     TIP3     H1       HT       0.417000       1.00800           0
     48065 TIP3     8561     TIP3     H2       HT       0.417000       1.00800           0
     48066 TIP3     8562     TIP3     OH2      OT      -0.834000       15.9994           0
     48067 TIP3     8562     TIP3     H1       HT       0.417000       1.00800           0
     48068 TIP3     8562     TIP3     H2       HT       0.417000       1.00800           0
     48069 TIP3     8563     TIP3     OH2      OT      -0.834000       15.9994           0
     48070 TIP3     8563     TIP3     H1       HT       0.417000       1.00800           0
     48071 TIP3     8563     TIP3     H2       HT       0.417000       1.00800           0
     48072 TIP3     8564     TIP3     OH2      OT      -0.834000       15.9994           0
     48073 TIP3     8564     TIP3     H1       HT       0.417000       1.00800           0
     48074 TIP3     8564     TIP3     H2       HT       0.417000       1.00800           0
     48075 TIP3     8565     TIP3     OH2      OT      -0.834000       15.9994           0
     48076 TIP3     8565     TIP3     H1       HT       0.417000       1.00800           0
     48077 TIP3     8565     TIP3     H2       HT       0.417000       1.00800           0
     48078 TIP3     8566     TIP3     OH2      OT      -0.834000       15.9994           0
     48079 TIP3     8566     TIP3     H1       HT       0.417000       1.00800           0
     48080 TIP3     8566     TIP3     H2       HT       0.417000       1.00800           0
     48081 TIP3     8567     TIP3     OH2      OT      -0.834000       15.9994           0
     48082 TIP3     8567     TIP3     H1       HT       0.417000       1.00800           0
     48083 TIP3     8567     TIP3     H2       HT       0.417000       1.00800           0
     48084 TIP3     8568     TIP3     OH2      OT      -0.834000       15.9994           0
     48085 TIP3     8568     TIP3     H1       HT       0.417000       1.00800           0
     48086 TIP3     8568     TIP3     H2       HT       0.417000       1.00800           0
     48087 TIP3     8569     TIP3     OH2      OT      -0.834000       15.9994           0
     48088 TIP3     8569     TIP3     H1       HT       0.417000       1.00800           0
     48089 TIP3     8569     TIP3     H2       HT       0.417000       1.00800           0
     48090 TIP3     8570     TIP3     OH2      OT      -0.834000       15.9994           0
     48091 TIP3     8570     TIP3     H1       HT       0.417000       1.00800           0
     48092 TIP3     8570     TIP3     H2       HT       0.417000       1.00800           0
     48093 TIP3     8571     TIP3     OH2      OT      -0.834000       15.9994           0
     48094 TIP3     8571     TIP3     H1       HT       0.417000       1.00800           0
     48095 TIP3     8571     TIP3     H2       HT       0.417000       1.00800           0
     48096 TIP3     8572     TIP3     OH2      OT      -0.834000       15.9994           0
     48097 TIP3     8572     TIP3     H1       HT       0.417000       1.00800           0
     48098 TIP3     8572     TIP3     H2       HT       0.417000       1.00800           0
     48099 TIP3     8573     TIP3     OH2      OT      -0.834000       15.9994           0
     48100 TIP3     8573     TIP3     H1       HT       0.417000       1.00800           0
     48101 TIP3     8573     TIP3     H2       HT       0.417000       1.00800           0
     48102 TIP3     8574     TIP3     OH2      OT      -0.834000       15.9994           0
     48103 TIP3     8574     TIP3     H1       HT       0.417000       1.00800           0
     48104 TIP3     8574     TIP3     H2       HT       0.417000       1.00800           0
     48105 TIP3     8575     TIP3     OH2      OT      -0.834000       15.9994           0
     48106 TIP3     8575     TIP3     H1       HT       0.417000       1.00800           0
     48107 TIP3     8575     TIP3     H2       HT       0.417000       1.00800           0
     48108 TIP3     8576     TIP3     OH2      OT      -0.834000       15.9994           0
     48109 TIP3     8576     TIP3     H1       HT       0.417000       1.00800           0
     48110 TIP3     8576     TIP3     H2       HT       0.417000       1.00800           0
     48111 TIP3     8577     TIP3     OH2      OT      -0.834000       15.9994           0
     48112 TIP3     8577     TIP3     H1       HT       0.417000       1.00800           0
     48113 TIP3     8577     TIP3     H2       HT       0.417000       1.00800           0
     48114 TIP3     8578     TIP3     OH2      OT      -0.834000       15.9994           0
     48115 TIP3     8578     TIP3     H1       HT       0.417000       1.00800           0
     48116 TIP3     8578     TIP3     H2       HT       0.417000       1.00800           0
     48117 TIP3     8579     TIP3     OH2      OT      -0.834000       15.9994           0
     48118 TIP3     8579     TIP3     H1       HT       0.417000       1.00800           0
     48119 TIP3     8579     TIP3     H2       HT       0.417000       1.00800           0
     48120 TIP3     8580     TIP3     OH2      OT      -0.834000       15.9994           0
     48121 TIP3     8580     TIP3     H1       HT       0.417000       1.00800           0
     48122 TIP3     8580     TIP3     H2       HT       0.417000       1.00800           0
     48123 TIP3     8581     TIP3     OH2      OT      -0.834000       15.9994           0
     48124 TIP3     8581     TIP3     H1       HT       0.417000       1.00800           0
     48125 TIP3     8581     TIP3     H2       HT       0.417000       1.00800           0
     48126 TIP3     8582     TIP3     OH2      OT      -0.834000       15.9994           0
     48127 TIP3     8582     TIP3     H1       HT       0.417000       1.00800           0
     48128 TIP3     8582     TIP3     H2       HT       0.417000       1.00800           0
     48129 TIP3     8583     TIP3     OH2      OT      -0.834000       15.9994           0
     48130 TIP3     8583     TIP3     H1       HT       0.417000       1.00800           0
     48131 TIP3     8583     TIP3     H2       HT       0.417000       1.00800           0
     48132 TIP3     8584     TIP3     OH2      OT      -0.834000       15.9994           0
     48133 TIP3     8584     TIP3     H1       HT       0.417000       1.00800           0
     48134 TIP3     8584     TIP3     H2       HT       0.417000       1.00800           0
     48135 TIP3     8585     TIP3     OH2      OT      -0.834000       15.9994           0
     48136 TIP3     8585     TIP3     H1       HT       0.417000       1.00800           0
     48137 TIP3     8585     TIP3     H2       HT       0.417000       1.00800           0
     48138 TIP3     8586     TIP3     OH2      OT      -0.834000       15.9994           0
     48139 TIP3     8586     TIP3     H1       HT       0.417000       1.00800           0
     48140 TIP3     8586     TIP3     H2       HT       0.417000       1.00800           0
     48141 TIP3     8587     TIP3     OH2      OT      -0.834000       15.9994           0
     48142 TIP3     8587     TIP3     H1       HT       0.417000       1.00800           0
     48143 TIP3     8587     TIP3     H2       HT       0.417000       1.00800           0
     48144 TIP3     8588     TIP3     OH2      OT      -0.834000       15.9994           0
     48145 TIP3     8588     TIP3     H1       HT       0.417000       1.00800           0
     48146 TIP3     8588     TIP3     H2       HT       0.417000       1.00800           0
     48147 TIP3     8589     TIP3     OH2      OT      -0.834000       15.9994           0
     48148 TIP3     8589     TIP3     H1       HT       0.417000       1.00800           0
     48149 TIP3     8589     TIP3     H2       HT       0.417000       1.00800           0
     48150 TIP3     8590     TIP3     OH2      OT      -0.834000       15.9994           0
     48151 TIP3     8590     TIP3     H1       HT       0.417000       1.00800           0
     48152 TIP3     8590     TIP3     H2       HT       0.417000       1.00800           0
     48153 TIP3     8591     TIP3     OH2      OT      -0.834000       15.9994           0
     48154 TIP3     8591     TIP3     H1       HT       0.417000       1.00800           0
     48155 TIP3     8591     TIP3     H2       HT       0.417000       1.00800           0
     48156 TIP3     8592     TIP3     OH2      OT      -0.834000       15.9994           0
     48157 TIP3     8592     TIP3     H1       HT       0.417000       1.00800           0
     48158 TIP3     8592     TIP3     H2       HT       0.417000       1.00800           0
     48159 TIP3     8593     TIP3     OH2      OT      -0.834000       15.9994           0
     48160 TIP3     8593     TIP3     H1       HT       0.417000       1.00800           0
     48161 TIP3     8593     TIP3     H2       HT       0.417000       1.00800           0
     48162 TIP3     8594     TIP3     OH2      OT      -0.834000       15.9994           0
     48163 TIP3     8594     TIP3     H1       HT       0.417000       1.00800           0
     48164 TIP3     8594     TIP3     H2       HT       0.417000       1.00800           0
     48165 TIP3     8595     TIP3     OH2      OT      -0.834000       15.9994           0
     48166 TIP3     8595     TIP3     H1       HT       0.417000       1.00800           0
     48167 TIP3     8595     TIP3     H2       HT       0.417000       1.00800           0
     48168 TIP3     8596     TIP3     OH2      OT      -0.834000       15.9994           0
     48169 TIP3     8596     TIP3     H1       HT       0.417000       1.00800           0
     48170 TIP3     8596     TIP3     H2       HT       0.417000       1.00800           0
     48171 TIP3     8597     TIP3     OH2      OT      -0.834000       15.9994           0
     48172 TIP3     8597     TIP3     H1       HT       0.417000       1.00800           0
     48173 TIP3     8597     TIP3     H2       HT       0.417000       1.00800           0
     48174 TIP3     8598     TIP3     OH2      OT      -0.834000       15.9994           0
     48175 TIP3     8598     TIP3     H1       HT       0.417000       1.00800           0
     48176 TIP3     8598     TIP3     H2       HT       0.417000       1.00800           0
     48177 TIP3     8599     TIP3     OH2      OT      -0.834000       15.9994           0
     48178 TIP3     8599     TIP3     H1       HT       0.417000       1.00800           0
     48179 TIP3     8599     TIP3     H2       HT       0.417000       1.00800           0
     48180 TIP3     8600     TIP3     OH2      OT      -0.834000       15.9994           0
     48181 TIP3     8600     TIP3     H1       HT       0.417000       1.00800           0
     48182 TIP3     8600     TIP3     H2       HT       0.417000       1.00800           0
     48183 TIP3     8601     TIP3     OH2      OT      -0.834000       15.9994           0
     48184 TIP3     8601     TIP3     H1       HT       0.417000       1.00800           0
     48185 TIP3     8601     TIP3     H2       HT       0.417000       1.00800           0
     48186 TIP3     8602     TIP3     OH2      OT      -0.834000       15.9994           0
     48187 TIP3     8602     TIP3     H1       HT       0.417000       1.00800           0
     48188 TIP3     8602     TIP3     H2       HT       0.417000       1.00800           0
     48189 TIP3     8603     TIP3     OH2      OT      -0.834000       15.9994           0
     48190 TIP3     8603     TIP3     H1       HT       0.417000       1.00800           0
     48191 TIP3     8603     TIP3     H2       HT       0.417000       1.00800           0
     48192 TIP3     8604     TIP3     OH2      OT      -0.834000       15.9994           0
     48193 TIP3     8604     TIP3     H1       HT       0.417000       1.00800           0
     48194 TIP3     8604     TIP3     H2       HT       0.417000       1.00800           0
     48195 TIP3     8605     TIP3     OH2      OT      -0.834000       15.9994           0
     48196 TIP3     8605     TIP3     H1       HT       0.417000       1.00800           0
     48197 TIP3     8605     TIP3     H2       HT       0.417000       1.00800           0
     48198 TIP3     8606     TIP3     OH2      OT      -0.834000       15.9994           0
     48199 TIP3     8606     TIP3     H1       HT       0.417000       1.00800           0
     48200 TIP3     8606     TIP3     H2       HT       0.417000       1.00800           0
     48201 TIP3     8607     TIP3     OH2      OT      -0.834000       15.9994           0
     48202 TIP3     8607     TIP3     H1       HT       0.417000       1.00800           0
     48203 TIP3     8607     TIP3     H2       HT       0.417000       1.00800           0
     48204 TIP3     8608     TIP3     OH2      OT      -0.834000       15.9994           0
     48205 TIP3     8608     TIP3     H1       HT       0.417000       1.00800           0
     48206 TIP3     8608     TIP3     H2       HT       0.417000       1.00800           0
     48207 TIP3     8609     TIP3     OH2      OT      -0.834000       15.9994           0
     48208 TIP3     8609     TIP3     H1       HT       0.417000       1.00800           0
     48209 TIP3     8609     TIP3     H2       HT       0.417000       1.00800           0
     48210 TIP3     8610     TIP3     OH2      OT      -0.834000       15.9994           0
     48211 TIP3     8610     TIP3     H1       HT       0.417000       1.00800           0
     48212 TIP3     8610     TIP3     H2       HT       0.417000       1.00800           0
     48213 TIP3     8611     TIP3     OH2      OT      -0.834000       15.9994           0
     48214 TIP3     8611     TIP3     H1       HT       0.417000       1.00800           0
     48215 TIP3     8611     TIP3     H2       HT       0.417000       1.00800           0
     48216 TIP3     8612     TIP3     OH2      OT      -0.834000       15.9994           0
     48217 TIP3     8612     TIP3     H1       HT       0.417000       1.00800           0
     48218 TIP3     8612     TIP3     H2       HT       0.417000       1.00800           0
     48219 TIP3     8613     TIP3     OH2      OT      -0.834000       15.9994           0
     48220 TIP3     8613     TIP3     H1       HT       0.417000       1.00800           0
     48221 TIP3     8613     TIP3     H2       HT       0.417000       1.00800           0
     48222 TIP3     8614     TIP3     OH2      OT      -0.834000       15.9994           0
     48223 TIP3     8614     TIP3     H1       HT       0.417000       1.00800           0
     48224 TIP3     8614     TIP3     H2       HT       0.417000       1.00800           0
     48225 TIP3     8615     TIP3     OH2      OT      -0.834000       15.9994           0
     48226 TIP3     8615     TIP3     H1       HT       0.417000       1.00800           0
     48227 TIP3     8615     TIP3     H2       HT       0.417000       1.00800           0
     48228 TIP3     8616     TIP3     OH2      OT      -0.834000       15.9994           0
     48229 TIP3     8616     TIP3     H1       HT       0.417000       1.00800           0
     48230 TIP3     8616     TIP3     H2       HT       0.417000       1.00800           0
     48231 TIP3     8617     TIP3     OH2      OT      -0.834000       15.9994           0
     48232 TIP3     8617     TIP3     H1       HT       0.417000       1.00800           0
     48233 TIP3     8617     TIP3     H2       HT       0.417000       1.00800           0
     48234 TIP3     8618     TIP3     OH2      OT      -0.834000       15.9994           0
     48235 TIP3     8618     TIP3     H1       HT       0.417000       1.00800           0
     48236 TIP3     8618     TIP3     H2       HT       0.417000       1.00800           0
     48237 TIP3     8619     TIP3     OH2      OT      -0.834000       15.9994           0
     48238 TIP3     8619     TIP3     H1       HT       0.417000       1.00800           0
     48239 TIP3     8619     TIP3     H2       HT       0.417000       1.00800           0
     48240 TIP3     8620     TIP3     OH2      OT      -0.834000       15.9994           0
     48241 TIP3     8620     TIP3     H1       HT       0.417000       1.00800           0
     48242 TIP3     8620     TIP3     H2       HT       0.417000       1.00800           0
     48243 TIP3     8621     TIP3     OH2      OT      -0.834000       15.9994           0
     48244 TIP3     8621     TIP3     H1       HT       0.417000       1.00800           0
     48245 TIP3     8621     TIP3     H2       HT       0.417000       1.00800           0
     48246 TIP3     8622     TIP3     OH2      OT      -0.834000       15.9994           0
     48247 TIP3     8622     TIP3     H1       HT       0.417000       1.00800           0
     48248 TIP3     8622     TIP3     H2       HT       0.417000       1.00800           0
     48249 TIP3     8623     TIP3     OH2      OT      -0.834000       15.9994           0
     48250 TIP3     8623     TIP3     H1       HT       0.417000       1.00800           0
     48251 TIP3     8623     TIP3     H2       HT       0.417000       1.00800           0
     48252 TIP3     8624     TIP3     OH2      OT      -0.834000       15.9994           0
     48253 TIP3     8624     TIP3     H1       HT       0.417000       1.00800           0
     48254 TIP3     8624     TIP3     H2       HT       0.417000       1.00800           0
     48255 TIP3     8625     TIP3     OH2      OT      -0.834000       15.9994           0
     48256 TIP3     8625     TIP3     H1       HT       0.417000       1.00800           0
     48257 TIP3     8625     TIP3     H2       HT       0.417000       1.00800           0
     48258 TIP3     8626     TIP3     OH2      OT      -0.834000       15.9994           0
     48259 TIP3     8626     TIP3     H1       HT       0.417000       1.00800           0
     48260 TIP3     8626     TIP3     H2       HT       0.417000       1.00800           0
     48261 TIP3     8627     TIP3     OH2      OT      -0.834000       15.9994           0
     48262 TIP3     8627     TIP3     H1       HT       0.417000       1.00800           0
     48263 TIP3     8627     TIP3     H2       HT       0.417000       1.00800           0
     48264 TIP3     8628     TIP3     OH2      OT      -0.834000       15.9994           0
     48265 TIP3     8628     TIP3     H1       HT       0.417000       1.00800           0
     48266 TIP3     8628     TIP3     H2       HT       0.417000       1.00800           0
     48267 TIP3     8629     TIP3     OH2      OT      -0.834000       15.9994           0
     48268 TIP3     8629     TIP3     H1       HT       0.417000       1.00800           0
     48269 TIP3     8629     TIP3     H2       HT       0.417000       1.00800           0
     48270 TIP3     8630     TIP3     OH2      OT      -0.834000       15.9994           0
     48271 TIP3     8630     TIP3     H1       HT       0.417000       1.00800           0
     48272 TIP3     8630     TIP3     H2       HT       0.417000       1.00800           0
     48273 TIP3     8631     TIP3     OH2      OT      -0.834000       15.9994           0
     48274 TIP3     8631     TIP3     H1       HT       0.417000       1.00800           0
     48275 TIP3     8631     TIP3     H2       HT       0.417000       1.00800           0
     48276 TIP3     8632     TIP3     OH2      OT      -0.834000       15.9994           0
     48277 TIP3     8632     TIP3     H1       HT       0.417000       1.00800           0
     48278 TIP3     8632     TIP3     H2       HT       0.417000       1.00800           0
     48279 TIP3     8633     TIP3     OH2      OT      -0.834000       15.9994           0
     48280 TIP3     8633     TIP3     H1       HT       0.417000       1.00800           0
     48281 TIP3     8633     TIP3     H2       HT       0.417000       1.00800           0
     48282 TIP3     8634     TIP3     OH2      OT      -0.834000       15.9994           0
     48283 TIP3     8634     TIP3     H1       HT       0.417000       1.00800           0
     48284 TIP3     8634     TIP3     H2       HT       0.417000       1.00800           0
     48285 TIP3     8635     TIP3     OH2      OT      -0.834000       15.9994           0
     48286 TIP3     8635     TIP3     H1       HT       0.417000       1.00800           0
     48287 TIP3     8635     TIP3     H2       HT       0.417000       1.00800           0
     48288 TIP3     8636     TIP3     OH2      OT      -0.834000       15.9994           0
     48289 TIP3     8636     TIP3     H1       HT       0.417000       1.00800           0
     48290 TIP3     8636     TIP3     H2       HT       0.417000       1.00800           0
     48291 TIP3     8637     TIP3     OH2      OT      -0.834000       15.9994           0
     48292 TIP3     8637     TIP3     H1       HT       0.417000       1.00800           0
     48293 TIP3     8637     TIP3     H2       HT       0.417000       1.00800           0
     48294 TIP3     8638     TIP3     OH2      OT      -0.834000       15.9994           0
     48295 TIP3     8638     TIP3     H1       HT       0.417000       1.00800           0
     48296 TIP3     8638     TIP3     H2       HT       0.417000       1.00800           0
     48297 TIP3     8639     TIP3     OH2      OT      -0.834000       15.9994           0
     48298 TIP3     8639     TIP3     H1       HT       0.417000       1.00800           0
     48299 TIP3     8639     TIP3     H2       HT       0.417000       1.00800           0
     48300 TIP3     8640     TIP3     OH2      OT      -0.834000       15.9994           0
     48301 TIP3     8640     TIP3     H1       HT       0.417000       1.00800           0
     48302 TIP3     8640     TIP3     H2       HT       0.417000       1.00800           0
     48303 TIP3     8641     TIP3     OH2      OT      -0.834000       15.9994           0
     48304 TIP3     8641     TIP3     H1       HT       0.417000       1.00800           0
     48305 TIP3     8641     TIP3     H2       HT       0.417000       1.00800           0
     48306 TIP3     8642     TIP3     OH2      OT      -0.834000       15.9994           0
     48307 TIP3     8642     TIP3     H1       HT       0.417000       1.00800           0
     48308 TIP3     8642     TIP3     H2       HT       0.417000       1.00800           0
     48309 TIP3     8643     TIP3     OH2      OT      -0.834000       15.9994           0
     48310 TIP3     8643     TIP3     H1       HT       0.417000       1.00800           0
     48311 TIP3     8643     TIP3     H2       HT       0.417000       1.00800           0
     48312 TIP3     8644     TIP3     OH2      OT      -0.834000       15.9994           0
     48313 TIP3     8644     TIP3     H1       HT       0.417000       1.00800           0
     48314 TIP3     8644     TIP3     H2       HT       0.417000       1.00800           0
     48315 TIP3     8645     TIP3     OH2      OT      -0.834000       15.9994           0
     48316 TIP3     8645     TIP3     H1       HT       0.417000       1.00800           0
     48317 TIP3     8645     TIP3     H2       HT       0.417000       1.00800           0
     48318 TIP3     8646     TIP3     OH2      OT      -0.834000       15.9994           0
     48319 TIP3     8646     TIP3     H1       HT       0.417000       1.00800           0
     48320 TIP3     8646     TIP3     H2       HT       0.417000       1.00800           0
     48321 TIP3     8647     TIP3     OH2      OT      -0.834000       15.9994           0
     48322 TIP3     8647     TIP3     H1       HT       0.417000       1.00800           0
     48323 TIP3     8647     TIP3     H2       HT       0.417000       1.00800           0
     48324 TIP3     8648     TIP3     OH2      OT      -0.834000       15.9994           0
     48325 TIP3     8648     TIP3     H1       HT       0.417000       1.00800           0
     48326 TIP3     8648     TIP3     H2       HT       0.417000       1.00800           0
     48327 TIP3     8649     TIP3     OH2      OT      -0.834000       15.9994           0
     48328 TIP3     8649     TIP3     H1       HT       0.417000       1.00800           0
     48329 TIP3     8649     TIP3     H2       HT       0.417000       1.00800           0
     48330 TIP3     8650     TIP3     OH2      OT      -0.834000       15.9994           0
     48331 TIP3     8650     TIP3     H1       HT       0.417000       1.00800           0
     48332 TIP3     8650     TIP3     H2       HT       0.417000       1.00800           0
     48333 TIP3     8651     TIP3     OH2      OT      -0.834000       15.9994           0
     48334 TIP3     8651     TIP3     H1       HT       0.417000       1.00800           0
     48335 TIP3     8651     TIP3     H2       HT       0.417000       1.00800           0
     48336 TIP3     8652     TIP3     OH2      OT      -0.834000       15.9994           0
     48337 TIP3     8652     TIP3     H1       HT       0.417000       1.00800           0
     48338 TIP3     8652     TIP3     H2       HT       0.417000       1.00800           0
     48339 TIP3     8653     TIP3     OH2      OT      -0.834000       15.9994           0
     48340 TIP3     8653     TIP3     H1       HT       0.417000       1.00800           0
     48341 TIP3     8653     TIP3     H2       HT       0.417000       1.00800           0
     48342 TIP3     8654     TIP3     OH2      OT      -0.834000       15.9994           0
     48343 TIP3     8654     TIP3     H1       HT       0.417000       1.00800           0
     48344 TIP3     8654     TIP3     H2       HT       0.417000       1.00800           0
     48345 TIP3     8655     TIP3     OH2      OT      -0.834000       15.9994           0
     48346 TIP3     8655     TIP3     H1       HT       0.417000       1.00800           0
     48347 TIP3     8655     TIP3     H2       HT       0.417000       1.00800           0
     48348 TIP3     8656     TIP3     OH2      OT      -0.834000       15.9994           0
     48349 TIP3     8656     TIP3     H1       HT       0.417000       1.00800           0
     48350 TIP3     8656     TIP3     H2       HT       0.417000       1.00800           0
     48351 TIP3     8657     TIP3     OH2      OT      -0.834000       15.9994           0
     48352 TIP3     8657     TIP3     H1       HT       0.417000       1.00800           0
     48353 TIP3     8657     TIP3     H2       HT       0.417000       1.00800           0
     48354 TIP3     8658     TIP3     OH2      OT      -0.834000       15.9994           0
     48355 TIP3     8658     TIP3     H1       HT       0.417000       1.00800           0
     48356 TIP3     8658     TIP3     H2       HT       0.417000       1.00800           0
     48357 TIP3     8659     TIP3     OH2      OT      -0.834000       15.9994           0
     48358 TIP3     8659     TIP3     H1       HT       0.417000       1.00800           0
     48359 TIP3     8659     TIP3     H2       HT       0.417000       1.00800           0
     48360 TIP3     8660     TIP3     OH2      OT      -0.834000       15.9994           0
     48361 TIP3     8660     TIP3     H1       HT       0.417000       1.00800           0
     48362 TIP3     8660     TIP3     H2       HT       0.417000       1.00800           0
     48363 TIP3     8661     TIP3     OH2      OT      -0.834000       15.9994           0
     48364 TIP3     8661     TIP3     H1       HT       0.417000       1.00800           0
     48365 TIP3     8661     TIP3     H2       HT       0.417000       1.00800           0
     48366 TIP3     8662     TIP3     OH2      OT      -0.834000       15.9994           0
     48367 TIP3     8662     TIP3     H1       HT       0.417000       1.00800           0
     48368 TIP3     8662     TIP3     H2       HT       0.417000       1.00800           0
     48369 TIP3     8663     TIP3     OH2      OT      -0.834000       15.9994           0
     48370 TIP3     8663     TIP3     H1       HT       0.417000       1.00800           0
     48371 TIP3     8663     TIP3     H2       HT       0.417000       1.00800           0
     48372 TIP3     8664     TIP3     OH2      OT      -0.834000       15.9994           0
     48373 TIP3     8664     TIP3     H1       HT       0.417000       1.00800           0
     48374 TIP3     8664     TIP3     H2       HT       0.417000       1.00800           0
     48375 TIP3     8665     TIP3     OH2      OT      -0.834000       15.9994           0
     48376 TIP3     8665     TIP3     H1       HT       0.417000       1.00800           0
     48377 TIP3     8665     TIP3     H2       HT       0.417000       1.00800           0
     48378 TIP3     8666     TIP3     OH2      OT      -0.834000       15.9994           0
     48379 TIP3     8666     TIP3     H1       HT       0.417000       1.00800           0
     48380 TIP3     8666     TIP3     H2       HT       0.417000       1.00800           0
     48381 TIP3     8667     TIP3     OH2      OT      -0.834000       15.9994           0
     48382 TIP3     8667     TIP3     H1       HT       0.417000       1.00800           0
     48383 TIP3     8667     TIP3     H2       HT       0.417000       1.00800           0
     48384 TIP3     8668     TIP3     OH2      OT      -0.834000       15.9994           0
     48385 TIP3     8668     TIP3     H1       HT       0.417000       1.00800           0
     48386 TIP3     8668     TIP3     H2       HT       0.417000       1.00800           0
     48387 TIP3     8669     TIP3     OH2      OT      -0.834000       15.9994           0
     48388 TIP3     8669     TIP3     H1       HT       0.417000       1.00800           0
     48389 TIP3     8669     TIP3     H2       HT       0.417000       1.00800           0
     48390 TIP3     8670     TIP3     OH2      OT      -0.834000       15.9994           0
     48391 TIP3     8670     TIP3     H1       HT       0.417000       1.00800           0
     48392 TIP3     8670     TIP3     H2       HT       0.417000       1.00800           0
     48393 TIP3     8671     TIP3     OH2      OT      -0.834000       15.9994           0
     48394 TIP3     8671     TIP3     H1       HT       0.417000       1.00800           0
     48395 TIP3     8671     TIP3     H2       HT       0.417000       1.00800           0
     48396 TIP3     8672     TIP3     OH2      OT      -0.834000       15.9994           0
     48397 TIP3     8672     TIP3     H1       HT       0.417000       1.00800           0
     48398 TIP3     8672     TIP3     H2       HT       0.417000       1.00800           0
     48399 TIP3     8673     TIP3     OH2      OT      -0.834000       15.9994           0
     48400 TIP3     8673     TIP3     H1       HT       0.417000       1.00800           0
     48401 TIP3     8673     TIP3     H2       HT       0.417000       1.00800           0
     48402 TIP3     8674     TIP3     OH2      OT      -0.834000       15.9994           0
     48403 TIP3     8674     TIP3     H1       HT       0.417000       1.00800           0
     48404 TIP3     8674     TIP3     H2       HT       0.417000       1.00800           0
     48405 TIP3     8675     TIP3     OH2      OT      -0.834000       15.9994           0
     48406 TIP3     8675     TIP3     H1       HT       0.417000       1.00800           0
     48407 TIP3     8675     TIP3     H2       HT       0.417000       1.00800           0
     48408 TIP3     8676     TIP3     OH2      OT      -0.834000       15.9994           0
     48409 TIP3     8676     TIP3     H1       HT       0.417000       1.00800           0
     48410 TIP3     8676     TIP3     H2       HT       0.417000       1.00800           0
     48411 TIP3     8677     TIP3     OH2      OT      -0.834000       15.9994           0
     48412 TIP3     8677     TIP3     H1       HT       0.417000       1.00800           0
     48413 TIP3     8677     TIP3     H2       HT       0.417000       1.00800           0
     48414 TIP3     8678     TIP3     OH2      OT      -0.834000       15.9994           0
     48415 TIP3     8678     TIP3     H1       HT       0.417000       1.00800           0
     48416 TIP3     8678     TIP3     H2       HT       0.417000       1.00800           0
     48417 TIP3     8679     TIP3     OH2      OT      -0.834000       15.9994           0
     48418 TIP3     8679     TIP3     H1       HT       0.417000       1.00800           0
     48419 TIP3     8679     TIP3     H2       HT       0.417000       1.00800           0
     48420 TIP3     8680     TIP3     OH2      OT      -0.834000       15.9994           0
     48421 TIP3     8680     TIP3     H1       HT       0.417000       1.00800           0
     48422 TIP3     8680     TIP3     H2       HT       0.417000       1.00800           0
     48423 TIP3     8681     TIP3     OH2      OT      -0.834000       15.9994           0
     48424 TIP3     8681     TIP3     H1       HT       0.417000       1.00800           0
     48425 TIP3     8681     TIP3     H2       HT       0.417000       1.00800           0
     48426 TIP3     8682     TIP3     OH2      OT      -0.834000       15.9994           0
     48427 TIP3     8682     TIP3     H1       HT       0.417000       1.00800           0
     48428 TIP3     8682     TIP3     H2       HT       0.417000       1.00800           0
     48429 TIP3     8683     TIP3     OH2      OT      -0.834000       15.9994           0
     48430 TIP3     8683     TIP3     H1       HT       0.417000       1.00800           0
     48431 TIP3     8683     TIP3     H2       HT       0.417000       1.00800           0
     48432 TIP3     8684     TIP3     OH2      OT      -0.834000       15.9994           0
     48433 TIP3     8684     TIP3     H1       HT       0.417000       1.00800           0
     48434 TIP3     8684     TIP3     H2       HT       0.417000       1.00800           0
     48435 TIP3     8685     TIP3     OH2      OT      -0.834000       15.9994           0
     48436 TIP3     8685     TIP3     H1       HT       0.417000       1.00800           0
     48437 TIP3     8685     TIP3     H2       HT       0.417000       1.00800           0
     48438 TIP3     8686     TIP3     OH2      OT      -0.834000       15.9994           0
     48439 TIP3     8686     TIP3     H1       HT       0.417000       1.00800           0
     48440 TIP3     8686     TIP3     H2       HT       0.417000       1.00800           0
     48441 TIP3     8687     TIP3     OH2      OT      -0.834000       15.9994           0
     48442 TIP3     8687     TIP3     H1       HT       0.417000       1.00800           0
     48443 TIP3     8687     TIP3     H2       HT       0.417000       1.00800           0
     48444 TIP3     8688     TIP3     OH2      OT      -0.834000       15.9994           0
     48445 TIP3     8688     TIP3     H1       HT       0.417000       1.00800           0
     48446 TIP3     8688     TIP3     H2       HT       0.417000       1.00800           0
     48447 TIP3     8689     TIP3     OH2      OT      -0.834000       15.9994           0
     48448 TIP3     8689     TIP3     H1       HT       0.417000       1.00800           0
     48449 TIP3     8689     TIP3     H2       HT       0.417000       1.00800           0
     48450 TIP3     8690     TIP3     OH2      OT      -0.834000       15.9994           0
     48451 TIP3     8690     TIP3     H1       HT       0.417000       1.00800           0
     48452 TIP3     8690     TIP3     H2       HT       0.417000       1.00800           0
     48453 TIP3     8691     TIP3     OH2      OT      -0.834000       15.9994           0
     48454 TIP3     8691     TIP3     H1       HT       0.417000       1.00800           0
     48455 TIP3     8691     TIP3     H2       HT       0.417000       1.00800           0
     48456 TIP3     8692     TIP3     OH2      OT      -0.834000       15.9994           0
     48457 TIP3     8692     TIP3     H1       HT       0.417000       1.00800           0
     48458 TIP3     8692     TIP3     H2       HT       0.417000       1.00800           0
     48459 TIP3     8693     TIP3     OH2      OT      -0.834000       15.9994           0
     48460 TIP3     8693     TIP3     H1       HT       0.417000       1.00800           0
     48461 TIP3     8693     TIP3     H2       HT       0.417000       1.00800           0
     48462 TIP3     8694     TIP3     OH2      OT      -0.834000       15.9994           0
     48463 TIP3     8694     TIP3     H1       HT       0.417000       1.00800           0
     48464 TIP3     8694     TIP3     H2       HT       0.417000       1.00800           0
     48465 TIP3     8695     TIP3     OH2      OT      -0.834000       15.9994           0
     48466 TIP3     8695     TIP3     H1       HT       0.417000       1.00800           0
     48467 TIP3     8695     TIP3     H2       HT       0.417000       1.00800           0
     48468 TIP3     8696     TIP3     OH2      OT      -0.834000       15.9994           0
     48469 TIP3     8696     TIP3     H1       HT       0.417000       1.00800           0
     48470 TIP3     8696     TIP3     H2       HT       0.417000       1.00800           0
     48471 TIP3     8697     TIP3     OH2      OT      -0.834000       15.9994           0
     48472 TIP3     8697     TIP3     H1       HT       0.417000       1.00800           0
     48473 TIP3     8697     TIP3     H2       HT       0.417000       1.00800           0
     48474 TIP3     8698     TIP3     OH2      OT      -0.834000       15.9994           0
     48475 TIP3     8698     TIP3     H1       HT       0.417000       1.00800           0
     48476 TIP3     8698     TIP3     H2       HT       0.417000       1.00800           0
     48477 TIP3     8699     TIP3     OH2      OT      -0.834000       15.9994           0
     48478 TIP3     8699     TIP3     H1       HT       0.417000       1.00800           0
     48479 TIP3     8699     TIP3     H2       HT       0.417000       1.00800           0
     48480 TIP3     8700     TIP3     OH2      OT      -0.834000       15.9994           0
     48481 TIP3     8700     TIP3     H1       HT       0.417000       1.00800           0
     48482 TIP3     8700     TIP3     H2       HT       0.417000       1.00800           0
     48483 TIP3     8701     TIP3     OH2      OT      -0.834000       15.9994           0
     48484 TIP3     8701     TIP3     H1       HT       0.417000       1.00800           0
     48485 TIP3     8701     TIP3     H2       HT       0.417000       1.00800           0
     48486 TIP3     8702     TIP3     OH2      OT      -0.834000       15.9994           0
     48487 TIP3     8702     TIP3     H1       HT       0.417000       1.00800           0
     48488 TIP3     8702     TIP3     H2       HT       0.417000       1.00800           0
     48489 TIP3     8703     TIP3     OH2      OT      -0.834000       15.9994           0
     48490 TIP3     8703     TIP3     H1       HT       0.417000       1.00800           0
     48491 TIP3     8703     TIP3     H2       HT       0.417000       1.00800           0
     48492 TIP3     8704     TIP3     OH2      OT      -0.834000       15.9994           0
     48493 TIP3     8704     TIP3     H1       HT       0.417000       1.00800           0
     48494 TIP3     8704     TIP3     H2       HT       0.417000       1.00800           0
     48495 TIP3     8705     TIP3     OH2      OT      -0.834000       15.9994           0
     48496 TIP3     8705     TIP3     H1       HT       0.417000       1.00800           0
     48497 TIP3     8705     TIP3     H2       HT       0.417000       1.00800           0
     48498 TIP3     8706     TIP3     OH2      OT      -0.834000       15.9994           0
     48499 TIP3     8706     TIP3     H1       HT       0.417000       1.00800           0
     48500 TIP3     8706     TIP3     H2       HT       0.417000       1.00800           0
     48501 TIP3     8707     TIP3     OH2      OT      -0.834000       15.9994           0
     48502 TIP3     8707     TIP3     H1       HT       0.417000       1.00800           0
     48503 TIP3     8707     TIP3     H2       HT       0.417000       1.00800           0
     48504 TIP3     8708     TIP3     OH2      OT      -0.834000       15.9994           0
     48505 TIP3     8708     TIP3     H1       HT       0.417000       1.00800           0
     48506 TIP3     8708     TIP3     H2       HT       0.417000       1.00800           0
     48507 TIP3     8709     TIP3     OH2      OT      -0.834000       15.9994           0
     48508 TIP3     8709     TIP3     H1       HT       0.417000       1.00800           0
     48509 TIP3     8709     TIP3     H2       HT       0.417000       1.00800           0
     48510 TIP3     8710     TIP3     OH2      OT      -0.834000       15.9994           0
     48511 TIP3     8710     TIP3     H1       HT       0.417000       1.00800           0
     48512 TIP3     8710     TIP3     H2       HT       0.417000       1.00800           0
     48513 TIP3     8711     TIP3     OH2      OT      -0.834000       15.9994           0
     48514 TIP3     8711     TIP3     H1       HT       0.417000       1.00800           0
     48515 TIP3     8711     TIP3     H2       HT       0.417000       1.00800           0
     48516 TIP3     8712     TIP3     OH2      OT      -0.834000       15.9994           0
     48517 TIP3     8712     TIP3     H1       HT       0.417000       1.00800           0
     48518 TIP3     8712     TIP3     H2       HT       0.417000       1.00800           0
     48519 TIP3     8713     TIP3     OH2      OT      -0.834000       15.9994           0
     48520 TIP3     8713     TIP3     H1       HT       0.417000       1.00800           0
     48521 TIP3     8713     TIP3     H2       HT       0.417000       1.00800           0
     48522 TIP3     8714     TIP3     OH2      OT      -0.834000       15.9994           0
     48523 TIP3     8714     TIP3     H1       HT       0.417000       1.00800           0
     48524 TIP3     8714     TIP3     H2       HT       0.417000       1.00800           0
     48525 TIP3     8715     TIP3     OH2      OT      -0.834000       15.9994           0
     48526 TIP3     8715     TIP3     H1       HT       0.417000       1.00800           0
     48527 TIP3     8715     TIP3     H2       HT       0.417000       1.00800           0
     48528 TIP3     8716     TIP3     OH2      OT      -0.834000       15.9994           0
     48529 TIP3     8716     TIP3     H1       HT       0.417000       1.00800           0
     48530 TIP3     8716     TIP3     H2       HT       0.417000       1.00800           0
     48531 TIP3     8717     TIP3     OH2      OT      -0.834000       15.9994           0
     48532 TIP3     8717     TIP3     H1       HT       0.417000       1.00800           0
     48533 TIP3     8717     TIP3     H2       HT       0.417000       1.00800           0
     48534 TIP3     8718     TIP3     OH2      OT      -0.834000       15.9994           0
     48535 TIP3     8718     TIP3     H1       HT       0.417000       1.00800           0
     48536 TIP3     8718     TIP3     H2       HT       0.417000       1.00800           0
     48537 TIP3     8719     TIP3     OH2      OT      -0.834000       15.9994           0
     48538 TIP3     8719     TIP3     H1       HT       0.417000       1.00800           0
     48539 TIP3     8719     TIP3     H2       HT       0.417000       1.00800           0
     48540 TIP3     8720     TIP3     OH2      OT      -0.834000       15.9994           0
     48541 TIP3     8720     TIP3     H1       HT       0.417000       1.00800           0
     48542 TIP3     8720     TIP3     H2       HT       0.417000       1.00800           0
     48543 TIP3     8721     TIP3     OH2      OT      -0.834000       15.9994           0
     48544 TIP3     8721     TIP3     H1       HT       0.417000       1.00800           0
     48545 TIP3     8721     TIP3     H2       HT       0.417000       1.00800           0
     48546 TIP3     8722     TIP3     OH2      OT      -0.834000       15.9994           0
     48547 TIP3     8722     TIP3     H1       HT       0.417000       1.00800           0
     48548 TIP3     8722     TIP3     H2       HT       0.417000       1.00800           0
     48549 TIP3     8723     TIP3     OH2      OT      -0.834000       15.9994           0
     48550 TIP3     8723     TIP3     H1       HT       0.417000       1.00800           0
     48551 TIP3     8723     TIP3     H2       HT       0.417000       1.00800           0
     48552 TIP3     8724     TIP3     OH2      OT      -0.834000       15.9994           0
     48553 TIP3     8724     TIP3     H1       HT       0.417000       1.00800           0
     48554 TIP3     8724     TIP3     H2       HT       0.417000       1.00800           0
     48555 TIP3     8725     TIP3     OH2      OT      -0.834000       15.9994           0
     48556 TIP3     8725     TIP3     H1       HT       0.417000       1.00800           0
     48557 TIP3     8725     TIP3     H2       HT       0.417000       1.00800           0
     48558 TIP3     8726     TIP3     OH2      OT      -0.834000       15.9994           0
     48559 TIP3     8726     TIP3     H1       HT       0.417000       1.00800           0
     48560 TIP3     8726     TIP3     H2       HT       0.417000       1.00800           0
     48561 TIP3     8727     TIP3     OH2      OT      -0.834000       15.9994           0
     48562 TIP3     8727     TIP3     H1       HT       0.417000       1.00800           0
     48563 TIP3     8727     TIP3     H2       HT       0.417000       1.00800           0
     48564 TIP3     8728     TIP3     OH2      OT      -0.834000       15.9994           0
     48565 TIP3     8728     TIP3     H1       HT       0.417000       1.00800           0
     48566 TIP3     8728     TIP3     H2       HT       0.417000       1.00800           0
     48567 TIP3     8729     TIP3     OH2      OT      -0.834000       15.9994           0
     48568 TIP3     8729     TIP3     H1       HT       0.417000       1.00800           0
     48569 TIP3     8729     TIP3     H2       HT       0.417000       1.00800           0
     48570 TIP3     8730     TIP3     OH2      OT      -0.834000       15.9994           0
     48571 TIP3     8730     TIP3     H1       HT       0.417000       1.00800           0
     48572 TIP3     8730     TIP3     H2       HT       0.417000       1.00800           0
     48573 TIP3     8731     TIP3     OH2      OT      -0.834000       15.9994           0
     48574 TIP3     8731     TIP3     H1       HT       0.417000       1.00800           0
     48575 TIP3     8731     TIP3     H2       HT       0.417000       1.00800           0
     48576 TIP3     8732     TIP3     OH2      OT      -0.834000       15.9994           0
     48577 TIP3     8732     TIP3     H1       HT       0.417000       1.00800           0
     48578 TIP3     8732     TIP3     H2       HT       0.417000       1.00800           0
     48579 TIP3     8733     TIP3     OH2      OT      -0.834000       15.9994           0
     48580 TIP3     8733     TIP3     H1       HT       0.417000       1.00800           0
     48581 TIP3     8733     TIP3     H2       HT       0.417000       1.00800           0
     48582 TIP3     8734     TIP3     OH2      OT      -0.834000       15.9994           0
     48583 TIP3     8734     TIP3     H1       HT       0.417000       1.00800           0
     48584 TIP3     8734     TIP3     H2       HT       0.417000       1.00800           0
     48585 TIP3     8735     TIP3     OH2      OT      -0.834000       15.9994           0
     48586 TIP3     8735     TIP3     H1       HT       0.417000       1.00800           0
     48587 TIP3     8735     TIP3     H2       HT       0.417000       1.00800           0
     48588 TIP3     8736     TIP3     OH2      OT      -0.834000       15.9994           0
     48589 TIP3     8736     TIP3     H1       HT       0.417000       1.00800           0
     48590 TIP3     8736     TIP3     H2       HT       0.417000       1.00800           0
     48591 TIP3     8737     TIP3     OH2      OT      -0.834000       15.9994           0
     48592 TIP3     8737     TIP3     H1       HT       0.417000       1.00800           0
     48593 TIP3     8737     TIP3     H2       HT       0.417000       1.00800           0
     48594 TIP3     8738     TIP3     OH2      OT      -0.834000       15.9994           0
     48595 TIP3     8738     TIP3     H1       HT       0.417000       1.00800           0
     48596 TIP3     8738     TIP3     H2       HT       0.417000       1.00800           0
     48597 TIP3     8739     TIP3     OH2      OT      -0.834000       15.9994           0
     48598 TIP3     8739     TIP3     H1       HT       0.417000       1.00800           0
     48599 TIP3     8739     TIP3     H2       HT       0.417000       1.00800           0
     48600 TIP3     8740     TIP3     OH2      OT      -0.834000       15.9994           0
     48601 TIP3     8740     TIP3     H1       HT       0.417000       1.00800           0
     48602 TIP3     8740     TIP3     H2       HT       0.417000       1.00800           0
     48603 TIP3     8741     TIP3     OH2      OT      -0.834000       15.9994           0
     48604 TIP3     8741     TIP3     H1       HT       0.417000       1.00800           0
     48605 TIP3     8741     TIP3     H2       HT       0.417000       1.00800           0
     48606 TIP3     8742     TIP3     OH2      OT      -0.834000       15.9994           0
     48607 TIP3     8742     TIP3     H1       HT       0.417000       1.00800           0
     48608 TIP3     8742     TIP3     H2       HT       0.417000       1.00800           0
     48609 TIP3     8743     TIP3     OH2      OT      -0.834000       15.9994           0
     48610 TIP3     8743     TIP3     H1       HT       0.417000       1.00800           0
     48611 TIP3     8743     TIP3     H2       HT       0.417000       1.00800           0
     48612 TIP3     8744     TIP3     OH2      OT      -0.834000       15.9994           0
     48613 TIP3     8744     TIP3     H1       HT       0.417000       1.00800           0
     48614 TIP3     8744     TIP3     H2       HT       0.417000       1.00800           0
     48615 TIP3     8745     TIP3     OH2      OT      -0.834000       15.9994           0
     48616 TIP3     8745     TIP3     H1       HT       0.417000       1.00800           0
     48617 TIP3     8745     TIP3     H2       HT       0.417000       1.00800           0
     48618 TIP3     8746     TIP3     OH2      OT      -0.834000       15.9994           0
     48619 TIP3     8746     TIP3     H1       HT       0.417000       1.00800           0
     48620 TIP3     8746     TIP3     H2       HT       0.417000       1.00800           0
     48621 TIP3     8747     TIP3     OH2      OT      -0.834000       15.9994           0
     48622 TIP3     8747     TIP3     H1       HT       0.417000       1.00800           0
     48623 TIP3     8747     TIP3     H2       HT       0.417000       1.00800           0
     48624 TIP3     8748     TIP3     OH2      OT      -0.834000       15.9994           0
     48625 TIP3     8748     TIP3     H1       HT       0.417000       1.00800           0
     48626 TIP3     8748     TIP3     H2       HT       0.417000       1.00800           0
     48627 TIP3     8749     TIP3     OH2      OT      -0.834000       15.9994           0
     48628 TIP3     8749     TIP3     H1       HT       0.417000       1.00800           0
     48629 TIP3     8749     TIP3     H2       HT       0.417000       1.00800           0
     48630 TIP3     8750     TIP3     OH2      OT      -0.834000       15.9994           0
     48631 TIP3     8750     TIP3     H1       HT       0.417000       1.00800           0
     48632 TIP3     8750     TIP3     H2       HT       0.417000       1.00800           0
     48633 TIP3     8751     TIP3     OH2      OT      -0.834000       15.9994           0
     48634 TIP3     8751     TIP3     H1       HT       0.417000       1.00800           0
     48635 TIP3     8751     TIP3     H2       HT       0.417000       1.00800           0
     48636 TIP3     8752     TIP3     OH2      OT      -0.834000       15.9994           0
     48637 TIP3     8752     TIP3     H1       HT       0.417000       1.00800           0
     48638 TIP3     8752     TIP3     H2       HT       0.417000       1.00800           0
     48639 TIP3     8753     TIP3     OH2      OT      -0.834000       15.9994           0
     48640 TIP3     8753     TIP3     H1       HT       0.417000       1.00800           0
     48641 TIP3     8753     TIP3     H2       HT       0.417000       1.00800           0
     48642 TIP3     8754     TIP3     OH2      OT      -0.834000       15.9994           0
     48643 TIP3     8754     TIP3     H1       HT       0.417000       1.00800           0
     48644 TIP3     8754     TIP3     H2       HT       0.417000       1.00800           0
     48645 TIP3     8755     TIP3     OH2      OT      -0.834000       15.9994           0
     48646 TIP3     8755     TIP3     H1       HT       0.417000       1.00800           0
     48647 TIP3     8755     TIP3     H2       HT       0.417000       1.00800           0
     48648 TIP3     8756     TIP3     OH2      OT      -0.834000       15.9994           0
     48649 TIP3     8756     TIP3     H1       HT       0.417000       1.00800           0
     48650 TIP3     8756     TIP3     H2       HT       0.417000       1.00800           0
     48651 TIP3     8757     TIP3     OH2      OT      -0.834000       15.9994           0
     48652 TIP3     8757     TIP3     H1       HT       0.417000       1.00800           0
     48653 TIP3     8757     TIP3     H2       HT       0.417000       1.00800           0
     48654 TIP3     8758     TIP3     OH2      OT      -0.834000       15.9994           0
     48655 TIP3     8758     TIP3     H1       HT       0.417000       1.00800           0
     48656 TIP3     8758     TIP3     H2       HT       0.417000       1.00800           0
     48657 TIP3     8759     TIP3     OH2      OT      -0.834000       15.9994           0
     48658 TIP3     8759     TIP3     H1       HT       0.417000       1.00800           0
     48659 TIP3     8759     TIP3     H2       HT       0.417000       1.00800           0
     48660 TIP3     8760     TIP3     OH2      OT      -0.834000       15.9994           0
     48661 TIP3     8760     TIP3     H1       HT       0.417000       1.00800           0
     48662 TIP3     8760     TIP3     H2       HT       0.417000       1.00800           0
     48663 TIP3     8761     TIP3     OH2      OT      -0.834000       15.9994           0
     48664 TIP3     8761     TIP3     H1       HT       0.417000       1.00800           0
     48665 TIP3     8761     TIP3     H2       HT       0.417000       1.00800           0
     48666 TIP3     8762     TIP3     OH2      OT      -0.834000       15.9994           0
     48667 TIP3     8762     TIP3     H1       HT       0.417000       1.00800           0
     48668 TIP3     8762     TIP3     H2       HT       0.417000       1.00800           0
     48669 TIP3     8763     TIP3     OH2      OT      -0.834000       15.9994           0
     48670 TIP3     8763     TIP3     H1       HT       0.417000       1.00800           0
     48671 TIP3     8763     TIP3     H2       HT       0.417000       1.00800           0
     48672 TIP3     8764     TIP3     OH2      OT      -0.834000       15.9994           0
     48673 TIP3     8764     TIP3     H1       HT       0.417000       1.00800           0
     48674 TIP3     8764     TIP3     H2       HT       0.417000       1.00800           0
     48675 TIP3     8765     TIP3     OH2      OT      -0.834000       15.9994           0
     48676 TIP3     8765     TIP3     H1       HT       0.417000       1.00800           0
     48677 TIP3     8765     TIP3     H2       HT       0.417000       1.00800           0
     48678 TIP3     8766     TIP3     OH2      OT      -0.834000       15.9994           0
     48679 TIP3     8766     TIP3     H1       HT       0.417000       1.00800           0
     48680 TIP3     8766     TIP3     H2       HT       0.417000       1.00800           0
     48681 TIP3     8767     TIP3     OH2      OT      -0.834000       15.9994           0
     48682 TIP3     8767     TIP3     H1       HT       0.417000       1.00800           0
     48683 TIP3     8767     TIP3     H2       HT       0.417000       1.00800           0
     48684 TIP3     8768     TIP3     OH2      OT      -0.834000       15.9994           0
     48685 TIP3     8768     TIP3     H1       HT       0.417000       1.00800           0
     48686 TIP3     8768     TIP3     H2       HT       0.417000       1.00800           0
     48687 TIP3     8769     TIP3     OH2      OT      -0.834000       15.9994           0
     48688 TIP3     8769     TIP3     H1       HT       0.417000       1.00800           0
     48689 TIP3     8769     TIP3     H2       HT       0.417000       1.00800           0
     48690 TIP3     8770     TIP3     OH2      OT      -0.834000       15.9994           0
     48691 TIP3     8770     TIP3     H1       HT       0.417000       1.00800           0
     48692 TIP3     8770     TIP3     H2       HT       0.417000       1.00800           0
     48693 TIP3     8771     TIP3     OH2      OT      -0.834000       15.9994           0
     48694 TIP3     8771     TIP3     H1       HT       0.417000       1.00800           0
     48695 TIP3     8771     TIP3     H2       HT       0.417000       1.00800           0
     48696 TIP3     8772     TIP3     OH2      OT      -0.834000       15.9994           0
     48697 TIP3     8772     TIP3     H1       HT       0.417000       1.00800           0
     48698 TIP3     8772     TIP3     H2       HT       0.417000       1.00800           0
     48699 TIP3     8773     TIP3     OH2      OT      -0.834000       15.9994           0
     48700 TIP3     8773     TIP3     H1       HT       0.417000       1.00800           0
     48701 TIP3     8773     TIP3     H2       HT       0.417000       1.00800           0
     48702 TIP3     8774     TIP3     OH2      OT      -0.834000       15.9994           0
     48703 TIP3     8774     TIP3     H1       HT       0.417000       1.00800           0
     48704 TIP3     8774     TIP3     H2       HT       0.417000       1.00800           0
     48705 TIP3     8775     TIP3     OH2      OT      -0.834000       15.9994           0
     48706 TIP3     8775     TIP3     H1       HT       0.417000       1.00800           0
     48707 TIP3     8775     TIP3     H2       HT       0.417000       1.00800           0
     48708 TIP3     8776     TIP3     OH2      OT      -0.834000       15.9994           0
     48709 TIP3     8776     TIP3     H1       HT       0.417000       1.00800           0
     48710 TIP3     8776     TIP3     H2       HT       0.417000       1.00800           0
     48711 TIP3     8777     TIP3     OH2      OT      -0.834000       15.9994           0
     48712 TIP3     8777     TIP3     H1       HT       0.417000       1.00800           0
     48713 TIP3     8777     TIP3     H2       HT       0.417000       1.00800           0
     48714 TIP3     8778     TIP3     OH2      OT      -0.834000       15.9994           0
     48715 TIP3     8778     TIP3     H1       HT       0.417000       1.00800           0
     48716 TIP3     8778     TIP3     H2       HT       0.417000       1.00800           0
     48717 TIP3     8779     TIP3     OH2      OT      -0.834000       15.9994           0
     48718 TIP3     8779     TIP3     H1       HT       0.417000       1.00800           0
     48719 TIP3     8779     TIP3     H2       HT       0.417000       1.00800           0
     48720 TIP3     8780     TIP3     OH2      OT      -0.834000       15.9994           0
     48721 TIP3     8780     TIP3     H1       HT       0.417000       1.00800           0
     48722 TIP3     8780     TIP3     H2       HT       0.417000       1.00800           0
     48723 TIP3     8781     TIP3     OH2      OT      -0.834000       15.9994           0
     48724 TIP3     8781     TIP3     H1       HT       0.417000       1.00800           0
     48725 TIP3     8781     TIP3     H2       HT       0.417000       1.00800           0
     48726 TIP3     8782     TIP3     OH2      OT      -0.834000       15.9994           0
     48727 TIP3     8782     TIP3     H1       HT       0.417000       1.00800           0
     48728 TIP3     8782     TIP3     H2       HT       0.417000       1.00800           0
     48729 TIP3     8783     TIP3     OH2      OT      -0.834000       15.9994           0
     48730 TIP3     8783     TIP3     H1       HT       0.417000       1.00800           0
     48731 TIP3     8783     TIP3     H2       HT       0.417000       1.00800           0
     48732 TIP3     8784     TIP3     OH2      OT      -0.834000       15.9994           0
     48733 TIP3     8784     TIP3     H1       HT       0.417000       1.00800           0
     48734 TIP3     8784     TIP3     H2       HT       0.417000       1.00800           0
     48735 TIP3     8785     TIP3     OH2      OT      -0.834000       15.9994           0
     48736 TIP3     8785     TIP3     H1       HT       0.417000       1.00800           0
     48737 TIP3     8785     TIP3     H2       HT       0.417000       1.00800           0
     48738 TIP3     8786     TIP3     OH2      OT      -0.834000       15.9994           0
     48739 TIP3     8786     TIP3     H1       HT       0.417000       1.00800           0
     48740 TIP3     8786     TIP3     H2       HT       0.417000       1.00800           0
     48741 TIP3     8787     TIP3     OH2      OT      -0.834000       15.9994           0
     48742 TIP3     8787     TIP3     H1       HT       0.417000       1.00800           0
     48743 TIP3     8787     TIP3     H2       HT       0.417000       1.00800           0
     48744 TIP3     8788     TIP3     OH2      OT      -0.834000       15.9994           0
     48745 TIP3     8788     TIP3     H1       HT       0.417000       1.00800           0
     48746 TIP3     8788     TIP3     H2       HT       0.417000       1.00800           0
     48747 TIP3     8789     TIP3     OH2      OT      -0.834000       15.9994           0
     48748 TIP3     8789     TIP3     H1       HT       0.417000       1.00800           0
     48749 TIP3     8789     TIP3     H2       HT       0.417000       1.00800           0
     48750 TIP3     8790     TIP3     OH2      OT      -0.834000       15.9994           0
     48751 TIP3     8790     TIP3     H1       HT       0.417000       1.00800           0
     48752 TIP3     8790     TIP3     H2       HT       0.417000       1.00800           0
     48753 TIP3     8791     TIP3     OH2      OT      -0.834000       15.9994           0
     48754 TIP3     8791     TIP3     H1       HT       0.417000       1.00800           0
     48755 TIP3     8791     TIP3     H2       HT       0.417000       1.00800           0
     48756 TIP3     8792     TIP3     OH2      OT      -0.834000       15.9994           0
     48757 TIP3     8792     TIP3     H1       HT       0.417000       1.00800           0
     48758 TIP3     8792     TIP3     H2       HT       0.417000       1.00800           0
     48759 TIP3     8793     TIP3     OH2      OT      -0.834000       15.9994           0
     48760 TIP3     8793     TIP3     H1       HT       0.417000       1.00800           0
     48761 TIP3     8793     TIP3     H2       HT       0.417000       1.00800           0
     48762 TIP3     8794     TIP3     OH2      OT      -0.834000       15.9994           0
     48763 TIP3     8794     TIP3     H1       HT       0.417000       1.00800           0
     48764 TIP3     8794     TIP3     H2       HT       0.417000       1.00800           0
     48765 TIP3     8795     TIP3     OH2      OT      -0.834000       15.9994           0
     48766 TIP3     8795     TIP3     H1       HT       0.417000       1.00800           0
     48767 TIP3     8795     TIP3     H2       HT       0.417000       1.00800           0
     48768 TIP3     8796     TIP3     OH2      OT      -0.834000       15.9994           0
     48769 TIP3     8796     TIP3     H1       HT       0.417000       1.00800           0
     48770 TIP3     8796     TIP3     H2       HT       0.417000       1.00800           0
     48771 TIP3     8797     TIP3     OH2      OT      -0.834000       15.9994           0
     48772 TIP3     8797     TIP3     H1       HT       0.417000       1.00800           0
     48773 TIP3     8797     TIP3     H2       HT       0.417000       1.00800           0
     48774 TIP3     8798     TIP3     OH2      OT      -0.834000       15.9994           0
     48775 TIP3     8798     TIP3     H1       HT       0.417000       1.00800           0
     48776 TIP3     8798     TIP3     H2       HT       0.417000       1.00800           0
     48777 TIP3     8799     TIP3     OH2      OT      -0.834000       15.9994           0
     48778 TIP3     8799     TIP3     H1       HT       0.417000       1.00800           0
     48779 TIP3     8799     TIP3     H2       HT       0.417000       1.00800           0
     48780 TIP3     8800     TIP3     OH2      OT      -0.834000       15.9994           0
     48781 TIP3     8800     TIP3     H1       HT       0.417000       1.00800           0
     48782 TIP3     8800     TIP3     H2       HT       0.417000       1.00800           0
     48783 TIP3     8801     TIP3     OH2      OT      -0.834000       15.9994           0
     48784 TIP3     8801     TIP3     H1       HT       0.417000       1.00800           0
     48785 TIP3     8801     TIP3     H2       HT       0.417000       1.00800           0
     48786 TIP3     8802     TIP3     OH2      OT      -0.834000       15.9994           0
     48787 TIP3     8802     TIP3     H1       HT       0.417000       1.00800           0
     48788 TIP3     8802     TIP3     H2       HT       0.417000       1.00800           0
     48789 TIP3     8803     TIP3     OH2      OT      -0.834000       15.9994           0
     48790 TIP3     8803     TIP3     H1       HT       0.417000       1.00800           0
     48791 TIP3     8803     TIP3     H2       HT       0.417000       1.00800           0
     48792 TIP3     8804     TIP3     OH2      OT      -0.834000       15.9994           0
     48793 TIP3     8804     TIP3     H1       HT       0.417000       1.00800           0
     48794 TIP3     8804     TIP3     H2       HT       0.417000       1.00800           0
     48795 TIP3     8805     TIP3     OH2      OT      -0.834000       15.9994           0
     48796 TIP3     8805     TIP3     H1       HT       0.417000       1.00800           0
     48797 TIP3     8805     TIP3     H2       HT       0.417000       1.00800           0
     48798 TIP3     8806     TIP3     OH2      OT      -0.834000       15.9994           0
     48799 TIP3     8806     TIP3     H1       HT       0.417000       1.00800           0
     48800 TIP3     8806     TIP3     H2       HT       0.417000       1.00800           0
     48801 TIP3     8807     TIP3     OH2      OT      -0.834000       15.9994           0
     48802 TIP3     8807     TIP3     H1       HT       0.417000       1.00800           0
     48803 TIP3     8807     TIP3     H2       HT       0.417000       1.00800           0
     48804 TIP3     8808     TIP3     OH2      OT      -0.834000       15.9994           0
     48805 TIP3     8808     TIP3     H1       HT       0.417000       1.00800           0
     48806 TIP3     8808     TIP3     H2       HT       0.417000       1.00800           0
     48807 TIP3     8809     TIP3     OH2      OT      -0.834000       15.9994           0
     48808 TIP3     8809     TIP3     H1       HT       0.417000       1.00800           0
     48809 TIP3     8809     TIP3     H2       HT       0.417000       1.00800           0
     48810 TIP3     8810     TIP3     OH2      OT      -0.834000       15.9994           0
     48811 TIP3     8810     TIP3     H1       HT       0.417000       1.00800           0
     48812 TIP3     8810     TIP3     H2       HT       0.417000       1.00800           0
     48813 TIP3     8811     TIP3     OH2      OT      -0.834000       15.9994           0
     48814 TIP3     8811     TIP3     H1       HT       0.417000       1.00800           0
     48815 TIP3     8811     TIP3     H2       HT       0.417000       1.00800           0
     48816 TIP3     8812     TIP3     OH2      OT      -0.834000       15.9994           0
     48817 TIP3     8812     TIP3     H1       HT       0.417000       1.00800           0
     48818 TIP3     8812     TIP3     H2       HT       0.417000       1.00800           0
     48819 TIP3     8813     TIP3     OH2      OT      -0.834000       15.9994           0
     48820 TIP3     8813     TIP3     H1       HT       0.417000       1.00800           0
     48821 TIP3     8813     TIP3     H2       HT       0.417000       1.00800           0
     48822 TIP3     8814     TIP3     OH2      OT      -0.834000       15.9994           0
     48823 TIP3     8814     TIP3     H1       HT       0.417000       1.00800           0
     48824 TIP3     8814     TIP3     H2       HT       0.417000       1.00800           0
     48825 TIP3     8815     TIP3     OH2      OT      -0.834000       15.9994           0
     48826 TIP3     8815     TIP3     H1       HT       0.417000       1.00800           0
     48827 TIP3     8815     TIP3     H2       HT       0.417000       1.00800           0
     48828 TIP3     8816     TIP3     OH2      OT      -0.834000       15.9994           0
     48829 TIP3     8816     TIP3     H1       HT       0.417000       1.00800           0
     48830 TIP3     8816     TIP3     H2       HT       0.417000       1.00800           0
     48831 TIP3     8817     TIP3     OH2      OT      -0.834000       15.9994           0
     48832 TIP3     8817     TIP3     H1       HT       0.417000       1.00800           0
     48833 TIP3     8817     TIP3     H2       HT       0.417000       1.00800           0
     48834 TIP3     8818     TIP3     OH2      OT      -0.834000       15.9994           0
     48835 TIP3     8818     TIP3     H1       HT       0.417000       1.00800           0
     48836 TIP3     8818     TIP3     H2       HT       0.417000       1.00800           0
     48837 TIP3     8819     TIP3     OH2      OT      -0.834000       15.9994           0
     48838 TIP3     8819     TIP3     H1       HT       0.417000       1.00800           0
     48839 TIP3     8819     TIP3     H2       HT       0.417000       1.00800           0
     48840 TIP3     8820     TIP3     OH2      OT      -0.834000       15.9994           0
     48841 TIP3     8820     TIP3     H1       HT       0.417000       1.00800           0
     48842 TIP3     8820     TIP3     H2       HT       0.417000       1.00800           0
     48843 TIP3     8821     TIP3     OH2      OT      -0.834000       15.9994           0
     48844 TIP3     8821     TIP3     H1       HT       0.417000       1.00800           0
     48845 TIP3     8821     TIP3     H2       HT       0.417000       1.00800           0
     48846 TIP3     8822     TIP3     OH2      OT      -0.834000       15.9994           0
     48847 TIP3     8822     TIP3     H1       HT       0.417000       1.00800           0
     48848 TIP3     8822     TIP3     H2       HT       0.417000       1.00800           0
     48849 TIP3     8823     TIP3     OH2      OT      -0.834000       15.9994           0
     48850 TIP3     8823     TIP3     H1       HT       0.417000       1.00800           0
     48851 TIP3     8823     TIP3     H2       HT       0.417000       1.00800           0
     48852 TIP3     8824     TIP3     OH2      OT      -0.834000       15.9994           0
     48853 TIP3     8824     TIP3     H1       HT       0.417000       1.00800           0
     48854 TIP3     8824     TIP3     H2       HT       0.417000       1.00800           0
     48855 TIP3     8825     TIP3     OH2      OT      -0.834000       15.9994           0
     48856 TIP3     8825     TIP3     H1       HT       0.417000       1.00800           0
     48857 TIP3     8825     TIP3     H2       HT       0.417000       1.00800           0
     48858 TIP3     8826     TIP3     OH2      OT      -0.834000       15.9994           0
     48859 TIP3     8826     TIP3     H1       HT       0.417000       1.00800           0
     48860 TIP3     8826     TIP3     H2       HT       0.417000       1.00800           0
     48861 TIP3     8827     TIP3     OH2      OT      -0.834000       15.9994           0
     48862 TIP3     8827     TIP3     H1       HT       0.417000       1.00800           0
     48863 TIP3     8827     TIP3     H2       HT       0.417000       1.00800           0
     48864 TIP3     8828     TIP3     OH2      OT      -0.834000       15.9994           0
     48865 TIP3     8828     TIP3     H1       HT       0.417000       1.00800           0
     48866 TIP3     8828     TIP3     H2       HT       0.417000       1.00800           0
     48867 TIP3     8829     TIP3     OH2      OT      -0.834000       15.9994           0
     48868 TIP3     8829     TIP3     H1       HT       0.417000       1.00800           0
     48869 TIP3     8829     TIP3     H2       HT       0.417000       1.00800           0
     48870 TIP3     8830     TIP3     OH2      OT      -0.834000       15.9994           0
     48871 TIP3     8830     TIP3     H1       HT       0.417000       1.00800           0
     48872 TIP3     8830     TIP3     H2       HT       0.417000       1.00800           0
     48873 TIP3     8831     TIP3     OH2      OT      -0.834000       15.9994           0
     48874 TIP3     8831     TIP3     H1       HT       0.417000       1.00800           0
     48875 TIP3     8831     TIP3     H2       HT       0.417000       1.00800           0
     48876 TIP3     8832     TIP3     OH2      OT      -0.834000       15.9994           0
     48877 TIP3     8832     TIP3     H1       HT       0.417000       1.00800           0
     48878 TIP3     8832     TIP3     H2       HT       0.417000       1.00800           0
     48879 TIP3     8833     TIP3     OH2      OT      -0.834000       15.9994           0
     48880 TIP3     8833     TIP3     H1       HT       0.417000       1.00800           0
     48881 TIP3     8833     TIP3     H2       HT       0.417000       1.00800           0
     48882 TIP3     8834     TIP3     OH2      OT      -0.834000       15.9994           0
     48883 TIP3     8834     TIP3     H1       HT       0.417000       1.00800           0
     48884 TIP3     8834     TIP3     H2       HT       0.417000       1.00800           0
     48885 TIP3     8835     TIP3     OH2      OT      -0.834000       15.9994           0
     48886 TIP3     8835     TIP3     H1       HT       0.417000       1.00800           0
     48887 TIP3     8835     TIP3     H2       HT       0.417000       1.00800           0
     48888 TIP3     8836     TIP3     OH2      OT      -0.834000       15.9994           0
     48889 TIP3     8836     TIP3     H1       HT       0.417000       1.00800           0
     48890 TIP3     8836     TIP3     H2       HT       0.417000       1.00800           0
     48891 TIP3     8837     TIP3     OH2      OT      -0.834000       15.9994           0
     48892 TIP3     8837     TIP3     H1       HT       0.417000       1.00800           0
     48893 TIP3     8837     TIP3     H2       HT       0.417000       1.00800           0
     48894 TIP3     8838     TIP3     OH2      OT      -0.834000       15.9994           0
     48895 TIP3     8838     TIP3     H1       HT       0.417000       1.00800           0
     48896 TIP3     8838     TIP3     H2       HT       0.417000       1.00800           0
     48897 TIP3     8839     TIP3     OH2      OT      -0.834000       15.9994           0
     48898 TIP3     8839     TIP3     H1       HT       0.417000       1.00800           0
     48899 TIP3     8839     TIP3     H2       HT       0.417000       1.00800           0
     48900 TIP3     8840     TIP3     OH2      OT      -0.834000       15.9994           0
     48901 TIP3     8840     TIP3     H1       HT       0.417000       1.00800           0
     48902 TIP3     8840     TIP3     H2       HT       0.417000       1.00800           0
     48903 TIP3     8841     TIP3     OH2      OT      -0.834000       15.9994           0
     48904 TIP3     8841     TIP3     H1       HT       0.417000       1.00800           0
     48905 TIP3     8841     TIP3     H2       HT       0.417000       1.00800           0
     48906 TIP3     8842     TIP3     OH2      OT      -0.834000       15.9994           0
     48907 TIP3     8842     TIP3     H1       HT       0.417000       1.00800           0
     48908 TIP3     8842     TIP3     H2       HT       0.417000       1.00800           0
     48909 TIP3     8843     TIP3     OH2      OT      -0.834000       15.9994           0
     48910 TIP3     8843     TIP3     H1       HT       0.417000       1.00800           0
     48911 TIP3     8843     TIP3     H2       HT       0.417000       1.00800           0
     48912 TIP3     8844     TIP3     OH2      OT      -0.834000       15.9994           0
     48913 TIP3     8844     TIP3     H1       HT       0.417000       1.00800           0
     48914 TIP3     8844     TIP3     H2       HT       0.417000       1.00800           0
     48915 TIP3     8845     TIP3     OH2      OT      -0.834000       15.9994           0
     48916 TIP3     8845     TIP3     H1       HT       0.417000       1.00800           0
     48917 TIP3     8845     TIP3     H2       HT       0.417000       1.00800           0
     48918 TIP3     8846     TIP3     OH2      OT      -0.834000       15.9994           0
     48919 TIP3     8846     TIP3     H1       HT       0.417000       1.00800           0
     48920 TIP3     8846     TIP3     H2       HT       0.417000       1.00800           0
     48921 TIP3     8847     TIP3     OH2      OT      -0.834000       15.9994           0
     48922 TIP3     8847     TIP3     H1       HT       0.417000       1.00800           0
     48923 TIP3     8847     TIP3     H2       HT       0.417000       1.00800           0
     48924 TIP3     8848     TIP3     OH2      OT      -0.834000       15.9994           0
     48925 TIP3     8848     TIP3     H1       HT       0.417000       1.00800           0
     48926 TIP3     8848     TIP3     H2       HT       0.417000       1.00800           0
     48927 TIP3     8849     TIP3     OH2      OT      -0.834000       15.9994           0
     48928 TIP3     8849     TIP3     H1       HT       0.417000       1.00800           0
     48929 TIP3     8849     TIP3     H2       HT       0.417000       1.00800           0
     48930 TIP3     8850     TIP3     OH2      OT      -0.834000       15.9994           0
     48931 TIP3     8850     TIP3     H1       HT       0.417000       1.00800           0
     48932 TIP3     8850     TIP3     H2       HT       0.417000       1.00800           0
     48933 TIP3     8851     TIP3     OH2      OT      -0.834000       15.9994           0
     48934 TIP3     8851     TIP3     H1       HT       0.417000       1.00800           0
     48935 TIP3     8851     TIP3     H2       HT       0.417000       1.00800           0
     48936 TIP3     8852     TIP3     OH2      OT      -0.834000       15.9994           0
     48937 TIP3     8852     TIP3     H1       HT       0.417000       1.00800           0
     48938 TIP3     8852     TIP3     H2       HT       0.417000       1.00800           0
     48939 TIP3     8853     TIP3     OH2      OT      -0.834000       15.9994           0
     48940 TIP3     8853     TIP3     H1       HT       0.417000       1.00800           0
     48941 TIP3     8853     TIP3     H2       HT       0.417000       1.00800           0
     48942 TIP3     8854     TIP3     OH2      OT      -0.834000       15.9994           0
     48943 TIP3     8854     TIP3     H1       HT       0.417000       1.00800           0
     48944 TIP3     8854     TIP3     H2       HT       0.417000       1.00800           0
     48945 TIP3     8855     TIP3     OH2      OT      -0.834000       15.9994           0
     48946 TIP3     8855     TIP3     H1       HT       0.417000       1.00800           0
     48947 TIP3     8855     TIP3     H2       HT       0.417000       1.00800           0
     48948 TIP3     8856     TIP3     OH2      OT      -0.834000       15.9994           0
     48949 TIP3     8856     TIP3     H1       HT       0.417000       1.00800           0
     48950 TIP3     8856     TIP3     H2       HT       0.417000       1.00800           0
     48951 TIP3     8857     TIP3     OH2      OT      -0.834000       15.9994           0
     48952 TIP3     8857     TIP3     H1       HT       0.417000       1.00800           0
     48953 TIP3     8857     TIP3     H2       HT       0.417000       1.00800           0
     48954 TIP3     8858     TIP3     OH2      OT      -0.834000       15.9994           0
     48955 TIP3     8858     TIP3     H1       HT       0.417000       1.00800           0
     48956 TIP3     8858     TIP3     H2       HT       0.417000       1.00800           0
     48957 TIP3     8859     TIP3     OH2      OT      -0.834000       15.9994           0
     48958 TIP3     8859     TIP3     H1       HT       0.417000       1.00800           0
     48959 TIP3     8859     TIP3     H2       HT       0.417000       1.00800           0
     48960 TIP3     8860     TIP3     OH2      OT      -0.834000       15.9994           0
     48961 TIP3     8860     TIP3     H1       HT       0.417000       1.00800           0
     48962 TIP3     8860     TIP3     H2       HT       0.417000       1.00800           0
     48963 TIP3     8861     TIP3     OH2      OT      -0.834000       15.9994           0
     48964 TIP3     8861     TIP3     H1       HT       0.417000       1.00800           0
     48965 TIP3     8861     TIP3     H2       HT       0.417000       1.00800           0
     48966 TIP3     8862     TIP3     OH2      OT      -0.834000       15.9994           0
     48967 TIP3     8862     TIP3     H1       HT       0.417000       1.00800           0
     48968 TIP3     8862     TIP3     H2       HT       0.417000       1.00800           0
     48969 TIP3     8863     TIP3     OH2      OT      -0.834000       15.9994           0
     48970 TIP3     8863     TIP3     H1       HT       0.417000       1.00800           0
     48971 TIP3     8863     TIP3     H2       HT       0.417000       1.00800           0
     48972 TIP3     8864     TIP3     OH2      OT      -0.834000       15.9994           0
     48973 TIP3     8864     TIP3     H1       HT       0.417000       1.00800           0
     48974 TIP3     8864     TIP3     H2       HT       0.417000       1.00800           0
     48975 TIP3     8865     TIP3     OH2      OT      -0.834000       15.9994           0
     48976 TIP3     8865     TIP3     H1       HT       0.417000       1.00800           0
     48977 TIP3     8865     TIP3     H2       HT       0.417000       1.00800           0
     48978 TIP3     8866     TIP3     OH2      OT      -0.834000       15.9994           0
     48979 TIP3     8866     TIP3     H1       HT       0.417000       1.00800           0
     48980 TIP3     8866     TIP3     H2       HT       0.417000       1.00800           0
     48981 TIP3     8867     TIP3     OH2      OT      -0.834000       15.9994           0
     48982 TIP3     8867     TIP3     H1       HT       0.417000       1.00800           0
     48983 TIP3     8867     TIP3     H2       HT       0.417000       1.00800           0
     48984 TIP3     8868     TIP3     OH2      OT      -0.834000       15.9994           0
     48985 TIP3     8868     TIP3     H1       HT       0.417000       1.00800           0
     48986 TIP3     8868     TIP3     H2       HT       0.417000       1.00800           0
     48987 TIP3     8869     TIP3     OH2      OT      -0.834000       15.9994           0
     48988 TIP3     8869     TIP3     H1       HT       0.417000       1.00800           0
     48989 TIP3     8869     TIP3     H2       HT       0.417000       1.00800           0
     48990 TIP3     8870     TIP3     OH2      OT      -0.834000       15.9994           0
     48991 TIP3     8870     TIP3     H1       HT       0.417000       1.00800           0
     48992 TIP3     8870     TIP3     H2       HT       0.417000       1.00800           0
     48993 TIP3     8871     TIP3     OH2      OT      -0.834000       15.9994           0
     48994 TIP3     8871     TIP3     H1       HT       0.417000       1.00800           0
     48995 TIP3     8871     TIP3     H2       HT       0.417000       1.00800           0
     48996 TIP3     8872     TIP3     OH2      OT      -0.834000       15.9994           0
     48997 TIP3     8872     TIP3     H1       HT       0.417000       1.00800           0
     48998 TIP3     8872     TIP3     H2       HT       0.417000       1.00800           0
     48999 TIP3     8873     TIP3     OH2      OT      -0.834000       15.9994           0
     49000 TIP3     8873     TIP3     H1       HT       0.417000       1.00800           0
     49001 TIP3     8873     TIP3     H2       HT       0.417000       1.00800           0
     49002 TIP3     8874     TIP3     OH2      OT      -0.834000       15.9994           0
     49003 TIP3     8874     TIP3     H1       HT       0.417000       1.00800           0
     49004 TIP3     8874     TIP3     H2       HT       0.417000       1.00800           0
     49005 TIP3     8875     TIP3     OH2      OT      -0.834000       15.9994           0
     49006 TIP3     8875     TIP3     H1       HT       0.417000       1.00800           0
     49007 TIP3     8875     TIP3     H2       HT       0.417000       1.00800           0
     49008 TIP3     8876     TIP3     OH2      OT      -0.834000       15.9994           0
     49009 TIP3     8876     TIP3     H1       HT       0.417000       1.00800           0
     49010 TIP3     8876     TIP3     H2       HT       0.417000       1.00800           0
     49011 TIP3     8877     TIP3     OH2      OT      -0.834000       15.9994           0
     49012 TIP3     8877     TIP3     H1       HT       0.417000       1.00800           0
     49013 TIP3     8877     TIP3     H2       HT       0.417000       1.00800           0
     49014 TIP3     8878     TIP3     OH2      OT      -0.834000       15.9994           0
     49015 TIP3     8878     TIP3     H1       HT       0.417000       1.00800           0
     49016 TIP3     8878     TIP3     H2       HT       0.417000       1.00800           0
     49017 TIP3     8879     TIP3     OH2      OT      -0.834000       15.9994           0
     49018 TIP3     8879     TIP3     H1       HT       0.417000       1.00800           0
     49019 TIP3     8879     TIP3     H2       HT       0.417000       1.00800           0
     49020 TIP3     8880     TIP3     OH2      OT      -0.834000       15.9994           0
     49021 TIP3     8880     TIP3     H1       HT       0.417000       1.00800           0
     49022 TIP3     8880     TIP3     H2       HT       0.417000       1.00800           0
     49023 TIP3     8881     TIP3     OH2      OT      -0.834000       15.9994           0
     49024 TIP3     8881     TIP3     H1       HT       0.417000       1.00800           0
     49025 TIP3     8881     TIP3     H2       HT       0.417000       1.00800           0
     49026 TIP3     8882     TIP3     OH2      OT      -0.834000       15.9994           0
     49027 TIP3     8882     TIP3     H1       HT       0.417000       1.00800           0
     49028 TIP3     8882     TIP3     H2       HT       0.417000       1.00800           0
     49029 TIP3     8883     TIP3     OH2      OT      -0.834000       15.9994           0
     49030 TIP3     8883     TIP3     H1       HT       0.417000       1.00800           0
     49031 TIP3     8883     TIP3     H2       HT       0.417000       1.00800           0
     49032 TIP3     8884     TIP3     OH2      OT      -0.834000       15.9994           0
     49033 TIP3     8884     TIP3     H1       HT       0.417000       1.00800           0
     49034 TIP3     8884     TIP3     H2       HT       0.417000       1.00800           0
     49035 TIP3     8885     TIP3     OH2      OT      -0.834000       15.9994           0
     49036 TIP3     8885     TIP3     H1       HT       0.417000       1.00800           0
     49037 TIP3     8885     TIP3     H2       HT       0.417000       1.00800           0
     49038 TIP3     8886     TIP3     OH2      OT      -0.834000       15.9994           0
     49039 TIP3     8886     TIP3     H1       HT       0.417000       1.00800           0
     49040 TIP3     8886     TIP3     H2       HT       0.417000       1.00800           0
     49041 TIP3     8887     TIP3     OH2      OT      -0.834000       15.9994           0
     49042 TIP3     8887     TIP3     H1       HT       0.417000       1.00800           0
     49043 TIP3     8887     TIP3     H2       HT       0.417000       1.00800           0
     49044 TIP3     8888     TIP3     OH2      OT      -0.834000       15.9994           0
     49045 TIP3     8888     TIP3     H1       HT       0.417000       1.00800           0
     49046 TIP3     8888     TIP3     H2       HT       0.417000       1.00800           0
     49047 TIP3     8889     TIP3     OH2      OT      -0.834000       15.9994           0
     49048 TIP3     8889     TIP3     H1       HT       0.417000       1.00800           0
     49049 TIP3     8889     TIP3     H2       HT       0.417000       1.00800           0
     49050 TIP3     8890     TIP3     OH2      OT      -0.834000       15.9994           0
     49051 TIP3     8890     TIP3     H1       HT       0.417000       1.00800           0
     49052 TIP3     8890     TIP3     H2       HT       0.417000       1.00800           0
     49053 TIP3     8891     TIP3     OH2      OT      -0.834000       15.9994           0
     49054 TIP3     8891     TIP3     H1       HT       0.417000       1.00800           0
     49055 TIP3     8891     TIP3     H2       HT       0.417000       1.00800           0
     49056 TIP3     8892     TIP3     OH2      OT      -0.834000       15.9994           0
     49057 TIP3     8892     TIP3     H1       HT       0.417000       1.00800           0
     49058 TIP3     8892     TIP3     H2       HT       0.417000       1.00800           0
     49059 TIP3     8893     TIP3     OH2      OT      -0.834000       15.9994           0
     49060 TIP3     8893     TIP3     H1       HT       0.417000       1.00800           0
     49061 TIP3     8893     TIP3     H2       HT       0.417000       1.00800           0
     49062 TIP3     8894     TIP3     OH2      OT      -0.834000       15.9994           0
     49063 TIP3     8894     TIP3     H1       HT       0.417000       1.00800           0
     49064 TIP3     8894     TIP3     H2       HT       0.417000       1.00800           0
     49065 TIP3     8895     TIP3     OH2      OT      -0.834000       15.9994           0
     49066 TIP3     8895     TIP3     H1       HT       0.417000       1.00800           0
     49067 TIP3     8895     TIP3     H2       HT       0.417000       1.00800           0
     49068 TIP3     8896     TIP3     OH2      OT      -0.834000       15.9994           0
     49069 TIP3     8896     TIP3     H1       HT       0.417000       1.00800           0
     49070 TIP3     8896     TIP3     H2       HT       0.417000       1.00800           0
     49071 TIP3     8897     TIP3     OH2      OT      -0.834000       15.9994           0
     49072 TIP3     8897     TIP3     H1       HT       0.417000       1.00800           0
     49073 TIP3     8897     TIP3     H2       HT       0.417000       1.00800           0
     49074 TIP3     8898     TIP3     OH2      OT      -0.834000       15.9994           0
     49075 TIP3     8898     TIP3     H1       HT       0.417000       1.00800           0
     49076 TIP3     8898     TIP3     H2       HT       0.417000       1.00800           0
     49077 TIP3     8899     TIP3     OH2      OT      -0.834000       15.9994           0
     49078 TIP3     8899     TIP3     H1       HT       0.417000       1.00800           0
     49079 TIP3     8899     TIP3     H2       HT       0.417000       1.00800           0
     49080 TIP3     8900     TIP3     OH2      OT      -0.834000       15.9994           0
     49081 TIP3     8900     TIP3     H1       HT       0.417000       1.00800           0
     49082 TIP3     8900     TIP3     H2       HT       0.417000       1.00800           0
     49083 TIP3     8901     TIP3     OH2      OT      -0.834000       15.9994           0
     49084 TIP3     8901     TIP3     H1       HT       0.417000       1.00800           0
     49085 TIP3     8901     TIP3     H2       HT       0.417000       1.00800           0
     49086 TIP3     8902     TIP3     OH2      OT      -0.834000       15.9994           0
     49087 TIP3     8902     TIP3     H1       HT       0.417000       1.00800           0
     49088 TIP3     8902     TIP3     H2       HT       0.417000       1.00800           0
     49089 TIP3     8903     TIP3     OH2      OT      -0.834000       15.9994           0
     49090 TIP3     8903     TIP3     H1       HT       0.417000       1.00800           0
     49091 TIP3     8903     TIP3     H2       HT       0.417000       1.00800           0
     49092 TIP3     8904     TIP3     OH2      OT      -0.834000       15.9994           0
     49093 TIP3     8904     TIP3     H1       HT       0.417000       1.00800           0
     49094 TIP3     8904     TIP3     H2       HT       0.417000       1.00800           0
     49095 TIP3     8905     TIP3     OH2      OT      -0.834000       15.9994           0
     49096 TIP3     8905     TIP3     H1       HT       0.417000       1.00800           0
     49097 TIP3     8905     TIP3     H2       HT       0.417000       1.00800           0
     49098 TIP3     8906     TIP3     OH2      OT      -0.834000       15.9994           0
     49099 TIP3     8906     TIP3     H1       HT       0.417000       1.00800           0
     49100 TIP3     8906     TIP3     H2       HT       0.417000       1.00800           0
     49101 TIP3     8907     TIP3     OH2      OT      -0.834000       15.9994           0
     49102 TIP3     8907     TIP3     H1       HT       0.417000       1.00800           0
     49103 TIP3     8907     TIP3     H2       HT       0.417000       1.00800           0
     49104 TIP3     8908     TIP3     OH2      OT      -0.834000       15.9994           0
     49105 TIP3     8908     TIP3     H1       HT       0.417000       1.00800           0
     49106 TIP3     8908     TIP3     H2       HT       0.417000       1.00800           0
     49107 TIP3     8909     TIP3     OH2      OT      -0.834000       15.9994           0
     49108 TIP3     8909     TIP3     H1       HT       0.417000       1.00800           0
     49109 TIP3     8909     TIP3     H2       HT       0.417000       1.00800           0
     49110 TIP3     8910     TIP3     OH2      OT      -0.834000       15.9994           0
     49111 TIP3     8910     TIP3     H1       HT       0.417000       1.00800           0
     49112 TIP3     8910     TIP3     H2       HT       0.417000       1.00800           0
     49113 TIP3     8911     TIP3     OH2      OT      -0.834000       15.9994           0
     49114 TIP3     8911     TIP3     H1       HT       0.417000       1.00800           0
     49115 TIP3     8911     TIP3     H2       HT       0.417000       1.00800           0
     49116 TIP3     8912     TIP3     OH2      OT      -0.834000       15.9994           0
     49117 TIP3     8912     TIP3     H1       HT       0.417000       1.00800           0
     49118 TIP3     8912     TIP3     H2       HT       0.417000       1.00800           0
     49119 TIP3     8913     TIP3     OH2      OT      -0.834000       15.9994           0
     49120 TIP3     8913     TIP3     H1       HT       0.417000       1.00800           0
     49121 TIP3     8913     TIP3     H2       HT       0.417000       1.00800           0
     49122 TIP3     8914     TIP3     OH2      OT      -0.834000       15.9994           0
     49123 TIP3     8914     TIP3     H1       HT       0.417000       1.00800           0
     49124 TIP3     8914     TIP3     H2       HT       0.417000       1.00800           0
     49125 TIP3     8915     TIP3     OH2      OT      -0.834000       15.9994           0
     49126 TIP3     8915     TIP3     H1       HT       0.417000       1.00800           0
     49127 TIP3     8915     TIP3     H2       HT       0.417000       1.00800           0
     49128 TIP3     8916     TIP3     OH2      OT      -0.834000       15.9994           0
     49129 TIP3     8916     TIP3     H1       HT       0.417000       1.00800           0
     49130 TIP3     8916     TIP3     H2       HT       0.417000       1.00800           0
     49131 TIP3     8917     TIP3     OH2      OT      -0.834000       15.9994           0
     49132 TIP3     8917     TIP3     H1       HT       0.417000       1.00800           0
     49133 TIP3     8917     TIP3     H2       HT       0.417000       1.00800           0
     49134 TIP3     8918     TIP3     OH2      OT      -0.834000       15.9994           0
     49135 TIP3     8918     TIP3     H1       HT       0.417000       1.00800           0
     49136 TIP3     8918     TIP3     H2       HT       0.417000       1.00800           0
     49137 TIP3     8919     TIP3     OH2      OT      -0.834000       15.9994           0
     49138 TIP3     8919     TIP3     H1       HT       0.417000       1.00800           0
     49139 TIP3     8919     TIP3     H2       HT       0.417000       1.00800           0
     49140 TIP3     8920     TIP3     OH2      OT      -0.834000       15.9994           0
     49141 TIP3     8920     TIP3     H1       HT       0.417000       1.00800           0
     49142 TIP3     8920     TIP3     H2       HT       0.417000       1.00800           0
     49143 TIP3     8921     TIP3     OH2      OT      -0.834000       15.9994           0
     49144 TIP3     8921     TIP3     H1       HT       0.417000       1.00800           0
     49145 TIP3     8921     TIP3     H2       HT       0.417000       1.00800           0
     49146 TIP3     8922     TIP3     OH2      OT      -0.834000       15.9994           0
     49147 TIP3     8922     TIP3     H1       HT       0.417000       1.00800           0
     49148 TIP3     8922     TIP3     H2       HT       0.417000       1.00800           0
     49149 TIP3     8923     TIP3     OH2      OT      -0.834000       15.9994           0
     49150 TIP3     8923     TIP3     H1       HT       0.417000       1.00800           0
     49151 TIP3     8923     TIP3     H2       HT       0.417000       1.00800           0
     49152 TIP3     8924     TIP3     OH2      OT      -0.834000       15.9994           0
     49153 TIP3     8924     TIP3     H1       HT       0.417000       1.00800           0
     49154 TIP3     8924     TIP3     H2       HT       0.417000       1.00800           0
     49155 TIP3     8925     TIP3     OH2      OT      -0.834000       15.9994           0
     49156 TIP3     8925     TIP3     H1       HT       0.417000       1.00800           0
     49157 TIP3     8925     TIP3     H2       HT       0.417000       1.00800           0
     49158 TIP3     8926     TIP3     OH2      OT      -0.834000       15.9994           0
     49159 TIP3     8926     TIP3     H1       HT       0.417000       1.00800           0
     49160 TIP3     8926     TIP3     H2       HT       0.417000       1.00800           0
     49161 TIP3     8927     TIP3     OH2      OT      -0.834000       15.9994           0
     49162 TIP3     8927     TIP3     H1       HT       0.417000       1.00800           0
     49163 TIP3     8927     TIP3     H2       HT       0.417000       1.00800           0
     49164 TIP3     8928     TIP3     OH2      OT      -0.834000       15.9994           0
     49165 TIP3     8928     TIP3     H1       HT       0.417000       1.00800           0
     49166 TIP3     8928     TIP3     H2       HT       0.417000       1.00800           0
     49167 TIP3     8929     TIP3     OH2      OT      -0.834000       15.9994           0
     49168 TIP3     8929     TIP3     H1       HT       0.417000       1.00800           0
     49169 TIP3     8929     TIP3     H2       HT       0.417000       1.00800           0
     49170 TIP3     8930     TIP3     OH2      OT      -0.834000       15.9994           0
     49171 TIP3     8930     TIP3     H1       HT       0.417000       1.00800           0
     49172 TIP3     8930     TIP3     H2       HT       0.417000       1.00800           0
     49173 TIP3     8931     TIP3     OH2      OT      -0.834000       15.9994           0
     49174 TIP3     8931     TIP3     H1       HT       0.417000       1.00800           0
     49175 TIP3     8931     TIP3     H2       HT       0.417000       1.00800           0
     49176 TIP3     8932     TIP3     OH2      OT      -0.834000       15.9994           0
     49177 TIP3     8932     TIP3     H1       HT       0.417000       1.00800           0
     49178 TIP3     8932     TIP3     H2       HT       0.417000       1.00800           0
     49179 TIP3     8933     TIP3     OH2      OT      -0.834000       15.9994           0
     49180 TIP3     8933     TIP3     H1       HT       0.417000       1.00800           0
     49181 TIP3     8933     TIP3     H2       HT       0.417000       1.00800           0
     49182 TIP3     8934     TIP3     OH2      OT      -0.834000       15.9994           0
     49183 TIP3     8934     TIP3     H1       HT       0.417000       1.00800           0
     49184 TIP3     8934     TIP3     H2       HT       0.417000       1.00800           0
     49185 TIP3     8935     TIP3     OH2      OT      -0.834000       15.9994           0
     49186 TIP3     8935     TIP3     H1       HT       0.417000       1.00800           0
     49187 TIP3     8935     TIP3     H2       HT       0.417000       1.00800           0
     49188 TIP3     8936     TIP3     OH2      OT      -0.834000       15.9994           0
     49189 TIP3     8936     TIP3     H1       HT       0.417000       1.00800           0
     49190 TIP3     8936     TIP3     H2       HT       0.417000       1.00800           0
     49191 TIP3     8937     TIP3     OH2      OT      -0.834000       15.9994           0
     49192 TIP3     8937     TIP3     H1       HT       0.417000       1.00800           0
     49193 TIP3     8937     TIP3     H2       HT       0.417000       1.00800           0
     49194 TIP3     8938     TIP3     OH2      OT      -0.834000       15.9994           0
     49195 TIP3     8938     TIP3     H1       HT       0.417000       1.00800           0
     49196 TIP3     8938     TIP3     H2       HT       0.417000       1.00800           0
     49197 TIP3     8939     TIP3     OH2      OT      -0.834000       15.9994           0
     49198 TIP3     8939     TIP3     H1       HT       0.417000       1.00800           0
     49199 TIP3     8939     TIP3     H2       HT       0.417000       1.00800           0
     49200 TIP3     8940     TIP3     OH2      OT      -0.834000       15.9994           0
     49201 TIP3     8940     TIP3     H1       HT       0.417000       1.00800           0
     49202 TIP3     8940     TIP3     H2       HT       0.417000       1.00800           0
     49203 TIP3     8941     TIP3     OH2      OT      -0.834000       15.9994           0
     49204 TIP3     8941     TIP3     H1       HT       0.417000       1.00800           0
     49205 TIP3     8941     TIP3     H2       HT       0.417000       1.00800           0
     49206 TIP3     8942     TIP3     OH2      OT      -0.834000       15.9994           0
     49207 TIP3     8942     TIP3     H1       HT       0.417000       1.00800           0
     49208 TIP3     8942     TIP3     H2       HT       0.417000       1.00800           0
     49209 TIP3     8943     TIP3     OH2      OT      -0.834000       15.9994           0
     49210 TIP3     8943     TIP3     H1       HT       0.417000       1.00800           0
     49211 TIP3     8943     TIP3     H2       HT       0.417000       1.00800           0
     49212 TIP3     8944     TIP3     OH2      OT      -0.834000       15.9994           0
     49213 TIP3     8944     TIP3     H1       HT       0.417000       1.00800           0
     49214 TIP3     8944     TIP3     H2       HT       0.417000       1.00800           0
     49215 TIP3     8945     TIP3     OH2      OT      -0.834000       15.9994           0
     49216 TIP3     8945     TIP3     H1       HT       0.417000       1.00800           0
     49217 TIP3     8945     TIP3     H2       HT       0.417000       1.00800           0
     49218 TIP3     8946     TIP3     OH2      OT      -0.834000       15.9994           0
     49219 TIP3     8946     TIP3     H1       HT       0.417000       1.00800           0
     49220 TIP3     8946     TIP3     H2       HT       0.417000       1.00800           0
     49221 TIP3     8947     TIP3     OH2      OT      -0.834000       15.9994           0
     49222 TIP3     8947     TIP3     H1       HT       0.417000       1.00800           0
     49223 TIP3     8947     TIP3     H2       HT       0.417000       1.00800           0
     49224 TIP3     8948     TIP3     OH2      OT      -0.834000       15.9994           0
     49225 TIP3     8948     TIP3     H1       HT       0.417000       1.00800           0
     49226 TIP3     8948     TIP3     H2       HT       0.417000       1.00800           0
     49227 TIP3     8949     TIP3     OH2      OT      -0.834000       15.9994           0
     49228 TIP3     8949     TIP3     H1       HT       0.417000       1.00800           0
     49229 TIP3     8949     TIP3     H2       HT       0.417000       1.00800           0
     49230 TIP3     8950     TIP3     OH2      OT      -0.834000       15.9994           0
     49231 TIP3     8950     TIP3     H1       HT       0.417000       1.00800           0
     49232 TIP3     8950     TIP3     H2       HT       0.417000       1.00800           0
     49233 TIP3     8951     TIP3     OH2      OT      -0.834000       15.9994           0
     49234 TIP3     8951     TIP3     H1       HT       0.417000       1.00800           0
     49235 TIP3     8951     TIP3     H2       HT       0.417000       1.00800           0
     49236 TIP3     8952     TIP3     OH2      OT      -0.834000       15.9994           0
     49237 TIP3     8952     TIP3     H1       HT       0.417000       1.00800           0
     49238 TIP3     8952     TIP3     H2       HT       0.417000       1.00800           0
     49239 TIP3     8953     TIP3     OH2      OT      -0.834000       15.9994           0
     49240 TIP3     8953     TIP3     H1       HT       0.417000       1.00800           0
     49241 TIP3     8953     TIP3     H2       HT       0.417000       1.00800           0
     49242 TIP3     8954     TIP3     OH2      OT      -0.834000       15.9994           0
     49243 TIP3     8954     TIP3     H1       HT       0.417000       1.00800           0
     49244 TIP3     8954     TIP3     H2       HT       0.417000       1.00800           0
     49245 TIP3     8955     TIP3     OH2      OT      -0.834000       15.9994           0
     49246 TIP3     8955     TIP3     H1       HT       0.417000       1.00800           0
     49247 TIP3     8955     TIP3     H2       HT       0.417000       1.00800           0
     49248 TIP3     8956     TIP3     OH2      OT      -0.834000       15.9994           0
     49249 TIP3     8956     TIP3     H1       HT       0.417000       1.00800           0
     49250 TIP3     8956     TIP3     H2       HT       0.417000       1.00800           0
     49251 TIP3     8957     TIP3     OH2      OT      -0.834000       15.9994           0
     49252 TIP3     8957     TIP3     H1       HT       0.417000       1.00800           0
     49253 TIP3     8957     TIP3     H2       HT       0.417000       1.00800           0
     49254 TIP3     8958     TIP3     OH2      OT      -0.834000       15.9994           0
     49255 TIP3     8958     TIP3     H1       HT       0.417000       1.00800           0
     49256 TIP3     8958     TIP3     H2       HT       0.417000       1.00800           0
     49257 TIP3     8959     TIP3     OH2      OT      -0.834000       15.9994           0
     49258 TIP3     8959     TIP3     H1       HT       0.417000       1.00800           0
     49259 TIP3     8959     TIP3     H2       HT       0.417000       1.00800           0
     49260 TIP3     8960     TIP3     OH2      OT      -0.834000       15.9994           0
     49261 TIP3     8960     TIP3     H1       HT       0.417000       1.00800           0
     49262 TIP3     8960     TIP3     H2       HT       0.417000       1.00800           0
     49263 TIP3     8961     TIP3     OH2      OT      -0.834000       15.9994           0
     49264 TIP3     8961     TIP3     H1       HT       0.417000       1.00800           0
     49265 TIP3     8961     TIP3     H2       HT       0.417000       1.00800           0
     49266 TIP3     8962     TIP3     OH2      OT      -0.834000       15.9994           0
     49267 TIP3     8962     TIP3     H1       HT       0.417000       1.00800           0
     49268 TIP3     8962     TIP3     H2       HT       0.417000       1.00800           0
     49269 TIP3     8963     TIP3     OH2      OT      -0.834000       15.9994           0
     49270 TIP3     8963     TIP3     H1       HT       0.417000       1.00800           0
     49271 TIP3     8963     TIP3     H2       HT       0.417000       1.00800           0
     49272 TIP3     8964     TIP3     OH2      OT      -0.834000       15.9994           0
     49273 TIP3     8964     TIP3     H1       HT       0.417000       1.00800           0
     49274 TIP3     8964     TIP3     H2       HT       0.417000       1.00800           0
     49275 TIP3     8965     TIP3     OH2      OT      -0.834000       15.9994           0
     49276 TIP3     8965     TIP3     H1       HT       0.417000       1.00800           0
     49277 TIP3     8965     TIP3     H2       HT       0.417000       1.00800           0
     49278 TIP3     8966     TIP3     OH2      OT      -0.834000       15.9994           0
     49279 TIP3     8966     TIP3     H1       HT       0.417000       1.00800           0
     49280 TIP3     8966     TIP3     H2       HT       0.417000       1.00800           0
     49281 TIP3     8967     TIP3     OH2      OT      -0.834000       15.9994           0
     49282 TIP3     8967     TIP3     H1       HT       0.417000       1.00800           0
     49283 TIP3     8967     TIP3     H2       HT       0.417000       1.00800           0
     49284 TIP3     8968     TIP3     OH2      OT      -0.834000       15.9994           0
     49285 TIP3     8968     TIP3     H1       HT       0.417000       1.00800           0
     49286 TIP3     8968     TIP3     H2       HT       0.417000       1.00800           0
     49287 TIP3     8969     TIP3     OH2      OT      -0.834000       15.9994           0
     49288 TIP3     8969     TIP3     H1       HT       0.417000       1.00800           0
     49289 TIP3     8969     TIP3     H2       HT       0.417000       1.00800           0
     49290 TIP3     8970     TIP3     OH2      OT      -0.834000       15.9994           0
     49291 TIP3     8970     TIP3     H1       HT       0.417000       1.00800           0
     49292 TIP3     8970     TIP3     H2       HT       0.417000       1.00800           0
     49293 TIP3     8971     TIP3     OH2      OT      -0.834000       15.9994           0
     49294 TIP3     8971     TIP3     H1       HT       0.417000       1.00800           0
     49295 TIP3     8971     TIP3     H2       HT       0.417000       1.00800           0
     49296 TIP3     8972     TIP3     OH2      OT      -0.834000       15.9994           0
     49297 TIP3     8972     TIP3     H1       HT       0.417000       1.00800           0
     49298 TIP3     8972     TIP3     H2       HT       0.417000       1.00800           0
     49299 TIP3     8973     TIP3     OH2      OT      -0.834000       15.9994           0
     49300 TIP3     8973     TIP3     H1       HT       0.417000       1.00800           0
     49301 TIP3     8973     TIP3     H2       HT       0.417000       1.00800           0
     49302 TIP3     8974     TIP3     OH2      OT      -0.834000       15.9994           0
     49303 TIP3     8974     TIP3     H1       HT       0.417000       1.00800           0
     49304 TIP3     8974     TIP3     H2       HT       0.417000       1.00800           0
     49305 TIP3     8975     TIP3     OH2      OT      -0.834000       15.9994           0
     49306 TIP3     8975     TIP3     H1       HT       0.417000       1.00800           0
     49307 TIP3     8975     TIP3     H2       HT       0.417000       1.00800           0
     49308 TIP3     8976     TIP3     OH2      OT      -0.834000       15.9994           0
     49309 TIP3     8976     TIP3     H1       HT       0.417000       1.00800           0
     49310 TIP3     8976     TIP3     H2       HT       0.417000       1.00800           0
     49311 TIP3     8977     TIP3     OH2      OT      -0.834000       15.9994           0
     49312 TIP3     8977     TIP3     H1       HT       0.417000       1.00800           0
     49313 TIP3     8977     TIP3     H2       HT       0.417000       1.00800           0
     49314 TIP3     8978     TIP3     OH2      OT      -0.834000       15.9994           0
     49315 TIP3     8978     TIP3     H1       HT       0.417000       1.00800           0
     49316 TIP3     8978     TIP3     H2       HT       0.417000       1.00800           0
     49317 TIP3     8979     TIP3     OH2      OT      -0.834000       15.9994           0
     49318 TIP3     8979     TIP3     H1       HT       0.417000       1.00800           0
     49319 TIP3     8979     TIP3     H2       HT       0.417000       1.00800           0
     49320 TIP3     8980     TIP3     OH2      OT      -0.834000       15.9994           0
     49321 TIP3     8980     TIP3     H1       HT       0.417000       1.00800           0
     49322 TIP3     8980     TIP3     H2       HT       0.417000       1.00800           0
     49323 TIP3     8981     TIP3     OH2      OT      -0.834000       15.9994           0
     49324 TIP3     8981     TIP3     H1       HT       0.417000       1.00800           0
     49325 TIP3     8981     TIP3     H2       HT       0.417000       1.00800           0
     49326 TIP3     8982     TIP3     OH2      OT      -0.834000       15.9994           0
     49327 TIP3     8982     TIP3     H1       HT       0.417000       1.00800           0
     49328 TIP3     8982     TIP3     H2       HT       0.417000       1.00800           0
     49329 TIP3     8983     TIP3     OH2      OT      -0.834000       15.9994           0
     49330 TIP3     8983     TIP3     H1       HT       0.417000       1.00800           0
     49331 TIP3     8983     TIP3     H2       HT       0.417000       1.00800           0
     49332 TIP3     8984     TIP3     OH2      OT      -0.834000       15.9994           0
     49333 TIP3     8984     TIP3     H1       HT       0.417000       1.00800           0
     49334 TIP3     8984     TIP3     H2       HT       0.417000       1.00800           0
     49335 TIP3     8985     TIP3     OH2      OT      -0.834000       15.9994           0
     49336 TIP3     8985     TIP3     H1       HT       0.417000       1.00800           0
     49337 TIP3     8985     TIP3     H2       HT       0.417000       1.00800           0
     49338 TIP3     8986     TIP3     OH2      OT      -0.834000       15.9994           0
     49339 TIP3     8986     TIP3     H1       HT       0.417000       1.00800           0
     49340 TIP3     8986     TIP3     H2       HT       0.417000       1.00800           0
     49341 TIP3     8987     TIP3     OH2      OT      -0.834000       15.9994           0
     49342 TIP3     8987     TIP3     H1       HT       0.417000       1.00800           0
     49343 TIP3     8987     TIP3     H2       HT       0.417000       1.00800           0
     49344 TIP3     8988     TIP3     OH2      OT      -0.834000       15.9994           0
     49345 TIP3     8988     TIP3     H1       HT       0.417000       1.00800           0
     49346 TIP3     8988     TIP3     H2       HT       0.417000       1.00800           0
     49347 TIP3     8989     TIP3     OH2      OT      -0.834000       15.9994           0
     49348 TIP3     8989     TIP3     H1       HT       0.417000       1.00800           0
     49349 TIP3     8989     TIP3     H2       HT       0.417000       1.00800           0
     49350 TIP3     8990     TIP3     OH2      OT      -0.834000       15.9994           0
     49351 TIP3     8990     TIP3     H1       HT       0.417000       1.00800           0
     49352 TIP3     8990     TIP3     H2       HT       0.417000       1.00800           0
     49353 TIP3     8991     TIP3     OH2      OT      -0.834000       15.9994           0
     49354 TIP3     8991     TIP3     H1       HT       0.417000       1.00800           0
     49355 TIP3     8991     TIP3     H2       HT       0.417000       1.00800           0
     49356 TIP3     8992     TIP3     OH2      OT      -0.834000       15.9994           0
     49357 TIP3     8992     TIP3     H1       HT       0.417000       1.00800           0
     49358 TIP3     8992     TIP3     H2       HT       0.417000       1.00800           0
     49359 TIP3     8993     TIP3     OH2      OT      -0.834000       15.9994           0
     49360 TIP3     8993     TIP3     H1       HT       0.417000       1.00800           0
     49361 TIP3     8993     TIP3     H2       HT       0.417000       1.00800           0
     49362 TIP3     8994     TIP3     OH2      OT      -0.834000       15.9994           0
     49363 TIP3     8994     TIP3     H1       HT       0.417000       1.00800           0
     49364 TIP3     8994     TIP3     H2       HT       0.417000       1.00800           0
     49365 TIP3     8995     TIP3     OH2      OT      -0.834000       15.9994           0
     49366 TIP3     8995     TIP3     H1       HT       0.417000       1.00800           0
     49367 TIP3     8995     TIP3     H2       HT       0.417000       1.00800           0
     49368 TIP3     8996     TIP3     OH2      OT      -0.834000       15.9994           0
     49369 TIP3     8996     TIP3     H1       HT       0.417000       1.00800           0
     49370 TIP3     8996     TIP3     H2       HT       0.417000       1.00800           0
     49371 TIP3     8997     TIP3     OH2      OT      -0.834000       15.9994           0
     49372 TIP3     8997     TIP3     H1       HT       0.417000       1.00800           0
     49373 TIP3     8997     TIP3     H2       HT       0.417000       1.00800           0
     49374 TIP3     8998     TIP3     OH2      OT      -0.834000       15.9994           0
     49375 TIP3     8998     TIP3     H1       HT       0.417000       1.00800           0
     49376 TIP3     8998     TIP3     H2       HT       0.417000       1.00800           0
     49377 TIP3     8999     TIP3     OH2      OT      -0.834000       15.9994           0
     49378 TIP3     8999     TIP3     H1       HT       0.417000       1.00800           0
     49379 TIP3     8999     TIP3     H2       HT       0.417000       1.00800           0
     49380 TIP3     9000     TIP3     OH2      OT      -0.834000       15.9994           0
     49381 TIP3     9000     TIP3     H1       HT       0.417000       1.00800           0
     49382 TIP3     9000     TIP3     H2       HT       0.417000       1.00800           0
     49383 TIP3     9001     TIP3     OH2      OT      -0.834000       15.9994           0
     49384 TIP3     9001     TIP3     H1       HT       0.417000       1.00800           0
     49385 TIP3     9001     TIP3     H2       HT       0.417000       1.00800           0
     49386 TIP3     9002     TIP3     OH2      OT      -0.834000       15.9994           0
     49387 TIP3     9002     TIP3     H1       HT       0.417000       1.00800           0
     49388 TIP3     9002     TIP3     H2       HT       0.417000       1.00800           0
     49389 TIP3     9003     TIP3     OH2      OT      -0.834000       15.9994           0
     49390 TIP3     9003     TIP3     H1       HT       0.417000       1.00800           0
     49391 TIP3     9003     TIP3     H2       HT       0.417000       1.00800           0
     49392 TIP3     9004     TIP3     OH2      OT      -0.834000       15.9994           0
     49393 TIP3     9004     TIP3     H1       HT       0.417000       1.00800           0
     49394 TIP3     9004     TIP3     H2       HT       0.417000       1.00800           0
     49395 TIP3     9005     TIP3     OH2      OT      -0.834000       15.9994           0
     49396 TIP3     9005     TIP3     H1       HT       0.417000       1.00800           0
     49397 TIP3     9005     TIP3     H2       HT       0.417000       1.00800           0
     49398 TIP3     9006     TIP3     OH2      OT      -0.834000       15.9994           0
     49399 TIP3     9006     TIP3     H1       HT       0.417000       1.00800           0
     49400 TIP3     9006     TIP3     H2       HT       0.417000       1.00800           0
     49401 TIP3     9007     TIP3     OH2      OT      -0.834000       15.9994           0
     49402 TIP3     9007     TIP3     H1       HT       0.417000       1.00800           0
     49403 TIP3     9007     TIP3     H2       HT       0.417000       1.00800           0
     49404 TIP3     9008     TIP3     OH2      OT      -0.834000       15.9994           0
     49405 TIP3     9008     TIP3     H1       HT       0.417000       1.00800           0
     49406 TIP3     9008     TIP3     H2       HT       0.417000       1.00800           0
     49407 TIP3     9009     TIP3     OH2      OT      -0.834000       15.9994           0
     49408 TIP3     9009     TIP3     H1       HT       0.417000       1.00800           0
     49409 TIP3     9009     TIP3     H2       HT       0.417000       1.00800           0
     49410 TIP3     9010     TIP3     OH2      OT      -0.834000       15.9994           0
     49411 TIP3     9010     TIP3     H1       HT       0.417000       1.00800           0
     49412 TIP3     9010     TIP3     H2       HT       0.417000       1.00800           0
     49413 TIP3     9011     TIP3     OH2      OT      -0.834000       15.9994           0
     49414 TIP3     9011     TIP3     H1       HT       0.417000       1.00800           0
     49415 TIP3     9011     TIP3     H2       HT       0.417000       1.00800           0
     49416 TIP3     9012     TIP3     OH2      OT      -0.834000       15.9994           0
     49417 TIP3     9012     TIP3     H1       HT       0.417000       1.00800           0
     49418 TIP3     9012     TIP3     H2       HT       0.417000       1.00800           0
     49419 TIP3     9013     TIP3     OH2      OT      -0.834000       15.9994           0
     49420 TIP3     9013     TIP3     H1       HT       0.417000       1.00800           0
     49421 TIP3     9013     TIP3     H2       HT       0.417000       1.00800           0
     49422 TIP3     9014     TIP3     OH2      OT      -0.834000       15.9994           0
     49423 TIP3     9014     TIP3     H1       HT       0.417000       1.00800           0
     49424 TIP3     9014     TIP3     H2       HT       0.417000       1.00800           0
     49425 TIP3     9015     TIP3     OH2      OT      -0.834000       15.9994           0
     49426 TIP3     9015     TIP3     H1       HT       0.417000       1.00800           0
     49427 TIP3     9015     TIP3     H2       HT       0.417000       1.00800           0
     49428 TIP3     9016     TIP3     OH2      OT      -0.834000       15.9994           0
     49429 TIP3     9016     TIP3     H1       HT       0.417000       1.00800           0
     49430 TIP3     9016     TIP3     H2       HT       0.417000       1.00800           0
     49431 TIP3     9017     TIP3     OH2      OT      -0.834000       15.9994           0
     49432 TIP3     9017     TIP3     H1       HT       0.417000       1.00800           0
     49433 TIP3     9017     TIP3     H2       HT       0.417000       1.00800           0
     49434 TIP3     9018     TIP3     OH2      OT      -0.834000       15.9994           0
     49435 TIP3     9018     TIP3     H1       HT       0.417000       1.00800           0
     49436 TIP3     9018     TIP3     H2       HT       0.417000       1.00800           0
     49437 TIP3     9019     TIP3     OH2      OT      -0.834000       15.9994           0
     49438 TIP3     9019     TIP3     H1       HT       0.417000       1.00800           0
     49439 TIP3     9019     TIP3     H2       HT       0.417000       1.00800           0
     49440 TIP3     9020     TIP3     OH2      OT      -0.834000       15.9994           0
     49441 TIP3     9020     TIP3     H1       HT       0.417000       1.00800           0
     49442 TIP3     9020     TIP3     H2       HT       0.417000       1.00800           0
     49443 TIP3     9021     TIP3     OH2      OT      -0.834000       15.9994           0
     49444 TIP3     9021     TIP3     H1       HT       0.417000       1.00800           0
     49445 TIP3     9021     TIP3     H2       HT       0.417000       1.00800           0
     49446 TIP3     9022     TIP3     OH2      OT      -0.834000       15.9994           0
     49447 TIP3     9022     TIP3     H1       HT       0.417000       1.00800           0
     49448 TIP3     9022     TIP3     H2       HT       0.417000       1.00800           0
     49449 TIP3     9023     TIP3     OH2      OT      -0.834000       15.9994           0
     49450 TIP3     9023     TIP3     H1       HT       0.417000       1.00800           0
     49451 TIP3     9023     TIP3     H2       HT       0.417000       1.00800           0
     49452 TIP3     9024     TIP3     OH2      OT      -0.834000       15.9994           0
     49453 TIP3     9024     TIP3     H1       HT       0.417000       1.00800           0
     49454 TIP3     9024     TIP3     H2       HT       0.417000       1.00800           0
     49455 TIP3     9025     TIP3     OH2      OT      -0.834000       15.9994           0
     49456 TIP3     9025     TIP3     H1       HT       0.417000       1.00800           0
     49457 TIP3     9025     TIP3     H2       HT       0.417000       1.00800           0
     49458 TIP3     9026     TIP3     OH2      OT      -0.834000       15.9994           0
     49459 TIP3     9026     TIP3     H1       HT       0.417000       1.00800           0
     49460 TIP3     9026     TIP3     H2       HT       0.417000       1.00800           0
     49461 TIP3     9027     TIP3     OH2      OT      -0.834000       15.9994           0
     49462 TIP3     9027     TIP3     H1       HT       0.417000       1.00800           0
     49463 TIP3     9027     TIP3     H2       HT       0.417000       1.00800           0
     49464 TIP3     9028     TIP3     OH2      OT      -0.834000       15.9994           0
     49465 TIP3     9028     TIP3     H1       HT       0.417000       1.00800           0
     49466 TIP3     9028     TIP3     H2       HT       0.417000       1.00800           0
     49467 TIP3     9029     TIP3     OH2      OT      -0.834000       15.9994           0
     49468 TIP3     9029     TIP3     H1       HT       0.417000       1.00800           0
     49469 TIP3     9029     TIP3     H2       HT       0.417000       1.00800           0
     49470 TIP3     9030     TIP3     OH2      OT      -0.834000       15.9994           0
     49471 TIP3     9030     TIP3     H1       HT       0.417000       1.00800           0
     49472 TIP3     9030     TIP3     H2       HT       0.417000       1.00800           0
     49473 TIP3     9031     TIP3     OH2      OT      -0.834000       15.9994           0
     49474 TIP3     9031     TIP3     H1       HT       0.417000       1.00800           0
     49475 TIP3     9031     TIP3     H2       HT       0.417000       1.00800           0
     49476 TIP3     9032     TIP3     OH2      OT      -0.834000       15.9994           0
     49477 TIP3     9032     TIP3     H1       HT       0.417000       1.00800           0
     49478 TIP3     9032     TIP3     H2       HT       0.417000       1.00800           0
     49479 TIP3     9033     TIP3     OH2      OT      -0.834000       15.9994           0
     49480 TIP3     9033     TIP3     H1       HT       0.417000       1.00800           0
     49481 TIP3     9033     TIP3     H2       HT       0.417000       1.00800           0
     49482 TIP3     9034     TIP3     OH2      OT      -0.834000       15.9994           0
     49483 TIP3     9034     TIP3     H1       HT       0.417000       1.00800           0
     49484 TIP3     9034     TIP3     H2       HT       0.417000       1.00800           0
     49485 TIP3     9035     TIP3     OH2      OT      -0.834000       15.9994           0
     49486 TIP3     9035     TIP3     H1       HT       0.417000       1.00800           0
     49487 TIP3     9035     TIP3     H2       HT       0.417000       1.00800           0
     49488 TIP3     9036     TIP3     OH2      OT      -0.834000       15.9994           0
     49489 TIP3     9036     TIP3     H1       HT       0.417000       1.00800           0
     49490 TIP3     9036     TIP3     H2       HT       0.417000       1.00800           0
     49491 TIP3     9037     TIP3     OH2      OT      -0.834000       15.9994           0
     49492 TIP3     9037     TIP3     H1       HT       0.417000       1.00800           0
     49493 TIP3     9037     TIP3     H2       HT       0.417000       1.00800           0
     49494 TIP3     9038     TIP3     OH2      OT      -0.834000       15.9994           0
     49495 TIP3     9038     TIP3     H1       HT       0.417000       1.00800           0
     49496 TIP3     9038     TIP3     H2       HT       0.417000       1.00800           0
     49497 TIP3     9039     TIP3     OH2      OT      -0.834000       15.9994           0
     49498 TIP3     9039     TIP3     H1       HT       0.417000       1.00800           0
     49499 TIP3     9039     TIP3     H2       HT       0.417000       1.00800           0
     49500 TIP3     9040     TIP3     OH2      OT      -0.834000       15.9994           0
     49501 TIP3     9040     TIP3     H1       HT       0.417000       1.00800           0
     49502 TIP3     9040     TIP3     H2       HT       0.417000       1.00800           0
     49503 TIP3     9041     TIP3     OH2      OT      -0.834000       15.9994           0
     49504 TIP3     9041     TIP3     H1       HT       0.417000       1.00800           0
     49505 TIP3     9041     TIP3     H2       HT       0.417000       1.00800           0
     49506 TIP3     9042     TIP3     OH2      OT      -0.834000       15.9994           0
     49507 TIP3     9042     TIP3     H1       HT       0.417000       1.00800           0
     49508 TIP3     9042     TIP3     H2       HT       0.417000       1.00800           0
     49509 TIP3     9043     TIP3     OH2      OT      -0.834000       15.9994           0
     49510 TIP3     9043     TIP3     H1       HT       0.417000       1.00800           0
     49511 TIP3     9043     TIP3     H2       HT       0.417000       1.00800           0
     49512 TIP3     9044     TIP3     OH2      OT      -0.834000       15.9994           0
     49513 TIP3     9044     TIP3     H1       HT       0.417000       1.00800           0
     49514 TIP3     9044     TIP3     H2       HT       0.417000       1.00800           0
     49515 TIP3     9045     TIP3     OH2      OT      -0.834000       15.9994           0
     49516 TIP3     9045     TIP3     H1       HT       0.417000       1.00800           0
     49517 TIP3     9045     TIP3     H2       HT       0.417000       1.00800           0
     49518 TIP3     9046     TIP3     OH2      OT      -0.834000       15.9994           0
     49519 TIP3     9046     TIP3     H1       HT       0.417000       1.00800           0
     49520 TIP3     9046     TIP3     H2       HT       0.417000       1.00800           0
     49521 TIP3     9047     TIP3     OH2      OT      -0.834000       15.9994           0
     49522 TIP3     9047     TIP3     H1       HT       0.417000       1.00800           0
     49523 TIP3     9047     TIP3     H2       HT       0.417000       1.00800           0
     49524 TIP3     9048     TIP3     OH2      OT      -0.834000       15.9994           0
     49525 TIP3     9048     TIP3     H1       HT       0.417000       1.00800           0
     49526 TIP3     9048     TIP3     H2       HT       0.417000       1.00800           0
     49527 TIP3     9049     TIP3     OH2      OT      -0.834000       15.9994           0
     49528 TIP3     9049     TIP3     H1       HT       0.417000       1.00800           0
     49529 TIP3     9049     TIP3     H2       HT       0.417000       1.00800           0
     49530 TIP3     9050     TIP3     OH2      OT      -0.834000       15.9994           0
     49531 TIP3     9050     TIP3     H1       HT       0.417000       1.00800           0
     49532 TIP3     9050     TIP3     H2       HT       0.417000       1.00800           0
     49533 TIP3     9051     TIP3     OH2      OT      -0.834000       15.9994           0
     49534 TIP3     9051     TIP3     H1       HT       0.417000       1.00800           0
     49535 TIP3     9051     TIP3     H2       HT       0.417000       1.00800           0
     49536 TIP3     9052     TIP3     OH2      OT      -0.834000       15.9994           0
     49537 TIP3     9052     TIP3     H1       HT       0.417000       1.00800           0
     49538 TIP3     9052     TIP3     H2       HT       0.417000       1.00800           0
     49539 TIP3     9053     TIP3     OH2      OT      -0.834000       15.9994           0
     49540 TIP3     9053     TIP3     H1       HT       0.417000       1.00800           0
     49541 TIP3     9053     TIP3     H2       HT       0.417000       1.00800           0
     49542 TIP3     9054     TIP3     OH2      OT      -0.834000       15.9994           0
     49543 TIP3     9054     TIP3     H1       HT       0.417000       1.00800           0
     49544 TIP3     9054     TIP3     H2       HT       0.417000       1.00800           0
     49545 TIP3     9055     TIP3     OH2      OT      -0.834000       15.9994           0
     49546 TIP3     9055     TIP3     H1       HT       0.417000       1.00800           0
     49547 TIP3     9055     TIP3     H2       HT       0.417000       1.00800           0
     49548 TIP3     9056     TIP3     OH2      OT      -0.834000       15.9994           0
     49549 TIP3     9056     TIP3     H1       HT       0.417000       1.00800           0
     49550 TIP3     9056     TIP3     H2       HT       0.417000       1.00800           0
     49551 TIP3     9057     TIP3     OH2      OT      -0.834000       15.9994           0
     49552 TIP3     9057     TIP3     H1       HT       0.417000       1.00800           0
     49553 TIP3     9057     TIP3     H2       HT       0.417000       1.00800           0
     49554 TIP3     9058     TIP3     OH2      OT      -0.834000       15.9994           0
     49555 TIP3     9058     TIP3     H1       HT       0.417000       1.00800           0
     49556 TIP3     9058     TIP3     H2       HT       0.417000       1.00800           0
     49557 TIP3     9059     TIP3     OH2      OT      -0.834000       15.9994           0
     49558 TIP3     9059     TIP3     H1       HT       0.417000       1.00800           0
     49559 TIP3     9059     TIP3     H2       HT       0.417000       1.00800           0
     49560 TIP3     9060     TIP3     OH2      OT      -0.834000       15.9994           0
     49561 TIP3     9060     TIP3     H1       HT       0.417000       1.00800           0
     49562 TIP3     9060     TIP3     H2       HT       0.417000       1.00800           0
     49563 TIP3     9061     TIP3     OH2      OT      -0.834000       15.9994           0
     49564 TIP3     9061     TIP3     H1       HT       0.417000       1.00800           0
     49565 TIP3     9061     TIP3     H2       HT       0.417000       1.00800           0
     49566 TIP3     9062     TIP3     OH2      OT      -0.834000       15.9994           0
     49567 TIP3     9062     TIP3     H1       HT       0.417000       1.00800           0
     49568 TIP3     9062     TIP3     H2       HT       0.417000       1.00800           0
     49569 TIP3     9063     TIP3     OH2      OT      -0.834000       15.9994           0
     49570 TIP3     9063     TIP3     H1       HT       0.417000       1.00800           0
     49571 TIP3     9063     TIP3     H2       HT       0.417000       1.00800           0
     49572 TIP3     9064     TIP3     OH2      OT      -0.834000       15.9994           0
     49573 TIP3     9064     TIP3     H1       HT       0.417000       1.00800           0
     49574 TIP3     9064     TIP3     H2       HT       0.417000       1.00800           0
     49575 TIP3     9065     TIP3     OH2      OT      -0.834000       15.9994           0
     49576 TIP3     9065     TIP3     H1       HT       0.417000       1.00800           0
     49577 TIP3     9065     TIP3     H2       HT       0.417000       1.00800           0
     49578 TIP3     9066     TIP3     OH2      OT      -0.834000       15.9994           0
     49579 TIP3     9066     TIP3     H1       HT       0.417000       1.00800           0
     49580 TIP3     9066     TIP3     H2       HT       0.417000       1.00800           0
     49581 TIP3     9067     TIP3     OH2      OT      -0.834000       15.9994           0
     49582 TIP3     9067     TIP3     H1       HT       0.417000       1.00800           0
     49583 TIP3     9067     TIP3     H2       HT       0.417000       1.00800           0
     49584 TIP3     9068     TIP3     OH2      OT      -0.834000       15.9994           0
     49585 TIP3     9068     TIP3     H1       HT       0.417000       1.00800           0
     49586 TIP3     9068     TIP3     H2       HT       0.417000       1.00800           0
     49587 TIP3     9069     TIP3     OH2      OT      -0.834000       15.9994           0
     49588 TIP3     9069     TIP3     H1       HT       0.417000       1.00800           0
     49589 TIP3     9069     TIP3     H2       HT       0.417000       1.00800           0
     49590 TIP3     9070     TIP3     OH2      OT      -0.834000       15.9994           0
     49591 TIP3     9070     TIP3     H1       HT       0.417000       1.00800           0
     49592 TIP3     9070     TIP3     H2       HT       0.417000       1.00800           0
     49593 TIP3     9071     TIP3     OH2      OT      -0.834000       15.9994           0
     49594 TIP3     9071     TIP3     H1       HT       0.417000       1.00800           0
     49595 TIP3     9071     TIP3     H2       HT       0.417000       1.00800           0
     49596 TIP3     9072     TIP3     OH2      OT      -0.834000       15.9994           0
     49597 TIP3     9072     TIP3     H1       HT       0.417000       1.00800           0
     49598 TIP3     9072     TIP3     H2       HT       0.417000       1.00800           0
     49599 TIP3     9073     TIP3     OH2      OT      -0.834000       15.9994           0
     49600 TIP3     9073     TIP3     H1       HT       0.417000       1.00800           0
     49601 TIP3     9073     TIP3     H2       HT       0.417000       1.00800           0
     49602 TIP3     9074     TIP3     OH2      OT      -0.834000       15.9994           0
     49603 TIP3     9074     TIP3     H1       HT       0.417000       1.00800           0
     49604 TIP3     9074     TIP3     H2       HT       0.417000       1.00800           0
     49605 TIP3     9075     TIP3     OH2      OT      -0.834000       15.9994           0
     49606 TIP3     9075     TIP3     H1       HT       0.417000       1.00800           0
     49607 TIP3     9075     TIP3     H2       HT       0.417000       1.00800           0
     49608 TIP3     9076     TIP3     OH2      OT      -0.834000       15.9994           0
     49609 TIP3     9076     TIP3     H1       HT       0.417000       1.00800           0
     49610 TIP3     9076     TIP3     H2       HT       0.417000       1.00800           0
     49611 TIP3     9077     TIP3     OH2      OT      -0.834000       15.9994           0
     49612 TIP3     9077     TIP3     H1       HT       0.417000       1.00800           0
     49613 TIP3     9077     TIP3     H2       HT       0.417000       1.00800           0
     49614 TIP3     9078     TIP3     OH2      OT      -0.834000       15.9994           0
     49615 TIP3     9078     TIP3     H1       HT       0.417000       1.00800           0
     49616 TIP3     9078     TIP3     H2       HT       0.417000       1.00800           0
     49617 TIP3     9079     TIP3     OH2      OT      -0.834000       15.9994           0
     49618 TIP3     9079     TIP3     H1       HT       0.417000       1.00800           0
     49619 TIP3     9079     TIP3     H2       HT       0.417000       1.00800           0
     49620 TIP3     9080     TIP3     OH2      OT      -0.834000       15.9994           0
     49621 TIP3     9080     TIP3     H1       HT       0.417000       1.00800           0
     49622 TIP3     9080     TIP3     H2       HT       0.417000       1.00800           0
     49623 TIP3     9081     TIP3     OH2      OT      -0.834000       15.9994           0
     49624 TIP3     9081     TIP3     H1       HT       0.417000       1.00800           0
     49625 TIP3     9081     TIP3     H2       HT       0.417000       1.00800           0
     49626 TIP3     9082     TIP3     OH2      OT      -0.834000       15.9994           0
     49627 TIP3     9082     TIP3     H1       HT       0.417000       1.00800           0
     49628 TIP3     9082     TIP3     H2       HT       0.417000       1.00800           0
     49629 TIP3     9083     TIP3     OH2      OT      -0.834000       15.9994           0
     49630 TIP3     9083     TIP3     H1       HT       0.417000       1.00800           0
     49631 TIP3     9083     TIP3     H2       HT       0.417000       1.00800           0
     49632 TIP3     9084     TIP3     OH2      OT      -0.834000       15.9994           0
     49633 TIP3     9084     TIP3     H1       HT       0.417000       1.00800           0
     49634 TIP3     9084     TIP3     H2       HT       0.417000       1.00800           0
     49635 TIP3     9085     TIP3     OH2      OT      -0.834000       15.9994           0
     49636 TIP3     9085     TIP3     H1       HT       0.417000       1.00800           0
     49637 TIP3     9085     TIP3     H2       HT       0.417000       1.00800           0
     49638 TIP3     9086     TIP3     OH2      OT      -0.834000       15.9994           0
     49639 TIP3     9086     TIP3     H1       HT       0.417000       1.00800           0
     49640 TIP3     9086     TIP3     H2       HT       0.417000       1.00800           0
     49641 TIP3     9087     TIP3     OH2      OT      -0.834000       15.9994           0
     49642 TIP3     9087     TIP3     H1       HT       0.417000       1.00800           0
     49643 TIP3     9087     TIP3     H2       HT       0.417000       1.00800           0
     49644 TIP3     9088     TIP3     OH2      OT      -0.834000       15.9994           0
     49645 TIP3     9088     TIP3     H1       HT       0.417000       1.00800           0
     49646 TIP3     9088     TIP3     H2       HT       0.417000       1.00800           0
     49647 TIP3     9089     TIP3     OH2      OT      -0.834000       15.9994           0
     49648 TIP3     9089     TIP3     H1       HT       0.417000       1.00800           0
     49649 TIP3     9089     TIP3     H2       HT       0.417000       1.00800           0
     49650 TIP3     9090     TIP3     OH2      OT      -0.834000       15.9994           0
     49651 TIP3     9090     TIP3     H1       HT       0.417000       1.00800           0
     49652 TIP3     9090     TIP3     H2       HT       0.417000       1.00800           0
     49653 TIP3     9091     TIP3     OH2      OT      -0.834000       15.9994           0
     49654 TIP3     9091     TIP3     H1       HT       0.417000       1.00800           0
     49655 TIP3     9091     TIP3     H2       HT       0.417000       1.00800           0
     49656 TIP3     9092     TIP3     OH2      OT      -0.834000       15.9994           0
     49657 TIP3     9092     TIP3     H1       HT       0.417000       1.00800           0
     49658 TIP3     9092     TIP3     H2       HT       0.417000       1.00800           0
     49659 TIP3     9093     TIP3     OH2      OT      -0.834000       15.9994           0
     49660 TIP3     9093     TIP3     H1       HT       0.417000       1.00800           0
     49661 TIP3     9093     TIP3     H2       HT       0.417000       1.00800           0
     49662 TIP3     9094     TIP3     OH2      OT      -0.834000       15.9994           0
     49663 TIP3     9094     TIP3     H1       HT       0.417000       1.00800           0
     49664 TIP3     9094     TIP3     H2       HT       0.417000       1.00800           0
     49665 TIP3     9095     TIP3     OH2      OT      -0.834000       15.9994           0
     49666 TIP3     9095     TIP3     H1       HT       0.417000       1.00800           0
     49667 TIP3     9095     TIP3     H2       HT       0.417000       1.00800           0
     49668 TIP3     9096     TIP3     OH2      OT      -0.834000       15.9994           0
     49669 TIP3     9096     TIP3     H1       HT       0.417000       1.00800           0
     49670 TIP3     9096     TIP3     H2       HT       0.417000       1.00800           0
     49671 TIP3     9097     TIP3     OH2      OT      -0.834000       15.9994           0
     49672 TIP3     9097     TIP3     H1       HT       0.417000       1.00800           0
     49673 TIP3     9097     TIP3     H2       HT       0.417000       1.00800           0
     49674 TIP3     9098     TIP3     OH2      OT      -0.834000       15.9994           0
     49675 TIP3     9098     TIP3     H1       HT       0.417000       1.00800           0
     49676 TIP3     9098     TIP3     H2       HT       0.417000       1.00800           0
     49677 TIP3     9099     TIP3     OH2      OT      -0.834000       15.9994           0
     49678 TIP3     9099     TIP3     H1       HT       0.417000       1.00800           0
     49679 TIP3     9099     TIP3     H2       HT       0.417000       1.00800           0
     49680 TIP3     9100     TIP3     OH2      OT      -0.834000       15.9994           0
     49681 TIP3     9100     TIP3     H1       HT       0.417000       1.00800           0
     49682 TIP3     9100     TIP3     H2       HT       0.417000       1.00800           0
     49683 TIP3     9101     TIP3     OH2      OT      -0.834000       15.9994           0
     49684 TIP3     9101     TIP3     H1       HT       0.417000       1.00800           0
     49685 TIP3     9101     TIP3     H2       HT       0.417000       1.00800           0
     49686 TIP3     9102     TIP3     OH2      OT      -0.834000       15.9994           0
     49687 TIP3     9102     TIP3     H1       HT       0.417000       1.00800           0
     49688 TIP3     9102     TIP3     H2       HT       0.417000       1.00800           0
     49689 TIP3     9103     TIP3     OH2      OT      -0.834000       15.9994           0
     49690 TIP3     9103     TIP3     H1       HT       0.417000       1.00800           0
     49691 TIP3     9103     TIP3     H2       HT       0.417000       1.00800           0
     49692 TIP3     9104     TIP3     OH2      OT      -0.834000       15.9994           0
     49693 TIP3     9104     TIP3     H1       HT       0.417000       1.00800           0
     49694 TIP3     9104     TIP3     H2       HT       0.417000       1.00800           0
     49695 TIP3     9105     TIP3     OH2      OT      -0.834000       15.9994           0
     49696 TIP3     9105     TIP3     H1       HT       0.417000       1.00800           0
     49697 TIP3     9105     TIP3     H2       HT       0.417000       1.00800           0
     49698 TIP3     9106     TIP3     OH2      OT      -0.834000       15.9994           0
     49699 TIP3     9106     TIP3     H1       HT       0.417000       1.00800           0
     49700 TIP3     9106     TIP3     H2       HT       0.417000       1.00800           0
     49701 TIP3     9107     TIP3     OH2      OT      -0.834000       15.9994           0
     49702 TIP3     9107     TIP3     H1       HT       0.417000       1.00800           0
     49703 TIP3     9107     TIP3     H2       HT       0.417000       1.00800           0
     49704 TIP3     9108     TIP3     OH2      OT      -0.834000       15.9994           0
     49705 TIP3     9108     TIP3     H1       HT       0.417000       1.00800           0
     49706 TIP3     9108     TIP3     H2       HT       0.417000       1.00800           0
     49707 TIP3     9109     TIP3     OH2      OT      -0.834000       15.9994           0
     49708 TIP3     9109     TIP3     H1       HT       0.417000       1.00800           0
     49709 TIP3     9109     TIP3     H2       HT       0.417000       1.00800           0
     49710 TIP3     9110     TIP3     OH2      OT      -0.834000       15.9994           0
     49711 TIP3     9110     TIP3     H1       HT       0.417000       1.00800           0
     49712 TIP3     9110     TIP3     H2       HT       0.417000       1.00800           0
     49713 TIP3     9111     TIP3     OH2      OT      -0.834000       15.9994           0
     49714 TIP3     9111     TIP3     H1       HT       0.417000       1.00800           0
     49715 TIP3     9111     TIP3     H2       HT       0.417000       1.00800           0
     49716 TIP3     9112     TIP3     OH2      OT      -0.834000       15.9994           0
     49717 TIP3     9112     TIP3     H1       HT       0.417000       1.00800           0
     49718 TIP3     9112     TIP3     H2       HT       0.417000       1.00800           0
     49719 TIP3     9113     TIP3     OH2      OT      -0.834000       15.9994           0
     49720 TIP3     9113     TIP3     H1       HT       0.417000       1.00800           0
     49721 TIP3     9113     TIP3     H2       HT       0.417000       1.00800           0
     49722 TIP3     9114     TIP3     OH2      OT      -0.834000       15.9994           0
     49723 TIP3     9114     TIP3     H1       HT       0.417000       1.00800           0
     49724 TIP3     9114     TIP3     H2       HT       0.417000       1.00800           0
     49725 TIP3     9115     TIP3     OH2      OT      -0.834000       15.9994           0
     49726 TIP3     9115     TIP3     H1       HT       0.417000       1.00800           0
     49727 TIP3     9115     TIP3     H2       HT       0.417000       1.00800           0
     49728 TIP3     9116     TIP3     OH2      OT      -0.834000       15.9994           0
     49729 TIP3     9116     TIP3     H1       HT       0.417000       1.00800           0
     49730 TIP3     9116     TIP3     H2       HT       0.417000       1.00800           0
     49731 TIP3     9117     TIP3     OH2      OT      -0.834000       15.9994           0
     49732 TIP3     9117     TIP3     H1       HT       0.417000       1.00800           0
     49733 TIP3     9117     TIP3     H2       HT       0.417000       1.00800           0
     49734 TIP3     9118     TIP3     OH2      OT      -0.834000       15.9994           0
     49735 TIP3     9118     TIP3     H1       HT       0.417000       1.00800           0
     49736 TIP3     9118     TIP3     H2       HT       0.417000       1.00800           0
     49737 TIP3     9119     TIP3     OH2      OT      -0.834000       15.9994           0
     49738 TIP3     9119     TIP3     H1       HT       0.417000       1.00800           0
     49739 TIP3     9119     TIP3     H2       HT       0.417000       1.00800           0
     49740 TIP3     9120     TIP3     OH2      OT      -0.834000       15.9994           0
     49741 TIP3     9120     TIP3     H1       HT       0.417000       1.00800           0
     49742 TIP3     9120     TIP3     H2       HT       0.417000       1.00800           0
     49743 TIP3     9121     TIP3     OH2      OT      -0.834000       15.9994           0
     49744 TIP3     9121     TIP3     H1       HT       0.417000       1.00800           0
     49745 TIP3     9121     TIP3     H2       HT       0.417000       1.00800           0
     49746 TIP3     9122     TIP3     OH2      OT      -0.834000       15.9994           0
     49747 TIP3     9122     TIP3     H1       HT       0.417000       1.00800           0
     49748 TIP3     9122     TIP3     H2       HT       0.417000       1.00800           0
     49749 TIP3     9123     TIP3     OH2      OT      -0.834000       15.9994           0
     49750 TIP3     9123     TIP3     H1       HT       0.417000       1.00800           0
     49751 TIP3     9123     TIP3     H2       HT       0.417000       1.00800           0
     49752 TIP3     9124     TIP3     OH2      OT      -0.834000       15.9994           0
     49753 TIP3     9124     TIP3     H1       HT       0.417000       1.00800           0
     49754 TIP3     9124     TIP3     H2       HT       0.417000       1.00800           0
     49755 TIP3     9125     TIP3     OH2      OT      -0.834000       15.9994           0
     49756 TIP3     9125     TIP3     H1       HT       0.417000       1.00800           0
     49757 TIP3     9125     TIP3     H2       HT       0.417000       1.00800           0
     49758 TIP3     9126     TIP3     OH2      OT      -0.834000       15.9994           0
     49759 TIP3     9126     TIP3     H1       HT       0.417000       1.00800           0
     49760 TIP3     9126     TIP3     H2       HT       0.417000       1.00800           0
     49761 TIP3     9127     TIP3     OH2      OT      -0.834000       15.9994           0
     49762 TIP3     9127     TIP3     H1       HT       0.417000       1.00800           0
     49763 TIP3     9127     TIP3     H2       HT       0.417000       1.00800           0
     49764 TIP3     9128     TIP3     OH2      OT      -0.834000       15.9994           0
     49765 TIP3     9128     TIP3     H1       HT       0.417000       1.00800           0
     49766 TIP3     9128     TIP3     H2       HT       0.417000       1.00800           0
     49767 TIP3     9129     TIP3     OH2      OT      -0.834000       15.9994           0
     49768 TIP3     9129     TIP3     H1       HT       0.417000       1.00800           0
     49769 TIP3     9129     TIP3     H2       HT       0.417000       1.00800           0
     49770 TIP3     9130     TIP3     OH2      OT      -0.834000       15.9994           0
     49771 TIP3     9130     TIP3     H1       HT       0.417000       1.00800           0
     49772 TIP3     9130     TIP3     H2       HT       0.417000       1.00800           0
     49773 TIP3     9131     TIP3     OH2      OT      -0.834000       15.9994           0
     49774 TIP3     9131     TIP3     H1       HT       0.417000       1.00800           0
     49775 TIP3     9131     TIP3     H2       HT       0.417000       1.00800           0
     49776 TIP3     9132     TIP3     OH2      OT      -0.834000       15.9994           0
     49777 TIP3     9132     TIP3     H1       HT       0.417000       1.00800           0
     49778 TIP3     9132     TIP3     H2       HT       0.417000       1.00800           0
     49779 TIP3     9133     TIP3     OH2      OT      -0.834000       15.9994           0
     49780 TIP3     9133     TIP3     H1       HT       0.417000       1.00800           0
     49781 TIP3     9133     TIP3     H2       HT       0.417000       1.00800           0
     49782 TIP3     9134     TIP3     OH2      OT      -0.834000       15.9994           0
     49783 TIP3     9134     TIP3     H1       HT       0.417000       1.00800           0
     49784 TIP3     9134     TIP3     H2       HT       0.417000       1.00800           0
     49785 TIP3     9135     TIP3     OH2      OT      -0.834000       15.9994           0
     49786 TIP3     9135     TIP3     H1       HT       0.417000       1.00800           0
     49787 TIP3     9135     TIP3     H2       HT       0.417000       1.00800           0
     49788 TIP3     9136     TIP3     OH2      OT      -0.834000       15.9994           0
     49789 TIP3     9136     TIP3     H1       HT       0.417000       1.00800           0
     49790 TIP3     9136     TIP3     H2       HT       0.417000       1.00800           0
     49791 TIP3     9137     TIP3     OH2      OT      -0.834000       15.9994           0
     49792 TIP3     9137     TIP3     H1       HT       0.417000       1.00800           0
     49793 TIP3     9137     TIP3     H2       HT       0.417000       1.00800           0
     49794 TIP3     9138     TIP3     OH2      OT      -0.834000       15.9994           0
     49795 TIP3     9138     TIP3     H1       HT       0.417000       1.00800           0
     49796 TIP3     9138     TIP3     H2       HT       0.417000       1.00800           0
     49797 TIP3     9139     TIP3     OH2      OT      -0.834000       15.9994           0
     49798 TIP3     9139     TIP3     H1       HT       0.417000       1.00800           0
     49799 TIP3     9139     TIP3     H2       HT       0.417000       1.00800           0
     49800 TIP3     9140     TIP3     OH2      OT      -0.834000       15.9994           0
     49801 TIP3     9140     TIP3     H1       HT       0.417000       1.00800           0
     49802 TIP3     9140     TIP3     H2       HT       0.417000       1.00800           0
     49803 TIP3     9141     TIP3     OH2      OT      -0.834000       15.9994           0
     49804 TIP3     9141     TIP3     H1       HT       0.417000       1.00800           0
     49805 TIP3     9141     TIP3     H2       HT       0.417000       1.00800           0
     49806 TIP3     9142     TIP3     OH2      OT      -0.834000       15.9994           0
     49807 TIP3     9142     TIP3     H1       HT       0.417000       1.00800           0
     49808 TIP3     9142     TIP3     H2       HT       0.417000       1.00800           0
     49809 TIP3     9143     TIP3     OH2      OT      -0.834000       15.9994           0
     49810 TIP3     9143     TIP3     H1       HT       0.417000       1.00800           0
     49811 TIP3     9143     TIP3     H2       HT       0.417000       1.00800           0
     49812 TIP3     9144     TIP3     OH2      OT      -0.834000       15.9994           0
     49813 TIP3     9144     TIP3     H1       HT       0.417000       1.00800           0
     49814 TIP3     9144     TIP3     H2       HT       0.417000       1.00800           0
     49815 TIP3     9145     TIP3     OH2      OT      -0.834000       15.9994           0
     49816 TIP3     9145     TIP3     H1       HT       0.417000       1.00800           0
     49817 TIP3     9145     TIP3     H2       HT       0.417000       1.00800           0
     49818 TIP3     9146     TIP3     OH2      OT      -0.834000       15.9994           0
     49819 TIP3     9146     TIP3     H1       HT       0.417000       1.00800           0
     49820 TIP3     9146     TIP3     H2       HT       0.417000       1.00800           0
     49821 TIP3     9147     TIP3     OH2      OT      -0.834000       15.9994           0
     49822 TIP3     9147     TIP3     H1       HT       0.417000       1.00800           0
     49823 TIP3     9147     TIP3     H2       HT       0.417000       1.00800           0
     49824 TIP3     9148     TIP3     OH2      OT      -0.834000       15.9994           0
     49825 TIP3     9148     TIP3     H1       HT       0.417000       1.00800           0
     49826 TIP3     9148     TIP3     H2       HT       0.417000       1.00800           0
     49827 TIP3     9149     TIP3     OH2      OT      -0.834000       15.9994           0
     49828 TIP3     9149     TIP3     H1       HT       0.417000       1.00800           0
     49829 TIP3     9149     TIP3     H2       HT       0.417000       1.00800           0
     49830 TIP3     9150     TIP3     OH2      OT      -0.834000       15.9994           0
     49831 TIP3     9150     TIP3     H1       HT       0.417000       1.00800           0
     49832 TIP3     9150     TIP3     H2       HT       0.417000       1.00800           0
     49833 TIP3     9151     TIP3     OH2      OT      -0.834000       15.9994           0
     49834 TIP3     9151     TIP3     H1       HT       0.417000       1.00800           0
     49835 TIP3     9151     TIP3     H2       HT       0.417000       1.00800           0
     49836 TIP3     9152     TIP3     OH2      OT      -0.834000       15.9994           0
     49837 TIP3     9152     TIP3     H1       HT       0.417000       1.00800           0
     49838 TIP3     9152     TIP3     H2       HT       0.417000       1.00800           0
     49839 TIP3     9153     TIP3     OH2      OT      -0.834000       15.9994           0
     49840 TIP3     9153     TIP3     H1       HT       0.417000       1.00800           0
     49841 TIP3     9153     TIP3     H2       HT       0.417000       1.00800           0
     49842 TIP3     9154     TIP3     OH2      OT      -0.834000       15.9994           0
     49843 TIP3     9154     TIP3     H1       HT       0.417000       1.00800           0
     49844 TIP3     9154     TIP3     H2       HT       0.417000       1.00800           0
     49845 TIP3     9155     TIP3     OH2      OT      -0.834000       15.9994           0
     49846 TIP3     9155     TIP3     H1       HT       0.417000       1.00800           0
     49847 TIP3     9155     TIP3     H2       HT       0.417000       1.00800           0
     49848 TIP3     9156     TIP3     OH2      OT      -0.834000       15.9994           0
     49849 TIP3     9156     TIP3     H1       HT       0.417000       1.00800           0
     49850 TIP3     9156     TIP3     H2       HT       0.417000       1.00800           0
     49851 TIP3     9157     TIP3     OH2      OT      -0.834000       15.9994           0
     49852 TIP3     9157     TIP3     H1       HT       0.417000       1.00800           0
     49853 TIP3     9157     TIP3     H2       HT       0.417000       1.00800           0
     49854 TIP3     9158     TIP3     OH2      OT      -0.834000       15.9994           0
     49855 TIP3     9158     TIP3     H1       HT       0.417000       1.00800           0
     49856 TIP3     9158     TIP3     H2       HT       0.417000       1.00800           0
     49857 TIP3     9159     TIP3     OH2      OT      -0.834000       15.9994           0
     49858 TIP3     9159     TIP3     H1       HT       0.417000       1.00800           0
     49859 TIP3     9159     TIP3     H2       HT       0.417000       1.00800           0
     49860 TIP3     9160     TIP3     OH2      OT      -0.834000       15.9994           0
     49861 TIP3     9160     TIP3     H1       HT       0.417000       1.00800           0
     49862 TIP3     9160     TIP3     H2       HT       0.417000       1.00800           0
     49863 TIP3     9161     TIP3     OH2      OT      -0.834000       15.9994           0
     49864 TIP3     9161     TIP3     H1       HT       0.417000       1.00800           0
     49865 TIP3     9161     TIP3     H2       HT       0.417000       1.00800           0
     49866 TIP3     9162     TIP3     OH2      OT      -0.834000       15.9994           0
     49867 TIP3     9162     TIP3     H1       HT       0.417000       1.00800           0
     49868 TIP3     9162     TIP3     H2       HT       0.417000       1.00800           0
     49869 TIP3     9163     TIP3     OH2      OT      -0.834000       15.9994           0
     49870 TIP3     9163     TIP3     H1       HT       0.417000       1.00800           0
     49871 TIP3     9163     TIP3     H2       HT       0.417000       1.00800           0
     49872 TIP3     9164     TIP3     OH2      OT      -0.834000       15.9994           0
     49873 TIP3     9164     TIP3     H1       HT       0.417000       1.00800           0
     49874 TIP3     9164     TIP3     H2       HT       0.417000       1.00800           0
     49875 TIP3     9165     TIP3     OH2      OT      -0.834000       15.9994           0
     49876 TIP3     9165     TIP3     H1       HT       0.417000       1.00800           0
     49877 TIP3     9165     TIP3     H2       HT       0.417000       1.00800           0
     49878 TIP3     9166     TIP3     OH2      OT      -0.834000       15.9994           0
     49879 TIP3     9166     TIP3     H1       HT       0.417000       1.00800           0
     49880 TIP3     9166     TIP3     H2       HT       0.417000       1.00800           0
     49881 TIP3     9167     TIP3     OH2      OT      -0.834000       15.9994           0
     49882 TIP3     9167     TIP3     H1       HT       0.417000       1.00800           0
     49883 TIP3     9167     TIP3     H2       HT       0.417000       1.00800           0
     49884 TIP3     9168     TIP3     OH2      OT      -0.834000       15.9994           0
     49885 TIP3     9168     TIP3     H1       HT       0.417000       1.00800           0
     49886 TIP3     9168     TIP3     H2       HT       0.417000       1.00800           0
     49887 TIP3     9169     TIP3     OH2      OT      -0.834000       15.9994           0
     49888 TIP3     9169     TIP3     H1       HT       0.417000       1.00800           0
     49889 TIP3     9169     TIP3     H2       HT       0.417000       1.00800           0
     49890 TIP3     9170     TIP3     OH2      OT      -0.834000       15.9994           0
     49891 TIP3     9170     TIP3     H1       HT       0.417000       1.00800           0
     49892 TIP3     9170     TIP3     H2       HT       0.417000       1.00800           0
     49893 TIP3     9171     TIP3     OH2      OT      -0.834000       15.9994           0
     49894 TIP3     9171     TIP3     H1       HT       0.417000       1.00800           0
     49895 TIP3     9171     TIP3     H2       HT       0.417000       1.00800           0
     49896 TIP3     9172     TIP3     OH2      OT      -0.834000       15.9994           0
     49897 TIP3     9172     TIP3     H1       HT       0.417000       1.00800           0
     49898 TIP3     9172     TIP3     H2       HT       0.417000       1.00800           0
     49899 TIP3     9173     TIP3     OH2      OT      -0.834000       15.9994           0
     49900 TIP3     9173     TIP3     H1       HT       0.417000       1.00800           0
     49901 TIP3     9173     TIP3     H2       HT       0.417000       1.00800           0
     49902 TIP3     9174     TIP3     OH2      OT      -0.834000       15.9994           0
     49903 TIP3     9174     TIP3     H1       HT       0.417000       1.00800           0
     49904 TIP3     9174     TIP3     H2       HT       0.417000       1.00800           0
     49905 TIP3     9175     TIP3     OH2      OT      -0.834000       15.9994           0
     49906 TIP3     9175     TIP3     H1       HT       0.417000       1.00800           0
     49907 TIP3     9175     TIP3     H2       HT       0.417000       1.00800           0
     49908 TIP3     9176     TIP3     OH2      OT      -0.834000       15.9994           0
     49909 TIP3     9176     TIP3     H1       HT       0.417000       1.00800           0
     49910 TIP3     9176     TIP3     H2       HT       0.417000       1.00800           0
     49911 TIP3     9177     TIP3     OH2      OT      -0.834000       15.9994           0
     49912 TIP3     9177     TIP3     H1       HT       0.417000       1.00800           0
     49913 TIP3     9177     TIP3     H2       HT       0.417000       1.00800           0
     49914 TIP3     9178     TIP3     OH2      OT      -0.834000       15.9994           0
     49915 TIP3     9178     TIP3     H1       HT       0.417000       1.00800           0
     49916 TIP3     9178     TIP3     H2       HT       0.417000       1.00800           0
     49917 TIP3     9179     TIP3     OH2      OT      -0.834000       15.9994           0
     49918 TIP3     9179     TIP3     H1       HT       0.417000       1.00800           0
     49919 TIP3     9179     TIP3     H2       HT       0.417000       1.00800           0
     49920 TIP3     9180     TIP3     OH2      OT      -0.834000       15.9994           0
     49921 TIP3     9180     TIP3     H1       HT       0.417000       1.00800           0
     49922 TIP3     9180     TIP3     H2       HT       0.417000       1.00800           0
     49923 TIP3     9181     TIP3     OH2      OT      -0.834000       15.9994           0
     49924 TIP3     9181     TIP3     H1       HT       0.417000       1.00800           0
     49925 TIP3     9181     TIP3     H2       HT       0.417000       1.00800           0
     49926 TIP3     9182     TIP3     OH2      OT      -0.834000       15.9994           0
     49927 TIP3     9182     TIP3     H1       HT       0.417000       1.00800           0
     49928 TIP3     9182     TIP3     H2       HT       0.417000       1.00800           0
     49929 TIP3     9183     TIP3     OH2      OT      -0.834000       15.9994           0
     49930 TIP3     9183     TIP3     H1       HT       0.417000       1.00800           0
     49931 TIP3     9183     TIP3     H2       HT       0.417000       1.00800           0
     49932 TIP3     9184     TIP3     OH2      OT      -0.834000       15.9994           0
     49933 TIP3     9184     TIP3     H1       HT       0.417000       1.00800           0
     49934 TIP3     9184     TIP3     H2       HT       0.417000       1.00800           0
     49935 TIP3     9185     TIP3     OH2      OT      -0.834000       15.9994           0
     49936 TIP3     9185     TIP3     H1       HT       0.417000       1.00800           0
     49937 TIP3     9185     TIP3     H2       HT       0.417000       1.00800           0
     49938 TIP3     9186     TIP3     OH2      OT      -0.834000       15.9994           0
     49939 TIP3     9186     TIP3     H1       HT       0.417000       1.00800           0
     49940 TIP3     9186     TIP3     H2       HT       0.417000       1.00800           0
     49941 TIP3     9187     TIP3     OH2      OT      -0.834000       15.9994           0
     49942 TIP3     9187     TIP3     H1       HT       0.417000       1.00800           0
     49943 TIP3     9187     TIP3     H2       HT       0.417000       1.00800           0
     49944 TIP3     9188     TIP3     OH2      OT      -0.834000       15.9994           0
     49945 TIP3     9188     TIP3     H1       HT       0.417000       1.00800           0
     49946 TIP3     9188     TIP3     H2       HT       0.417000       1.00800           0
     49947 TIP3     9189     TIP3     OH2      OT      -0.834000       15.9994           0
     49948 TIP3     9189     TIP3     H1       HT       0.417000       1.00800           0
     49949 TIP3     9189     TIP3     H2       HT       0.417000       1.00800           0
     49950 TIP3     9190     TIP3     OH2      OT      -0.834000       15.9994           0
     49951 TIP3     9190     TIP3     H1       HT       0.417000       1.00800           0
     49952 TIP3     9190     TIP3     H2       HT       0.417000       1.00800           0
     49953 TIP3     9191     TIP3     OH2      OT      -0.834000       15.9994           0
     49954 TIP3     9191     TIP3     H1       HT       0.417000       1.00800           0
     49955 TIP3     9191     TIP3     H2       HT       0.417000       1.00800           0
     49956 TIP3     9192     TIP3     OH2      OT      -0.834000       15.9994           0
     49957 TIP3     9192     TIP3     H1       HT       0.417000       1.00800           0
     49958 TIP3     9192     TIP3     H2       HT       0.417000       1.00800           0
     49959 TIP3     9193     TIP3     OH2      OT      -0.834000       15.9994           0
     49960 TIP3     9193     TIP3     H1       HT       0.417000       1.00800           0
     49961 TIP3     9193     TIP3     H2       HT       0.417000       1.00800           0
     49962 TIP3     9194     TIP3     OH2      OT      -0.834000       15.9994           0
     49963 TIP3     9194     TIP3     H1       HT       0.417000       1.00800           0
     49964 TIP3     9194     TIP3     H2       HT       0.417000       1.00800           0
     49965 TIP3     9195     TIP3     OH2      OT      -0.834000       15.9994           0
     49966 TIP3     9195     TIP3     H1       HT       0.417000       1.00800           0
     49967 TIP3     9195     TIP3     H2       HT       0.417000       1.00800           0
     49968 TIP3     9196     TIP3     OH2      OT      -0.834000       15.9994           0
     49969 TIP3     9196     TIP3     H1       HT       0.417000       1.00800           0
     49970 TIP3     9196     TIP3     H2       HT       0.417000       1.00800           0
     49971 TIP3     9197     TIP3     OH2      OT      -0.834000       15.9994           0
     49972 TIP3     9197     TIP3     H1       HT       0.417000       1.00800           0
     49973 TIP3     9197     TIP3     H2       HT       0.417000       1.00800           0
     49974 TIP3     9198     TIP3     OH2      OT      -0.834000       15.9994           0
     49975 TIP3     9198     TIP3     H1       HT       0.417000       1.00800           0
     49976 TIP3     9198     TIP3     H2       HT       0.417000       1.00800           0
     49977 TIP3     9199     TIP3     OH2      OT      -0.834000       15.9994           0
     49978 TIP3     9199     TIP3     H1       HT       0.417000       1.00800           0
     49979 TIP3     9199     TIP3     H2       HT       0.417000       1.00800           0
     49980 TIP3     9200     TIP3     OH2      OT      -0.834000       15.9994           0
     49981 TIP3     9200     TIP3     H1       HT       0.417000       1.00800           0
     49982 TIP3     9200     TIP3     H2       HT       0.417000       1.00800           0
     49983 TIP3     9201     TIP3     OH2      OT      -0.834000       15.9994           0
     49984 TIP3     9201     TIP3     H1       HT       0.417000       1.00800           0
     49985 TIP3     9201     TIP3     H2       HT       0.417000       1.00800           0
     49986 TIP3     9202     TIP3     OH2      OT      -0.834000       15.9994           0
     49987 TIP3     9202     TIP3     H1       HT       0.417000       1.00800           0
     49988 TIP3     9202     TIP3     H2       HT       0.417000       1.00800           0
     49989 TIP3     9203     TIP3     OH2      OT      -0.834000       15.9994           0
     49990 TIP3     9203     TIP3     H1       HT       0.417000       1.00800           0
     49991 TIP3     9203     TIP3     H2       HT       0.417000       1.00800           0
     49992 TIP3     9204     TIP3     OH2      OT      -0.834000       15.9994           0
     49993 TIP3     9204     TIP3     H1       HT       0.417000       1.00800           0
     49994 TIP3     9204     TIP3     H2       HT       0.417000       1.00800           0
     49995 TIP3     9205     TIP3     OH2      OT      -0.834000       15.9994           0
     49996 TIP3     9205     TIP3     H1       HT       0.417000       1.00800           0
     49997 TIP3     9205     TIP3     H2       HT       0.417000       1.00800           0
     49998 TIP3     9206     TIP3     OH2      OT      -0.834000       15.9994           0
     49999 TIP3     9206     TIP3     H1       HT       0.417000       1.00800           0
     50000 TIP3     9206     TIP3     H2       HT       0.417000       1.00800           0
     50001 TIP3     9207     TIP3     OH2      OT      -0.834000       15.9994           0
     50002 TIP3     9207     TIP3     H1       HT       0.417000       1.00800           0
     50003 TIP3     9207     TIP3     H2       HT       0.417000       1.00800           0
     50004 TIP3     9208     TIP3     OH2      OT      -0.834000       15.9994           0
     50005 TIP3     9208     TIP3     H1       HT       0.417000       1.00800           0
     50006 TIP3     9208     TIP3     H2       HT       0.417000       1.00800           0
     50007 TIP3     9209     TIP3     OH2      OT      -0.834000       15.9994           0
     50008 TIP3     9209     TIP3     H1       HT       0.417000       1.00800           0
     50009 TIP3     9209     TIP3     H2       HT       0.417000       1.00800           0
     50010 TIP3     9210     TIP3     OH2      OT      -0.834000       15.9994           0
     50011 TIP3     9210     TIP3     H1       HT       0.417000       1.00800           0
     50012 TIP3     9210     TIP3     H2       HT       0.417000       1.00800           0
     50013 TIP3     9211     TIP3     OH2      OT      -0.834000       15.9994           0
     50014 TIP3     9211     TIP3     H1       HT       0.417000       1.00800           0
     50015 TIP3     9211     TIP3     H2       HT       0.417000       1.00800           0
     50016 TIP3     9212     TIP3     OH2      OT      -0.834000       15.9994           0
     50017 TIP3     9212     TIP3     H1       HT       0.417000       1.00800           0
     50018 TIP3     9212     TIP3     H2       HT       0.417000       1.00800           0
     50019 TIP3     9213     TIP3     OH2      OT      -0.834000       15.9994           0
     50020 TIP3     9213     TIP3     H1       HT       0.417000       1.00800           0
     50021 TIP3     9213     TIP3     H2       HT       0.417000       1.00800           0
     50022 TIP3     9214     TIP3     OH2      OT      -0.834000       15.9994           0
     50023 TIP3     9214     TIP3     H1       HT       0.417000       1.00800           0
     50024 TIP3     9214     TIP3     H2       HT       0.417000       1.00800           0
     50025 TIP3     9215     TIP3     OH2      OT      -0.834000       15.9994           0
     50026 TIP3     9215     TIP3     H1       HT       0.417000       1.00800           0
     50027 TIP3     9215     TIP3     H2       HT       0.417000       1.00800           0
     50028 TIP3     9216     TIP3     OH2      OT      -0.834000       15.9994           0
     50029 TIP3     9216     TIP3     H1       HT       0.417000       1.00800           0
     50030 TIP3     9216     TIP3     H2       HT       0.417000       1.00800           0
     50031 TIP3     9217     TIP3     OH2      OT      -0.834000       15.9994           0
     50032 TIP3     9217     TIP3     H1       HT       0.417000       1.00800           0
     50033 TIP3     9217     TIP3     H2       HT       0.417000       1.00800           0
     50034 TIP3     9218     TIP3     OH2      OT      -0.834000       15.9994           0
     50035 TIP3     9218     TIP3     H1       HT       0.417000       1.00800           0
     50036 TIP3     9218     TIP3     H2       HT       0.417000       1.00800           0
     50037 TIP3     9219     TIP3     OH2      OT      -0.834000       15.9994           0
     50038 TIP3     9219     TIP3     H1       HT       0.417000       1.00800           0
     50039 TIP3     9219     TIP3     H2       HT       0.417000       1.00800           0
     50040 TIP3     9220     TIP3     OH2      OT      -0.834000       15.9994           0
     50041 TIP3     9220     TIP3     H1       HT       0.417000       1.00800           0
     50042 TIP3     9220     TIP3     H2       HT       0.417000       1.00800           0
     50043 TIP3     9221     TIP3     OH2      OT      -0.834000       15.9994           0
     50044 TIP3     9221     TIP3     H1       HT       0.417000       1.00800           0
     50045 TIP3     9221     TIP3     H2       HT       0.417000       1.00800           0
     50046 TIP3     9222     TIP3     OH2      OT      -0.834000       15.9994           0
     50047 TIP3     9222     TIP3     H1       HT       0.417000       1.00800           0
     50048 TIP3     9222     TIP3     H2       HT       0.417000       1.00800           0
     50049 TIP3     9223     TIP3     OH2      OT      -0.834000       15.9994           0
     50050 TIP3     9223     TIP3     H1       HT       0.417000       1.00800           0
     50051 TIP3     9223     TIP3     H2       HT       0.417000       1.00800           0
     50052 TIP3     9224     TIP3     OH2      OT      -0.834000       15.9994           0
     50053 TIP3     9224     TIP3     H1       HT       0.417000       1.00800           0
     50054 TIP3     9224     TIP3     H2       HT       0.417000       1.00800           0
     50055 TIP3     9225     TIP3     OH2      OT      -0.834000       15.9994           0
     50056 TIP3     9225     TIP3     H1       HT       0.417000       1.00800           0
     50057 TIP3     9225     TIP3     H2       HT       0.417000       1.00800           0
     50058 TIP3     9226     TIP3     OH2      OT      -0.834000       15.9994           0
     50059 TIP3     9226     TIP3     H1       HT       0.417000       1.00800           0
     50060 TIP3     9226     TIP3     H2       HT       0.417000       1.00800           0
     50061 TIP3     9227     TIP3     OH2      OT      -0.834000       15.9994           0
     50062 TIP3     9227     TIP3     H1       HT       0.417000       1.00800           0
     50063 TIP3     9227     TIP3     H2       HT       0.417000       1.00800           0
     50064 TIP3     9228     TIP3     OH2      OT      -0.834000       15.9994           0
     50065 TIP3     9228     TIP3     H1       HT       0.417000       1.00800           0
     50066 TIP3     9228     TIP3     H2       HT       0.417000       1.00800           0
     50067 TIP3     9229     TIP3     OH2      OT      -0.834000       15.9994           0
     50068 TIP3     9229     TIP3     H1       HT       0.417000       1.00800           0
     50069 TIP3     9229     TIP3     H2       HT       0.417000       1.00800           0
     50070 TIP3     9230     TIP3     OH2      OT      -0.834000       15.9994           0
     50071 TIP3     9230     TIP3     H1       HT       0.417000       1.00800           0
     50072 TIP3     9230     TIP3     H2       HT       0.417000       1.00800           0
     50073 TIP3     9231     TIP3     OH2      OT      -0.834000       15.9994           0
     50074 TIP3     9231     TIP3     H1       HT       0.417000       1.00800           0
     50075 TIP3     9231     TIP3     H2       HT       0.417000       1.00800           0
     50076 TIP3     9232     TIP3     OH2      OT      -0.834000       15.9994           0
     50077 TIP3     9232     TIP3     H1       HT       0.417000       1.00800           0
     50078 TIP3     9232     TIP3     H2       HT       0.417000       1.00800           0
     50079 TIP3     9233     TIP3     OH2      OT      -0.834000       15.9994           0
     50080 TIP3     9233     TIP3     H1       HT       0.417000       1.00800           0
     50081 TIP3     9233     TIP3     H2       HT       0.417000       1.00800           0
     50082 TIP3     9234     TIP3     OH2      OT      -0.834000       15.9994           0
     50083 TIP3     9234     TIP3     H1       HT       0.417000       1.00800           0
     50084 TIP3     9234     TIP3     H2       HT       0.417000       1.00800           0
     50085 TIP3     9235     TIP3     OH2      OT      -0.834000       15.9994           0
     50086 TIP3     9235     TIP3     H1       HT       0.417000       1.00800           0
     50087 TIP3     9235     TIP3     H2       HT       0.417000       1.00800           0
     50088 TIP3     9236     TIP3     OH2      OT      -0.834000       15.9994           0
     50089 TIP3     9236     TIP3     H1       HT       0.417000       1.00800           0
     50090 TIP3     9236     TIP3     H2       HT       0.417000       1.00800           0
     50091 TIP3     9237     TIP3     OH2      OT      -0.834000       15.9994           0
     50092 TIP3     9237     TIP3     H1       HT       0.417000       1.00800           0
     50093 TIP3     9237     TIP3     H2       HT       0.417000       1.00800           0
     50094 TIP3     9238     TIP3     OH2      OT      -0.834000       15.9994           0
     50095 TIP3     9238     TIP3     H1       HT       0.417000       1.00800           0
     50096 TIP3     9238     TIP3     H2       HT       0.417000       1.00800           0
     50097 TIP3     9239     TIP3     OH2      OT      -0.834000       15.9994           0
     50098 TIP3     9239     TIP3     H1       HT       0.417000       1.00800           0
     50099 TIP3     9239     TIP3     H2       HT       0.417000       1.00800           0
     50100 TIP3     9240     TIP3     OH2      OT      -0.834000       15.9994           0
     50101 TIP3     9240     TIP3     H1       HT       0.417000       1.00800           0
     50102 TIP3     9240     TIP3     H2       HT       0.417000       1.00800           0
     50103 TIP3     9241     TIP3     OH2      OT      -0.834000       15.9994           0
     50104 TIP3     9241     TIP3     H1       HT       0.417000       1.00800           0
     50105 TIP3     9241     TIP3     H2       HT       0.417000       1.00800           0
     50106 TIP3     9242     TIP3     OH2      OT      -0.834000       15.9994           0
     50107 TIP3     9242     TIP3     H1       HT       0.417000       1.00800           0
     50108 TIP3     9242     TIP3     H2       HT       0.417000       1.00800           0
     50109 TIP3     9243     TIP3     OH2      OT      -0.834000       15.9994           0
     50110 TIP3     9243     TIP3     H1       HT       0.417000       1.00800           0
     50111 TIP3     9243     TIP3     H2       HT       0.417000       1.00800           0
     50112 TIP3     9244     TIP3     OH2      OT      -0.834000       15.9994           0
     50113 TIP3     9244     TIP3     H1       HT       0.417000       1.00800           0
     50114 TIP3     9244     TIP3     H2       HT       0.417000       1.00800           0
     50115 TIP3     9245     TIP3     OH2      OT      -0.834000       15.9994           0
     50116 TIP3     9245     TIP3     H1       HT       0.417000       1.00800           0
     50117 TIP3     9245     TIP3     H2       HT       0.417000       1.00800           0
     50118 TIP3     9246     TIP3     OH2      OT      -0.834000       15.9994           0
     50119 TIP3     9246     TIP3     H1       HT       0.417000       1.00800           0
     50120 TIP3     9246     TIP3     H2       HT       0.417000       1.00800           0
     50121 TIP3     9247     TIP3     OH2      OT      -0.834000       15.9994           0
     50122 TIP3     9247     TIP3     H1       HT       0.417000       1.00800           0
     50123 TIP3     9247     TIP3     H2       HT       0.417000       1.00800           0
     50124 TIP3     9248     TIP3     OH2      OT      -0.834000       15.9994           0
     50125 TIP3     9248     TIP3     H1       HT       0.417000       1.00800           0
     50126 TIP3     9248     TIP3     H2       HT       0.417000       1.00800           0
     50127 TIP3     9249     TIP3     OH2      OT      -0.834000       15.9994           0
     50128 TIP3     9249     TIP3     H1       HT       0.417000       1.00800           0
     50129 TIP3     9249     TIP3     H2       HT       0.417000       1.00800           0
     50130 TIP3     9250     TIP3     OH2      OT      -0.834000       15.9994           0
     50131 TIP3     9250     TIP3     H1       HT       0.417000       1.00800           0
     50132 TIP3     9250     TIP3     H2       HT       0.417000       1.00800           0
     50133 TIP3     9251     TIP3     OH2      OT      -0.834000       15.9994           0
     50134 TIP3     9251     TIP3     H1       HT       0.417000       1.00800           0
     50135 TIP3     9251     TIP3     H2       HT       0.417000       1.00800           0
     50136 TIP3     9252     TIP3     OH2      OT      -0.834000       15.9994           0
     50137 TIP3     9252     TIP3     H1       HT       0.417000       1.00800           0
     50138 TIP3     9252     TIP3     H2       HT       0.417000       1.00800           0
     50139 TIP3     9253     TIP3     OH2      OT      -0.834000       15.9994           0
     50140 TIP3     9253     TIP3     H1       HT       0.417000       1.00800           0
     50141 TIP3     9253     TIP3     H2       HT       0.417000       1.00800           0
     50142 TIP3     9254     TIP3     OH2      OT      -0.834000       15.9994           0
     50143 TIP3     9254     TIP3     H1       HT       0.417000       1.00800           0
     50144 TIP3     9254     TIP3     H2       HT       0.417000       1.00800           0
     50145 TIP3     9255     TIP3     OH2      OT      -0.834000       15.9994           0
     50146 TIP3     9255     TIP3     H1       HT       0.417000       1.00800           0
     50147 TIP3     9255     TIP3     H2       HT       0.417000       1.00800           0
     50148 TIP3     9256     TIP3     OH2      OT      -0.834000       15.9994           0
     50149 TIP3     9256     TIP3     H1       HT       0.417000       1.00800           0
     50150 TIP3     9256     TIP3     H2       HT       0.417000       1.00800           0
     50151 TIP3     9257     TIP3     OH2      OT      -0.834000       15.9994           0
     50152 TIP3     9257     TIP3     H1       HT       0.417000       1.00800           0
     50153 TIP3     9257     TIP3     H2       HT       0.417000       1.00800           0
     50154 TIP3     9258     TIP3     OH2      OT      -0.834000       15.9994           0
     50155 TIP3     9258     TIP3     H1       HT       0.417000       1.00800           0
     50156 TIP3     9258     TIP3     H2       HT       0.417000       1.00800           0
     50157 TIP3     9259     TIP3     OH2      OT      -0.834000       15.9994           0
     50158 TIP3     9259     TIP3     H1       HT       0.417000       1.00800           0
     50159 TIP3     9259     TIP3     H2       HT       0.417000       1.00800           0
     50160 TIP3     9260     TIP3     OH2      OT      -0.834000       15.9994           0
     50161 TIP3     9260     TIP3     H1       HT       0.417000       1.00800           0
     50162 TIP3     9260     TIP3     H2       HT       0.417000       1.00800           0
     50163 TIP3     9261     TIP3     OH2      OT      -0.834000       15.9994           0
     50164 TIP3     9261     TIP3     H1       HT       0.417000       1.00800           0
     50165 TIP3     9261     TIP3     H2       HT       0.417000       1.00800           0
     50166 TIP3     9262     TIP3     OH2      OT      -0.834000       15.9994           0
     50167 TIP3     9262     TIP3     H1       HT       0.417000       1.00800           0
     50168 TIP3     9262     TIP3     H2       HT       0.417000       1.00800           0
     50169 TIP3     9263     TIP3     OH2      OT      -0.834000       15.9994           0
     50170 TIP3     9263     TIP3     H1       HT       0.417000       1.00800           0
     50171 TIP3     9263     TIP3     H2       HT       0.417000       1.00800           0
     50172 TIP3     9264     TIP3     OH2      OT      -0.834000       15.9994           0
     50173 TIP3     9264     TIP3     H1       HT       0.417000       1.00800           0
     50174 TIP3     9264     TIP3     H2       HT       0.417000       1.00800           0
     50175 TIP3     9265     TIP3     OH2      OT      -0.834000       15.9994           0
     50176 TIP3     9265     TIP3     H1       HT       0.417000       1.00800           0
     50177 TIP3     9265     TIP3     H2       HT       0.417000       1.00800           0
     50178 TIP3     9266     TIP3     OH2      OT      -0.834000       15.9994           0
     50179 TIP3     9266     TIP3     H1       HT       0.417000       1.00800           0
     50180 TIP3     9266     TIP3     H2       HT       0.417000       1.00800           0
     50181 TIP3     9267     TIP3     OH2      OT      -0.834000       15.9994           0
     50182 TIP3     9267     TIP3     H1       HT       0.417000       1.00800           0
     50183 TIP3     9267     TIP3     H2       HT       0.417000       1.00800           0
     50184 TIP3     9268     TIP3     OH2      OT      -0.834000       15.9994           0
     50185 TIP3     9268     TIP3     H1       HT       0.417000       1.00800           0
     50186 TIP3     9268     TIP3     H2       HT       0.417000       1.00800           0
     50187 TIP3     9269     TIP3     OH2      OT      -0.834000       15.9994           0
     50188 TIP3     9269     TIP3     H1       HT       0.417000       1.00800           0
     50189 TIP3     9269     TIP3     H2       HT       0.417000       1.00800           0
     50190 TIP3     9270     TIP3     OH2      OT      -0.834000       15.9994           0
     50191 TIP3     9270     TIP3     H1       HT       0.417000       1.00800           0
     50192 TIP3     9270     TIP3     H2       HT       0.417000       1.00800           0
     50193 TIP3     9271     TIP3     OH2      OT      -0.834000       15.9994           0
     50194 TIP3     9271     TIP3     H1       HT       0.417000       1.00800           0
     50195 TIP3     9271     TIP3     H2       HT       0.417000       1.00800           0
     50196 TIP3     9272     TIP3     OH2      OT      -0.834000       15.9994           0
     50197 TIP3     9272     TIP3     H1       HT       0.417000       1.00800           0
     50198 TIP3     9272     TIP3     H2       HT       0.417000       1.00800           0
     50199 TIP3     9273     TIP3     OH2      OT      -0.834000       15.9994           0
     50200 TIP3     9273     TIP3     H1       HT       0.417000       1.00800           0
     50201 TIP3     9273     TIP3     H2       HT       0.417000       1.00800           0
     50202 TIP3     9274     TIP3     OH2      OT      -0.834000       15.9994           0
     50203 TIP3     9274     TIP3     H1       HT       0.417000       1.00800           0
     50204 TIP3     9274     TIP3     H2       HT       0.417000       1.00800           0
     50205 TIP3     9275     TIP3     OH2      OT      -0.834000       15.9994           0
     50206 TIP3     9275     TIP3     H1       HT       0.417000       1.00800           0
     50207 TIP3     9275     TIP3     H2       HT       0.417000       1.00800           0
     50208 TIP3     9276     TIP3     OH2      OT      -0.834000       15.9994           0
     50209 TIP3     9276     TIP3     H1       HT       0.417000       1.00800           0
     50210 TIP3     9276     TIP3     H2       HT       0.417000       1.00800           0
     50211 TIP3     9277     TIP3     OH2      OT      -0.834000       15.9994           0
     50212 TIP3     9277     TIP3     H1       HT       0.417000       1.00800           0
     50213 TIP3     9277     TIP3     H2       HT       0.417000       1.00800           0
     50214 TIP3     9278     TIP3     OH2      OT      -0.834000       15.9994           0
     50215 TIP3     9278     TIP3     H1       HT       0.417000       1.00800           0
     50216 TIP3     9278     TIP3     H2       HT       0.417000       1.00800           0
     50217 TIP3     9279     TIP3     OH2      OT      -0.834000       15.9994           0
     50218 TIP3     9279     TIP3     H1       HT       0.417000       1.00800           0
     50219 TIP3     9279     TIP3     H2       HT       0.417000       1.00800           0
     50220 TIP3     9280     TIP3     OH2      OT      -0.834000       15.9994           0
     50221 TIP3     9280     TIP3     H1       HT       0.417000       1.00800           0
     50222 TIP3     9280     TIP3     H2       HT       0.417000       1.00800           0
     50223 TIP3     9281     TIP3     OH2      OT      -0.834000       15.9994           0
     50224 TIP3     9281     TIP3     H1       HT       0.417000       1.00800           0
     50225 TIP3     9281     TIP3     H2       HT       0.417000       1.00800           0
     50226 TIP3     9282     TIP3     OH2      OT      -0.834000       15.9994           0
     50227 TIP3     9282     TIP3     H1       HT       0.417000       1.00800           0
     50228 TIP3     9282     TIP3     H2       HT       0.417000       1.00800           0
     50229 TIP3     9283     TIP3     OH2      OT      -0.834000       15.9994           0
     50230 TIP3     9283     TIP3     H1       HT       0.417000       1.00800           0
     50231 TIP3     9283     TIP3     H2       HT       0.417000       1.00800           0
     50232 TIP3     9284     TIP3     OH2      OT      -0.834000       15.9994           0
     50233 TIP3     9284     TIP3     H1       HT       0.417000       1.00800           0
     50234 TIP3     9284     TIP3     H2       HT       0.417000       1.00800           0
     50235 TIP3     9285     TIP3     OH2      OT      -0.834000       15.9994           0
     50236 TIP3     9285     TIP3     H1       HT       0.417000       1.00800           0
     50237 TIP3     9285     TIP3     H2       HT       0.417000       1.00800           0
     50238 TIP3     9286     TIP3     OH2      OT      -0.834000       15.9994           0
     50239 TIP3     9286     TIP3     H1       HT       0.417000       1.00800           0
     50240 TIP3     9286     TIP3     H2       HT       0.417000       1.00800           0
     50241 TIP3     9287     TIP3     OH2      OT      -0.834000       15.9994           0
     50242 TIP3     9287     TIP3     H1       HT       0.417000       1.00800           0
     50243 TIP3     9287     TIP3     H2       HT       0.417000       1.00800           0
     50244 TIP3     9288     TIP3     OH2      OT      -0.834000       15.9994           0
     50245 TIP3     9288     TIP3     H1       HT       0.417000       1.00800           0
     50246 TIP3     9288     TIP3     H2       HT       0.417000       1.00800           0
     50247 TIP3     9289     TIP3     OH2      OT      -0.834000       15.9994           0
     50248 TIP3     9289     TIP3     H1       HT       0.417000       1.00800           0
     50249 TIP3     9289     TIP3     H2       HT       0.417000       1.00800           0
     50250 TIP3     9290     TIP3     OH2      OT      -0.834000       15.9994           0
     50251 TIP3     9290     TIP3     H1       HT       0.417000       1.00800           0
     50252 TIP3     9290     TIP3     H2       HT       0.417000       1.00800           0
     50253 TIP3     9291     TIP3     OH2      OT      -0.834000       15.9994           0
     50254 TIP3     9291     TIP3     H1       HT       0.417000       1.00800           0
     50255 TIP3     9291     TIP3     H2       HT       0.417000       1.00800           0
     50256 TIP3     9292     TIP3     OH2      OT      -0.834000       15.9994           0
     50257 TIP3     9292     TIP3     H1       HT       0.417000       1.00800           0
     50258 TIP3     9292     TIP3     H2       HT       0.417000       1.00800           0
     50259 TIP3     9293     TIP3     OH2      OT      -0.834000       15.9994           0
     50260 TIP3     9293     TIP3     H1       HT       0.417000       1.00800           0
     50261 TIP3     9293     TIP3     H2       HT       0.417000       1.00800           0
     50262 TIP3     9294     TIP3     OH2      OT      -0.834000       15.9994           0
     50263 TIP3     9294     TIP3     H1       HT       0.417000       1.00800           0
     50264 TIP3     9294     TIP3     H2       HT       0.417000       1.00800           0
     50265 TIP3     9295     TIP3     OH2      OT      -0.834000       15.9994           0
     50266 TIP3     9295     TIP3     H1       HT       0.417000       1.00800           0
     50267 TIP3     9295     TIP3     H2       HT       0.417000       1.00800           0
     50268 TIP3     9296     TIP3     OH2      OT      -0.834000       15.9994           0
     50269 TIP3     9296     TIP3     H1       HT       0.417000       1.00800           0
     50270 TIP3     9296     TIP3     H2       HT       0.417000       1.00800           0
     50271 TIP3     9297     TIP3     OH2      OT      -0.834000       15.9994           0
     50272 TIP3     9297     TIP3     H1       HT       0.417000       1.00800           0
     50273 TIP3     9297     TIP3     H2       HT       0.417000       1.00800           0
     50274 TIP3     9298     TIP3     OH2      OT      -0.834000       15.9994           0
     50275 TIP3     9298     TIP3     H1       HT       0.417000       1.00800           0
     50276 TIP3     9298     TIP3     H2       HT       0.417000       1.00800           0
     50277 TIP3     9299     TIP3     OH2      OT      -0.834000       15.9994           0
     50278 TIP3     9299     TIP3     H1       HT       0.417000       1.00800           0
     50279 TIP3     9299     TIP3     H2       HT       0.417000       1.00800           0
     50280 TIP3     9300     TIP3     OH2      OT      -0.834000       15.9994           0
     50281 TIP3     9300     TIP3     H1       HT       0.417000       1.00800           0
     50282 TIP3     9300     TIP3     H2       HT       0.417000       1.00800           0
     50283 TIP3     9301     TIP3     OH2      OT      -0.834000       15.9994           0
     50284 TIP3     9301     TIP3     H1       HT       0.417000       1.00800           0
     50285 TIP3     9301     TIP3     H2       HT       0.417000       1.00800           0
     50286 TIP3     9302     TIP3     OH2      OT      -0.834000       15.9994           0
     50287 TIP3     9302     TIP3     H1       HT       0.417000       1.00800           0
     50288 TIP3     9302     TIP3     H2       HT       0.417000       1.00800           0
     50289 TIP3     9303     TIP3     OH2      OT      -0.834000       15.9994           0
     50290 TIP3     9303     TIP3     H1       HT       0.417000       1.00800           0
     50291 TIP3     9303     TIP3     H2       HT       0.417000       1.00800           0
     50292 TIP3     9304     TIP3     OH2      OT      -0.834000       15.9994           0
     50293 TIP3     9304     TIP3     H1       HT       0.417000       1.00800           0
     50294 TIP3     9304     TIP3     H2       HT       0.417000       1.00800           0
     50295 TIP3     9305     TIP3     OH2      OT      -0.834000       15.9994           0
     50296 TIP3     9305     TIP3     H1       HT       0.417000       1.00800           0
     50297 TIP3     9305     TIP3     H2       HT       0.417000       1.00800           0
     50298 TIP3     9306     TIP3     OH2      OT      -0.834000       15.9994           0
     50299 TIP3     9306     TIP3     H1       HT       0.417000       1.00800           0
     50300 TIP3     9306     TIP3     H2       HT       0.417000       1.00800           0
     50301 TIP3     9307     TIP3     OH2      OT      -0.834000       15.9994           0
     50302 TIP3     9307     TIP3     H1       HT       0.417000       1.00800           0
     50303 TIP3     9307     TIP3     H2       HT       0.417000       1.00800           0
     50304 TIP3     9308     TIP3     OH2      OT      -0.834000       15.9994           0
     50305 TIP3     9308     TIP3     H1       HT       0.417000       1.00800           0
     50306 TIP3     9308     TIP3     H2       HT       0.417000       1.00800           0
     50307 TIP3     9309     TIP3     OH2      OT      -0.834000       15.9994           0
     50308 TIP3     9309     TIP3     H1       HT       0.417000       1.00800           0
     50309 TIP3     9309     TIP3     H2       HT       0.417000       1.00800           0
     50310 TIP3     9310     TIP3     OH2      OT      -0.834000       15.9994           0
     50311 TIP3     9310     TIP3     H1       HT       0.417000       1.00800           0
     50312 TIP3     9310     TIP3     H2       HT       0.417000       1.00800           0
     50313 TIP3     9311     TIP3     OH2      OT      -0.834000       15.9994           0
     50314 TIP3     9311     TIP3     H1       HT       0.417000       1.00800           0
     50315 TIP3     9311     TIP3     H2       HT       0.417000       1.00800           0
     50316 TIP3     9312     TIP3     OH2      OT      -0.834000       15.9994           0
     50317 TIP3     9312     TIP3     H1       HT       0.417000       1.00800           0
     50318 TIP3     9312     TIP3     H2       HT       0.417000       1.00800           0
     50319 TIP3     9313     TIP3     OH2      OT      -0.834000       15.9994           0
     50320 TIP3     9313     TIP3     H1       HT       0.417000       1.00800           0
     50321 TIP3     9313     TIP3     H2       HT       0.417000       1.00800           0
     50322 TIP3     9314     TIP3     OH2      OT      -0.834000       15.9994           0
     50323 TIP3     9314     TIP3     H1       HT       0.417000       1.00800           0
     50324 TIP3     9314     TIP3     H2       HT       0.417000       1.00800           0
     50325 TIP3     9315     TIP3     OH2      OT      -0.834000       15.9994           0
     50326 TIP3     9315     TIP3     H1       HT       0.417000       1.00800           0
     50327 TIP3     9315     TIP3     H2       HT       0.417000       1.00800           0
     50328 TIP3     9316     TIP3     OH2      OT      -0.834000       15.9994           0
     50329 TIP3     9316     TIP3     H1       HT       0.417000       1.00800           0
     50330 TIP3     9316     TIP3     H2       HT       0.417000       1.00800           0
     50331 TIP3     9317     TIP3     OH2      OT      -0.834000       15.9994           0
     50332 TIP3     9317     TIP3     H1       HT       0.417000       1.00800           0
     50333 TIP3     9317     TIP3     H2       HT       0.417000       1.00800           0
     50334 TIP3     9318     TIP3     OH2      OT      -0.834000       15.9994           0
     50335 TIP3     9318     TIP3     H1       HT       0.417000       1.00800           0
     50336 TIP3     9318     TIP3     H2       HT       0.417000       1.00800           0
     50337 TIP3     9319     TIP3     OH2      OT      -0.834000       15.9994           0
     50338 TIP3     9319     TIP3     H1       HT       0.417000       1.00800           0
     50339 TIP3     9319     TIP3     H2       HT       0.417000       1.00800           0
     50340 TIP3     9320     TIP3     OH2      OT      -0.834000       15.9994           0
     50341 TIP3     9320     TIP3     H1       HT       0.417000       1.00800           0
     50342 TIP3     9320     TIP3     H2       HT       0.417000       1.00800           0
     50343 TIP3     9321     TIP3     OH2      OT      -0.834000       15.9994           0
     50344 TIP3     9321     TIP3     H1       HT       0.417000       1.00800           0
     50345 TIP3     9321     TIP3     H2       HT       0.417000       1.00800           0
     50346 TIP3     9322     TIP3     OH2      OT      -0.834000       15.9994           0
     50347 TIP3     9322     TIP3     H1       HT       0.417000       1.00800           0
     50348 TIP3     9322     TIP3     H2       HT       0.417000       1.00800           0
     50349 TIP3     9323     TIP3     OH2      OT      -0.834000       15.9994           0
     50350 TIP3     9323     TIP3     H1       HT       0.417000       1.00800           0
     50351 TIP3     9323     TIP3     H2       HT       0.417000       1.00800           0
     50352 TIP3     9324     TIP3     OH2      OT      -0.834000       15.9994           0
     50353 TIP3     9324     TIP3     H1       HT       0.417000       1.00800           0
     50354 TIP3     9324     TIP3     H2       HT       0.417000       1.00800           0
     50355 TIP3     9325     TIP3     OH2      OT      -0.834000       15.9994           0
     50356 TIP3     9325     TIP3     H1       HT       0.417000       1.00800           0
     50357 TIP3     9325     TIP3     H2       HT       0.417000       1.00800           0
     50358 TIP3     9326     TIP3     OH2      OT      -0.834000       15.9994           0
     50359 TIP3     9326     TIP3     H1       HT       0.417000       1.00800           0
     50360 TIP3     9326     TIP3     H2       HT       0.417000       1.00800           0
     50361 TIP3     9327     TIP3     OH2      OT      -0.834000       15.9994           0
     50362 TIP3     9327     TIP3     H1       HT       0.417000       1.00800           0
     50363 TIP3     9327     TIP3     H2       HT       0.417000       1.00800           0
     50364 TIP3     9328     TIP3     OH2      OT      -0.834000       15.9994           0
     50365 TIP3     9328     TIP3     H1       HT       0.417000       1.00800           0
     50366 TIP3     9328     TIP3     H2       HT       0.417000       1.00800           0
     50367 TIP3     9329     TIP3     OH2      OT      -0.834000       15.9994           0
     50368 TIP3     9329     TIP3     H1       HT       0.417000       1.00800           0
     50369 TIP3     9329     TIP3     H2       HT       0.417000       1.00800           0
     50370 TIP3     9330     TIP3     OH2      OT      -0.834000       15.9994           0
     50371 TIP3     9330     TIP3     H1       HT       0.417000       1.00800           0
     50372 TIP3     9330     TIP3     H2       HT       0.417000       1.00800           0
     50373 TIP3     9331     TIP3     OH2      OT      -0.834000       15.9994           0
     50374 TIP3     9331     TIP3     H1       HT       0.417000       1.00800           0
     50375 TIP3     9331     TIP3     H2       HT       0.417000       1.00800           0
     50376 TIP3     9332     TIP3     OH2      OT      -0.834000       15.9994           0
     50377 TIP3     9332     TIP3     H1       HT       0.417000       1.00800           0
     50378 TIP3     9332     TIP3     H2       HT       0.417000       1.00800           0
     50379 TIP3     9333     TIP3     OH2      OT      -0.834000       15.9994           0
     50380 TIP3     9333     TIP3     H1       HT       0.417000       1.00800           0
     50381 TIP3     9333     TIP3     H2       HT       0.417000       1.00800           0
     50382 TIP3     9334     TIP3     OH2      OT      -0.834000       15.9994           0
     50383 TIP3     9334     TIP3     H1       HT       0.417000       1.00800           0
     50384 TIP3     9334     TIP3     H2       HT       0.417000       1.00800           0
     50385 TIP3     9335     TIP3     OH2      OT      -0.834000       15.9994           0
     50386 TIP3     9335     TIP3     H1       HT       0.417000       1.00800           0
     50387 TIP3     9335     TIP3     H2       HT       0.417000       1.00800           0
     50388 TIP3     9336     TIP3     OH2      OT      -0.834000       15.9994           0
     50389 TIP3     9336     TIP3     H1       HT       0.417000       1.00800           0
     50390 TIP3     9336     TIP3     H2       HT       0.417000       1.00800           0
     50391 TIP3     9337     TIP3     OH2      OT      -0.834000       15.9994           0
     50392 TIP3     9337     TIP3     H1       HT       0.417000       1.00800           0
     50393 TIP3     9337     TIP3     H2       HT       0.417000       1.00800           0
     50394 TIP3     9338     TIP3     OH2      OT      -0.834000       15.9994           0
     50395 TIP3     9338     TIP3     H1       HT       0.417000       1.00800           0
     50396 TIP3     9338     TIP3     H2       HT       0.417000       1.00800           0
     50397 TIP3     9339     TIP3     OH2      OT      -0.834000       15.9994           0
     50398 TIP3     9339     TIP3     H1       HT       0.417000       1.00800           0
     50399 TIP3     9339     TIP3     H2       HT       0.417000       1.00800           0
     50400 TIP3     9340     TIP3     OH2      OT      -0.834000       15.9994           0
     50401 TIP3     9340     TIP3     H1       HT       0.417000       1.00800           0
     50402 TIP3     9340     TIP3     H2       HT       0.417000       1.00800           0
     50403 TIP3     9341     TIP3     OH2      OT      -0.834000       15.9994           0
     50404 TIP3     9341     TIP3     H1       HT       0.417000       1.00800           0
     50405 TIP3     9341     TIP3     H2       HT       0.417000       1.00800           0
     50406 TIP3     9342     TIP3     OH2      OT      -0.834000       15.9994           0
     50407 TIP3     9342     TIP3     H1       HT       0.417000       1.00800           0
     50408 TIP3     9342     TIP3     H2       HT       0.417000       1.00800           0
     50409 TIP3     9343     TIP3     OH2      OT      -0.834000       15.9994           0
     50410 TIP3     9343     TIP3     H1       HT       0.417000       1.00800           0
     50411 TIP3     9343     TIP3     H2       HT       0.417000       1.00800           0
     50412 TIP3     9344     TIP3     OH2      OT      -0.834000       15.9994           0
     50413 TIP3     9344     TIP3     H1       HT       0.417000       1.00800           0
     50414 TIP3     9344     TIP3     H2       HT       0.417000       1.00800           0
     50415 TIP3     9345     TIP3     OH2      OT      -0.834000       15.9994           0
     50416 TIP3     9345     TIP3     H1       HT       0.417000       1.00800           0
     50417 TIP3     9345     TIP3     H2       HT       0.417000       1.00800           0
     50418 TIP3     9346     TIP3     OH2      OT      -0.834000       15.9994           0
     50419 TIP3     9346     TIP3     H1       HT       0.417000       1.00800           0
     50420 TIP3     9346     TIP3     H2       HT       0.417000       1.00800           0
     50421 TIP3     9347     TIP3     OH2      OT      -0.834000       15.9994           0
     50422 TIP3     9347     TIP3     H1       HT       0.417000       1.00800           0
     50423 TIP3     9347     TIP3     H2       HT       0.417000       1.00800           0
     50424 TIP3     9348     TIP3     OH2      OT      -0.834000       15.9994           0
     50425 TIP3     9348     TIP3     H1       HT       0.417000       1.00800           0
     50426 TIP3     9348     TIP3     H2       HT       0.417000       1.00800           0
     50427 TIP3     9349     TIP3     OH2      OT      -0.834000       15.9994           0
     50428 TIP3     9349     TIP3     H1       HT       0.417000       1.00800           0
     50429 TIP3     9349     TIP3     H2       HT       0.417000       1.00800           0
     50430 TIP3     9350     TIP3     OH2      OT      -0.834000       15.9994           0
     50431 TIP3     9350     TIP3     H1       HT       0.417000       1.00800           0
     50432 TIP3     9350     TIP3     H2       HT       0.417000       1.00800           0
     50433 TIP3     9351     TIP3     OH2      OT      -0.834000       15.9994           0
     50434 TIP3     9351     TIP3     H1       HT       0.417000       1.00800           0
     50435 TIP3     9351     TIP3     H2       HT       0.417000       1.00800           0
     50436 TIP3     9352     TIP3     OH2      OT      -0.834000       15.9994           0
     50437 TIP3     9352     TIP3     H1       HT       0.417000       1.00800           0
     50438 TIP3     9352     TIP3     H2       HT       0.417000       1.00800           0
     50439 TIP3     9353     TIP3     OH2      OT      -0.834000       15.9994           0
     50440 TIP3     9353     TIP3     H1       HT       0.417000       1.00800           0
     50441 TIP3     9353     TIP3     H2       HT       0.417000       1.00800           0
     50442 TIP3     9354     TIP3     OH2      OT      -0.834000       15.9994           0
     50443 TIP3     9354     TIP3     H1       HT       0.417000       1.00800           0
     50444 TIP3     9354     TIP3     H2       HT       0.417000       1.00800           0
     50445 TIP3     9355     TIP3     OH2      OT      -0.834000       15.9994           0
     50446 TIP3     9355     TIP3     H1       HT       0.417000       1.00800           0
     50447 TIP3     9355     TIP3     H2       HT       0.417000       1.00800           0
     50448 TIP3     9356     TIP3     OH2      OT      -0.834000       15.9994           0
     50449 TIP3     9356     TIP3     H1       HT       0.417000       1.00800           0
     50450 TIP3     9356     TIP3     H2       HT       0.417000       1.00800           0
     50451 TIP3     9357     TIP3     OH2      OT      -0.834000       15.9994           0
     50452 TIP3     9357     TIP3     H1       HT       0.417000       1.00800           0
     50453 TIP3     9357     TIP3     H2       HT       0.417000       1.00800           0
     50454 TIP3     9358     TIP3     OH2      OT      -0.834000       15.9994           0
     50455 TIP3     9358     TIP3     H1       HT       0.417000       1.00800           0
     50456 TIP3     9358     TIP3     H2       HT       0.417000       1.00800           0
     50457 TIP3     9359     TIP3     OH2      OT      -0.834000       15.9994           0
     50458 TIP3     9359     TIP3     H1       HT       0.417000       1.00800           0
     50459 TIP3     9359     TIP3     H2       HT       0.417000       1.00800           0
     50460 TIP3     9360     TIP3     OH2      OT      -0.834000       15.9994           0
     50461 TIP3     9360     TIP3     H1       HT       0.417000       1.00800           0
     50462 TIP3     9360     TIP3     H2       HT       0.417000       1.00800           0
     50463 TIP3     9361     TIP3     OH2      OT      -0.834000       15.9994           0
     50464 TIP3     9361     TIP3     H1       HT       0.417000       1.00800           0
     50465 TIP3     9361     TIP3     H2       HT       0.417000       1.00800           0
     50466 TIP3     9362     TIP3     OH2      OT      -0.834000       15.9994           0
     50467 TIP3     9362     TIP3     H1       HT       0.417000       1.00800           0
     50468 TIP3     9362     TIP3     H2       HT       0.417000       1.00800           0
     50469 TIP3     9363     TIP3     OH2      OT      -0.834000       15.9994           0
     50470 TIP3     9363     TIP3     H1       HT       0.417000       1.00800           0
     50471 TIP3     9363     TIP3     H2       HT       0.417000       1.00800           0
     50472 TIP3     9364     TIP3     OH2      OT      -0.834000       15.9994           0
     50473 TIP3     9364     TIP3     H1       HT       0.417000       1.00800           0
     50474 TIP3     9364     TIP3     H2       HT       0.417000       1.00800           0
     50475 TIP3     9365     TIP3     OH2      OT      -0.834000       15.9994           0
     50476 TIP3     9365     TIP3     H1       HT       0.417000       1.00800           0
     50477 TIP3     9365     TIP3     H2       HT       0.417000       1.00800           0
     50478 TIP3     9366     TIP3     OH2      OT      -0.834000       15.9994           0
     50479 TIP3     9366     TIP3     H1       HT       0.417000       1.00800           0
     50480 TIP3     9366     TIP3     H2       HT       0.417000       1.00800           0
     50481 TIP3     9367     TIP3     OH2      OT      -0.834000       15.9994           0
     50482 TIP3     9367     TIP3     H1       HT       0.417000       1.00800           0
     50483 TIP3     9367     TIP3     H2       HT       0.417000       1.00800           0
     50484 TIP3     9368     TIP3     OH2      OT      -0.834000       15.9994           0
     50485 TIP3     9368     TIP3     H1       HT       0.417000       1.00800           0
     50486 TIP3     9368     TIP3     H2       HT       0.417000       1.00800           0
     50487 TIP3     9369     TIP3     OH2      OT      -0.834000       15.9994           0
     50488 TIP3     9369     TIP3     H1       HT       0.417000       1.00800           0
     50489 TIP3     9369     TIP3     H2       HT       0.417000       1.00800           0
     50490 TIP3     9370     TIP3     OH2      OT      -0.834000       15.9994           0
     50491 TIP3     9370     TIP3     H1       HT       0.417000       1.00800           0
     50492 TIP3     9370     TIP3     H2       HT       0.417000       1.00800           0
     50493 TIP3     9371     TIP3     OH2      OT      -0.834000       15.9994           0
     50494 TIP3     9371     TIP3     H1       HT       0.417000       1.00800           0
     50495 TIP3     9371     TIP3     H2       HT       0.417000       1.00800           0
     50496 TIP3     9372     TIP3     OH2      OT      -0.834000       15.9994           0
     50497 TIP3     9372     TIP3     H1       HT       0.417000       1.00800           0
     50498 TIP3     9372     TIP3     H2       HT       0.417000       1.00800           0
     50499 TIP3     9373     TIP3     OH2      OT      -0.834000       15.9994           0
     50500 TIP3     9373     TIP3     H1       HT       0.417000       1.00800           0
     50501 TIP3     9373     TIP3     H2       HT       0.417000       1.00800           0
     50502 TIP3     9374     TIP3     OH2      OT      -0.834000       15.9994           0
     50503 TIP3     9374     TIP3     H1       HT       0.417000       1.00800           0
     50504 TIP3     9374     TIP3     H2       HT       0.417000       1.00800           0
     50505 TIP3     9375     TIP3     OH2      OT      -0.834000       15.9994           0
     50506 TIP3     9375     TIP3     H1       HT       0.417000       1.00800           0
     50507 TIP3     9375     TIP3     H2       HT       0.417000       1.00800           0
     50508 TIP3     9376     TIP3     OH2      OT      -0.834000       15.9994           0
     50509 TIP3     9376     TIP3     H1       HT       0.417000       1.00800           0
     50510 TIP3     9376     TIP3     H2       HT       0.417000       1.00800           0
     50511 TIP3     9377     TIP3     OH2      OT      -0.834000       15.9994           0
     50512 TIP3     9377     TIP3     H1       HT       0.417000       1.00800           0
     50513 TIP3     9377     TIP3     H2       HT       0.417000       1.00800           0
     50514 TIP3     9378     TIP3     OH2      OT      -0.834000       15.9994           0
     50515 TIP3     9378     TIP3     H1       HT       0.417000       1.00800           0
     50516 TIP3     9378     TIP3     H2       HT       0.417000       1.00800           0
     50517 TIP3     9379     TIP3     OH2      OT      -0.834000       15.9994           0
     50518 TIP3     9379     TIP3     H1       HT       0.417000       1.00800           0
     50519 TIP3     9379     TIP3     H2       HT       0.417000       1.00800           0
     50520 TIP3     9380     TIP3     OH2      OT      -0.834000       15.9994           0
     50521 TIP3     9380     TIP3     H1       HT       0.417000       1.00800           0
     50522 TIP3     9380     TIP3     H2       HT       0.417000       1.00800           0
     50523 TIP3     9381     TIP3     OH2      OT      -0.834000       15.9994           0
     50524 TIP3     9381     TIP3     H1       HT       0.417000       1.00800           0
     50525 TIP3     9381     TIP3     H2       HT       0.417000       1.00800           0
     50526 TIP3     9382     TIP3     OH2      OT      -0.834000       15.9994           0
     50527 TIP3     9382     TIP3     H1       HT       0.417000       1.00800           0
     50528 TIP3     9382     TIP3     H2       HT       0.417000       1.00800           0
     50529 TIP3     9383     TIP3     OH2      OT      -0.834000       15.9994           0
     50530 TIP3     9383     TIP3     H1       HT       0.417000       1.00800           0
     50531 TIP3     9383     TIP3     H2       HT       0.417000       1.00800           0
     50532 TIP3     9384     TIP3     OH2      OT      -0.834000       15.9994           0
     50533 TIP3     9384     TIP3     H1       HT       0.417000       1.00800           0
     50534 TIP3     9384     TIP3     H2       HT       0.417000       1.00800           0
     50535 TIP3     9385     TIP3     OH2      OT      -0.834000       15.9994           0
     50536 TIP3     9385     TIP3     H1       HT       0.417000       1.00800           0
     50537 TIP3     9385     TIP3     H2       HT       0.417000       1.00800           0
     50538 TIP3     9386     TIP3     OH2      OT      -0.834000       15.9994           0
     50539 TIP3     9386     TIP3     H1       HT       0.417000       1.00800           0
     50540 TIP3     9386     TIP3     H2       HT       0.417000       1.00800           0
     50541 TIP3     9387     TIP3     OH2      OT      -0.834000       15.9994           0
     50542 TIP3     9387     TIP3     H1       HT       0.417000       1.00800           0
     50543 TIP3     9387     TIP3     H2       HT       0.417000       1.00800           0
     50544 TIP3     9388     TIP3     OH2      OT      -0.834000       15.9994           0
     50545 TIP3     9388     TIP3     H1       HT       0.417000       1.00800           0
     50546 TIP3     9388     TIP3     H2       HT       0.417000       1.00800           0
     50547 TIP3     9389     TIP3     OH2      OT      -0.834000       15.9994           0
     50548 TIP3     9389     TIP3     H1       HT       0.417000       1.00800           0
     50549 TIP3     9389     TIP3     H2       HT       0.417000       1.00800           0
     50550 TIP3     9390     TIP3     OH2      OT      -0.834000       15.9994           0
     50551 TIP3     9390     TIP3     H1       HT       0.417000       1.00800           0
     50552 TIP3     9390     TIP3     H2       HT       0.417000       1.00800           0
     50553 TIP3     9391     TIP3     OH2      OT      -0.834000       15.9994           0
     50554 TIP3     9391     TIP3     H1       HT       0.417000       1.00800           0
     50555 TIP3     9391     TIP3     H2       HT       0.417000       1.00800           0
     50556 TIP3     9392     TIP3     OH2      OT      -0.834000       15.9994           0
     50557 TIP3     9392     TIP3     H1       HT       0.417000       1.00800           0
     50558 TIP3     9392     TIP3     H2       HT       0.417000       1.00800           0
     50559 TIP3     9393     TIP3     OH2      OT      -0.834000       15.9994           0
     50560 TIP3     9393     TIP3     H1       HT       0.417000       1.00800           0
     50561 TIP3     9393     TIP3     H2       HT       0.417000       1.00800           0
     50562 TIP3     9394     TIP3     OH2      OT      -0.834000       15.9994           0
     50563 TIP3     9394     TIP3     H1       HT       0.417000       1.00800           0
     50564 TIP3     9394     TIP3     H2       HT       0.417000       1.00800           0
     50565 TIP3     9395     TIP3     OH2      OT      -0.834000       15.9994           0
     50566 TIP3     9395     TIP3     H1       HT       0.417000       1.00800           0
     50567 TIP3     9395     TIP3     H2       HT       0.417000       1.00800           0
     50568 TIP3     9396     TIP3     OH2      OT      -0.834000       15.9994           0
     50569 TIP3     9396     TIP3     H1       HT       0.417000       1.00800           0
     50570 TIP3     9396     TIP3     H2       HT       0.417000       1.00800           0
     50571 TIP3     9397     TIP3     OH2      OT      -0.834000       15.9994           0
     50572 TIP3     9397     TIP3     H1       HT       0.417000       1.00800           0
     50573 TIP3     9397     TIP3     H2       HT       0.417000       1.00800           0
     50574 TIP3     9398     TIP3     OH2      OT      -0.834000       15.9994           0
     50575 TIP3     9398     TIP3     H1       HT       0.417000       1.00800           0
     50576 TIP3     9398     TIP3     H2       HT       0.417000       1.00800           0
     50577 TIP3     9399     TIP3     OH2      OT      -0.834000       15.9994           0
     50578 TIP3     9399     TIP3     H1       HT       0.417000       1.00800           0
     50579 TIP3     9399     TIP3     H2       HT       0.417000       1.00800           0
     50580 TIP3     9400     TIP3     OH2      OT      -0.834000       15.9994           0
     50581 TIP3     9400     TIP3     H1       HT       0.417000       1.00800           0
     50582 TIP3     9400     TIP3     H2       HT       0.417000       1.00800           0
     50583 TIP3     9401     TIP3     OH2      OT      -0.834000       15.9994           0
     50584 TIP3     9401     TIP3     H1       HT       0.417000       1.00800           0
     50585 TIP3     9401     TIP3     H2       HT       0.417000       1.00800           0
     50586 TIP3     9402     TIP3     OH2      OT      -0.834000       15.9994           0
     50587 TIP3     9402     TIP3     H1       HT       0.417000       1.00800           0
     50588 TIP3     9402     TIP3     H2       HT       0.417000       1.00800           0
     50589 TIP3     9403     TIP3     OH2      OT      -0.834000       15.9994           0
     50590 TIP3     9403     TIP3     H1       HT       0.417000       1.00800           0
     50591 TIP3     9403     TIP3     H2       HT       0.417000       1.00800           0
     50592 TIP3     9404     TIP3     OH2      OT      -0.834000       15.9994           0
     50593 TIP3     9404     TIP3     H1       HT       0.417000       1.00800           0
     50594 TIP3     9404     TIP3     H2       HT       0.417000       1.00800           0
     50595 TIP3     9405     TIP3     OH2      OT      -0.834000       15.9994           0
     50596 TIP3     9405     TIP3     H1       HT       0.417000       1.00800           0
     50597 TIP3     9405     TIP3     H2       HT       0.417000       1.00800           0
     50598 TIP3     9406     TIP3     OH2      OT      -0.834000       15.9994           0
     50599 TIP3     9406     TIP3     H1       HT       0.417000       1.00800           0
     50600 TIP3     9406     TIP3     H2       HT       0.417000       1.00800           0
     50601 TIP3     9407     TIP3     OH2      OT      -0.834000       15.9994           0
     50602 TIP3     9407     TIP3     H1       HT       0.417000       1.00800           0
     50603 TIP3     9407     TIP3     H2       HT       0.417000       1.00800           0
     50604 TIP3     9408     TIP3     OH2      OT      -0.834000       15.9994           0
     50605 TIP3     9408     TIP3     H1       HT       0.417000       1.00800           0
     50606 TIP3     9408     TIP3     H2       HT       0.417000       1.00800           0
     50607 TIP3     9409     TIP3     OH2      OT      -0.834000       15.9994           0
     50608 TIP3     9409     TIP3     H1       HT       0.417000       1.00800           0
     50609 TIP3     9409     TIP3     H2       HT       0.417000       1.00800           0
     50610 TIP3     9410     TIP3     OH2      OT      -0.834000       15.9994           0
     50611 TIP3     9410     TIP3     H1       HT       0.417000       1.00800           0
     50612 TIP3     9410     TIP3     H2       HT       0.417000       1.00800           0
     50613 TIP3     9411     TIP3     OH2      OT      -0.834000       15.9994           0
     50614 TIP3     9411     TIP3     H1       HT       0.417000       1.00800           0
     50615 TIP3     9411     TIP3     H2       HT       0.417000       1.00800           0
     50616 TIP3     9412     TIP3     OH2      OT      -0.834000       15.9994           0
     50617 TIP3     9412     TIP3     H1       HT       0.417000       1.00800           0
     50618 TIP3     9412     TIP3     H2       HT       0.417000       1.00800           0
     50619 TIP3     9413     TIP3     OH2      OT      -0.834000       15.9994           0
     50620 TIP3     9413     TIP3     H1       HT       0.417000       1.00800           0
     50621 TIP3     9413     TIP3     H2       HT       0.417000       1.00800           0
     50622 TIP3     9414     TIP3     OH2      OT      -0.834000       15.9994           0
     50623 TIP3     9414     TIP3     H1       HT       0.417000       1.00800           0
     50624 TIP3     9414     TIP3     H2       HT       0.417000       1.00800           0
     50625 TIP3     9415     TIP3     OH2      OT      -0.834000       15.9994           0
     50626 TIP3     9415     TIP3     H1       HT       0.417000       1.00800           0
     50627 TIP3     9415     TIP3     H2       HT       0.417000       1.00800           0
     50628 TIP3     9416     TIP3     OH2      OT      -0.834000       15.9994           0
     50629 TIP3     9416     TIP3     H1       HT       0.417000       1.00800           0
     50630 TIP3     9416     TIP3     H2       HT       0.417000       1.00800           0
     50631 TIP3     9417     TIP3     OH2      OT      -0.834000       15.9994           0
     50632 TIP3     9417     TIP3     H1       HT       0.417000       1.00800           0
     50633 TIP3     9417     TIP3     H2       HT       0.417000       1.00800           0
     50634 TIP3     9418     TIP3     OH2      OT      -0.834000       15.9994           0
     50635 TIP3     9418     TIP3     H1       HT       0.417000       1.00800           0
     50636 TIP3     9418     TIP3     H2       HT       0.417000       1.00800           0
     50637 TIP3     9419     TIP3     OH2      OT      -0.834000       15.9994           0
     50638 TIP3     9419     TIP3     H1       HT       0.417000       1.00800           0
     50639 TIP3     9419     TIP3     H2       HT       0.417000       1.00800           0
     50640 TIP3     9420     TIP3     OH2      OT      -0.834000       15.9994           0
     50641 TIP3     9420     TIP3     H1       HT       0.417000       1.00800           0
     50642 TIP3     9420     TIP3     H2       HT       0.417000       1.00800           0
     50643 TIP3     9421     TIP3     OH2      OT      -0.834000       15.9994           0
     50644 TIP3     9421     TIP3     H1       HT       0.417000       1.00800           0
     50645 TIP3     9421     TIP3     H2       HT       0.417000       1.00800           0
     50646 TIP3     9422     TIP3     OH2      OT      -0.834000       15.9994           0
     50647 TIP3     9422     TIP3     H1       HT       0.417000       1.00800           0
     50648 TIP3     9422     TIP3     H2       HT       0.417000       1.00800           0
     50649 TIP3     9423     TIP3     OH2      OT      -0.834000       15.9994           0
     50650 TIP3     9423     TIP3     H1       HT       0.417000       1.00800           0
     50651 TIP3     9423     TIP3     H2       HT       0.417000       1.00800           0
     50652 TIP3     9424     TIP3     OH2      OT      -0.834000       15.9994           0
     50653 TIP3     9424     TIP3     H1       HT       0.417000       1.00800           0
     50654 TIP3     9424     TIP3     H2       HT       0.417000       1.00800           0
     50655 TIP3     9425     TIP3     OH2      OT      -0.834000       15.9994           0
     50656 TIP3     9425     TIP3     H1       HT       0.417000       1.00800           0
     50657 TIP3     9425     TIP3     H2       HT       0.417000       1.00800           0
     50658 TIP3     9426     TIP3     OH2      OT      -0.834000       15.9994           0
     50659 TIP3     9426     TIP3     H1       HT       0.417000       1.00800           0
     50660 TIP3     9426     TIP3     H2       HT       0.417000       1.00800           0
     50661 TIP3     9427     TIP3     OH2      OT      -0.834000       15.9994           0
     50662 TIP3     9427     TIP3     H1       HT       0.417000       1.00800           0
     50663 TIP3     9427     TIP3     H2       HT       0.417000       1.00800           0
     50664 TIP3     9428     TIP3     OH2      OT      -0.834000       15.9994           0
     50665 TIP3     9428     TIP3     H1       HT       0.417000       1.00800           0
     50666 TIP3     9428     TIP3     H2       HT       0.417000       1.00800           0
     50667 TIP3     9429     TIP3     OH2      OT      -0.834000       15.9994           0
     50668 TIP3     9429     TIP3     H1       HT       0.417000       1.00800           0
     50669 TIP3     9429     TIP3     H2       HT       0.417000       1.00800           0
     50670 TIP3     9430     TIP3     OH2      OT      -0.834000       15.9994           0
     50671 TIP3     9430     TIP3     H1       HT       0.417000       1.00800           0
     50672 TIP3     9430     TIP3     H2       HT       0.417000       1.00800           0
     50673 TIP3     9431     TIP3     OH2      OT      -0.834000       15.9994           0
     50674 TIP3     9431     TIP3     H1       HT       0.417000       1.00800           0
     50675 TIP3     9431     TIP3     H2       HT       0.417000       1.00800           0
     50676 TIP3     9432     TIP3     OH2      OT      -0.834000       15.9994           0
     50677 TIP3     9432     TIP3     H1       HT       0.417000       1.00800           0
     50678 TIP3     9432     TIP3     H2       HT       0.417000       1.00800           0
     50679 TIP3     9433     TIP3     OH2      OT      -0.834000       15.9994           0
     50680 TIP3     9433     TIP3     H1       HT       0.417000       1.00800           0
     50681 TIP3     9433     TIP3     H2       HT       0.417000       1.00800           0
     50682 TIP3     9434     TIP3     OH2      OT      -0.834000       15.9994           0
     50683 TIP3     9434     TIP3     H1       HT       0.417000       1.00800           0
     50684 TIP3     9434     TIP3     H2       HT       0.417000       1.00800           0
     50685 TIP3     9435     TIP3     OH2      OT      -0.834000       15.9994           0
     50686 TIP3     9435     TIP3     H1       HT       0.417000       1.00800           0
     50687 TIP3     9435     TIP3     H2       HT       0.417000       1.00800           0
     50688 TIP3     9436     TIP3     OH2      OT      -0.834000       15.9994           0
     50689 TIP3     9436     TIP3     H1       HT       0.417000       1.00800           0
     50690 TIP3     9436     TIP3     H2       HT       0.417000       1.00800           0
     50691 TIP3     9437     TIP3     OH2      OT      -0.834000       15.9994           0
     50692 TIP3     9437     TIP3     H1       HT       0.417000       1.00800           0
     50693 TIP3     9437     TIP3     H2       HT       0.417000       1.00800           0
     50694 TIP3     9438     TIP3     OH2      OT      -0.834000       15.9994           0
     50695 TIP3     9438     TIP3     H1       HT       0.417000       1.00800           0
     50696 TIP3     9438     TIP3     H2       HT       0.417000       1.00800           0
     50697 TIP3     9439     TIP3     OH2      OT      -0.834000       15.9994           0
     50698 TIP3     9439     TIP3     H1       HT       0.417000       1.00800           0
     50699 TIP3     9439     TIP3     H2       HT       0.417000       1.00800           0
     50700 TIP3     9440     TIP3     OH2      OT      -0.834000       15.9994           0
     50701 TIP3     9440     TIP3     H1       HT       0.417000       1.00800           0
     50702 TIP3     9440     TIP3     H2       HT       0.417000       1.00800           0
     50703 TIP3     9441     TIP3     OH2      OT      -0.834000       15.9994           0
     50704 TIP3     9441     TIP3     H1       HT       0.417000       1.00800           0
     50705 TIP3     9441     TIP3     H2       HT       0.417000       1.00800           0
     50706 TIP3     9442     TIP3     OH2      OT      -0.834000       15.9994           0
     50707 TIP3     9442     TIP3     H1       HT       0.417000       1.00800           0
     50708 TIP3     9442     TIP3     H2       HT       0.417000       1.00800           0
     50709 TIP3     9443     TIP3     OH2      OT      -0.834000       15.9994           0
     50710 TIP3     9443     TIP3     H1       HT       0.417000       1.00800           0
     50711 TIP3     9443     TIP3     H2       HT       0.417000       1.00800           0
     50712 TIP3     9444     TIP3     OH2      OT      -0.834000       15.9994           0
     50713 TIP3     9444     TIP3     H1       HT       0.417000       1.00800           0
     50714 TIP3     9444     TIP3     H2       HT       0.417000       1.00800           0
     50715 TIP3     9445     TIP3     OH2      OT      -0.834000       15.9994           0
     50716 TIP3     9445     TIP3     H1       HT       0.417000       1.00800           0
     50717 TIP3     9445     TIP3     H2       HT       0.417000       1.00800           0
     50718 TIP3     9446     TIP3     OH2      OT      -0.834000       15.9994           0
     50719 TIP3     9446     TIP3     H1       HT       0.417000       1.00800           0
     50720 TIP3     9446     TIP3     H2       HT       0.417000       1.00800           0
     50721 TIP3     9447     TIP3     OH2      OT      -0.834000       15.9994           0
     50722 TIP3     9447     TIP3     H1       HT       0.417000       1.00800           0
     50723 TIP3     9447     TIP3     H2       HT       0.417000       1.00800           0
     50724 TIP3     9448     TIP3     OH2      OT      -0.834000       15.9994           0
     50725 TIP3     9448     TIP3     H1       HT       0.417000       1.00800           0
     50726 TIP3     9448     TIP3     H2       HT       0.417000       1.00800           0
     50727 TIP3     9449     TIP3     OH2      OT      -0.834000       15.9994           0
     50728 TIP3     9449     TIP3     H1       HT       0.417000       1.00800           0
     50729 TIP3     9449     TIP3     H2       HT       0.417000       1.00800           0
     50730 TIP3     9450     TIP3     OH2      OT      -0.834000       15.9994           0
     50731 TIP3     9450     TIP3     H1       HT       0.417000       1.00800           0
     50732 TIP3     9450     TIP3     H2       HT       0.417000       1.00800           0
     50733 TIP3     9451     TIP3     OH2      OT      -0.834000       15.9994           0
     50734 TIP3     9451     TIP3     H1       HT       0.417000       1.00800           0
     50735 TIP3     9451     TIP3     H2       HT       0.417000       1.00800           0
     50736 TIP3     9452     TIP3     OH2      OT      -0.834000       15.9994           0
     50737 TIP3     9452     TIP3     H1       HT       0.417000       1.00800           0
     50738 TIP3     9452     TIP3     H2       HT       0.417000       1.00800           0
     50739 TIP3     9453     TIP3     OH2      OT      -0.834000       15.9994           0
     50740 TIP3     9453     TIP3     H1       HT       0.417000       1.00800           0
     50741 TIP3     9453     TIP3     H2       HT       0.417000       1.00800           0
     50742 TIP3     9454     TIP3     OH2      OT      -0.834000       15.9994           0
     50743 TIP3     9454     TIP3     H1       HT       0.417000       1.00800           0
     50744 TIP3     9454     TIP3     H2       HT       0.417000       1.00800           0
     50745 TIP3     9455     TIP3     OH2      OT      -0.834000       15.9994           0
     50746 TIP3     9455     TIP3     H1       HT       0.417000       1.00800           0
     50747 TIP3     9455     TIP3     H2       HT       0.417000       1.00800           0
     50748 TIP3     9456     TIP3     OH2      OT      -0.834000       15.9994           0
     50749 TIP3     9456     TIP3     H1       HT       0.417000       1.00800           0
     50750 TIP3     9456     TIP3     H2       HT       0.417000       1.00800           0
     50751 TIP3     9457     TIP3     OH2      OT      -0.834000       15.9994           0
     50752 TIP3     9457     TIP3     H1       HT       0.417000       1.00800           0
     50753 TIP3     9457     TIP3     H2       HT       0.417000       1.00800           0
     50754 TIP3     9458     TIP3     OH2      OT      -0.834000       15.9994           0
     50755 TIP3     9458     TIP3     H1       HT       0.417000       1.00800           0
     50756 TIP3     9458     TIP3     H2       HT       0.417000       1.00800           0
     50757 TIP3     9459     TIP3     OH2      OT      -0.834000       15.9994           0
     50758 TIP3     9459     TIP3     H1       HT       0.417000       1.00800           0
     50759 TIP3     9459     TIP3     H2       HT       0.417000       1.00800           0
     50760 TIP3     9460     TIP3     OH2      OT      -0.834000       15.9994           0
     50761 TIP3     9460     TIP3     H1       HT       0.417000       1.00800           0
     50762 TIP3     9460     TIP3     H2       HT       0.417000       1.00800           0
     50763 TIP3     9461     TIP3     OH2      OT      -0.834000       15.9994           0
     50764 TIP3     9461     TIP3     H1       HT       0.417000       1.00800           0
     50765 TIP3     9461     TIP3     H2       HT       0.417000       1.00800           0
     50766 TIP3     9462     TIP3     OH2      OT      -0.834000       15.9994           0
     50767 TIP3     9462     TIP3     H1       HT       0.417000       1.00800           0
     50768 TIP3     9462     TIP3     H2       HT       0.417000       1.00800           0
     50769 TIP3     9463     TIP3     OH2      OT      -0.834000       15.9994           0
     50770 TIP3     9463     TIP3     H1       HT       0.417000       1.00800           0
     50771 TIP3     9463     TIP3     H2       HT       0.417000       1.00800           0
     50772 TIP3     9464     TIP3     OH2      OT      -0.834000       15.9994           0
     50773 TIP3     9464     TIP3     H1       HT       0.417000       1.00800           0
     50774 TIP3     9464     TIP3     H2       HT       0.417000       1.00800           0
     50775 TIP3     9465     TIP3     OH2      OT      -0.834000       15.9994           0
     50776 TIP3     9465     TIP3     H1       HT       0.417000       1.00800           0
     50777 TIP3     9465     TIP3     H2       HT       0.417000       1.00800           0
     50778 TIP3     9466     TIP3     OH2      OT      -0.834000       15.9994           0
     50779 TIP3     9466     TIP3     H1       HT       0.417000       1.00800           0
     50780 TIP3     9466     TIP3     H2       HT       0.417000       1.00800           0
     50781 TIP3     9467     TIP3     OH2      OT      -0.834000       15.9994           0
     50782 TIP3     9467     TIP3     H1       HT       0.417000       1.00800           0
     50783 TIP3     9467     TIP3     H2       HT       0.417000       1.00800           0
     50784 TIP3     9468     TIP3     OH2      OT      -0.834000       15.9994           0
     50785 TIP3     9468     TIP3     H1       HT       0.417000       1.00800           0
     50786 TIP3     9468     TIP3     H2       HT       0.417000       1.00800           0
     50787 TIP3     9469     TIP3     OH2      OT      -0.834000       15.9994           0
     50788 TIP3     9469     TIP3     H1       HT       0.417000       1.00800           0
     50789 TIP3     9469     TIP3     H2       HT       0.417000       1.00800           0
     50790 TIP3     9470     TIP3     OH2      OT      -0.834000       15.9994           0
     50791 TIP3     9470     TIP3     H1       HT       0.417000       1.00800           0
     50792 TIP3     9470     TIP3     H2       HT       0.417000       1.00800           0
     50793 TIP3     9471     TIP3     OH2      OT      -0.834000       15.9994           0
     50794 TIP3     9471     TIP3     H1       HT       0.417000       1.00800           0
     50795 TIP3     9471     TIP3     H2       HT       0.417000       1.00800           0
     50796 TIP3     9472     TIP3     OH2      OT      -0.834000       15.9994           0
     50797 TIP3     9472     TIP3     H1       HT       0.417000       1.00800           0
     50798 TIP3     9472     TIP3     H2       HT       0.417000       1.00800           0
     50799 TIP3     9473     TIP3     OH2      OT      -0.834000       15.9994           0
     50800 TIP3     9473     TIP3     H1       HT       0.417000       1.00800           0
     50801 TIP3     9473     TIP3     H2       HT       0.417000       1.00800           0
     50802 TIP3     9474     TIP3     OH2      OT      -0.834000       15.9994           0
     50803 TIP3     9474     TIP3     H1       HT       0.417000       1.00800           0
     50804 TIP3     9474     TIP3     H2       HT       0.417000       1.00800           0
     50805 TIP3     9475     TIP3     OH2      OT      -0.834000       15.9994           0
     50806 TIP3     9475     TIP3     H1       HT       0.417000       1.00800           0
     50807 TIP3     9475     TIP3     H2       HT       0.417000       1.00800           0
     50808 TIP3     9476     TIP3     OH2      OT      -0.834000       15.9994           0
     50809 TIP3     9476     TIP3     H1       HT       0.417000       1.00800           0
     50810 TIP3     9476     TIP3     H2       HT       0.417000       1.00800           0
     50811 TIP3     9477     TIP3     OH2      OT      -0.834000       15.9994           0
     50812 TIP3     9477     TIP3     H1       HT       0.417000       1.00800           0
     50813 TIP3     9477     TIP3     H2       HT       0.417000       1.00800           0
     50814 TIP3     9478     TIP3     OH2      OT      -0.834000       15.9994           0
     50815 TIP3     9478     TIP3     H1       HT       0.417000       1.00800           0
     50816 TIP3     9478     TIP3     H2       HT       0.417000       1.00800           0
     50817 TIP3     9479     TIP3     OH2      OT      -0.834000       15.9994           0
     50818 TIP3     9479     TIP3     H1       HT       0.417000       1.00800           0
     50819 TIP3     9479     TIP3     H2       HT       0.417000       1.00800           0
     50820 TIP3     9480     TIP3     OH2      OT      -0.834000       15.9994           0
     50821 TIP3     9480     TIP3     H1       HT       0.417000       1.00800           0
     50822 TIP3     9480     TIP3     H2       HT       0.417000       1.00800           0
     50823 TIP3     9481     TIP3     OH2      OT      -0.834000       15.9994           0
     50824 TIP3     9481     TIP3     H1       HT       0.417000       1.00800           0
     50825 TIP3     9481     TIP3     H2       HT       0.417000       1.00800           0
     50826 TIP3     9482     TIP3     OH2      OT      -0.834000       15.9994           0
     50827 TIP3     9482     TIP3     H1       HT       0.417000       1.00800           0
     50828 TIP3     9482     TIP3     H2       HT       0.417000       1.00800           0
     50829 TIP3     9483     TIP3     OH2      OT      -0.834000       15.9994           0
     50830 TIP3     9483     TIP3     H1       HT       0.417000       1.00800           0
     50831 TIP3     9483     TIP3     H2       HT       0.417000       1.00800           0
     50832 TIP3     9484     TIP3     OH2      OT      -0.834000       15.9994           0
     50833 TIP3     9484     TIP3     H1       HT       0.417000       1.00800           0
     50834 TIP3     9484     TIP3     H2       HT       0.417000       1.00800           0
     50835 TIP3     9485     TIP3     OH2      OT      -0.834000       15.9994           0
     50836 TIP3     9485     TIP3     H1       HT       0.417000       1.00800           0
     50837 TIP3     9485     TIP3     H2       HT       0.417000       1.00800           0
     50838 TIP3     9486     TIP3     OH2      OT      -0.834000       15.9994           0
     50839 TIP3     9486     TIP3     H1       HT       0.417000       1.00800           0
     50840 TIP3     9486     TIP3     H2       HT       0.417000       1.00800           0
     50841 TIP3     9487     TIP3     OH2      OT      -0.834000       15.9994           0
     50842 TIP3     9487     TIP3     H1       HT       0.417000       1.00800           0
     50843 TIP3     9487     TIP3     H2       HT       0.417000       1.00800           0
     50844 TIP3     9488     TIP3     OH2      OT      -0.834000       15.9994           0
     50845 TIP3     9488     TIP3     H1       HT       0.417000       1.00800           0
     50846 TIP3     9488     TIP3     H2       HT       0.417000       1.00800           0
     50847 TIP3     9489     TIP3     OH2      OT      -0.834000       15.9994           0
     50848 TIP3     9489     TIP3     H1       HT       0.417000       1.00800           0
     50849 TIP3     9489     TIP3     H2       HT       0.417000       1.00800           0
     50850 TIP3     9490     TIP3     OH2      OT      -0.834000       15.9994           0
     50851 TIP3     9490     TIP3     H1       HT       0.417000       1.00800           0
     50852 TIP3     9490     TIP3     H2       HT       0.417000       1.00800           0
     50853 TIP3     9491     TIP3     OH2      OT      -0.834000       15.9994           0
     50854 TIP3     9491     TIP3     H1       HT       0.417000       1.00800           0
     50855 TIP3     9491     TIP3     H2       HT       0.417000       1.00800           0
     50856 TIP3     9492     TIP3     OH2      OT      -0.834000       15.9994           0
     50857 TIP3     9492     TIP3     H1       HT       0.417000       1.00800           0
     50858 TIP3     9492     TIP3     H2       HT       0.417000       1.00800           0
     50859 TIP3     9493     TIP3     OH2      OT      -0.834000       15.9994           0
     50860 TIP3     9493     TIP3     H1       HT       0.417000       1.00800           0
     50861 TIP3     9493     TIP3     H2       HT       0.417000       1.00800           0
     50862 TIP3     9494     TIP3     OH2      OT      -0.834000       15.9994           0
     50863 TIP3     9494     TIP3     H1       HT       0.417000       1.00800           0
     50864 TIP3     9494     TIP3     H2       HT       0.417000       1.00800           0
     50865 TIP3     9495     TIP3     OH2      OT      -0.834000       15.9994           0
     50866 TIP3     9495     TIP3     H1       HT       0.417000       1.00800           0
     50867 TIP3     9495     TIP3     H2       HT       0.417000       1.00800           0
     50868 TIP3     9496     TIP3     OH2      OT      -0.834000       15.9994           0
     50869 TIP3     9496     TIP3     H1       HT       0.417000       1.00800           0
     50870 TIP3     9496     TIP3     H2       HT       0.417000       1.00800           0
     50871 TIP3     9497     TIP3     OH2      OT      -0.834000       15.9994           0
     50872 TIP3     9497     TIP3     H1       HT       0.417000       1.00800           0
     50873 TIP3     9497     TIP3     H2       HT       0.417000       1.00800           0
     50874 TIP3     9498     TIP3     OH2      OT      -0.834000       15.9994           0
     50875 TIP3     9498     TIP3     H1       HT       0.417000       1.00800           0
     50876 TIP3     9498     TIP3     H2       HT       0.417000       1.00800           0
     50877 TIP3     9499     TIP3     OH2      OT      -0.834000       15.9994           0
     50878 TIP3     9499     TIP3     H1       HT       0.417000       1.00800           0
     50879 TIP3     9499     TIP3     H2       HT       0.417000       1.00800           0
     50880 TIP3     9500     TIP3     OH2      OT      -0.834000       15.9994           0
     50881 TIP3     9500     TIP3     H1       HT       0.417000       1.00800           0
     50882 TIP3     9500     TIP3     H2       HT       0.417000       1.00800           0
     50883 TIP3     9501     TIP3     OH2      OT      -0.834000       15.9994           0
     50884 TIP3     9501     TIP3     H1       HT       0.417000       1.00800           0
     50885 TIP3     9501     TIP3     H2       HT       0.417000       1.00800           0
     50886 TIP3     9502     TIP3     OH2      OT      -0.834000       15.9994           0
     50887 TIP3     9502     TIP3     H1       HT       0.417000       1.00800           0
     50888 TIP3     9502     TIP3     H2       HT       0.417000       1.00800           0
     50889 TIP3     9503     TIP3     OH2      OT      -0.834000       15.9994           0
     50890 TIP3     9503     TIP3     H1       HT       0.417000       1.00800           0
     50891 TIP3     9503     TIP3     H2       HT       0.417000       1.00800           0
     50892 TIP3     9504     TIP3     OH2      OT      -0.834000       15.9994           0
     50893 TIP3     9504     TIP3     H1       HT       0.417000       1.00800           0
     50894 TIP3     9504     TIP3     H2       HT       0.417000       1.00800           0
     50895 TIP3     9505     TIP3     OH2      OT      -0.834000       15.9994           0
     50896 TIP3     9505     TIP3     H1       HT       0.417000       1.00800           0
     50897 TIP3     9505     TIP3     H2       HT       0.417000       1.00800           0
     50898 TIP3     9506     TIP3     OH2      OT      -0.834000       15.9994           0
     50899 TIP3     9506     TIP3     H1       HT       0.417000       1.00800           0
     50900 TIP3     9506     TIP3     H2       HT       0.417000       1.00800           0
     50901 TIP3     9507     TIP3     OH2      OT      -0.834000       15.9994           0
     50902 TIP3     9507     TIP3     H1       HT       0.417000       1.00800           0
     50903 TIP3     9507     TIP3     H2       HT       0.417000       1.00800           0
     50904 TIP3     9508     TIP3     OH2      OT      -0.834000       15.9994           0
     50905 TIP3     9508     TIP3     H1       HT       0.417000       1.00800           0
     50906 TIP3     9508     TIP3     H2       HT       0.417000       1.00800           0
     50907 TIP3     9509     TIP3     OH2      OT      -0.834000       15.9994           0
     50908 TIP3     9509     TIP3     H1       HT       0.417000       1.00800           0
     50909 TIP3     9509     TIP3     H2       HT       0.417000       1.00800           0
     50910 TIP3     9510     TIP3     OH2      OT      -0.834000       15.9994           0
     50911 TIP3     9510     TIP3     H1       HT       0.417000       1.00800           0
     50912 TIP3     9510     TIP3     H2       HT       0.417000       1.00800           0
     50913 TIP3     9511     TIP3     OH2      OT      -0.834000       15.9994           0
     50914 TIP3     9511     TIP3     H1       HT       0.417000       1.00800           0
     50915 TIP3     9511     TIP3     H2       HT       0.417000       1.00800           0
     50916 TIP3     9512     TIP3     OH2      OT      -0.834000       15.9994           0
     50917 TIP3     9512     TIP3     H1       HT       0.417000       1.00800           0
     50918 TIP3     9512     TIP3     H2       HT       0.417000       1.00800           0
     50919 TIP3     9513     TIP3     OH2      OT      -0.834000       15.9994           0
     50920 TIP3     9513     TIP3     H1       HT       0.417000       1.00800           0
     50921 TIP3     9513     TIP3     H2       HT       0.417000       1.00800           0
     50922 TIP3     9514     TIP3     OH2      OT      -0.834000       15.9994           0
     50923 TIP3     9514     TIP3     H1       HT       0.417000       1.00800           0
     50924 TIP3     9514     TIP3     H2       HT       0.417000       1.00800           0
     50925 TIP3     9515     TIP3     OH2      OT      -0.834000       15.9994           0
     50926 TIP3     9515     TIP3     H1       HT       0.417000       1.00800           0
     50927 TIP3     9515     TIP3     H2       HT       0.417000       1.00800           0
     50928 TIP3     9516     TIP3     OH2      OT      -0.834000       15.9994           0
     50929 TIP3     9516     TIP3     H1       HT       0.417000       1.00800           0
     50930 TIP3     9516     TIP3     H2       HT       0.417000       1.00800           0
     50931 TIP3     9517     TIP3     OH2      OT      -0.834000       15.9994           0
     50932 TIP3     9517     TIP3     H1       HT       0.417000       1.00800           0
     50933 TIP3     9517     TIP3     H2       HT       0.417000       1.00800           0
     50934 TIP3     9518     TIP3     OH2      OT      -0.834000       15.9994           0
     50935 TIP3     9518     TIP3     H1       HT       0.417000       1.00800           0
     50936 TIP3     9518     TIP3     H2       HT       0.417000       1.00800           0
     50937 TIP3     9519     TIP3     OH2      OT      -0.834000       15.9994           0
     50938 TIP3     9519     TIP3     H1       HT       0.417000       1.00800           0
     50939 TIP3     9519     TIP3     H2       HT       0.417000       1.00800           0
     50940 TIP3     9520     TIP3     OH2      OT      -0.834000       15.9994           0
     50941 TIP3     9520     TIP3     H1       HT       0.417000       1.00800           0
     50942 TIP3     9520     TIP3     H2       HT       0.417000       1.00800           0
     50943 TIP3     9521     TIP3     OH2      OT      -0.834000       15.9994           0
     50944 TIP3     9521     TIP3     H1       HT       0.417000       1.00800           0
     50945 TIP3     9521     TIP3     H2       HT       0.417000       1.00800           0
     50946 TIP3     9522     TIP3     OH2      OT      -0.834000       15.9994           0
     50947 TIP3     9522     TIP3     H1       HT       0.417000       1.00800           0
     50948 TIP3     9522     TIP3     H2       HT       0.417000       1.00800           0
     50949 TIP3     9523     TIP3     OH2      OT      -0.834000       15.9994           0
     50950 TIP3     9523     TIP3     H1       HT       0.417000       1.00800           0
     50951 TIP3     9523     TIP3     H2       HT       0.417000       1.00800           0
     50952 TIP3     9524     TIP3     OH2      OT      -0.834000       15.9994           0
     50953 TIP3     9524     TIP3     H1       HT       0.417000       1.00800           0
     50954 TIP3     9524     TIP3     H2       HT       0.417000       1.00800           0
     50955 TIP3     9525     TIP3     OH2      OT      -0.834000       15.9994           0
     50956 TIP3     9525     TIP3     H1       HT       0.417000       1.00800           0
     50957 TIP3     9525     TIP3     H2       HT       0.417000       1.00800           0
     50958 TIP3     9526     TIP3     OH2      OT      -0.834000       15.9994           0
     50959 TIP3     9526     TIP3     H1       HT       0.417000       1.00800           0
     50960 TIP3     9526     TIP3     H2       HT       0.417000       1.00800           0
     50961 TIP3     9527     TIP3     OH2      OT      -0.834000       15.9994           0
     50962 TIP3     9527     TIP3     H1       HT       0.417000       1.00800           0
     50963 TIP3     9527     TIP3     H2       HT       0.417000       1.00800           0
     50964 TIP3     9528     TIP3     OH2      OT      -0.834000       15.9994           0
     50965 TIP3     9528     TIP3     H1       HT       0.417000       1.00800           0
     50966 TIP3     9528     TIP3     H2       HT       0.417000       1.00800           0
     50967 TIP3     9529     TIP3     OH2      OT      -0.834000       15.9994           0
     50968 TIP3     9529     TIP3     H1       HT       0.417000       1.00800           0
     50969 TIP3     9529     TIP3     H2       HT       0.417000       1.00800           0
     50970 TIP3     9530     TIP3     OH2      OT      -0.834000       15.9994           0
     50971 TIP3     9530     TIP3     H1       HT       0.417000       1.00800           0
     50972 TIP3     9530     TIP3     H2       HT       0.417000       1.00800           0
     50973 TIP3     9531     TIP3     OH2      OT      -0.834000       15.9994           0
     50974 TIP3     9531     TIP3     H1       HT       0.417000       1.00800           0
     50975 TIP3     9531     TIP3     H2       HT       0.417000       1.00800           0
     50976 TIP3     9532     TIP3     OH2      OT      -0.834000       15.9994           0
     50977 TIP3     9532     TIP3     H1       HT       0.417000       1.00800           0
     50978 TIP3     9532     TIP3     H2       HT       0.417000       1.00800           0
     50979 TIP3     9533     TIP3     OH2      OT      -0.834000       15.9994           0
     50980 TIP3     9533     TIP3     H1       HT       0.417000       1.00800           0
     50981 TIP3     9533     TIP3     H2       HT       0.417000       1.00800           0
     50982 TIP3     9534     TIP3     OH2      OT      -0.834000       15.9994           0
     50983 TIP3     9534     TIP3     H1       HT       0.417000       1.00800           0
     50984 TIP3     9534     TIP3     H2       HT       0.417000       1.00800           0
     50985 TIP3     9535     TIP3     OH2      OT      -0.834000       15.9994           0
     50986 TIP3     9535     TIP3     H1       HT       0.417000       1.00800           0
     50987 TIP3     9535     TIP3     H2       HT       0.417000       1.00800           0
     50988 TIP3     9536     TIP3     OH2      OT      -0.834000       15.9994           0
     50989 TIP3     9536     TIP3     H1       HT       0.417000       1.00800           0
     50990 TIP3     9536     TIP3     H2       HT       0.417000       1.00800           0
     50991 TIP3     9537     TIP3     OH2      OT      -0.834000       15.9994           0
     50992 TIP3     9537     TIP3     H1       HT       0.417000       1.00800           0
     50993 TIP3     9537     TIP3     H2       HT       0.417000       1.00800           0
     50994 TIP3     9538     TIP3     OH2      OT      -0.834000       15.9994           0
     50995 TIP3     9538     TIP3     H1       HT       0.417000       1.00800           0
     50996 TIP3     9538     TIP3     H2       HT       0.417000       1.00800           0
     50997 TIP3     9539     TIP3     OH2      OT      -0.834000       15.9994           0
     50998 TIP3     9539     TIP3     H1       HT       0.417000       1.00800           0
     50999 TIP3     9539     TIP3     H2       HT       0.417000       1.00800           0
     51000 TIP3     9540     TIP3     OH2      OT      -0.834000       15.9994           0
     51001 TIP3     9540     TIP3     H1       HT       0.417000       1.00800           0
     51002 TIP3     9540     TIP3     H2       HT       0.417000       1.00800           0
     51003 TIP3     9541     TIP3     OH2      OT      -0.834000       15.9994           0
     51004 TIP3     9541     TIP3     H1       HT       0.417000       1.00800           0
     51005 TIP3     9541     TIP3     H2       HT       0.417000       1.00800           0
     51006 TIP3     9542     TIP3     OH2      OT      -0.834000       15.9994           0
     51007 TIP3     9542     TIP3     H1       HT       0.417000       1.00800           0
     51008 TIP3     9542     TIP3     H2       HT       0.417000       1.00800           0
     51009 TIP3     9543     TIP3     OH2      OT      -0.834000       15.9994           0
     51010 TIP3     9543     TIP3     H1       HT       0.417000       1.00800           0
     51011 TIP3     9543     TIP3     H2       HT       0.417000       1.00800           0
     51012 TIP3     9544     TIP3     OH2      OT      -0.834000       15.9994           0
     51013 TIP3     9544     TIP3     H1       HT       0.417000       1.00800           0
     51014 TIP3     9544     TIP3     H2       HT       0.417000       1.00800           0
     51015 TIP3     9545     TIP3     OH2      OT      -0.834000       15.9994           0
     51016 TIP3     9545     TIP3     H1       HT       0.417000       1.00800           0
     51017 TIP3     9545     TIP3     H2       HT       0.417000       1.00800           0
     51018 TIP3     9546     TIP3     OH2      OT      -0.834000       15.9994           0
     51019 TIP3     9546     TIP3     H1       HT       0.417000       1.00800           0
     51020 TIP3     9546     TIP3     H2       HT       0.417000       1.00800           0
     51021 TIP3     9547     TIP3     OH2      OT      -0.834000       15.9994           0
     51022 TIP3     9547     TIP3     H1       HT       0.417000       1.00800           0
     51023 TIP3     9547     TIP3     H2       HT       0.417000       1.00800           0
     51024 TIP3     9548     TIP3     OH2      OT      -0.834000       15.9994           0
     51025 TIP3     9548     TIP3     H1       HT       0.417000       1.00800           0
     51026 TIP3     9548     TIP3     H2       HT       0.417000       1.00800           0
     51027 TIP3     9549     TIP3     OH2      OT      -0.834000       15.9994           0
     51028 TIP3     9549     TIP3     H1       HT       0.417000       1.00800           0
     51029 TIP3     9549     TIP3     H2       HT       0.417000       1.00800           0
     51030 TIP3     9550     TIP3     OH2      OT      -0.834000       15.9994           0
     51031 TIP3     9550     TIP3     H1       HT       0.417000       1.00800           0
     51032 TIP3     9550     TIP3     H2       HT       0.417000       1.00800           0
     51033 TIP3     9551     TIP3     OH2      OT      -0.834000       15.9994           0
     51034 TIP3     9551     TIP3     H1       HT       0.417000       1.00800           0
     51035 TIP3     9551     TIP3     H2       HT       0.417000       1.00800           0
     51036 TIP3     9552     TIP3     OH2      OT      -0.834000       15.9994           0
     51037 TIP3     9552     TIP3     H1       HT       0.417000       1.00800           0
     51038 TIP3     9552     TIP3     H2       HT       0.417000       1.00800           0
     51039 TIP3     9553     TIP3     OH2      OT      -0.834000       15.9994           0
     51040 TIP3     9553     TIP3     H1       HT       0.417000       1.00800           0
     51041 TIP3     9553     TIP3     H2       HT       0.417000       1.00800           0
     51042 TIP3     9554     TIP3     OH2      OT      -0.834000       15.9994           0
     51043 TIP3     9554     TIP3     H1       HT       0.417000       1.00800           0
     51044 TIP3     9554     TIP3     H2       HT       0.417000       1.00800           0
     51045 TIP3     9555     TIP3     OH2      OT      -0.834000       15.9994           0
     51046 TIP3     9555     TIP3     H1       HT       0.417000       1.00800           0
     51047 TIP3     9555     TIP3     H2       HT       0.417000       1.00800           0
     51048 TIP3     9556     TIP3     OH2      OT      -0.834000       15.9994           0
     51049 TIP3     9556     TIP3     H1       HT       0.417000       1.00800           0
     51050 TIP3     9556     TIP3     H2       HT       0.417000       1.00800           0
     51051 TIP3     9557     TIP3     OH2      OT      -0.834000       15.9994           0
     51052 TIP3     9557     TIP3     H1       HT       0.417000       1.00800           0
     51053 TIP3     9557     TIP3     H2       HT       0.417000       1.00800           0
     51054 TIP3     9558     TIP3     OH2      OT      -0.834000       15.9994           0
     51055 TIP3     9558     TIP3     H1       HT       0.417000       1.00800           0
     51056 TIP3     9558     TIP3     H2       HT       0.417000       1.00800           0
     51057 TIP3     9559     TIP3     OH2      OT      -0.834000       15.9994           0
     51058 TIP3     9559     TIP3     H1       HT       0.417000       1.00800           0
     51059 TIP3     9559     TIP3     H2       HT       0.417000       1.00800           0
     51060 TIP3     9560     TIP3     OH2      OT      -0.834000       15.9994           0
     51061 TIP3     9560     TIP3     H1       HT       0.417000       1.00800           0
     51062 TIP3     9560     TIP3     H2       HT       0.417000       1.00800           0
     51063 TIP3     9561     TIP3     OH2      OT      -0.834000       15.9994           0
     51064 TIP3     9561     TIP3     H1       HT       0.417000       1.00800           0
     51065 TIP3     9561     TIP3     H2       HT       0.417000       1.00800           0
     51066 TIP3     9562     TIP3     OH2      OT      -0.834000       15.9994           0
     51067 TIP3     9562     TIP3     H1       HT       0.417000       1.00800           0
     51068 TIP3     9562     TIP3     H2       HT       0.417000       1.00800           0
     51069 TIP3     9563     TIP3     OH2      OT      -0.834000       15.9994           0
     51070 TIP3     9563     TIP3     H1       HT       0.417000       1.00800           0
     51071 TIP3     9563     TIP3     H2       HT       0.417000       1.00800           0
     51072 TIP3     9564     TIP3     OH2      OT      -0.834000       15.9994           0
     51073 TIP3     9564     TIP3     H1       HT       0.417000       1.00800           0
     51074 TIP3     9564     TIP3     H2       HT       0.417000       1.00800           0
     51075 TIP3     9565     TIP3     OH2      OT      -0.834000       15.9994           0
     51076 TIP3     9565     TIP3     H1       HT       0.417000       1.00800           0
     51077 TIP3     9565     TIP3     H2       HT       0.417000       1.00800           0
     51078 TIP3     9566     TIP3     OH2      OT      -0.834000       15.9994           0
     51079 TIP3     9566     TIP3     H1       HT       0.417000       1.00800           0
     51080 TIP3     9566     TIP3     H2       HT       0.417000       1.00800           0
     51081 TIP3     9567     TIP3     OH2      OT      -0.834000       15.9994           0
     51082 TIP3     9567     TIP3     H1       HT       0.417000       1.00800           0
     51083 TIP3     9567     TIP3     H2       HT       0.417000       1.00800           0
     51084 TIP3     9568     TIP3     OH2      OT      -0.834000       15.9994           0
     51085 TIP3     9568     TIP3     H1       HT       0.417000       1.00800           0
     51086 TIP3     9568     TIP3     H2       HT       0.417000       1.00800           0
     51087 TIP3     9569     TIP3     OH2      OT      -0.834000       15.9994           0
     51088 TIP3     9569     TIP3     H1       HT       0.417000       1.00800           0
     51089 TIP3     9569     TIP3     H2       HT       0.417000       1.00800           0
     51090 TIP3     9570     TIP3     OH2      OT      -0.834000       15.9994           0
     51091 TIP3     9570     TIP3     H1       HT       0.417000       1.00800           0
     51092 TIP3     9570     TIP3     H2       HT       0.417000       1.00800           0
     51093 TIP3     9571     TIP3     OH2      OT      -0.834000       15.9994           0
     51094 TIP3     9571     TIP3     H1       HT       0.417000       1.00800           0
     51095 TIP3     9571     TIP3     H2       HT       0.417000       1.00800           0
     51096 TIP3     9572     TIP3     OH2      OT      -0.834000       15.9994           0
     51097 TIP3     9572     TIP3     H1       HT       0.417000       1.00800           0
     51098 TIP3     9572     TIP3     H2       HT       0.417000       1.00800           0
     51099 TIP3     9573     TIP3     OH2      OT      -0.834000       15.9994           0
     51100 TIP3     9573     TIP3     H1       HT       0.417000       1.00800           0
     51101 TIP3     9573     TIP3     H2       HT       0.417000       1.00800           0
     51102 TIP3     9574     TIP3     OH2      OT      -0.834000       15.9994           0
     51103 TIP3     9574     TIP3     H1       HT       0.417000       1.00800           0
     51104 TIP3     9574     TIP3     H2       HT       0.417000       1.00800           0
     51105 TIP3     9575     TIP3     OH2      OT      -0.834000       15.9994           0
     51106 TIP3     9575     TIP3     H1       HT       0.417000       1.00800           0
     51107 TIP3     9575     TIP3     H2       HT       0.417000       1.00800           0
     51108 TIP3     9576     TIP3     OH2      OT      -0.834000       15.9994           0
     51109 TIP3     9576     TIP3     H1       HT       0.417000       1.00800           0
     51110 TIP3     9576     TIP3     H2       HT       0.417000       1.00800           0
     51111 TIP3     9577     TIP3     OH2      OT      -0.834000       15.9994           0
     51112 TIP3     9577     TIP3     H1       HT       0.417000       1.00800           0
     51113 TIP3     9577     TIP3     H2       HT       0.417000       1.00800           0
     51114 TIP3     9578     TIP3     OH2      OT      -0.834000       15.9994           0
     51115 TIP3     9578     TIP3     H1       HT       0.417000       1.00800           0
     51116 TIP3     9578     TIP3     H2       HT       0.417000       1.00800           0
     51117 TIP3     9579     TIP3     OH2      OT      -0.834000       15.9994           0
     51118 TIP3     9579     TIP3     H1       HT       0.417000       1.00800           0
     51119 TIP3     9579     TIP3     H2       HT       0.417000       1.00800           0
     51120 TIP3     9580     TIP3     OH2      OT      -0.834000       15.9994           0
     51121 TIP3     9580     TIP3     H1       HT       0.417000       1.00800           0
     51122 TIP3     9580     TIP3     H2       HT       0.417000       1.00800           0
     51123 TIP3     9581     TIP3     OH2      OT      -0.834000       15.9994           0
     51124 TIP3     9581     TIP3     H1       HT       0.417000       1.00800           0
     51125 TIP3     9581     TIP3     H2       HT       0.417000       1.00800           0
     51126 TIP3     9582     TIP3     OH2      OT      -0.834000       15.9994           0
     51127 TIP3     9582     TIP3     H1       HT       0.417000       1.00800           0
     51128 TIP3     9582     TIP3     H2       HT       0.417000       1.00800           0
     51129 TIP3     9583     TIP3     OH2      OT      -0.834000       15.9994           0
     51130 TIP3     9583     TIP3     H1       HT       0.417000       1.00800           0
     51131 TIP3     9583     TIP3     H2       HT       0.417000       1.00800           0
     51132 TIP3     9584     TIP3     OH2      OT      -0.834000       15.9994           0
     51133 TIP3     9584     TIP3     H1       HT       0.417000       1.00800           0
     51134 TIP3     9584     TIP3     H2       HT       0.417000       1.00800           0
     51135 TIP3     9585     TIP3     OH2      OT      -0.834000       15.9994           0
     51136 TIP3     9585     TIP3     H1       HT       0.417000       1.00800           0
     51137 TIP3     9585     TIP3     H2       HT       0.417000       1.00800           0
     51138 TIP3     9586     TIP3     OH2      OT      -0.834000       15.9994           0
     51139 TIP3     9586     TIP3     H1       HT       0.417000       1.00800           0
     51140 TIP3     9586     TIP3     H2       HT       0.417000       1.00800           0
     51141 TIP3     9587     TIP3     OH2      OT      -0.834000       15.9994           0
     51142 TIP3     9587     TIP3     H1       HT       0.417000       1.00800           0
     51143 TIP3     9587     TIP3     H2       HT       0.417000       1.00800           0
     51144 TIP3     9588     TIP3     OH2      OT      -0.834000       15.9994           0
     51145 TIP3     9588     TIP3     H1       HT       0.417000       1.00800           0
     51146 TIP3     9588     TIP3     H2       HT       0.417000       1.00800           0
     51147 TIP3     9589     TIP3     OH2      OT      -0.834000       15.9994           0
     51148 TIP3     9589     TIP3     H1       HT       0.417000       1.00800           0
     51149 TIP3     9589     TIP3     H2       HT       0.417000       1.00800           0
     51150 TIP3     9590     TIP3     OH2      OT      -0.834000       15.9994           0
     51151 TIP3     9590     TIP3     H1       HT       0.417000       1.00800           0
     51152 TIP3     9590     TIP3     H2       HT       0.417000       1.00800           0
     51153 TIP3     9591     TIP3     OH2      OT      -0.834000       15.9994           0
     51154 TIP3     9591     TIP3     H1       HT       0.417000       1.00800           0
     51155 TIP3     9591     TIP3     H2       HT       0.417000       1.00800           0
     51156 TIP3     9592     TIP3     OH2      OT      -0.834000       15.9994           0
     51157 TIP3     9592     TIP3     H1       HT       0.417000       1.00800           0
     51158 TIP3     9592     TIP3     H2       HT       0.417000       1.00800           0
     51159 TIP3     9593     TIP3     OH2      OT      -0.834000       15.9994           0
     51160 TIP3     9593     TIP3     H1       HT       0.417000       1.00800           0
     51161 TIP3     9593     TIP3     H2       HT       0.417000       1.00800           0
     51162 TIP3     9594     TIP3     OH2      OT      -0.834000       15.9994           0
     51163 TIP3     9594     TIP3     H1       HT       0.417000       1.00800           0
     51164 TIP3     9594     TIP3     H2       HT       0.417000       1.00800           0
     51165 TIP3     9595     TIP3     OH2      OT      -0.834000       15.9994           0
     51166 TIP3     9595     TIP3     H1       HT       0.417000       1.00800           0
     51167 TIP3     9595     TIP3     H2       HT       0.417000       1.00800           0
     51168 TIP3     9596     TIP3     OH2      OT      -0.834000       15.9994           0
     51169 TIP3     9596     TIP3     H1       HT       0.417000       1.00800           0
     51170 TIP3     9596     TIP3     H2       HT       0.417000       1.00800           0
     51171 TIP3     9597     TIP3     OH2      OT      -0.834000       15.9994           0
     51172 TIP3     9597     TIP3     H1       HT       0.417000       1.00800           0
     51173 TIP3     9597     TIP3     H2       HT       0.417000       1.00800           0
     51174 TIP3     9598     TIP3     OH2      OT      -0.834000       15.9994           0
     51175 TIP3     9598     TIP3     H1       HT       0.417000       1.00800           0
     51176 TIP3     9598     TIP3     H2       HT       0.417000       1.00800           0
     51177 TIP3     9599     TIP3     OH2      OT      -0.834000       15.9994           0
     51178 TIP3     9599     TIP3     H1       HT       0.417000       1.00800           0
     51179 TIP3     9599     TIP3     H2       HT       0.417000       1.00800           0
     51180 TIP3     9600     TIP3     OH2      OT      -0.834000       15.9994           0
     51181 TIP3     9600     TIP3     H1       HT       0.417000       1.00800           0
     51182 TIP3     9600     TIP3     H2       HT       0.417000       1.00800           0
     51183 TIP3     9601     TIP3     OH2      OT      -0.834000       15.9994           0
     51184 TIP3     9601     TIP3     H1       HT       0.417000       1.00800           0
     51185 TIP3     9601     TIP3     H2       HT       0.417000       1.00800           0
     51186 TIP3     9602     TIP3     OH2      OT      -0.834000       15.9994           0
     51187 TIP3     9602     TIP3     H1       HT       0.417000       1.00800           0
     51188 TIP3     9602     TIP3     H2       HT       0.417000       1.00800           0
     51189 TIP3     9603     TIP3     OH2      OT      -0.834000       15.9994           0
     51190 TIP3     9603     TIP3     H1       HT       0.417000       1.00800           0
     51191 TIP3     9603     TIP3     H2       HT       0.417000       1.00800           0
     51192 TIP3     9604     TIP3     OH2      OT      -0.834000       15.9994           0
     51193 TIP3     9604     TIP3     H1       HT       0.417000       1.00800           0
     51194 TIP3     9604     TIP3     H2       HT       0.417000       1.00800           0
     51195 TIP3     9605     TIP3     OH2      OT      -0.834000       15.9994           0
     51196 TIP3     9605     TIP3     H1       HT       0.417000       1.00800           0
     51197 TIP3     9605     TIP3     H2       HT       0.417000       1.00800           0
     51198 TIP3     9606     TIP3     OH2      OT      -0.834000       15.9994           0
     51199 TIP3     9606     TIP3     H1       HT       0.417000       1.00800           0
     51200 TIP3     9606     TIP3     H2       HT       0.417000       1.00800           0
     51201 TIP3     9607     TIP3     OH2      OT      -0.834000       15.9994           0
     51202 TIP3     9607     TIP3     H1       HT       0.417000       1.00800           0
     51203 TIP3     9607     TIP3     H2       HT       0.417000       1.00800           0
     51204 TIP3     9608     TIP3     OH2      OT      -0.834000       15.9994           0
     51205 TIP3     9608     TIP3     H1       HT       0.417000       1.00800           0
     51206 TIP3     9608     TIP3     H2       HT       0.417000       1.00800           0
     51207 TIP3     9609     TIP3     OH2      OT      -0.834000       15.9994           0
     51208 TIP3     9609     TIP3     H1       HT       0.417000       1.00800           0
     51209 TIP3     9609     TIP3     H2       HT       0.417000       1.00800           0
     51210 TIP3     9610     TIP3     OH2      OT      -0.834000       15.9994           0
     51211 TIP3     9610     TIP3     H1       HT       0.417000       1.00800           0
     51212 TIP3     9610     TIP3     H2       HT       0.417000       1.00800           0
     51213 TIP3     9611     TIP3     OH2      OT      -0.834000       15.9994           0
     51214 TIP3     9611     TIP3     H1       HT       0.417000       1.00800           0
     51215 TIP3     9611     TIP3     H2       HT       0.417000       1.00800           0
     51216 TIP3     9612     TIP3     OH2      OT      -0.834000       15.9994           0
     51217 TIP3     9612     TIP3     H1       HT       0.417000       1.00800           0
     51218 TIP3     9612     TIP3     H2       HT       0.417000       1.00800           0
     51219 TIP3     9613     TIP3     OH2      OT      -0.834000       15.9994           0
     51220 TIP3     9613     TIP3     H1       HT       0.417000       1.00800           0
     51221 TIP3     9613     TIP3     H2       HT       0.417000       1.00800           0
     51222 TIP3     9614     TIP3     OH2      OT      -0.834000       15.9994           0
     51223 TIP3     9614     TIP3     H1       HT       0.417000       1.00800           0
     51224 TIP3     9614     TIP3     H2       HT       0.417000       1.00800           0
     51225 TIP3     9615     TIP3     OH2      OT      -0.834000       15.9994           0
     51226 TIP3     9615     TIP3     H1       HT       0.417000       1.00800           0
     51227 TIP3     9615     TIP3     H2       HT       0.417000       1.00800           0
     51228 TIP3     9616     TIP3     OH2      OT      -0.834000       15.9994           0
     51229 TIP3     9616     TIP3     H1       HT       0.417000       1.00800           0
     51230 TIP3     9616     TIP3     H2       HT       0.417000       1.00800           0
     51231 TIP3     9617     TIP3     OH2      OT      -0.834000       15.9994           0
     51232 TIP3     9617     TIP3     H1       HT       0.417000       1.00800           0
     51233 TIP3     9617     TIP3     H2       HT       0.417000       1.00800           0
     51234 TIP3     9618     TIP3     OH2      OT      -0.834000       15.9994           0
     51235 TIP3     9618     TIP3     H1       HT       0.417000       1.00800           0
     51236 TIP3     9618     TIP3     H2       HT       0.417000       1.00800           0
     51237 TIP3     9619     TIP3     OH2      OT      -0.834000       15.9994           0
     51238 TIP3     9619     TIP3     H1       HT       0.417000       1.00800           0
     51239 TIP3     9619     TIP3     H2       HT       0.417000       1.00800           0
     51240 TIP3     9620     TIP3     OH2      OT      -0.834000       15.9994           0
     51241 TIP3     9620     TIP3     H1       HT       0.417000       1.00800           0
     51242 TIP3     9620     TIP3     H2       HT       0.417000       1.00800           0
     51243 TIP3     9621     TIP3     OH2      OT      -0.834000       15.9994           0
     51244 TIP3     9621     TIP3     H1       HT       0.417000       1.00800           0
     51245 TIP3     9621     TIP3     H2       HT       0.417000       1.00800           0
     51246 TIP3     9622     TIP3     OH2      OT      -0.834000       15.9994           0
     51247 TIP3     9622     TIP3     H1       HT       0.417000       1.00800           0
     51248 TIP3     9622     TIP3     H2       HT       0.417000       1.00800           0
     51249 TIP3     9623     TIP3     OH2      OT      -0.834000       15.9994           0
     51250 TIP3     9623     TIP3     H1       HT       0.417000       1.00800           0
     51251 TIP3     9623     TIP3     H2       HT       0.417000       1.00800           0
     51252 TIP3     9624     TIP3     OH2      OT      -0.834000       15.9994           0
     51253 TIP3     9624     TIP3     H1       HT       0.417000       1.00800           0
     51254 TIP3     9624     TIP3     H2       HT       0.417000       1.00800           0
     51255 TIP3     9625     TIP3     OH2      OT      -0.834000       15.9994           0
     51256 TIP3     9625     TIP3     H1       HT       0.417000       1.00800           0
     51257 TIP3     9625     TIP3     H2       HT       0.417000       1.00800           0
     51258 TIP3     9626     TIP3     OH2      OT      -0.834000       15.9994           0
     51259 TIP3     9626     TIP3     H1       HT       0.417000       1.00800           0
     51260 TIP3     9626     TIP3     H2       HT       0.417000       1.00800           0
     51261 TIP3     9627     TIP3     OH2      OT      -0.834000       15.9994           0
     51262 TIP3     9627     TIP3     H1       HT       0.417000       1.00800           0
     51263 TIP3     9627     TIP3     H2       HT       0.417000       1.00800           0
     51264 TIP3     9628     TIP3     OH2      OT      -0.834000       15.9994           0
     51265 TIP3     9628     TIP3     H1       HT       0.417000       1.00800           0
     51266 TIP3     9628     TIP3     H2       HT       0.417000       1.00800           0
     51267 TIP3     9629     TIP3     OH2      OT      -0.834000       15.9994           0
     51268 TIP3     9629     TIP3     H1       HT       0.417000       1.00800           0
     51269 TIP3     9629     TIP3     H2       HT       0.417000       1.00800           0
     51270 TIP3     9630     TIP3     OH2      OT      -0.834000       15.9994           0
     51271 TIP3     9630     TIP3     H1       HT       0.417000       1.00800           0
     51272 TIP3     9630     TIP3     H2       HT       0.417000       1.00800           0
     51273 TIP3     9631     TIP3     OH2      OT      -0.834000       15.9994           0
     51274 TIP3     9631     TIP3     H1       HT       0.417000       1.00800           0
     51275 TIP3     9631     TIP3     H2       HT       0.417000       1.00800           0
     51276 TIP3     9632     TIP3     OH2      OT      -0.834000       15.9994           0
     51277 TIP3     9632     TIP3     H1       HT       0.417000       1.00800           0
     51278 TIP3     9632     TIP3     H2       HT       0.417000       1.00800           0
     51279 TIP3     9633     TIP3     OH2      OT      -0.834000       15.9994           0
     51280 TIP3     9633     TIP3     H1       HT       0.417000       1.00800           0
     51281 TIP3     9633     TIP3     H2       HT       0.417000       1.00800           0
     51282 TIP3     9634     TIP3     OH2      OT      -0.834000       15.9994           0
     51283 TIP3     9634     TIP3     H1       HT       0.417000       1.00800           0
     51284 TIP3     9634     TIP3     H2       HT       0.417000       1.00800           0
     51285 TIP3     9635     TIP3     OH2      OT      -0.834000       15.9994           0
     51286 TIP3     9635     TIP3     H1       HT       0.417000       1.00800           0
     51287 TIP3     9635     TIP3     H2       HT       0.417000       1.00800           0
     51288 TIP3     9636     TIP3     OH2      OT      -0.834000       15.9994           0
     51289 TIP3     9636     TIP3     H1       HT       0.417000       1.00800           0
     51290 TIP3     9636     TIP3     H2       HT       0.417000       1.00800           0
     51291 TIP3     9637     TIP3     OH2      OT      -0.834000       15.9994           0
     51292 TIP3     9637     TIP3     H1       HT       0.417000       1.00800           0
     51293 TIP3     9637     TIP3     H2       HT       0.417000       1.00800           0
     51294 TIP3     9638     TIP3     OH2      OT      -0.834000       15.9994           0
     51295 TIP3     9638     TIP3     H1       HT       0.417000       1.00800           0
     51296 TIP3     9638     TIP3     H2       HT       0.417000       1.00800           0
     51297 TIP3     9639     TIP3     OH2      OT      -0.834000       15.9994           0
     51298 TIP3     9639     TIP3     H1       HT       0.417000       1.00800           0
     51299 TIP3     9639     TIP3     H2       HT       0.417000       1.00800           0
     51300 TIP3     9640     TIP3     OH2      OT      -0.834000       15.9994           0
     51301 TIP3     9640     TIP3     H1       HT       0.417000       1.00800           0
     51302 TIP3     9640     TIP3     H2       HT       0.417000       1.00800           0
     51303 TIP3     9641     TIP3     OH2      OT      -0.834000       15.9994           0
     51304 TIP3     9641     TIP3     H1       HT       0.417000       1.00800           0
     51305 TIP3     9641     TIP3     H2       HT       0.417000       1.00800           0
     51306 TIP3     9642     TIP3     OH2      OT      -0.834000       15.9994           0
     51307 TIP3     9642     TIP3     H1       HT       0.417000       1.00800           0
     51308 TIP3     9642     TIP3     H2       HT       0.417000       1.00800           0
     51309 TIP3     9643     TIP3     OH2      OT      -0.834000       15.9994           0
     51310 TIP3     9643     TIP3     H1       HT       0.417000       1.00800           0
     51311 TIP3     9643     TIP3     H2       HT       0.417000       1.00800           0
     51312 TIP3     9644     TIP3     OH2      OT      -0.834000       15.9994           0
     51313 TIP3     9644     TIP3     H1       HT       0.417000       1.00800           0
     51314 TIP3     9644     TIP3     H2       HT       0.417000       1.00800           0
     51315 TIP3     9645     TIP3     OH2      OT      -0.834000       15.9994           0
     51316 TIP3     9645     TIP3     H1       HT       0.417000       1.00800           0
     51317 TIP3     9645     TIP3     H2       HT       0.417000       1.00800           0
     51318 TIP3     9646     TIP3     OH2      OT      -0.834000       15.9994           0
     51319 TIP3     9646     TIP3     H1       HT       0.417000       1.00800           0
     51320 TIP3     9646     TIP3     H2       HT       0.417000       1.00800           0
     51321 TIP3     9647     TIP3     OH2      OT      -0.834000       15.9994           0
     51322 TIP3     9647     TIP3     H1       HT       0.417000       1.00800           0
     51323 TIP3     9647     TIP3     H2       HT       0.417000       1.00800           0
     51324 TIP3     9648     TIP3     OH2      OT      -0.834000       15.9994           0
     51325 TIP3     9648     TIP3     H1       HT       0.417000       1.00800           0
     51326 TIP3     9648     TIP3     H2       HT       0.417000       1.00800           0
     51327 TIP3     9649     TIP3     OH2      OT      -0.834000       15.9994           0
     51328 TIP3     9649     TIP3     H1       HT       0.417000       1.00800           0
     51329 TIP3     9649     TIP3     H2       HT       0.417000       1.00800           0
     51330 TIP3     9650     TIP3     OH2      OT      -0.834000       15.9994           0
     51331 TIP3     9650     TIP3     H1       HT       0.417000       1.00800           0
     51332 TIP3     9650     TIP3     H2       HT       0.417000       1.00800           0
     51333 TIP3     9651     TIP3     OH2      OT      -0.834000       15.9994           0
     51334 TIP3     9651     TIP3     H1       HT       0.417000       1.00800           0
     51335 TIP3     9651     TIP3     H2       HT       0.417000       1.00800           0
     51336 TIP3     9652     TIP3     OH2      OT      -0.834000       15.9994           0
     51337 TIP3     9652     TIP3     H1       HT       0.417000       1.00800           0
     51338 TIP3     9652     TIP3     H2       HT       0.417000       1.00800           0
     51339 TIP3     9653     TIP3     OH2      OT      -0.834000       15.9994           0
     51340 TIP3     9653     TIP3     H1       HT       0.417000       1.00800           0
     51341 TIP3     9653     TIP3     H2       HT       0.417000       1.00800           0
     51342 TIP3     9654     TIP3     OH2      OT      -0.834000       15.9994           0
     51343 TIP3     9654     TIP3     H1       HT       0.417000       1.00800           0
     51344 TIP3     9654     TIP3     H2       HT       0.417000       1.00800           0
     51345 TIP3     9655     TIP3     OH2      OT      -0.834000       15.9994           0
     51346 TIP3     9655     TIP3     H1       HT       0.417000       1.00800           0
     51347 TIP3     9655     TIP3     H2       HT       0.417000       1.00800           0
     51348 TIP3     9656     TIP3     OH2      OT      -0.834000       15.9994           0
     51349 TIP3     9656     TIP3     H1       HT       0.417000       1.00800           0
     51350 TIP3     9656     TIP3     H2       HT       0.417000       1.00800           0
     51351 TIP3     9657     TIP3     OH2      OT      -0.834000       15.9994           0
     51352 TIP3     9657     TIP3     H1       HT       0.417000       1.00800           0
     51353 TIP3     9657     TIP3     H2       HT       0.417000       1.00800           0
     51354 TIP3     9658     TIP3     OH2      OT      -0.834000       15.9994           0
     51355 TIP3     9658     TIP3     H1       HT       0.417000       1.00800           0
     51356 TIP3     9658     TIP3     H2       HT       0.417000       1.00800           0
     51357 TIP3     9659     TIP3     OH2      OT      -0.834000       15.9994           0
     51358 TIP3     9659     TIP3     H1       HT       0.417000       1.00800           0
     51359 TIP3     9659     TIP3     H2       HT       0.417000       1.00800           0
     51360 TIP3     9660     TIP3     OH2      OT      -0.834000       15.9994           0
     51361 TIP3     9660     TIP3     H1       HT       0.417000       1.00800           0
     51362 TIP3     9660     TIP3     H2       HT       0.417000       1.00800           0
     51363 TIP3     9661     TIP3     OH2      OT      -0.834000       15.9994           0
     51364 TIP3     9661     TIP3     H1       HT       0.417000       1.00800           0
     51365 TIP3     9661     TIP3     H2       HT       0.417000       1.00800           0
     51366 TIP3     9662     TIP3     OH2      OT      -0.834000       15.9994           0
     51367 TIP3     9662     TIP3     H1       HT       0.417000       1.00800           0
     51368 TIP3     9662     TIP3     H2       HT       0.417000       1.00800           0
     51369 TIP3     9663     TIP3     OH2      OT      -0.834000       15.9994           0
     51370 TIP3     9663     TIP3     H1       HT       0.417000       1.00800           0
     51371 TIP3     9663     TIP3     H2       HT       0.417000       1.00800           0
     51372 TIP3     9664     TIP3     OH2      OT      -0.834000       15.9994           0
     51373 TIP3     9664     TIP3     H1       HT       0.417000       1.00800           0
     51374 TIP3     9664     TIP3     H2       HT       0.417000       1.00800           0
     51375 TIP3     9665     TIP3     OH2      OT      -0.834000       15.9994           0
     51376 TIP3     9665     TIP3     H1       HT       0.417000       1.00800           0
     51377 TIP3     9665     TIP3     H2       HT       0.417000       1.00800           0
     51378 TIP3     9666     TIP3     OH2      OT      -0.834000       15.9994           0
     51379 TIP3     9666     TIP3     H1       HT       0.417000       1.00800           0
     51380 TIP3     9666     TIP3     H2       HT       0.417000       1.00800           0
     51381 TIP3     9667     TIP3     OH2      OT      -0.834000       15.9994           0
     51382 TIP3     9667     TIP3     H1       HT       0.417000       1.00800           0
     51383 TIP3     9667     TIP3     H2       HT       0.417000       1.00800           0
     51384 TIP3     9668     TIP3     OH2      OT      -0.834000       15.9994           0
     51385 TIP3     9668     TIP3     H1       HT       0.417000       1.00800           0
     51386 TIP3     9668     TIP3     H2       HT       0.417000       1.00800           0
     51387 TIP3     9669     TIP3     OH2      OT      -0.834000       15.9994           0
     51388 TIP3     9669     TIP3     H1       HT       0.417000       1.00800           0
     51389 TIP3     9669     TIP3     H2       HT       0.417000       1.00800           0
     51390 TIP3     9670     TIP3     OH2      OT      -0.834000       15.9994           0
     51391 TIP3     9670     TIP3     H1       HT       0.417000       1.00800           0
     51392 TIP3     9670     TIP3     H2       HT       0.417000       1.00800           0
     51393 TIP3     9671     TIP3     OH2      OT      -0.834000       15.9994           0
     51394 TIP3     9671     TIP3     H1       HT       0.417000       1.00800           0
     51395 TIP3     9671     TIP3     H2       HT       0.417000       1.00800           0
     51396 TIP3     9672     TIP3     OH2      OT      -0.834000       15.9994           0
     51397 TIP3     9672     TIP3     H1       HT       0.417000       1.00800           0
     51398 TIP3     9672     TIP3     H2       HT       0.417000       1.00800           0
     51399 TIP3     9673     TIP3     OH2      OT      -0.834000       15.9994           0
     51400 TIP3     9673     TIP3     H1       HT       0.417000       1.00800           0
     51401 TIP3     9673     TIP3     H2       HT       0.417000       1.00800           0
     51402 TIP3     9674     TIP3     OH2      OT      -0.834000       15.9994           0
     51403 TIP3     9674     TIP3     H1       HT       0.417000       1.00800           0
     51404 TIP3     9674     TIP3     H2       HT       0.417000       1.00800           0
     51405 TIP3     9675     TIP3     OH2      OT      -0.834000       15.9994           0
     51406 TIP3     9675     TIP3     H1       HT       0.417000       1.00800           0
     51407 TIP3     9675     TIP3     H2       HT       0.417000       1.00800           0
     51408 TIP3     9676     TIP3     OH2      OT      -0.834000       15.9994           0
     51409 TIP3     9676     TIP3     H1       HT       0.417000       1.00800           0
     51410 TIP3     9676     TIP3     H2       HT       0.417000       1.00800           0
     51411 TIP3     9677     TIP3     OH2      OT      -0.834000       15.9994           0
     51412 TIP3     9677     TIP3     H1       HT       0.417000       1.00800           0
     51413 TIP3     9677     TIP3     H2       HT       0.417000       1.00800           0
     51414 TIP3     9678     TIP3     OH2      OT      -0.834000       15.9994           0
     51415 TIP3     9678     TIP3     H1       HT       0.417000       1.00800           0
     51416 TIP3     9678     TIP3     H2       HT       0.417000       1.00800           0
     51417 TIP3     9679     TIP3     OH2      OT      -0.834000       15.9994           0
     51418 TIP3     9679     TIP3     H1       HT       0.417000       1.00800           0
     51419 TIP3     9679     TIP3     H2       HT       0.417000       1.00800           0
     51420 TIP3     9680     TIP3     OH2      OT      -0.834000       15.9994           0
     51421 TIP3     9680     TIP3     H1       HT       0.417000       1.00800           0
     51422 TIP3     9680     TIP3     H2       HT       0.417000       1.00800           0
     51423 TIP3     9681     TIP3     OH2      OT      -0.834000       15.9994           0
     51424 TIP3     9681     TIP3     H1       HT       0.417000       1.00800           0
     51425 TIP3     9681     TIP3     H2       HT       0.417000       1.00800           0
     51426 TIP3     9682     TIP3     OH2      OT      -0.834000       15.9994           0
     51427 TIP3     9682     TIP3     H1       HT       0.417000       1.00800           0
     51428 TIP3     9682     TIP3     H2       HT       0.417000       1.00800           0
     51429 TIP3     9683     TIP3     OH2      OT      -0.834000       15.9994           0
     51430 TIP3     9683     TIP3     H1       HT       0.417000       1.00800           0
     51431 TIP3     9683     TIP3     H2       HT       0.417000       1.00800           0
     51432 TIP3     9684     TIP3     OH2      OT      -0.834000       15.9994           0
     51433 TIP3     9684     TIP3     H1       HT       0.417000       1.00800           0
     51434 TIP3     9684     TIP3     H2       HT       0.417000       1.00800           0
     51435 TIP3     9685     TIP3     OH2      OT      -0.834000       15.9994           0
     51436 TIP3     9685     TIP3     H1       HT       0.417000       1.00800           0
     51437 TIP3     9685     TIP3     H2       HT       0.417000       1.00800           0
     51438 TIP3     9686     TIP3     OH2      OT      -0.834000       15.9994           0
     51439 TIP3     9686     TIP3     H1       HT       0.417000       1.00800           0
     51440 TIP3     9686     TIP3     H2       HT       0.417000       1.00800           0
     51441 TIP3     9687     TIP3     OH2      OT      -0.834000       15.9994           0
     51442 TIP3     9687     TIP3     H1       HT       0.417000       1.00800           0
     51443 TIP3     9687     TIP3     H2       HT       0.417000       1.00800           0
     51444 TIP3     9688     TIP3     OH2      OT      -0.834000       15.9994           0
     51445 TIP3     9688     TIP3     H1       HT       0.417000       1.00800           0
     51446 TIP3     9688     TIP3     H2       HT       0.417000       1.00800           0
     51447 TIP3     9689     TIP3     OH2      OT      -0.834000       15.9994           0
     51448 TIP3     9689     TIP3     H1       HT       0.417000       1.00800           0
     51449 TIP3     9689     TIP3     H2       HT       0.417000       1.00800           0
     51450 TIP3     9690     TIP3     OH2      OT      -0.834000       15.9994           0
     51451 TIP3     9690     TIP3     H1       HT       0.417000       1.00800           0
     51452 TIP3     9690     TIP3     H2       HT       0.417000       1.00800           0
     51453 TIP3     9691     TIP3     OH2      OT      -0.834000       15.9994           0
     51454 TIP3     9691     TIP3     H1       HT       0.417000       1.00800           0
     51455 TIP3     9691     TIP3     H2       HT       0.417000       1.00800           0
     51456 TIP3     9692     TIP3     OH2      OT      -0.834000       15.9994           0
     51457 TIP3     9692     TIP3     H1       HT       0.417000       1.00800           0
     51458 TIP3     9692     TIP3     H2       HT       0.417000       1.00800           0
     51459 TIP3     9693     TIP3     OH2      OT      -0.834000       15.9994           0
     51460 TIP3     9693     TIP3     H1       HT       0.417000       1.00800           0
     51461 TIP3     9693     TIP3     H2       HT       0.417000       1.00800           0
     51462 TIP3     9694     TIP3     OH2      OT      -0.834000       15.9994           0
     51463 TIP3     9694     TIP3     H1       HT       0.417000       1.00800           0
     51464 TIP3     9694     TIP3     H2       HT       0.417000       1.00800           0
     51465 TIP3     9695     TIP3     OH2      OT      -0.834000       15.9994           0
     51466 TIP3     9695     TIP3     H1       HT       0.417000       1.00800           0
     51467 TIP3     9695     TIP3     H2       HT       0.417000       1.00800           0
     51468 TIP3     9696     TIP3     OH2      OT      -0.834000       15.9994           0
     51469 TIP3     9696     TIP3     H1       HT       0.417000       1.00800           0
     51470 TIP3     9696     TIP3     H2       HT       0.417000       1.00800           0
     51471 TIP3     9697     TIP3     OH2      OT      -0.834000       15.9994           0
     51472 TIP3     9697     TIP3     H1       HT       0.417000       1.00800           0
     51473 TIP3     9697     TIP3     H2       HT       0.417000       1.00800           0
     51474 TIP3     9698     TIP3     OH2      OT      -0.834000       15.9994           0
     51475 TIP3     9698     TIP3     H1       HT       0.417000       1.00800           0
     51476 TIP3     9698     TIP3     H2       HT       0.417000       1.00800           0
     51477 TIP3     9699     TIP3     OH2      OT      -0.834000       15.9994           0
     51478 TIP3     9699     TIP3     H1       HT       0.417000       1.00800           0
     51479 TIP3     9699     TIP3     H2       HT       0.417000       1.00800           0
     51480 TIP3     9700     TIP3     OH2      OT      -0.834000       15.9994           0
     51481 TIP3     9700     TIP3     H1       HT       0.417000       1.00800           0
     51482 TIP3     9700     TIP3     H2       HT       0.417000       1.00800           0
     51483 TIP3     9701     TIP3     OH2      OT      -0.834000       15.9994           0
     51484 TIP3     9701     TIP3     H1       HT       0.417000       1.00800           0
     51485 TIP3     9701     TIP3     H2       HT       0.417000       1.00800           0
     51486 TIP3     9702     TIP3     OH2      OT      -0.834000       15.9994           0
     51487 TIP3     9702     TIP3     H1       HT       0.417000       1.00800           0
     51488 TIP3     9702     TIP3     H2       HT       0.417000       1.00800           0
     51489 TIP3     9703     TIP3     OH2      OT      -0.834000       15.9994           0
     51490 TIP3     9703     TIP3     H1       HT       0.417000       1.00800           0
     51491 TIP3     9703     TIP3     H2       HT       0.417000       1.00800           0
     51492 TIP3     9704     TIP3     OH2      OT      -0.834000       15.9994           0
     51493 TIP3     9704     TIP3     H1       HT       0.417000       1.00800           0
     51494 TIP3     9704     TIP3     H2       HT       0.417000       1.00800           0
     51495 TIP3     9705     TIP3     OH2      OT      -0.834000       15.9994           0
     51496 TIP3     9705     TIP3     H1       HT       0.417000       1.00800           0
     51497 TIP3     9705     TIP3     H2       HT       0.417000       1.00800           0
     51498 TIP3     9706     TIP3     OH2      OT      -0.834000       15.9994           0
     51499 TIP3     9706     TIP3     H1       HT       0.417000       1.00800           0
     51500 TIP3     9706     TIP3     H2       HT       0.417000       1.00800           0
     51501 TIP3     9707     TIP3     OH2      OT      -0.834000       15.9994           0
     51502 TIP3     9707     TIP3     H1       HT       0.417000       1.00800           0
     51503 TIP3     9707     TIP3     H2       HT       0.417000       1.00800           0
     51504 TIP3     9708     TIP3     OH2      OT      -0.834000       15.9994           0
     51505 TIP3     9708     TIP3     H1       HT       0.417000       1.00800           0
     51506 TIP3     9708     TIP3     H2       HT       0.417000       1.00800           0
     51507 TIP3     9709     TIP3     OH2      OT      -0.834000       15.9994           0
     51508 TIP3     9709     TIP3     H1       HT       0.417000       1.00800           0
     51509 TIP3     9709     TIP3     H2       HT       0.417000       1.00800           0
     51510 TIP3     9710     TIP3     OH2      OT      -0.834000       15.9994           0
     51511 TIP3     9710     TIP3     H1       HT       0.417000       1.00800           0
     51512 TIP3     9710     TIP3     H2       HT       0.417000       1.00800           0
     51513 TIP3     9711     TIP3     OH2      OT      -0.834000       15.9994           0
     51514 TIP3     9711     TIP3     H1       HT       0.417000       1.00800           0
     51515 TIP3     9711     TIP3     H2       HT       0.417000       1.00800           0
     51516 TIP3     9712     TIP3     OH2      OT      -0.834000       15.9994           0
     51517 TIP3     9712     TIP3     H1       HT       0.417000       1.00800           0
     51518 TIP3     9712     TIP3     H2       HT       0.417000       1.00800           0
     51519 TIP3     9713     TIP3     OH2      OT      -0.834000       15.9994           0
     51520 TIP3     9713     TIP3     H1       HT       0.417000       1.00800           0
     51521 TIP3     9713     TIP3     H2       HT       0.417000       1.00800           0
     51522 TIP3     9714     TIP3     OH2      OT      -0.834000       15.9994           0
     51523 TIP3     9714     TIP3     H1       HT       0.417000       1.00800           0
     51524 TIP3     9714     TIP3     H2       HT       0.417000       1.00800           0
     51525 TIP3     9715     TIP3     OH2      OT      -0.834000       15.9994           0
     51526 TIP3     9715     TIP3     H1       HT       0.417000       1.00800           0
     51527 TIP3     9715     TIP3     H2       HT       0.417000       1.00800           0
     51528 TIP3     9716     TIP3     OH2      OT      -0.834000       15.9994           0
     51529 TIP3     9716     TIP3     H1       HT       0.417000       1.00800           0
     51530 TIP3     9716     TIP3     H2       HT       0.417000       1.00800           0
     51531 TIP3     9717     TIP3     OH2      OT      -0.834000       15.9994           0
     51532 TIP3     9717     TIP3     H1       HT       0.417000       1.00800           0
     51533 TIP3     9717     TIP3     H2       HT       0.417000       1.00800           0
     51534 TIP3     9718     TIP3     OH2      OT      -0.834000       15.9994           0
     51535 TIP3     9718     TIP3     H1       HT       0.417000       1.00800           0
     51536 TIP3     9718     TIP3     H2       HT       0.417000       1.00800           0
     51537 TIP3     9719     TIP3     OH2      OT      -0.834000       15.9994           0
     51538 TIP3     9719     TIP3     H1       HT       0.417000       1.00800           0
     51539 TIP3     9719     TIP3     H2       HT       0.417000       1.00800           0
     51540 TIP3     9720     TIP3     OH2      OT      -0.834000       15.9994           0
     51541 TIP3     9720     TIP3     H1       HT       0.417000       1.00800           0
     51542 TIP3     9720     TIP3     H2       HT       0.417000       1.00800           0
     51543 TIP3     9721     TIP3     OH2      OT      -0.834000       15.9994           0
     51544 TIP3     9721     TIP3     H1       HT       0.417000       1.00800           0
     51545 TIP3     9721     TIP3     H2       HT       0.417000       1.00800           0
     51546 TIP3     9722     TIP3     OH2      OT      -0.834000       15.9994           0
     51547 TIP3     9722     TIP3     H1       HT       0.417000       1.00800           0
     51548 TIP3     9722     TIP3     H2       HT       0.417000       1.00800           0
     51549 TIP3     9723     TIP3     OH2      OT      -0.834000       15.9994           0
     51550 TIP3     9723     TIP3     H1       HT       0.417000       1.00800           0
     51551 TIP3     9723     TIP3     H2       HT       0.417000       1.00800           0
     51552 TIP3     9724     TIP3     OH2      OT      -0.834000       15.9994           0
     51553 TIP3     9724     TIP3     H1       HT       0.417000       1.00800           0
     51554 TIP3     9724     TIP3     H2       HT       0.417000       1.00800           0
     51555 TIP3     9725     TIP3     OH2      OT      -0.834000       15.9994           0
     51556 TIP3     9725     TIP3     H1       HT       0.417000       1.00800           0
     51557 TIP3     9725     TIP3     H2       HT       0.417000       1.00800           0
     51558 TIP3     9726     TIP3     OH2      OT      -0.834000       15.9994           0
     51559 TIP3     9726     TIP3     H1       HT       0.417000       1.00800           0
     51560 TIP3     9726     TIP3     H2       HT       0.417000       1.00800           0
     51561 TIP3     9727     TIP3     OH2      OT      -0.834000       15.9994           0
     51562 TIP3     9727     TIP3     H1       HT       0.417000       1.00800           0
     51563 TIP3     9727     TIP3     H2       HT       0.417000       1.00800           0
     51564 TIP3     9728     TIP3     OH2      OT      -0.834000       15.9994           0
     51565 TIP3     9728     TIP3     H1       HT       0.417000       1.00800           0
     51566 TIP3     9728     TIP3     H2       HT       0.417000       1.00800           0
     51567 TIP3     9729     TIP3     OH2      OT      -0.834000       15.9994           0
     51568 TIP3     9729     TIP3     H1       HT       0.417000       1.00800           0
     51569 TIP3     9729     TIP3     H2       HT       0.417000       1.00800           0
     51570 TIP3     9730     TIP3     OH2      OT      -0.834000       15.9994           0
     51571 TIP3     9730     TIP3     H1       HT       0.417000       1.00800           0
     51572 TIP3     9730     TIP3     H2       HT       0.417000       1.00800           0
     51573 TIP3     9731     TIP3     OH2      OT      -0.834000       15.9994           0
     51574 TIP3     9731     TIP3     H1       HT       0.417000       1.00800           0
     51575 TIP3     9731     TIP3     H2       HT       0.417000       1.00800           0
     51576 TIP3     9732     TIP3     OH2      OT      -0.834000       15.9994           0
     51577 TIP3     9732     TIP3     H1       HT       0.417000       1.00800           0
     51578 TIP3     9732     TIP3     H2       HT       0.417000       1.00800           0
     51579 TIP3     9733     TIP3     OH2      OT      -0.834000       15.9994           0
     51580 TIP3     9733     TIP3     H1       HT       0.417000       1.00800           0
     51581 TIP3     9733     TIP3     H2       HT       0.417000       1.00800           0
     51582 TIP3     9734     TIP3     OH2      OT      -0.834000       15.9994           0
     51583 TIP3     9734     TIP3     H1       HT       0.417000       1.00800           0
     51584 TIP3     9734     TIP3     H2       HT       0.417000       1.00800           0
     51585 TIP3     9735     TIP3     OH2      OT      -0.834000       15.9994           0
     51586 TIP3     9735     TIP3     H1       HT       0.417000       1.00800           0
     51587 TIP3     9735     TIP3     H2       HT       0.417000       1.00800           0
     51588 TIP3     9736     TIP3     OH2      OT      -0.834000       15.9994           0
     51589 TIP3     9736     TIP3     H1       HT       0.417000       1.00800           0
     51590 TIP3     9736     TIP3     H2       HT       0.417000       1.00800           0
     51591 TIP3     9737     TIP3     OH2      OT      -0.834000       15.9994           0
     51592 TIP3     9737     TIP3     H1       HT       0.417000       1.00800           0
     51593 TIP3     9737     TIP3     H2       HT       0.417000       1.00800           0
     51594 TIP3     9738     TIP3     OH2      OT      -0.834000       15.9994           0
     51595 TIP3     9738     TIP3     H1       HT       0.417000       1.00800           0
     51596 TIP3     9738     TIP3     H2       HT       0.417000       1.00800           0
     51597 TIP3     9739     TIP3     OH2      OT      -0.834000       15.9994           0
     51598 TIP3     9739     TIP3     H1       HT       0.417000       1.00800           0
     51599 TIP3     9739     TIP3     H2       HT       0.417000       1.00800           0
     51600 TIP3     9740     TIP3     OH2      OT      -0.834000       15.9994           0
     51601 TIP3     9740     TIP3     H1       HT       0.417000       1.00800           0
     51602 TIP3     9740     TIP3     H2       HT       0.417000       1.00800           0
     51603 TIP3     9741     TIP3     OH2      OT      -0.834000       15.9994           0
     51604 TIP3     9741     TIP3     H1       HT       0.417000       1.00800           0
     51605 TIP3     9741     TIP3     H2       HT       0.417000       1.00800           0
     51606 TIP3     9742     TIP3     OH2      OT      -0.834000       15.9994           0
     51607 TIP3     9742     TIP3     H1       HT       0.417000       1.00800           0
     51608 TIP3     9742     TIP3     H2       HT       0.417000       1.00800           0
     51609 TIP3     9743     TIP3     OH2      OT      -0.834000       15.9994           0
     51610 TIP3     9743     TIP3     H1       HT       0.417000       1.00800           0
     51611 TIP3     9743     TIP3     H2       HT       0.417000       1.00800           0
     51612 TIP3     9744     TIP3     OH2      OT      -0.834000       15.9994           0
     51613 TIP3     9744     TIP3     H1       HT       0.417000       1.00800           0
     51614 TIP3     9744     TIP3     H2       HT       0.417000       1.00800           0
     51615 TIP3     9745     TIP3     OH2      OT      -0.834000       15.9994           0
     51616 TIP3     9745     TIP3     H1       HT       0.417000       1.00800           0
     51617 TIP3     9745     TIP3     H2       HT       0.417000       1.00800           0
     51618 TIP3     9746     TIP3     OH2      OT      -0.834000       15.9994           0
     51619 TIP3     9746     TIP3     H1       HT       0.417000       1.00800           0
     51620 TIP3     9746     TIP3     H2       HT       0.417000       1.00800           0
     51621 TIP3     9747     TIP3     OH2      OT      -0.834000       15.9994           0
     51622 TIP3     9747     TIP3     H1       HT       0.417000       1.00800           0
     51623 TIP3     9747     TIP3     H2       HT       0.417000       1.00800           0
     51624 TIP3     9748     TIP3     OH2      OT      -0.834000       15.9994           0
     51625 TIP3     9748     TIP3     H1       HT       0.417000       1.00800           0
     51626 TIP3     9748     TIP3     H2       HT       0.417000       1.00800           0
     51627 TIP3     9749     TIP3     OH2      OT      -0.834000       15.9994           0
     51628 TIP3     9749     TIP3     H1       HT       0.417000       1.00800           0
     51629 TIP3     9749     TIP3     H2       HT       0.417000       1.00800           0
     51630 TIP3     9750     TIP3     OH2      OT      -0.834000       15.9994           0
     51631 TIP3     9750     TIP3     H1       HT       0.417000       1.00800           0
     51632 TIP3     9750     TIP3     H2       HT       0.417000       1.00800           0
     51633 TIP3     9751     TIP3     OH2      OT      -0.834000       15.9994           0
     51634 TIP3     9751     TIP3     H1       HT       0.417000       1.00800           0
     51635 TIP3     9751     TIP3     H2       HT       0.417000       1.00800           0
     51636 TIP3     9752     TIP3     OH2      OT      -0.834000       15.9994           0
     51637 TIP3     9752     TIP3     H1       HT       0.417000       1.00800           0
     51638 TIP3     9752     TIP3     H2       HT       0.417000       1.00800           0
     51639 TIP3     9753     TIP3     OH2      OT      -0.834000       15.9994           0
     51640 TIP3     9753     TIP3     H1       HT       0.417000       1.00800           0
     51641 TIP3     9753     TIP3     H2       HT       0.417000       1.00800           0
     51642 TIP3     9754     TIP3     OH2      OT      -0.834000       15.9994           0
     51643 TIP3     9754     TIP3     H1       HT       0.417000       1.00800           0
     51644 TIP3     9754     TIP3     H2       HT       0.417000       1.00800           0
     51645 TIP3     9755     TIP3     OH2      OT      -0.834000       15.9994           0
     51646 TIP3     9755     TIP3     H1       HT       0.417000       1.00800           0
     51647 TIP3     9755     TIP3     H2       HT       0.417000       1.00800           0
     51648 TIP3     9756     TIP3     OH2      OT      -0.834000       15.9994           0
     51649 TIP3     9756     TIP3     H1       HT       0.417000       1.00800           0
     51650 TIP3     9756     TIP3     H2       HT       0.417000       1.00800           0
     51651 TIP3     9757     TIP3     OH2      OT      -0.834000       15.9994           0
     51652 TIP3     9757     TIP3     H1       HT       0.417000       1.00800           0
     51653 TIP3     9757     TIP3     H2       HT       0.417000       1.00800           0
     51654 TIP3     9758     TIP3     OH2      OT      -0.834000       15.9994           0
     51655 TIP3     9758     TIP3     H1       HT       0.417000       1.00800           0
     51656 TIP3     9758     TIP3     H2       HT       0.417000       1.00800           0
     51657 TIP3     9759     TIP3     OH2      OT      -0.834000       15.9994           0
     51658 TIP3     9759     TIP3     H1       HT       0.417000       1.00800           0
     51659 TIP3     9759     TIP3     H2       HT       0.417000       1.00800           0
     51660 TIP3     9760     TIP3     OH2      OT      -0.834000       15.9994           0
     51661 TIP3     9760     TIP3     H1       HT       0.417000       1.00800           0
     51662 TIP3     9760     TIP3     H2       HT       0.417000       1.00800           0
     51663 TIP3     9761     TIP3     OH2      OT      -0.834000       15.9994           0
     51664 TIP3     9761     TIP3     H1       HT       0.417000       1.00800           0
     51665 TIP3     9761     TIP3     H2       HT       0.417000       1.00800           0
     51666 TIP3     9762     TIP3     OH2      OT      -0.834000       15.9994           0
     51667 TIP3     9762     TIP3     H1       HT       0.417000       1.00800           0
     51668 TIP3     9762     TIP3     H2       HT       0.417000       1.00800           0
     51669 TIP3     9763     TIP3     OH2      OT      -0.834000       15.9994           0
     51670 TIP3     9763     TIP3     H1       HT       0.417000       1.00800           0
     51671 TIP3     9763     TIP3     H2       HT       0.417000       1.00800           0
     51672 TIP3     9764     TIP3     OH2      OT      -0.834000       15.9994           0
     51673 TIP3     9764     TIP3     H1       HT       0.417000       1.00800           0
     51674 TIP3     9764     TIP3     H2       HT       0.417000       1.00800           0
     51675 TIP3     9765     TIP3     OH2      OT      -0.834000       15.9994           0
     51676 TIP3     9765     TIP3     H1       HT       0.417000       1.00800           0
     51677 TIP3     9765     TIP3     H2       HT       0.417000       1.00800           0
     51678 TIP3     9766     TIP3     OH2      OT      -0.834000       15.9994           0
     51679 TIP3     9766     TIP3     H1       HT       0.417000       1.00800           0
     51680 TIP3     9766     TIP3     H2       HT       0.417000       1.00800           0
     51681 TIP3     9767     TIP3     OH2      OT      -0.834000       15.9994           0
     51682 TIP3     9767     TIP3     H1       HT       0.417000       1.00800           0
     51683 TIP3     9767     TIP3     H2       HT       0.417000       1.00800           0
     51684 TIP3     9768     TIP3     OH2      OT      -0.834000       15.9994           0
     51685 TIP3     9768     TIP3     H1       HT       0.417000       1.00800           0
     51686 TIP3     9768     TIP3     H2       HT       0.417000       1.00800           0
     51687 TIP3     9769     TIP3     OH2      OT      -0.834000       15.9994           0
     51688 TIP3     9769     TIP3     H1       HT       0.417000       1.00800           0
     51689 TIP3     9769     TIP3     H2       HT       0.417000       1.00800           0
     51690 TIP3     9770     TIP3     OH2      OT      -0.834000       15.9994           0
     51691 TIP3     9770     TIP3     H1       HT       0.417000       1.00800           0
     51692 TIP3     9770     TIP3     H2       HT       0.417000       1.00800           0
     51693 TIP3     9771     TIP3     OH2      OT      -0.834000       15.9994           0
     51694 TIP3     9771     TIP3     H1       HT       0.417000       1.00800           0
     51695 TIP3     9771     TIP3     H2       HT       0.417000       1.00800           0
     51696 TIP3     9772     TIP3     OH2      OT      -0.834000       15.9994           0
     51697 TIP3     9772     TIP3     H1       HT       0.417000       1.00800           0
     51698 TIP3     9772     TIP3     H2       HT       0.417000       1.00800           0
     51699 TIP3     9773     TIP3     OH2      OT      -0.834000       15.9994           0
     51700 TIP3     9773     TIP3     H1       HT       0.417000       1.00800           0
     51701 TIP3     9773     TIP3     H2       HT       0.417000       1.00800           0
     51702 TIP3     9774     TIP3     OH2      OT      -0.834000       15.9994           0
     51703 TIP3     9774     TIP3     H1       HT       0.417000       1.00800           0
     51704 TIP3     9774     TIP3     H2       HT       0.417000       1.00800           0
     51705 TIP3     9775     TIP3     OH2      OT      -0.834000       15.9994           0
     51706 TIP3     9775     TIP3     H1       HT       0.417000       1.00800           0
     51707 TIP3     9775     TIP3     H2       HT       0.417000       1.00800           0
     51708 TIP3     9776     TIP3     OH2      OT      -0.834000       15.9994           0
     51709 TIP3     9776     TIP3     H1       HT       0.417000       1.00800           0
     51710 TIP3     9776     TIP3     H2       HT       0.417000       1.00800           0
     51711 TIP3     9777     TIP3     OH2      OT      -0.834000       15.9994           0
     51712 TIP3     9777     TIP3     H1       HT       0.417000       1.00800           0
     51713 TIP3     9777     TIP3     H2       HT       0.417000       1.00800           0
     51714 TIP3     9778     TIP3     OH2      OT      -0.834000       15.9994           0
     51715 TIP3     9778     TIP3     H1       HT       0.417000       1.00800           0
     51716 TIP3     9778     TIP3     H2       HT       0.417000       1.00800           0
     51717 TIP3     9779     TIP3     OH2      OT      -0.834000       15.9994           0
     51718 TIP3     9779     TIP3     H1       HT       0.417000       1.00800           0
     51719 TIP3     9779     TIP3     H2       HT       0.417000       1.00800           0
     51720 TIP3     9780     TIP3     OH2      OT      -0.834000       15.9994           0
     51721 TIP3     9780     TIP3     H1       HT       0.417000       1.00800           0
     51722 TIP3     9780     TIP3     H2       HT       0.417000       1.00800           0
     51723 TIP3     9781     TIP3     OH2      OT      -0.834000       15.9994           0
     51724 TIP3     9781     TIP3     H1       HT       0.417000       1.00800           0
     51725 TIP3     9781     TIP3     H2       HT       0.417000       1.00800           0
     51726 TIP3     9782     TIP3     OH2      OT      -0.834000       15.9994           0
     51727 TIP3     9782     TIP3     H1       HT       0.417000       1.00800           0
     51728 TIP3     9782     TIP3     H2       HT       0.417000       1.00800           0
     51729 TIP3     9783     TIP3     OH2      OT      -0.834000       15.9994           0
     51730 TIP3     9783     TIP3     H1       HT       0.417000       1.00800           0
     51731 TIP3     9783     TIP3     H2       HT       0.417000       1.00800           0
     51732 TIP3     9784     TIP3     OH2      OT      -0.834000       15.9994           0
     51733 TIP3     9784     TIP3     H1       HT       0.417000       1.00800           0
     51734 TIP3     9784     TIP3     H2       HT       0.417000       1.00800           0
     51735 TIP3     9785     TIP3     OH2      OT      -0.834000       15.9994           0
     51736 TIP3     9785     TIP3     H1       HT       0.417000       1.00800           0
     51737 TIP3     9785     TIP3     H2       HT       0.417000       1.00800           0
     51738 TIP3     9786     TIP3     OH2      OT      -0.834000       15.9994           0
     51739 TIP3     9786     TIP3     H1       HT       0.417000       1.00800           0
     51740 TIP3     9786     TIP3     H2       HT       0.417000       1.00800           0
     51741 TIP3     9787     TIP3     OH2      OT      -0.834000       15.9994           0
     51742 TIP3     9787     TIP3     H1       HT       0.417000       1.00800           0
     51743 TIP3     9787     TIP3     H2       HT       0.417000       1.00800           0
     51744 TIP3     9788     TIP3     OH2      OT      -0.834000       15.9994           0
     51745 TIP3     9788     TIP3     H1       HT       0.417000       1.00800           0
     51746 TIP3     9788     TIP3     H2       HT       0.417000       1.00800           0
     51747 TIP3     9789     TIP3     OH2      OT      -0.834000       15.9994           0
     51748 TIP3     9789     TIP3     H1       HT       0.417000       1.00800           0
     51749 TIP3     9789     TIP3     H2       HT       0.417000       1.00800           0
     51750 TIP3     9790     TIP3     OH2      OT      -0.834000       15.9994           0
     51751 TIP3     9790     TIP3     H1       HT       0.417000       1.00800           0
     51752 TIP3     9790     TIP3     H2       HT       0.417000       1.00800           0
     51753 TIP3     9791     TIP3     OH2      OT      -0.834000       15.9994           0
     51754 TIP3     9791     TIP3     H1       HT       0.417000       1.00800           0
     51755 TIP3     9791     TIP3     H2       HT       0.417000       1.00800           0
     51756 TIP3     9792     TIP3     OH2      OT      -0.834000       15.9994           0
     51757 TIP3     9792     TIP3     H1       HT       0.417000       1.00800           0
     51758 TIP3     9792     TIP3     H2       HT       0.417000       1.00800           0
     51759 TIP3     9793     TIP3     OH2      OT      -0.834000       15.9994           0
     51760 TIP3     9793     TIP3     H1       HT       0.417000       1.00800           0
     51761 TIP3     9793     TIP3     H2       HT       0.417000       1.00800           0
     51762 TIP3     9794     TIP3     OH2      OT      -0.834000       15.9994           0
     51763 TIP3     9794     TIP3     H1       HT       0.417000       1.00800           0
     51764 TIP3     9794     TIP3     H2       HT       0.417000       1.00800           0
     51765 TIP3     9795     TIP3     OH2      OT      -0.834000       15.9994           0
     51766 TIP3     9795     TIP3     H1       HT       0.417000       1.00800           0
     51767 TIP3     9795     TIP3     H2       HT       0.417000       1.00800           0
     51768 TIP3     9796     TIP3     OH2      OT      -0.834000       15.9994           0
     51769 TIP3     9796     TIP3     H1       HT       0.417000       1.00800           0
     51770 TIP3     9796     TIP3     H2       HT       0.417000       1.00800           0
     51771 TIP3     9797     TIP3     OH2      OT      -0.834000       15.9994           0
     51772 TIP3     9797     TIP3     H1       HT       0.417000       1.00800           0
     51773 TIP3     9797     TIP3     H2       HT       0.417000       1.00800           0
     51774 TIP3     9798     TIP3     OH2      OT      -0.834000       15.9994           0
     51775 TIP3     9798     TIP3     H1       HT       0.417000       1.00800           0
     51776 TIP3     9798     TIP3     H2       HT       0.417000       1.00800           0
     51777 TIP3     9799     TIP3     OH2      OT      -0.834000       15.9994           0
     51778 TIP3     9799     TIP3     H1       HT       0.417000       1.00800           0
     51779 TIP3     9799     TIP3     H2       HT       0.417000       1.00800           0
     51780 TIP3     9800     TIP3     OH2      OT      -0.834000       15.9994           0
     51781 TIP3     9800     TIP3     H1       HT       0.417000       1.00800           0
     51782 TIP3     9800     TIP3     H2       HT       0.417000       1.00800           0
     51783 TIP3     9801     TIP3     OH2      OT      -0.834000       15.9994           0
     51784 TIP3     9801     TIP3     H1       HT       0.417000       1.00800           0
     51785 TIP3     9801     TIP3     H2       HT       0.417000       1.00800           0
     51786 TIP3     9802     TIP3     OH2      OT      -0.834000       15.9994           0
     51787 TIP3     9802     TIP3     H1       HT       0.417000       1.00800           0
     51788 TIP3     9802     TIP3     H2       HT       0.417000       1.00800           0
     51789 TIP3     9803     TIP3     OH2      OT      -0.834000       15.9994           0
     51790 TIP3     9803     TIP3     H1       HT       0.417000       1.00800           0
     51791 TIP3     9803     TIP3     H2       HT       0.417000       1.00800           0
     51792 TIP3     9804     TIP3     OH2      OT      -0.834000       15.9994           0
     51793 TIP3     9804     TIP3     H1       HT       0.417000       1.00800           0
     51794 TIP3     9804     TIP3     H2       HT       0.417000       1.00800           0
     51795 TIP3     9805     TIP3     OH2      OT      -0.834000       15.9994           0
     51796 TIP3     9805     TIP3     H1       HT       0.417000       1.00800           0
     51797 TIP3     9805     TIP3     H2       HT       0.417000       1.00800           0
     51798 TIP3     9806     TIP3     OH2      OT      -0.834000       15.9994           0
     51799 TIP3     9806     TIP3     H1       HT       0.417000       1.00800           0
     51800 TIP3     9806     TIP3     H2       HT       0.417000       1.00800           0
     51801 TIP3     9807     TIP3     OH2      OT      -0.834000       15.9994           0
     51802 TIP3     9807     TIP3     H1       HT       0.417000       1.00800           0
     51803 TIP3     9807     TIP3     H2       HT       0.417000       1.00800           0
     51804 TIP3     9808     TIP3     OH2      OT      -0.834000       15.9994           0
     51805 TIP3     9808     TIP3     H1       HT       0.417000       1.00800           0
     51806 TIP3     9808     TIP3     H2       HT       0.417000       1.00800           0
     51807 TIP3     9809     TIP3     OH2      OT      -0.834000       15.9994           0
     51808 TIP3     9809     TIP3     H1       HT       0.417000       1.00800           0
     51809 TIP3     9809     TIP3     H2       HT       0.417000       1.00800           0
     51810 TIP3     9810     TIP3     OH2      OT      -0.834000       15.9994           0
     51811 TIP3     9810     TIP3     H1       HT       0.417000       1.00800           0
     51812 TIP3     9810     TIP3     H2       HT       0.417000       1.00800           0
     51813 TIP3     9811     TIP3     OH2      OT      -0.834000       15.9994           0
     51814 TIP3     9811     TIP3     H1       HT       0.417000       1.00800           0
     51815 TIP3     9811     TIP3     H2       HT       0.417000       1.00800           0
     51816 TIP3     9812     TIP3     OH2      OT      -0.834000       15.9994           0
     51817 TIP3     9812     TIP3     H1       HT       0.417000       1.00800           0
     51818 TIP3     9812     TIP3     H2       HT       0.417000       1.00800           0
     51819 TIP3     9813     TIP3     OH2      OT      -0.834000       15.9994           0
     51820 TIP3     9813     TIP3     H1       HT       0.417000       1.00800           0
     51821 TIP3     9813     TIP3     H2       HT       0.417000       1.00800           0
     51822 TIP3     9814     TIP3     OH2      OT      -0.834000       15.9994           0
     51823 TIP3     9814     TIP3     H1       HT       0.417000       1.00800           0
     51824 TIP3     9814     TIP3     H2       HT       0.417000       1.00800           0
     51825 TIP3     9815     TIP3     OH2      OT      -0.834000       15.9994           0
     51826 TIP3     9815     TIP3     H1       HT       0.417000       1.00800           0
     51827 TIP3     9815     TIP3     H2       HT       0.417000       1.00800           0
     51828 TIP3     9816     TIP3     OH2      OT      -0.834000       15.9994           0
     51829 TIP3     9816     TIP3     H1       HT       0.417000       1.00800           0
     51830 TIP3     9816     TIP3     H2       HT       0.417000       1.00800           0
     51831 TIP3     9817     TIP3     OH2      OT      -0.834000       15.9994           0
     51832 TIP3     9817     TIP3     H1       HT       0.417000       1.00800           0
     51833 TIP3     9817     TIP3     H2       HT       0.417000       1.00800           0
     51834 TIP3     9818     TIP3     OH2      OT      -0.834000       15.9994           0
     51835 TIP3     9818     TIP3     H1       HT       0.417000       1.00800           0
     51836 TIP3     9818     TIP3     H2       HT       0.417000       1.00800           0
     51837 TIP3     9819     TIP3     OH2      OT      -0.834000       15.9994           0
     51838 TIP3     9819     TIP3     H1       HT       0.417000       1.00800           0
     51839 TIP3     9819     TIP3     H2       HT       0.417000       1.00800           0
     51840 TIP3     9820     TIP3     OH2      OT      -0.834000       15.9994           0
     51841 TIP3     9820     TIP3     H1       HT       0.417000       1.00800           0
     51842 TIP3     9820     TIP3     H2       HT       0.417000       1.00800           0
     51843 TIP3     9821     TIP3     OH2      OT      -0.834000       15.9994           0
     51844 TIP3     9821     TIP3     H1       HT       0.417000       1.00800           0
     51845 TIP3     9821     TIP3     H2       HT       0.417000       1.00800           0
     51846 TIP3     9822     TIP3     OH2      OT      -0.834000       15.9994           0
     51847 TIP3     9822     TIP3     H1       HT       0.417000       1.00800           0
     51848 TIP3     9822     TIP3     H2       HT       0.417000       1.00800           0
     51849 TIP3     9823     TIP3     OH2      OT      -0.834000       15.9994           0
     51850 TIP3     9823     TIP3     H1       HT       0.417000       1.00800           0
     51851 TIP3     9823     TIP3     H2       HT       0.417000       1.00800           0
     51852 TIP3     9824     TIP3     OH2      OT      -0.834000       15.9994           0
     51853 TIP3     9824     TIP3     H1       HT       0.417000       1.00800           0
     51854 TIP3     9824     TIP3     H2       HT       0.417000       1.00800           0
     51855 TIP3     9825     TIP3     OH2      OT      -0.834000       15.9994           0
     51856 TIP3     9825     TIP3     H1       HT       0.417000       1.00800           0
     51857 TIP3     9825     TIP3     H2       HT       0.417000       1.00800           0
     51858 TIP3     9826     TIP3     OH2      OT      -0.834000       15.9994           0
     51859 TIP3     9826     TIP3     H1       HT       0.417000       1.00800           0
     51860 TIP3     9826     TIP3     H2       HT       0.417000       1.00800           0
     51861 TIP3     9827     TIP3     OH2      OT      -0.834000       15.9994           0
     51862 TIP3     9827     TIP3     H1       HT       0.417000       1.00800           0
     51863 TIP3     9827     TIP3     H2       HT       0.417000       1.00800           0
     51864 TIP3     9828     TIP3     OH2      OT      -0.834000       15.9994           0
     51865 TIP3     9828     TIP3     H1       HT       0.417000       1.00800           0
     51866 TIP3     9828     TIP3     H2       HT       0.417000       1.00800           0
     51867 TIP3     9829     TIP3     OH2      OT      -0.834000       15.9994           0
     51868 TIP3     9829     TIP3     H1       HT       0.417000       1.00800           0
     51869 TIP3     9829     TIP3     H2       HT       0.417000       1.00800           0
     51870 TIP3     9830     TIP3     OH2      OT      -0.834000       15.9994           0
     51871 TIP3     9830     TIP3     H1       HT       0.417000       1.00800           0
     51872 TIP3     9830     TIP3     H2       HT       0.417000       1.00800           0
     51873 TIP3     9831     TIP3     OH2      OT      -0.834000       15.9994           0
     51874 TIP3     9831     TIP3     H1       HT       0.417000       1.00800           0
     51875 TIP3     9831     TIP3     H2       HT       0.417000       1.00800           0
     51876 TIP3     9832     TIP3     OH2      OT      -0.834000       15.9994           0
     51877 TIP3     9832     TIP3     H1       HT       0.417000       1.00800           0
     51878 TIP3     9832     TIP3     H2       HT       0.417000       1.00800           0
     51879 TIP3     9833     TIP3     OH2      OT      -0.834000       15.9994           0
     51880 TIP3     9833     TIP3     H1       HT       0.417000       1.00800           0
     51881 TIP3     9833     TIP3     H2       HT       0.417000       1.00800           0
     51882 TIP3     9834     TIP3     OH2      OT      -0.834000       15.9994           0
     51883 TIP3     9834     TIP3     H1       HT       0.417000       1.00800           0
     51884 TIP3     9834     TIP3     H2       HT       0.417000       1.00800           0
     51885 TIP3     9835     TIP3     OH2      OT      -0.834000       15.9994           0
     51886 TIP3     9835     TIP3     H1       HT       0.417000       1.00800           0
     51887 TIP3     9835     TIP3     H2       HT       0.417000       1.00800           0
     51888 TIP3     9836     TIP3     OH2      OT      -0.834000       15.9994           0
     51889 TIP3     9836     TIP3     H1       HT       0.417000       1.00800           0
     51890 TIP3     9836     TIP3     H2       HT       0.417000       1.00800           0
     51891 TIP3     9837     TIP3     OH2      OT      -0.834000       15.9994           0
     51892 TIP3     9837     TIP3     H1       HT       0.417000       1.00800           0
     51893 TIP3     9837     TIP3     H2       HT       0.417000       1.00800           0
     51894 TIP3     9838     TIP3     OH2      OT      -0.834000       15.9994           0
     51895 TIP3     9838     TIP3     H1       HT       0.417000       1.00800           0
     51896 TIP3     9838     TIP3     H2       HT       0.417000       1.00800           0
     51897 TIP3     9839     TIP3     OH2      OT      -0.834000       15.9994           0
     51898 TIP3     9839     TIP3     H1       HT       0.417000       1.00800           0
     51899 TIP3     9839     TIP3     H2       HT       0.417000       1.00800           0
     51900 TIP3     9840     TIP3     OH2      OT      -0.834000       15.9994           0
     51901 TIP3     9840     TIP3     H1       HT       0.417000       1.00800           0
     51902 TIP3     9840     TIP3     H2       HT       0.417000       1.00800           0
     51903 TIP3     9841     TIP3     OH2      OT      -0.834000       15.9994           0
     51904 TIP3     9841     TIP3     H1       HT       0.417000       1.00800           0
     51905 TIP3     9841     TIP3     H2       HT       0.417000       1.00800           0
     51906 TIP3     9842     TIP3     OH2      OT      -0.834000       15.9994           0
     51907 TIP3     9842     TIP3     H1       HT       0.417000       1.00800           0
     51908 TIP3     9842     TIP3     H2       HT       0.417000       1.00800           0
     51909 TIP3     9843     TIP3     OH2      OT      -0.834000       15.9994           0
     51910 TIP3     9843     TIP3     H1       HT       0.417000       1.00800           0
     51911 TIP3     9843     TIP3     H2       HT       0.417000       1.00800           0
     51912 TIP3     9844     TIP3     OH2      OT      -0.834000       15.9994           0
     51913 TIP3     9844     TIP3     H1       HT       0.417000       1.00800           0
     51914 TIP3     9844     TIP3     H2       HT       0.417000       1.00800           0
     51915 TIP3     9845     TIP3     OH2      OT      -0.834000       15.9994           0
     51916 TIP3     9845     TIP3     H1       HT       0.417000       1.00800           0
     51917 TIP3     9845     TIP3     H2       HT       0.417000       1.00800           0
     51918 TIP3     9846     TIP3     OH2      OT      -0.834000       15.9994           0
     51919 TIP3     9846     TIP3     H1       HT       0.417000       1.00800           0
     51920 TIP3     9846     TIP3     H2       HT       0.417000       1.00800           0
     51921 TIP3     9847     TIP3     OH2      OT      -0.834000       15.9994           0
     51922 TIP3     9847     TIP3     H1       HT       0.417000       1.00800           0
     51923 TIP3     9847     TIP3     H2       HT       0.417000       1.00800           0
     51924 TIP3     9848     TIP3     OH2      OT      -0.834000       15.9994           0
     51925 TIP3     9848     TIP3     H1       HT       0.417000       1.00800           0
     51926 TIP3     9848     TIP3     H2       HT       0.417000       1.00800           0
     51927 TIP3     9849     TIP3     OH2      OT      -0.834000       15.9994           0
     51928 TIP3     9849     TIP3     H1       HT       0.417000       1.00800           0
     51929 TIP3     9849     TIP3     H2       HT       0.417000       1.00800           0
     51930 TIP3     9850     TIP3     OH2      OT      -0.834000       15.9994           0
     51931 TIP3     9850     TIP3     H1       HT       0.417000       1.00800           0
     51932 TIP3     9850     TIP3     H2       HT       0.417000       1.00800           0
     51933 TIP3     9851     TIP3     OH2      OT      -0.834000       15.9994           0
     51934 TIP3     9851     TIP3     H1       HT       0.417000       1.00800           0
     51935 TIP3     9851     TIP3     H2       HT       0.417000       1.00800           0
     51936 TIP3     9852     TIP3     OH2      OT      -0.834000       15.9994           0
     51937 TIP3     9852     TIP3     H1       HT       0.417000       1.00800           0
     51938 TIP3     9852     TIP3     H2       HT       0.417000       1.00800           0
     51939 TIP3     9853     TIP3     OH2      OT      -0.834000       15.9994           0
     51940 TIP3     9853     TIP3     H1       HT       0.417000       1.00800           0
     51941 TIP3     9853     TIP3     H2       HT       0.417000       1.00800           0
     51942 TIP3     9854     TIP3     OH2      OT      -0.834000       15.9994           0
     51943 TIP3     9854     TIP3     H1       HT       0.417000       1.00800           0
     51944 TIP3     9854     TIP3     H2       HT       0.417000       1.00800           0
     51945 TIP3     9855     TIP3     OH2      OT      -0.834000       15.9994           0
     51946 TIP3     9855     TIP3     H1       HT       0.417000       1.00800           0
     51947 TIP3     9855     TIP3     H2       HT       0.417000       1.00800           0
     51948 TIP3     9856     TIP3     OH2      OT      -0.834000       15.9994           0
     51949 TIP3     9856     TIP3     H1       HT       0.417000       1.00800           0
     51950 TIP3     9856     TIP3     H2       HT       0.417000       1.00800           0
     51951 TIP3     9857     TIP3     OH2      OT      -0.834000       15.9994           0
     51952 TIP3     9857     TIP3     H1       HT       0.417000       1.00800           0
     51953 TIP3     9857     TIP3     H2       HT       0.417000       1.00800           0
     51954 TIP3     9858     TIP3     OH2      OT      -0.834000       15.9994           0
     51955 TIP3     9858     TIP3     H1       HT       0.417000       1.00800           0
     51956 TIP3     9858     TIP3     H2       HT       0.417000       1.00800           0
     51957 TIP3     9859     TIP3     OH2      OT      -0.834000       15.9994           0
     51958 TIP3     9859     TIP3     H1       HT       0.417000       1.00800           0
     51959 TIP3     9859     TIP3     H2       HT       0.417000       1.00800           0
     51960 TIP3     9860     TIP3     OH2      OT      -0.834000       15.9994           0
     51961 TIP3     9860     TIP3     H1       HT       0.417000       1.00800           0
     51962 TIP3     9860     TIP3     H2       HT       0.417000       1.00800           0
     51963 TIP3     9861     TIP3     OH2      OT      -0.834000       15.9994           0
     51964 TIP3     9861     TIP3     H1       HT       0.417000       1.00800           0
     51965 TIP3     9861     TIP3     H2       HT       0.417000       1.00800           0
     51966 TIP3     9862     TIP3     OH2      OT      -0.834000       15.9994           0
     51967 TIP3     9862     TIP3     H1       HT       0.417000       1.00800           0
     51968 TIP3     9862     TIP3     H2       HT       0.417000       1.00800           0
     51969 TIP3     9863     TIP3     OH2      OT      -0.834000       15.9994           0
     51970 TIP3     9863     TIP3     H1       HT       0.417000       1.00800           0
     51971 TIP3     9863     TIP3     H2       HT       0.417000       1.00800           0
     51972 TIP3     9864     TIP3     OH2      OT      -0.834000       15.9994           0
     51973 TIP3     9864     TIP3     H1       HT       0.417000       1.00800           0
     51974 TIP3     9864     TIP3     H2       HT       0.417000       1.00800           0
     51975 TIP3     9865     TIP3     OH2      OT      -0.834000       15.9994           0
     51976 TIP3     9865     TIP3     H1       HT       0.417000       1.00800           0
     51977 TIP3     9865     TIP3     H2       HT       0.417000       1.00800           0
     51978 TIP3     9866     TIP3     OH2      OT      -0.834000       15.9994           0
     51979 TIP3     9866     TIP3     H1       HT       0.417000       1.00800           0
     51980 TIP3     9866     TIP3     H2       HT       0.417000       1.00800           0
     51981 TIP3     9867     TIP3     OH2      OT      -0.834000       15.9994           0
     51982 TIP3     9867     TIP3     H1       HT       0.417000       1.00800           0
     51983 TIP3     9867     TIP3     H2       HT       0.417000       1.00800           0
     51984 TIP3     9868     TIP3     OH2      OT      -0.834000       15.9994           0
     51985 TIP3     9868     TIP3     H1       HT       0.417000       1.00800           0
     51986 TIP3     9868     TIP3     H2       HT       0.417000       1.00800           0
     51987 TIP3     9869     TIP3     OH2      OT      -0.834000       15.9994           0
     51988 TIP3     9869     TIP3     H1       HT       0.417000       1.00800           0
     51989 TIP3     9869     TIP3     H2       HT       0.417000       1.00800           0
     51990 TIP3     9870     TIP3     OH2      OT      -0.834000       15.9994           0
     51991 TIP3     9870     TIP3     H1       HT       0.417000       1.00800           0
     51992 TIP3     9870     TIP3     H2       HT       0.417000       1.00800           0
     51993 TIP3     9871     TIP3     OH2      OT      -0.834000       15.9994           0
     51994 TIP3     9871     TIP3     H1       HT       0.417000       1.00800           0
     51995 TIP3     9871     TIP3     H2       HT       0.417000       1.00800           0
     51996 TIP3     9872     TIP3     OH2      OT      -0.834000       15.9994           0
     51997 TIP3     9872     TIP3     H1       HT       0.417000       1.00800           0
     51998 TIP3     9872     TIP3     H2       HT       0.417000       1.00800           0
     51999 TIP3     9873     TIP3     OH2      OT      -0.834000       15.9994           0
     52000 TIP3     9873     TIP3     H1       HT       0.417000       1.00800           0
     52001 TIP3     9873     TIP3     H2       HT       0.417000       1.00800           0
     52002 TIP3     9874     TIP3     OH2      OT      -0.834000       15.9994           0
     52003 TIP3     9874     TIP3     H1       HT       0.417000       1.00800           0
     52004 TIP3     9874     TIP3     H2       HT       0.417000       1.00800           0
     52005 TIP3     9875     TIP3     OH2      OT      -0.834000       15.9994           0
     52006 TIP3     9875     TIP3     H1       HT       0.417000       1.00800           0
     52007 TIP3     9875     TIP3     H2       HT       0.417000       1.00800           0
     52008 TIP3     9876     TIP3     OH2      OT      -0.834000       15.9994           0
     52009 TIP3     9876     TIP3     H1       HT       0.417000       1.00800           0
     52010 TIP3     9876     TIP3     H2       HT       0.417000       1.00800           0
     52011 TIP3     9877     TIP3     OH2      OT      -0.834000       15.9994           0
     52012 TIP3     9877     TIP3     H1       HT       0.417000       1.00800           0
     52013 TIP3     9877     TIP3     H2       HT       0.417000       1.00800           0
     52014 TIP3     9878     TIP3     OH2      OT      -0.834000       15.9994           0
     52015 TIP3     9878     TIP3     H1       HT       0.417000       1.00800           0
     52016 TIP3     9878     TIP3     H2       HT       0.417000       1.00800           0
     52017 TIP3     9879     TIP3     OH2      OT      -0.834000       15.9994           0
     52018 TIP3     9879     TIP3     H1       HT       0.417000       1.00800           0
     52019 TIP3     9879     TIP3     H2       HT       0.417000       1.00800           0
     52020 TIP3     9880     TIP3     OH2      OT      -0.834000       15.9994           0
     52021 TIP3     9880     TIP3     H1       HT       0.417000       1.00800           0
     52022 TIP3     9880     TIP3     H2       HT       0.417000       1.00800           0
     52023 TIP3     9881     TIP3     OH2      OT      -0.834000       15.9994           0
     52024 TIP3     9881     TIP3     H1       HT       0.417000       1.00800           0
     52025 TIP3     9881     TIP3     H2       HT       0.417000       1.00800           0
     52026 TIP3     9882     TIP3     OH2      OT      -0.834000       15.9994           0
     52027 TIP3     9882     TIP3     H1       HT       0.417000       1.00800           0
     52028 TIP3     9882     TIP3     H2       HT       0.417000       1.00800           0
     52029 TIP3     9883     TIP3     OH2      OT      -0.834000       15.9994           0
     52030 TIP3     9883     TIP3     H1       HT       0.417000       1.00800           0
     52031 TIP3     9883     TIP3     H2       HT       0.417000       1.00800           0
     52032 TIP3     9884     TIP3     OH2      OT      -0.834000       15.9994           0
     52033 TIP3     9884     TIP3     H1       HT       0.417000       1.00800           0
     52034 TIP3     9884     TIP3     H2       HT       0.417000       1.00800           0
     52035 TIP3     9885     TIP3     OH2      OT      -0.834000       15.9994           0
     52036 TIP3     9885     TIP3     H1       HT       0.417000       1.00800           0
     52037 TIP3     9885     TIP3     H2       HT       0.417000       1.00800           0
     52038 TIP3     9886     TIP3     OH2      OT      -0.834000       15.9994           0
     52039 TIP3     9886     TIP3     H1       HT       0.417000       1.00800           0
     52040 TIP3     9886     TIP3     H2       HT       0.417000       1.00800           0
     52041 TIP3     9887     TIP3     OH2      OT      -0.834000       15.9994           0
     52042 TIP3     9887     TIP3     H1       HT       0.417000       1.00800           0
     52043 TIP3     9887     TIP3     H2       HT       0.417000       1.00800           0
     52044 TIP3     9888     TIP3     OH2      OT      -0.834000       15.9994           0
     52045 TIP3     9888     TIP3     H1       HT       0.417000       1.00800           0
     52046 TIP3     9888     TIP3     H2       HT       0.417000       1.00800           0
     52047 TIP3     9889     TIP3     OH2      OT      -0.834000       15.9994           0
     52048 TIP3     9889     TIP3     H1       HT       0.417000       1.00800           0
     52049 TIP3     9889     TIP3     H2       HT       0.417000       1.00800           0
     52050 TIP3     9890     TIP3     OH2      OT      -0.834000       15.9994           0
     52051 TIP3     9890     TIP3     H1       HT       0.417000       1.00800           0
     52052 TIP3     9890     TIP3     H2       HT       0.417000       1.00800           0
     52053 TIP3     9891     TIP3     OH2      OT      -0.834000       15.9994           0
     52054 TIP3     9891     TIP3     H1       HT       0.417000       1.00800           0
     52055 TIP3     9891     TIP3     H2       HT       0.417000       1.00800           0
     52056 TIP3     9892     TIP3     OH2      OT      -0.834000       15.9994           0
     52057 TIP3     9892     TIP3     H1       HT       0.417000       1.00800           0
     52058 TIP3     9892     TIP3     H2       HT       0.417000       1.00800           0
     52059 TIP3     9893     TIP3     OH2      OT      -0.834000       15.9994           0
     52060 TIP3     9893     TIP3     H1       HT       0.417000       1.00800           0
     52061 TIP3     9893     TIP3     H2       HT       0.417000       1.00800           0
     52062 TIP3     9894     TIP3     OH2      OT      -0.834000       15.9994           0
     52063 TIP3     9894     TIP3     H1       HT       0.417000       1.00800           0
     52064 TIP3     9894     TIP3     H2       HT       0.417000       1.00800           0
     52065 TIP3     9895     TIP3     OH2      OT      -0.834000       15.9994           0
     52066 TIP3     9895     TIP3     H1       HT       0.417000       1.00800           0
     52067 TIP3     9895     TIP3     H2       HT       0.417000       1.00800           0
     52068 TIP3     9896     TIP3     OH2      OT      -0.834000       15.9994           0
     52069 TIP3     9896     TIP3     H1       HT       0.417000       1.00800           0
     52070 TIP3     9896     TIP3     H2       HT       0.417000       1.00800           0
     52071 TIP3     9897     TIP3     OH2      OT      -0.834000       15.9994           0
     52072 TIP3     9897     TIP3     H1       HT       0.417000       1.00800           0
     52073 TIP3     9897     TIP3     H2       HT       0.417000       1.00800           0
     52074 TIP3     9898     TIP3     OH2      OT      -0.834000       15.9994           0
     52075 TIP3     9898     TIP3     H1       HT       0.417000       1.00800           0
     52076 TIP3     9898     TIP3     H2       HT       0.417000       1.00800           0
     52077 TIP3     9899     TIP3     OH2      OT      -0.834000       15.9994           0
     52078 TIP3     9899     TIP3     H1       HT       0.417000       1.00800           0
     52079 TIP3     9899     TIP3     H2       HT       0.417000       1.00800           0
     52080 TIP3     9900     TIP3     OH2      OT      -0.834000       15.9994           0
     52081 TIP3     9900     TIP3     H1       HT       0.417000       1.00800           0
     52082 TIP3     9900     TIP3     H2       HT       0.417000       1.00800           0
     52083 TIP3     9901     TIP3     OH2      OT      -0.834000       15.9994           0
     52084 TIP3     9901     TIP3     H1       HT       0.417000       1.00800           0
     52085 TIP3     9901     TIP3     H2       HT       0.417000       1.00800           0
     52086 TIP3     9902     TIP3     OH2      OT      -0.834000       15.9994           0
     52087 TIP3     9902     TIP3     H1       HT       0.417000       1.00800           0
     52088 TIP3     9902     TIP3     H2       HT       0.417000       1.00800           0
     52089 TIP3     9903     TIP3     OH2      OT      -0.834000       15.9994           0
     52090 TIP3     9903     TIP3     H1       HT       0.417000       1.00800           0
     52091 TIP3     9903     TIP3     H2       HT       0.417000       1.00800           0
     52092 TIP3     9904     TIP3     OH2      OT      -0.834000       15.9994           0
     52093 TIP3     9904     TIP3     H1       HT       0.417000       1.00800           0
     52094 TIP3     9904     TIP3     H2       HT       0.417000       1.00800           0
     52095 TIP3     9905     TIP3     OH2      OT      -0.834000       15.9994           0
     52096 TIP3     9905     TIP3     H1       HT       0.417000       1.00800           0
     52097 TIP3     9905     TIP3     H2       HT       0.417000       1.00800           0
     52098 TIP3     9906     TIP3     OH2      OT      -0.834000       15.9994           0
     52099 TIP3     9906     TIP3     H1       HT       0.417000       1.00800           0
     52100 TIP3     9906     TIP3     H2       HT       0.417000       1.00800           0
     52101 TIP3     9907     TIP3     OH2      OT      -0.834000       15.9994           0
     52102 TIP3     9907     TIP3     H1       HT       0.417000       1.00800           0
     52103 TIP3     9907     TIP3     H2       HT       0.417000       1.00800           0
     52104 TIP3     9908     TIP3     OH2      OT      -0.834000       15.9994           0
     52105 TIP3     9908     TIP3     H1       HT       0.417000       1.00800           0
     52106 TIP3     9908     TIP3     H2       HT       0.417000       1.00800           0
     52107 TIP3     9909     TIP3     OH2      OT      -0.834000       15.9994           0
     52108 TIP3     9909     TIP3     H1       HT       0.417000       1.00800           0
     52109 TIP3     9909     TIP3     H2       HT       0.417000       1.00800           0
     52110 TIP3     9910     TIP3     OH2      OT      -0.834000       15.9994           0
     52111 TIP3     9910     TIP3     H1       HT       0.417000       1.00800           0
     52112 TIP3     9910     TIP3     H2       HT       0.417000       1.00800           0
     52113 TIP3     9911     TIP3     OH2      OT      -0.834000       15.9994           0
     52114 TIP3     9911     TIP3     H1       HT       0.417000       1.00800           0
     52115 TIP3     9911     TIP3     H2       HT       0.417000       1.00800           0
     52116 TIP3     9912     TIP3     OH2      OT      -0.834000       15.9994           0
     52117 TIP3     9912     TIP3     H1       HT       0.417000       1.00800           0
     52118 TIP3     9912     TIP3     H2       HT       0.417000       1.00800           0
     52119 TIP3     9913     TIP3     OH2      OT      -0.834000       15.9994           0
     52120 TIP3     9913     TIP3     H1       HT       0.417000       1.00800           0
     52121 TIP3     9913     TIP3     H2       HT       0.417000       1.00800           0
     52122 TIP3     9914     TIP3     OH2      OT      -0.834000       15.9994           0
     52123 TIP3     9914     TIP3     H1       HT       0.417000       1.00800           0
     52124 TIP3     9914     TIP3     H2       HT       0.417000       1.00800           0
     52125 TIP3     9915     TIP3     OH2      OT      -0.834000       15.9994           0
     52126 TIP3     9915     TIP3     H1       HT       0.417000       1.00800           0
     52127 TIP3     9915     TIP3     H2       HT       0.417000       1.00800           0
     52128 TIP3     9916     TIP3     OH2      OT      -0.834000       15.9994           0
     52129 TIP3     9916     TIP3     H1       HT       0.417000       1.00800           0
     52130 TIP3     9916     TIP3     H2       HT       0.417000       1.00800           0
     52131 TIP3     9917     TIP3     OH2      OT      -0.834000       15.9994           0
     52132 TIP3     9917     TIP3     H1       HT       0.417000       1.00800           0
     52133 TIP3     9917     TIP3     H2       HT       0.417000       1.00800           0
     52134 TIP3     9918     TIP3     OH2      OT      -0.834000       15.9994           0
     52135 TIP3     9918     TIP3     H1       HT       0.417000       1.00800           0
     52136 TIP3     9918     TIP3     H2       HT       0.417000       1.00800           0
     52137 TIP3     9919     TIP3     OH2      OT      -0.834000       15.9994           0
     52138 TIP3     9919     TIP3     H1       HT       0.417000       1.00800           0
     52139 TIP3     9919     TIP3     H2       HT       0.417000       1.00800           0
     52140 TIP3     9920     TIP3     OH2      OT      -0.834000       15.9994           0
     52141 TIP3     9920     TIP3     H1       HT       0.417000       1.00800           0
     52142 TIP3     9920     TIP3     H2       HT       0.417000       1.00800           0
     52143 TIP3     9921     TIP3     OH2      OT      -0.834000       15.9994           0
     52144 TIP3     9921     TIP3     H1       HT       0.417000       1.00800           0
     52145 TIP3     9921     TIP3     H2       HT       0.417000       1.00800           0
     52146 TIP3     9922     TIP3     OH2      OT      -0.834000       15.9994           0
     52147 TIP3     9922     TIP3     H1       HT       0.417000       1.00800           0
     52148 TIP3     9922     TIP3     H2       HT       0.417000       1.00800           0
     52149 TIP3     9923     TIP3     OH2      OT      -0.834000       15.9994           0
     52150 TIP3     9923     TIP3     H1       HT       0.417000       1.00800           0
     52151 TIP3     9923     TIP3     H2       HT       0.417000       1.00800           0
     52152 TIP3     9924     TIP3     OH2      OT      -0.834000       15.9994           0
     52153 TIP3     9924     TIP3     H1       HT       0.417000       1.00800           0
     52154 TIP3     9924     TIP3     H2       HT       0.417000       1.00800           0
     52155 TIP3     9925     TIP3     OH2      OT      -0.834000       15.9994           0
     52156 TIP3     9925     TIP3     H1       HT       0.417000       1.00800           0
     52157 TIP3     9925     TIP3     H2       HT       0.417000       1.00800           0
     52158 TIP3     9926     TIP3     OH2      OT      -0.834000       15.9994           0
     52159 TIP3     9926     TIP3     H1       HT       0.417000       1.00800           0
     52160 TIP3     9926     TIP3     H2       HT       0.417000       1.00800           0
     52161 TIP3     9927     TIP3     OH2      OT      -0.834000       15.9994           0
     52162 TIP3     9927     TIP3     H1       HT       0.417000       1.00800           0
     52163 TIP3     9927     TIP3     H2       HT       0.417000       1.00800           0
     52164 TIP3     9928     TIP3     OH2      OT      -0.834000       15.9994           0
     52165 TIP3     9928     TIP3     H1       HT       0.417000       1.00800           0
     52166 TIP3     9928     TIP3     H2       HT       0.417000       1.00800           0
     52167 TIP3     9929     TIP3     OH2      OT      -0.834000       15.9994           0
     52168 TIP3     9929     TIP3     H1       HT       0.417000       1.00800           0
     52169 TIP3     9929     TIP3     H2       HT       0.417000       1.00800           0
     52170 TIP3     9930     TIP3     OH2      OT      -0.834000       15.9994           0
     52171 TIP3     9930     TIP3     H1       HT       0.417000       1.00800           0
     52172 TIP3     9930     TIP3     H2       HT       0.417000       1.00800           0
     52173 TIP3     9931     TIP3     OH2      OT      -0.834000       15.9994           0
     52174 TIP3     9931     TIP3     H1       HT       0.417000       1.00800           0
     52175 TIP3     9931     TIP3     H2       HT       0.417000       1.00800           0
     52176 TIP3     9932     TIP3     OH2      OT      -0.834000       15.9994           0
     52177 TIP3     9932     TIP3     H1       HT       0.417000       1.00800           0
     52178 TIP3     9932     TIP3     H2       HT       0.417000       1.00800           0
     52179 TIP3     9933     TIP3     OH2      OT      -0.834000       15.9994           0
     52180 TIP3     9933     TIP3     H1       HT       0.417000       1.00800           0
     52181 TIP3     9933     TIP3     H2       HT       0.417000       1.00800           0
     52182 TIP3     9934     TIP3     OH2      OT      -0.834000       15.9994           0
     52183 TIP3     9934     TIP3     H1       HT       0.417000       1.00800           0
     52184 TIP3     9934     TIP3     H2       HT       0.417000       1.00800           0
     52185 TIP3     9935     TIP3     OH2      OT      -0.834000       15.9994           0
     52186 TIP3     9935     TIP3     H1       HT       0.417000       1.00800           0
     52187 TIP3     9935     TIP3     H2       HT       0.417000       1.00800           0
     52188 TIP3     9936     TIP3     OH2      OT      -0.834000       15.9994           0
     52189 TIP3     9936     TIP3     H1       HT       0.417000       1.00800           0
     52190 TIP3     9936     TIP3     H2       HT       0.417000       1.00800           0
     52191 TIP3     9937     TIP3     OH2      OT      -0.834000       15.9994           0
     52192 TIP3     9937     TIP3     H1       HT       0.417000       1.00800           0
     52193 TIP3     9937     TIP3     H2       HT       0.417000       1.00800           0
     52194 TIP3     9938     TIP3     OH2      OT      -0.834000       15.9994           0
     52195 TIP3     9938     TIP3     H1       HT       0.417000       1.00800           0
     52196 TIP3     9938     TIP3     H2       HT       0.417000       1.00800           0
     52197 TIP3     9939     TIP3     OH2      OT      -0.834000       15.9994           0
     52198 TIP3     9939     TIP3     H1       HT       0.417000       1.00800           0
     52199 TIP3     9939     TIP3     H2       HT       0.417000       1.00800           0
     52200 TIP3     9940     TIP3     OH2      OT      -0.834000       15.9994           0
     52201 TIP3     9940     TIP3     H1       HT       0.417000       1.00800           0
     52202 TIP3     9940     TIP3     H2       HT       0.417000       1.00800           0
     52203 TIP3     9941     TIP3     OH2      OT      -0.834000       15.9994           0
     52204 TIP3     9941     TIP3     H1       HT       0.417000       1.00800           0
     52205 TIP3     9941     TIP3     H2       HT       0.417000       1.00800           0
     52206 TIP3     9942     TIP3     OH2      OT      -0.834000       15.9994           0
     52207 TIP3     9942     TIP3     H1       HT       0.417000       1.00800           0
     52208 TIP3     9942     TIP3     H2       HT       0.417000       1.00800           0
     52209 TIP3     9943     TIP3     OH2      OT      -0.834000       15.9994           0
     52210 TIP3     9943     TIP3     H1       HT       0.417000       1.00800           0
     52211 TIP3     9943     TIP3     H2       HT       0.417000       1.00800           0
     52212 TIP3     9944     TIP3     OH2      OT      -0.834000       15.9994           0
     52213 TIP3     9944     TIP3     H1       HT       0.417000       1.00800           0
     52214 TIP3     9944     TIP3     H2       HT       0.417000       1.00800           0
     52215 TIP3     9945     TIP3     OH2      OT      -0.834000       15.9994           0
     52216 TIP3     9945     TIP3     H1       HT       0.417000       1.00800           0
     52217 TIP3     9945     TIP3     H2       HT       0.417000       1.00800           0
     52218 TIP3     9946     TIP3     OH2      OT      -0.834000       15.9994           0
     52219 TIP3     9946     TIP3     H1       HT       0.417000       1.00800           0
     52220 TIP3     9946     TIP3     H2       HT       0.417000       1.00800           0
     52221 TIP3     9947     TIP3     OH2      OT      -0.834000       15.9994           0
     52222 TIP3     9947     TIP3     H1       HT       0.417000       1.00800           0
     52223 TIP3     9947     TIP3     H2       HT       0.417000       1.00800           0
     52224 TIP3     9948     TIP3     OH2      OT      -0.834000       15.9994           0
     52225 TIP3     9948     TIP3     H1       HT       0.417000       1.00800           0
     52226 TIP3     9948     TIP3     H2       HT       0.417000       1.00800           0
     52227 TIP3     9949     TIP3     OH2      OT      -0.834000       15.9994           0
     52228 TIP3     9949     TIP3     H1       HT       0.417000       1.00800           0
     52229 TIP3     9949     TIP3     H2       HT       0.417000       1.00800           0
     52230 TIP3     9950     TIP3     OH2      OT      -0.834000       15.9994           0
     52231 TIP3     9950     TIP3     H1       HT       0.417000       1.00800           0
     52232 TIP3     9950     TIP3     H2       HT       0.417000       1.00800           0
     52233 TIP3     9951     TIP3     OH2      OT      -0.834000       15.9994           0
     52234 TIP3     9951     TIP3     H1       HT       0.417000       1.00800           0
     52235 TIP3     9951     TIP3     H2       HT       0.417000       1.00800           0
     52236 TIP3     9952     TIP3     OH2      OT      -0.834000       15.9994           0
     52237 TIP3     9952     TIP3     H1       HT       0.417000       1.00800           0
     52238 TIP3     9952     TIP3     H2       HT       0.417000       1.00800           0
     52239 TIP3     9953     TIP3     OH2      OT      -0.834000       15.9994           0
     52240 TIP3     9953     TIP3     H1       HT       0.417000       1.00800           0
     52241 TIP3     9953     TIP3     H2       HT       0.417000       1.00800           0
     52242 TIP3     9954     TIP3     OH2      OT      -0.834000       15.9994           0
     52243 TIP3     9954     TIP3     H1       HT       0.417000       1.00800           0
     52244 TIP3     9954     TIP3     H2       HT       0.417000       1.00800           0
     52245 TIP3     9955     TIP3     OH2      OT      -0.834000       15.9994           0
     52246 TIP3     9955     TIP3     H1       HT       0.417000       1.00800           0
     52247 TIP3     9955     TIP3     H2       HT       0.417000       1.00800           0
     52248 TIP3     9956     TIP3     OH2      OT      -0.834000       15.9994           0
     52249 TIP3     9956     TIP3     H1       HT       0.417000       1.00800           0
     52250 TIP3     9956     TIP3     H2       HT       0.417000       1.00800           0
     52251 TIP3     9957     TIP3     OH2      OT      -0.834000       15.9994           0
     52252 TIP3     9957     TIP3     H1       HT       0.417000       1.00800           0
     52253 TIP3     9957     TIP3     H2       HT       0.417000       1.00800           0
     52254 TIP3     9958     TIP3     OH2      OT      -0.834000       15.9994           0
     52255 TIP3     9958     TIP3     H1       HT       0.417000       1.00800           0
     52256 TIP3     9958     TIP3     H2       HT       0.417000       1.00800           0
     52257 TIP3     9959     TIP3     OH2      OT      -0.834000       15.9994           0
     52258 TIP3     9959     TIP3     H1       HT       0.417000       1.00800           0
     52259 TIP3     9959     TIP3     H2       HT       0.417000       1.00800           0
     52260 TIP3     9960     TIP3     OH2      OT      -0.834000       15.9994           0
     52261 TIP3     9960     TIP3     H1       HT       0.417000       1.00800           0
     52262 TIP3     9960     TIP3     H2       HT       0.417000       1.00800           0
     52263 TIP3     9961     TIP3     OH2      OT      -0.834000       15.9994           0
     52264 TIP3     9961     TIP3     H1       HT       0.417000       1.00800           0
     52265 TIP3     9961     TIP3     H2       HT       0.417000       1.00800           0
     52266 TIP3     9962     TIP3     OH2      OT      -0.834000       15.9994           0
     52267 TIP3     9962     TIP3     H1       HT       0.417000       1.00800           0
     52268 TIP3     9962     TIP3     H2       HT       0.417000       1.00800           0
     52269 TIP3     9963     TIP3     OH2      OT      -0.834000       15.9994           0
     52270 TIP3     9963     TIP3     H1       HT       0.417000       1.00800           0
     52271 TIP3     9963     TIP3     H2       HT       0.417000       1.00800           0
     52272 TIP3     9964     TIP3     OH2      OT      -0.834000       15.9994           0
     52273 TIP3     9964     TIP3     H1       HT       0.417000       1.00800           0
     52274 TIP3     9964     TIP3     H2       HT       0.417000       1.00800           0
     52275 TIP3     9965     TIP3     OH2      OT      -0.834000       15.9994           0
     52276 TIP3     9965     TIP3     H1       HT       0.417000       1.00800           0
     52277 TIP3     9965     TIP3     H2       HT       0.417000       1.00800           0
     52278 TIP3     9966     TIP3     OH2      OT      -0.834000       15.9994           0
     52279 TIP3     9966     TIP3     H1       HT       0.417000       1.00800           0
     52280 TIP3     9966     TIP3     H2       HT       0.417000       1.00800           0
     52281 TIP3     9967     TIP3     OH2      OT      -0.834000       15.9994           0
     52282 TIP3     9967     TIP3     H1       HT       0.417000       1.00800           0
     52283 TIP3     9967     TIP3     H2       HT       0.417000       1.00800           0
     52284 TIP3     9968     TIP3     OH2      OT      -0.834000       15.9994           0
     52285 TIP3     9968     TIP3     H1       HT       0.417000       1.00800           0
     52286 TIP3     9968     TIP3     H2       HT       0.417000       1.00800           0
     52287 TIP3     9969     TIP3     OH2      OT      -0.834000       15.9994           0
     52288 TIP3     9969     TIP3     H1       HT       0.417000       1.00800           0
     52289 TIP3     9969     TIP3     H2       HT       0.417000       1.00800           0
     52290 TIP3     9970     TIP3     OH2      OT      -0.834000       15.9994           0
     52291 TIP3     9970     TIP3     H1       HT       0.417000       1.00800           0
     52292 TIP3     9970     TIP3     H2       HT       0.417000       1.00800           0
     52293 TIP3     9971     TIP3     OH2      OT      -0.834000       15.9994           0
     52294 TIP3     9971     TIP3     H1       HT       0.417000       1.00800           0
     52295 TIP3     9971     TIP3     H2       HT       0.417000       1.00800           0
     52296 TIP3     9972     TIP3     OH2      OT      -0.834000       15.9994           0
     52297 TIP3     9972     TIP3     H1       HT       0.417000       1.00800           0
     52298 TIP3     9972     TIP3     H2       HT       0.417000       1.00800           0
     52299 TIP3     9973     TIP3     OH2      OT      -0.834000       15.9994           0
     52300 TIP3     9973     TIP3     H1       HT       0.417000       1.00800           0
     52301 TIP3     9973     TIP3     H2       HT       0.417000       1.00800           0
     52302 TIP3     9974     TIP3     OH2      OT      -0.834000       15.9994           0
     52303 TIP3     9974     TIP3     H1       HT       0.417000       1.00800           0
     52304 TIP3     9974     TIP3     H2       HT       0.417000       1.00800           0
     52305 TIP3     9975     TIP3     OH2      OT      -0.834000       15.9994           0
     52306 TIP3     9975     TIP3     H1       HT       0.417000       1.00800           0
     52307 TIP3     9975     TIP3     H2       HT       0.417000       1.00800           0
     52308 TIP3     9976     TIP3     OH2      OT      -0.834000       15.9994           0
     52309 TIP3     9976     TIP3     H1       HT       0.417000       1.00800           0
     52310 TIP3     9976     TIP3     H2       HT       0.417000       1.00800           0
     52311 TIP3     9977     TIP3     OH2      OT      -0.834000       15.9994           0
     52312 TIP3     9977     TIP3     H1       HT       0.417000       1.00800           0
     52313 TIP3     9977     TIP3     H2       HT       0.417000       1.00800           0
     52314 TIP3     9978     TIP3     OH2      OT      -0.834000       15.9994           0
     52315 TIP3     9978     TIP3     H1       HT       0.417000       1.00800           0
     52316 TIP3     9978     TIP3     H2       HT       0.417000       1.00800           0
     52317 TIP3     9979     TIP3     OH2      OT      -0.834000       15.9994           0
     52318 TIP3     9979     TIP3     H1       HT       0.417000       1.00800           0
     52319 TIP3     9979     TIP3     H2       HT       0.417000       1.00800           0
     52320 TIP3     9980     TIP3     OH2      OT      -0.834000       15.9994           0
     52321 TIP3     9980     TIP3     H1       HT       0.417000       1.00800           0
     52322 TIP3     9980     TIP3     H2       HT       0.417000       1.00800           0
     52323 TIP3     9981     TIP3     OH2      OT      -0.834000       15.9994           0
     52324 TIP3     9981     TIP3     H1       HT       0.417000       1.00800           0
     52325 TIP3     9981     TIP3     H2       HT       0.417000       1.00800           0
     52326 TIP3     9982     TIP3     OH2      OT      -0.834000       15.9994           0
     52327 TIP3     9982     TIP3     H1       HT       0.417000       1.00800           0
     52328 TIP3     9982     TIP3     H2       HT       0.417000       1.00800           0
     52329 TIP3     9983     TIP3     OH2      OT      -0.834000       15.9994           0
     52330 TIP3     9983     TIP3     H1       HT       0.417000       1.00800           0
     52331 TIP3     9983     TIP3     H2       HT       0.417000       1.00800           0
     52332 TIP3     9984     TIP3     OH2      OT      -0.834000       15.9994           0
     52333 TIP3     9984     TIP3     H1       HT       0.417000       1.00800           0
     52334 TIP3     9984     TIP3     H2       HT       0.417000       1.00800           0
     52335 TIP3     9985     TIP3     OH2      OT      -0.834000       15.9994           0
     52336 TIP3     9985     TIP3     H1       HT       0.417000       1.00800           0
     52337 TIP3     9985     TIP3     H2       HT       0.417000       1.00800           0
     52338 TIP3     9986     TIP3     OH2      OT      -0.834000       15.9994           0
     52339 TIP3     9986     TIP3     H1       HT       0.417000       1.00800           0
     52340 TIP3     9986     TIP3     H2       HT       0.417000       1.00800           0
     52341 TIP3     9987     TIP3     OH2      OT      -0.834000       15.9994           0
     52342 TIP3     9987     TIP3     H1       HT       0.417000       1.00800           0
     52343 TIP3     9987     TIP3     H2       HT       0.417000       1.00800           0
     52344 TIP3     9988     TIP3     OH2      OT      -0.834000       15.9994           0
     52345 TIP3     9988     TIP3     H1       HT       0.417000       1.00800           0
     52346 TIP3     9988     TIP3     H2       HT       0.417000       1.00800           0
     52347 TIP3     9989     TIP3     OH2      OT      -0.834000       15.9994           0
     52348 TIP3     9989     TIP3     H1       HT       0.417000       1.00800           0
     52349 TIP3     9989     TIP3     H2       HT       0.417000       1.00800           0
     52350 TIP3     9990     TIP3     OH2      OT      -0.834000       15.9994           0
     52351 TIP3     9990     TIP3     H1       HT       0.417000       1.00800           0
     52352 TIP3     9990     TIP3     H2       HT       0.417000       1.00800           0
     52353 TIP3     9991     TIP3     OH2      OT      -0.834000       15.9994           0
     52354 TIP3     9991     TIP3     H1       HT       0.417000       1.00800           0
     52355 TIP3     9991     TIP3     H2       HT       0.417000       1.00800           0
     52356 TIP3     9992     TIP3     OH2      OT      -0.834000       15.9994           0
     52357 TIP3     9992     TIP3     H1       HT       0.417000       1.00800           0
     52358 TIP3     9992     TIP3     H2       HT       0.417000       1.00800           0
     52359 TIP3     9993     TIP3     OH2      OT      -0.834000       15.9994           0
     52360 TIP3     9993     TIP3     H1       HT       0.417000       1.00800           0
     52361 TIP3     9993     TIP3     H2       HT       0.417000       1.00800           0
     52362 TIP3     9994     TIP3     OH2      OT      -0.834000       15.9994           0
     52363 TIP3     9994     TIP3     H1       HT       0.417000       1.00800           0
     52364 TIP3     9994     TIP3     H2       HT       0.417000       1.00800           0
     52365 TIP3     9995     TIP3     OH2      OT      -0.834000       15.9994           0
     52366 TIP3     9995     TIP3     H1       HT       0.417000       1.00800           0
     52367 TIP3     9995     TIP3     H2       HT       0.417000       1.00800           0
     52368 TIP3     9996     TIP3     OH2      OT      -0.834000       15.9994           0
     52369 TIP3     9996     TIP3     H1       HT       0.417000       1.00800           0
     52370 TIP3     9996     TIP3     H2       HT       0.417000       1.00800           0
     52371 TIP3     9997     TIP3     OH2      OT      -0.834000       15.9994           0
     52372 TIP3     9997     TIP3     H1       HT       0.417000       1.00800           0
     52373 TIP3     9997     TIP3     H2       HT       0.417000       1.00800           0
     52374 TIP3     9998     TIP3     OH2      OT      -0.834000       15.9994           0
     52375 TIP3     9998     TIP3     H1       HT       0.417000       1.00800           0
     52376 TIP3     9998     TIP3     H2       HT       0.417000       1.00800           0
     52377 TIP3     9999     TIP3     OH2      OT      -0.834000       15.9994           0
     52378 TIP3     9999     TIP3     H1       HT       0.417000       1.00800           0
     52379 TIP3     9999     TIP3     H2       HT       0.417000       1.00800           0
     52380 TIP3     10000    TIP3     OH2      OT      -0.834000       15.9994           0
     52381 TIP3     10000    TIP3     H1       HT       0.417000       1.00800           0
     52382 TIP3     10000    TIP3     H2       HT       0.417000       1.00800           0
     52383 TIP3     10001    TIP3     OH2      OT      -0.834000       15.9994           0
     52384 TIP3     10001    TIP3     H1       HT       0.417000       1.00800           0
     52385 TIP3     10001    TIP3     H2       HT       0.417000       1.00800           0
     52386 TIP3     10002    TIP3     OH2      OT      -0.834000       15.9994           0
     52387 TIP3     10002    TIP3     H1       HT       0.417000       1.00800           0
     52388 TIP3     10002    TIP3     H2       HT       0.417000       1.00800           0
     52389 TIP3     10003    TIP3     OH2      OT      -0.834000       15.9994           0
     52390 TIP3     10003    TIP3     H1       HT       0.417000       1.00800           0
     52391 TIP3     10003    TIP3     H2       HT       0.417000       1.00800           0
     52392 TIP3     10004    TIP3     OH2      OT      -0.834000       15.9994           0
     52393 TIP3     10004    TIP3     H1       HT       0.417000       1.00800           0
     52394 TIP3     10004    TIP3     H2       HT       0.417000       1.00800           0
     52395 TIP3     10005    TIP3     OH2      OT      -0.834000       15.9994           0
     52396 TIP3     10005    TIP3     H1       HT       0.417000       1.00800           0
     52397 TIP3     10005    TIP3     H2       HT       0.417000       1.00800           0
     52398 TIP3     10006    TIP3     OH2      OT      -0.834000       15.9994           0
     52399 TIP3     10006    TIP3     H1       HT       0.417000       1.00800           0
     52400 TIP3     10006    TIP3     H2       HT       0.417000       1.00800           0
     52401 TIP3     10007    TIP3     OH2      OT      -0.834000       15.9994           0
     52402 TIP3     10007    TIP3     H1       HT       0.417000       1.00800           0
     52403 TIP3     10007    TIP3     H2       HT       0.417000       1.00800           0
     52404 TIP3     10008    TIP3     OH2      OT      -0.834000       15.9994           0
     52405 TIP3     10008    TIP3     H1       HT       0.417000       1.00800           0
     52406 TIP3     10008    TIP3     H2       HT       0.417000       1.00800           0
     52407 TIP3     10009    TIP3     OH2      OT      -0.834000       15.9994           0
     52408 TIP3     10009    TIP3     H1       HT       0.417000       1.00800           0
     52409 TIP3     10009    TIP3     H2       HT       0.417000       1.00800           0
     52410 TIP3     10010    TIP3     OH2      OT      -0.834000       15.9994           0
     52411 TIP3     10010    TIP3     H1       HT       0.417000       1.00800           0
     52412 TIP3     10010    TIP3     H2       HT       0.417000       1.00800           0
     52413 TIP3     10011    TIP3     OH2      OT      -0.834000       15.9994           0
     52414 TIP3     10011    TIP3     H1       HT       0.417000       1.00800           0
     52415 TIP3     10011    TIP3     H2       HT       0.417000       1.00800           0
     52416 TIP3     10012    TIP3     OH2      OT      -0.834000       15.9994           0
     52417 TIP3     10012    TIP3     H1       HT       0.417000       1.00800           0
     52418 TIP3     10012    TIP3     H2       HT       0.417000       1.00800           0
     52419 TIP3     10013    TIP3     OH2      OT      -0.834000       15.9994           0
     52420 TIP3     10013    TIP3     H1       HT       0.417000       1.00800           0
     52421 TIP3     10013    TIP3     H2       HT       0.417000       1.00800           0
     52422 TIP3     10014    TIP3     OH2      OT      -0.834000       15.9994           0
     52423 TIP3     10014    TIP3     H1       HT       0.417000       1.00800           0
     52424 TIP3     10014    TIP3     H2       HT       0.417000       1.00800           0
     52425 TIP3     10015    TIP3     OH2      OT      -0.834000       15.9994           0
     52426 TIP3     10015    TIP3     H1       HT       0.417000       1.00800           0
     52427 TIP3     10015    TIP3     H2       HT       0.417000       1.00800           0
     52428 TIP3     10016    TIP3     OH2      OT      -0.834000       15.9994           0
     52429 TIP3     10016    TIP3     H1       HT       0.417000       1.00800           0
     52430 TIP3     10016    TIP3     H2       HT       0.417000       1.00800           0
     52431 TIP3     10017    TIP3     OH2      OT      -0.834000       15.9994           0
     52432 TIP3     10017    TIP3     H1       HT       0.417000       1.00800           0
     52433 TIP3     10017    TIP3     H2       HT       0.417000       1.00800           0
     52434 TIP3     10018    TIP3     OH2      OT      -0.834000       15.9994           0
     52435 TIP3     10018    TIP3     H1       HT       0.417000       1.00800           0
     52436 TIP3     10018    TIP3     H2       HT       0.417000       1.00800           0
     52437 TIP3     10019    TIP3     OH2      OT      -0.834000       15.9994           0
     52438 TIP3     10019    TIP3     H1       HT       0.417000       1.00800           0
     52439 TIP3     10019    TIP3     H2       HT       0.417000       1.00800           0
     52440 TIP3     10020    TIP3     OH2      OT      -0.834000       15.9994           0
     52441 TIP3     10020    TIP3     H1       HT       0.417000       1.00800           0
     52442 TIP3     10020    TIP3     H2       HT       0.417000       1.00800           0
     52443 TIP3     10021    TIP3     OH2      OT      -0.834000       15.9994           0
     52444 TIP3     10021    TIP3     H1       HT       0.417000       1.00800           0
     52445 TIP3     10021    TIP3     H2       HT       0.417000       1.00800           0
     52446 TIP3     10022    TIP3     OH2      OT      -0.834000       15.9994           0
     52447 TIP3     10022    TIP3     H1       HT       0.417000       1.00800           0
     52448 TIP3     10022    TIP3     H2       HT       0.417000       1.00800           0
     52449 TIP3     10023    TIP3     OH2      OT      -0.834000       15.9994           0
     52450 TIP3     10023    TIP3     H1       HT       0.417000       1.00800           0
     52451 TIP3     10023    TIP3     H2       HT       0.417000       1.00800           0
     52452 TIP3     10024    TIP3     OH2      OT      -0.834000       15.9994           0
     52453 TIP3     10024    TIP3     H1       HT       0.417000       1.00800           0
     52454 TIP3     10024    TIP3     H2       HT       0.417000       1.00800           0
     52455 TIP3     10025    TIP3     OH2      OT      -0.834000       15.9994           0
     52456 TIP3     10025    TIP3     H1       HT       0.417000       1.00800           0
     52457 TIP3     10025    TIP3     H2       HT       0.417000       1.00800           0
     52458 TIP3     10026    TIP3     OH2      OT      -0.834000       15.9994           0
     52459 TIP3     10026    TIP3     H1       HT       0.417000       1.00800           0
     52460 TIP3     10026    TIP3     H2       HT       0.417000       1.00800           0
     52461 TIP3     10027    TIP3     OH2      OT      -0.834000       15.9994           0
     52462 TIP3     10027    TIP3     H1       HT       0.417000       1.00800           0
     52463 TIP3     10027    TIP3     H2       HT       0.417000       1.00800           0
     52464 TIP3     10028    TIP3     OH2      OT      -0.834000       15.9994           0
     52465 TIP3     10028    TIP3     H1       HT       0.417000       1.00800           0
     52466 TIP3     10028    TIP3     H2       HT       0.417000       1.00800           0
     52467 TIP3     10029    TIP3     OH2      OT      -0.834000       15.9994           0
     52468 TIP3     10029    TIP3     H1       HT       0.417000       1.00800           0
     52469 TIP3     10029    TIP3     H2       HT       0.417000       1.00800           0
     52470 TIP3     10030    TIP3     OH2      OT      -0.834000       15.9994           0
     52471 TIP3     10030    TIP3     H1       HT       0.417000       1.00800           0
     52472 TIP3     10030    TIP3     H2       HT       0.417000       1.00800           0
     52473 TIP3     10031    TIP3     OH2      OT      -0.834000       15.9994           0
     52474 TIP3     10031    TIP3     H1       HT       0.417000       1.00800           0
     52475 TIP3     10031    TIP3     H2       HT       0.417000       1.00800           0
     52476 TIP3     10032    TIP3     OH2      OT      -0.834000       15.9994           0
     52477 TIP3     10032    TIP3     H1       HT       0.417000       1.00800           0
     52478 TIP3     10032    TIP3     H2       HT       0.417000       1.00800           0
     52479 TIP3     10033    TIP3     OH2      OT      -0.834000       15.9994           0
     52480 TIP3     10033    TIP3     H1       HT       0.417000       1.00800           0
     52481 TIP3     10033    TIP3     H2       HT       0.417000       1.00800           0
     52482 TIP3     10034    TIP3     OH2      OT      -0.834000       15.9994           0
     52483 TIP3     10034    TIP3     H1       HT       0.417000       1.00800           0
     52484 TIP3     10034    TIP3     H2       HT       0.417000       1.00800           0
     52485 TIP3     10035    TIP3     OH2      OT      -0.834000       15.9994           0
     52486 TIP3     10035    TIP3     H1       HT       0.417000       1.00800           0
     52487 TIP3     10035    TIP3     H2       HT       0.417000       1.00800           0
     52488 TIP3     10036    TIP3     OH2      OT      -0.834000       15.9994           0
     52489 TIP3     10036    TIP3     H1       HT       0.417000       1.00800           0
     52490 TIP3     10036    TIP3     H2       HT       0.417000       1.00800           0
     52491 TIP3     10037    TIP3     OH2      OT      -0.834000       15.9994           0
     52492 TIP3     10037    TIP3     H1       HT       0.417000       1.00800           0
     52493 TIP3     10037    TIP3     H2       HT       0.417000       1.00800           0
     52494 TIP3     10038    TIP3     OH2      OT      -0.834000       15.9994           0
     52495 TIP3     10038    TIP3     H1       HT       0.417000       1.00800           0
     52496 TIP3     10038    TIP3     H2       HT       0.417000       1.00800           0
     52497 TIP3     10039    TIP3     OH2      OT      -0.834000       15.9994           0
     52498 TIP3     10039    TIP3     H1       HT       0.417000       1.00800           0
     52499 TIP3     10039    TIP3     H2       HT       0.417000       1.00800           0
     52500 TIP3     10040    TIP3     OH2      OT      -0.834000       15.9994           0
     52501 TIP3     10040    TIP3     H1       HT       0.417000       1.00800           0
     52502 TIP3     10040    TIP3     H2       HT       0.417000       1.00800           0
     52503 TIP3     10041    TIP3     OH2      OT      -0.834000       15.9994           0
     52504 TIP3     10041    TIP3     H1       HT       0.417000       1.00800           0
     52505 TIP3     10041    TIP3     H2       HT       0.417000       1.00800           0
     52506 TIP3     10042    TIP3     OH2      OT      -0.834000       15.9994           0
     52507 TIP3     10042    TIP3     H1       HT       0.417000       1.00800           0
     52508 TIP3     10042    TIP3     H2       HT       0.417000       1.00800           0
     52509 TIP3     10043    TIP3     OH2      OT      -0.834000       15.9994           0
     52510 TIP3     10043    TIP3     H1       HT       0.417000       1.00800           0
     52511 TIP3     10043    TIP3     H2       HT       0.417000       1.00800           0
     52512 TIP3     10044    TIP3     OH2      OT      -0.834000       15.9994           0
     52513 TIP3     10044    TIP3     H1       HT       0.417000       1.00800           0
     52514 TIP3     10044    TIP3     H2       HT       0.417000       1.00800           0
     52515 TIP3     10045    TIP3     OH2      OT      -0.834000       15.9994           0
     52516 TIP3     10045    TIP3     H1       HT       0.417000       1.00800           0
     52517 TIP3     10045    TIP3     H2       HT       0.417000       1.00800           0
     52518 TIP3     10046    TIP3     OH2      OT      -0.834000       15.9994           0
     52519 TIP3     10046    TIP3     H1       HT       0.417000       1.00800           0
     52520 TIP3     10046    TIP3     H2       HT       0.417000       1.00800           0
     52521 TIP3     10047    TIP3     OH2      OT      -0.834000       15.9994           0
     52522 TIP3     10047    TIP3     H1       HT       0.417000       1.00800           0
     52523 TIP3     10047    TIP3     H2       HT       0.417000       1.00800           0
     52524 TIP3     10048    TIP3     OH2      OT      -0.834000       15.9994           0
     52525 TIP3     10048    TIP3     H1       HT       0.417000       1.00800           0
     52526 TIP3     10048    TIP3     H2       HT       0.417000       1.00800           0
     52527 TIP3     10049    TIP3     OH2      OT      -0.834000       15.9994           0
     52528 TIP3     10049    TIP3     H1       HT       0.417000       1.00800           0
     52529 TIP3     10049    TIP3     H2       HT       0.417000       1.00800           0
     52530 TIP3     10050    TIP3     OH2      OT      -0.834000       15.9994           0
     52531 TIP3     10050    TIP3     H1       HT       0.417000       1.00800           0
     52532 TIP3     10050    TIP3     H2       HT       0.417000       1.00800           0
     52533 TIP3     10051    TIP3     OH2      OT      -0.834000       15.9994           0
     52534 TIP3     10051    TIP3     H1       HT       0.417000       1.00800           0
     52535 TIP3     10051    TIP3     H2       HT       0.417000       1.00800           0
     52536 TIP3     10052    TIP3     OH2      OT      -0.834000       15.9994           0
     52537 TIP3     10052    TIP3     H1       HT       0.417000       1.00800           0
     52538 TIP3     10052    TIP3     H2       HT       0.417000       1.00800           0
     52539 TIP3     10053    TIP3     OH2      OT      -0.834000       15.9994           0
     52540 TIP3     10053    TIP3     H1       HT       0.417000       1.00800           0
     52541 TIP3     10053    TIP3     H2       HT       0.417000       1.00800           0
     52542 TIP3     10054    TIP3     OH2      OT      -0.834000       15.9994           0
     52543 TIP3     10054    TIP3     H1       HT       0.417000       1.00800           0
     52544 TIP3     10054    TIP3     H2       HT       0.417000       1.00800           0
     52545 TIP3     10055    TIP3     OH2      OT      -0.834000       15.9994           0
     52546 TIP3     10055    TIP3     H1       HT       0.417000       1.00800           0
     52547 TIP3     10055    TIP3     H2       HT       0.417000       1.00800           0
     52548 TIP3     10056    TIP3     OH2      OT      -0.834000       15.9994           0
     52549 TIP3     10056    TIP3     H1       HT       0.417000       1.00800           0
     52550 TIP3     10056    TIP3     H2       HT       0.417000       1.00800           0
     52551 TIP3     10057    TIP3     OH2      OT      -0.834000       15.9994           0
     52552 TIP3     10057    TIP3     H1       HT       0.417000       1.00800           0
     52553 TIP3     10057    TIP3     H2       HT       0.417000       1.00800           0
     52554 TIP3     10058    TIP3     OH2      OT      -0.834000       15.9994           0
     52555 TIP3     10058    TIP3     H1       HT       0.417000       1.00800           0
     52556 TIP3     10058    TIP3     H2       HT       0.417000       1.00800           0
     52557 TIP3     10059    TIP3     OH2      OT      -0.834000       15.9994           0
     52558 TIP3     10059    TIP3     H1       HT       0.417000       1.00800           0
     52559 TIP3     10059    TIP3     H2       HT       0.417000       1.00800           0
     52560 TIP3     10060    TIP3     OH2      OT      -0.834000       15.9994           0
     52561 TIP3     10060    TIP3     H1       HT       0.417000       1.00800           0
     52562 TIP3     10060    TIP3     H2       HT       0.417000       1.00800           0
     52563 TIP3     10061    TIP3     OH2      OT      -0.834000       15.9994           0
     52564 TIP3     10061    TIP3     H1       HT       0.417000       1.00800           0
     52565 TIP3     10061    TIP3     H2       HT       0.417000       1.00800           0
     52566 TIP3     10062    TIP3     OH2      OT      -0.834000       15.9994           0
     52567 TIP3     10062    TIP3     H1       HT       0.417000       1.00800           0
     52568 TIP3     10062    TIP3     H2       HT       0.417000       1.00800           0
     52569 TIP3     10063    TIP3     OH2      OT      -0.834000       15.9994           0
     52570 TIP3     10063    TIP3     H1       HT       0.417000       1.00800           0
     52571 TIP3     10063    TIP3     H2       HT       0.417000       1.00800           0
     52572 TIP3     10064    TIP3     OH2      OT      -0.834000       15.9994           0
     52573 TIP3     10064    TIP3     H1       HT       0.417000       1.00800           0
     52574 TIP3     10064    TIP3     H2       HT       0.417000       1.00800           0
     52575 TIP3     10065    TIP3     OH2      OT      -0.834000       15.9994           0
     52576 TIP3     10065    TIP3     H1       HT       0.417000       1.00800           0
     52577 TIP3     10065    TIP3     H2       HT       0.417000       1.00800           0
     52578 TIP3     10066    TIP3     OH2      OT      -0.834000       15.9994           0
     52579 TIP3     10066    TIP3     H1       HT       0.417000       1.00800           0
     52580 TIP3     10066    TIP3     H2       HT       0.417000       1.00800           0
     52581 TIP3     10067    TIP3     OH2      OT      -0.834000       15.9994           0
     52582 TIP3     10067    TIP3     H1       HT       0.417000       1.00800           0
     52583 TIP3     10067    TIP3     H2       HT       0.417000       1.00800           0
     52584 TIP3     10068    TIP3     OH2      OT      -0.834000       15.9994           0
     52585 TIP3     10068    TIP3     H1       HT       0.417000       1.00800           0
     52586 TIP3     10068    TIP3     H2       HT       0.417000       1.00800           0
     52587 TIP3     10069    TIP3     OH2      OT      -0.834000       15.9994           0
     52588 TIP3     10069    TIP3     H1       HT       0.417000       1.00800           0
     52589 TIP3     10069    TIP3     H2       HT       0.417000       1.00800           0
     52590 TIP3     10070    TIP3     OH2      OT      -0.834000       15.9994           0
     52591 TIP3     10070    TIP3     H1       HT       0.417000       1.00800           0
     52592 TIP3     10070    TIP3     H2       HT       0.417000       1.00800           0
     52593 TIP3     10071    TIP3     OH2      OT      -0.834000       15.9994           0
     52594 TIP3     10071    TIP3     H1       HT       0.417000       1.00800           0
     52595 TIP3     10071    TIP3     H2       HT       0.417000       1.00800           0
     52596 TIP3     10072    TIP3     OH2      OT      -0.834000       15.9994           0
     52597 TIP3     10072    TIP3     H1       HT       0.417000       1.00800           0
     52598 TIP3     10072    TIP3     H2       HT       0.417000       1.00800           0
     52599 TIP3     10073    TIP3     OH2      OT      -0.834000       15.9994           0
     52600 TIP3     10073    TIP3     H1       HT       0.417000       1.00800           0
     52601 TIP3     10073    TIP3     H2       HT       0.417000       1.00800           0
     52602 TIP3     10074    TIP3     OH2      OT      -0.834000       15.9994           0
     52603 TIP3     10074    TIP3     H1       HT       0.417000       1.00800           0
     52604 TIP3     10074    TIP3     H2       HT       0.417000       1.00800           0
     52605 TIP3     10075    TIP3     OH2      OT      -0.834000       15.9994           0
     52606 TIP3     10075    TIP3     H1       HT       0.417000       1.00800           0
     52607 TIP3     10075    TIP3     H2       HT       0.417000       1.00800           0
     52608 TIP3     10076    TIP3     OH2      OT      -0.834000       15.9994           0
     52609 TIP3     10076    TIP3     H1       HT       0.417000       1.00800           0
     52610 TIP3     10076    TIP3     H2       HT       0.417000       1.00800           0
     52611 TIP3     10077    TIP3     OH2      OT      -0.834000       15.9994           0
     52612 TIP3     10077    TIP3     H1       HT       0.417000       1.00800           0
     52613 TIP3     10077    TIP3     H2       HT       0.417000       1.00800           0
     52614 TIP3     10078    TIP3     OH2      OT      -0.834000       15.9994           0
     52615 TIP3     10078    TIP3     H1       HT       0.417000       1.00800           0
     52616 TIP3     10078    TIP3     H2       HT       0.417000       1.00800           0
     52617 TIP3     10079    TIP3     OH2      OT      -0.834000       15.9994           0
     52618 TIP3     10079    TIP3     H1       HT       0.417000       1.00800           0
     52619 TIP3     10079    TIP3     H2       HT       0.417000       1.00800           0
     52620 TIP3     10080    TIP3     OH2      OT      -0.834000       15.9994           0
     52621 TIP3     10080    TIP3     H1       HT       0.417000       1.00800           0
     52622 TIP3     10080    TIP3     H2       HT       0.417000       1.00800           0
     52623 TIP3     10081    TIP3     OH2      OT      -0.834000       15.9994           0
     52624 TIP3     10081    TIP3     H1       HT       0.417000       1.00800           0
     52625 TIP3     10081    TIP3     H2       HT       0.417000       1.00800           0
     52626 TIP3     10082    TIP3     OH2      OT      -0.834000       15.9994           0
     52627 TIP3     10082    TIP3     H1       HT       0.417000       1.00800           0
     52628 TIP3     10082    TIP3     H2       HT       0.417000       1.00800           0
     52629 TIP3     10083    TIP3     OH2      OT      -0.834000       15.9994           0
     52630 TIP3     10083    TIP3     H1       HT       0.417000       1.00800           0
     52631 TIP3     10083    TIP3     H2       HT       0.417000       1.00800           0
     52632 TIP3     10084    TIP3     OH2      OT      -0.834000       15.9994           0
     52633 TIP3     10084    TIP3     H1       HT       0.417000       1.00800           0
     52634 TIP3     10084    TIP3     H2       HT       0.417000       1.00800           0
     52635 TIP3     10085    TIP3     OH2      OT      -0.834000       15.9994           0
     52636 TIP3     10085    TIP3     H1       HT       0.417000       1.00800           0
     52637 TIP3     10085    TIP3     H2       HT       0.417000       1.00800           0
     52638 TIP3     10086    TIP3     OH2      OT      -0.834000       15.9994           0
     52639 TIP3     10086    TIP3     H1       HT       0.417000       1.00800           0
     52640 TIP3     10086    TIP3     H2       HT       0.417000       1.00800           0
     52641 TIP3     10087    TIP3     OH2      OT      -0.834000       15.9994           0
     52642 TIP3     10087    TIP3     H1       HT       0.417000       1.00800           0
     52643 TIP3     10087    TIP3     H2       HT       0.417000       1.00800           0
     52644 TIP3     10088    TIP3     OH2      OT      -0.834000       15.9994           0
     52645 TIP3     10088    TIP3     H1       HT       0.417000       1.00800           0
     52646 TIP3     10088    TIP3     H2       HT       0.417000       1.00800           0
     52647 TIP3     10089    TIP3     OH2      OT      -0.834000       15.9994           0
     52648 TIP3     10089    TIP3     H1       HT       0.417000       1.00800           0
     52649 TIP3     10089    TIP3     H2       HT       0.417000       1.00800           0
     52650 TIP3     10090    TIP3     OH2      OT      -0.834000       15.9994           0
     52651 TIP3     10090    TIP3     H1       HT       0.417000       1.00800           0
     52652 TIP3     10090    TIP3     H2       HT       0.417000       1.00800           0
     52653 TIP3     10091    TIP3     OH2      OT      -0.834000       15.9994           0
     52654 TIP3     10091    TIP3     H1       HT       0.417000       1.00800           0
     52655 TIP3     10091    TIP3     H2       HT       0.417000       1.00800           0
     52656 TIP3     10092    TIP3     OH2      OT      -0.834000       15.9994           0
     52657 TIP3     10092    TIP3     H1       HT       0.417000       1.00800           0
     52658 TIP3     10092    TIP3     H2       HT       0.417000       1.00800           0
     52659 TIP3     10093    TIP3     OH2      OT      -0.834000       15.9994           0
     52660 TIP3     10093    TIP3     H1       HT       0.417000       1.00800           0
     52661 TIP3     10093    TIP3     H2       HT       0.417000       1.00800           0
     52662 TIP3     10094    TIP3     OH2      OT      -0.834000       15.9994           0
     52663 TIP3     10094    TIP3     H1       HT       0.417000       1.00800           0
     52664 TIP3     10094    TIP3     H2       HT       0.417000       1.00800           0
     52665 TIP3     10095    TIP3     OH2      OT      -0.834000       15.9994           0
     52666 TIP3     10095    TIP3     H1       HT       0.417000       1.00800           0
     52667 TIP3     10095    TIP3     H2       HT       0.417000       1.00800           0
     52668 TIP3     10096    TIP3     OH2      OT      -0.834000       15.9994           0
     52669 TIP3     10096    TIP3     H1       HT       0.417000       1.00800           0
     52670 TIP3     10096    TIP3     H2       HT       0.417000       1.00800           0
     52671 TIP3     10097    TIP3     OH2      OT      -0.834000       15.9994           0
     52672 TIP3     10097    TIP3     H1       HT       0.417000       1.00800           0
     52673 TIP3     10097    TIP3     H2       HT       0.417000       1.00800           0
     52674 TIP3     10098    TIP3     OH2      OT      -0.834000       15.9994           0
     52675 TIP3     10098    TIP3     H1       HT       0.417000       1.00800           0
     52676 TIP3     10098    TIP3     H2       HT       0.417000       1.00800           0
     52677 TIP3     10099    TIP3     OH2      OT      -0.834000       15.9994           0
     52678 TIP3     10099    TIP3     H1       HT       0.417000       1.00800           0
     52679 TIP3     10099    TIP3     H2       HT       0.417000       1.00800           0
     52680 TIP3     10100    TIP3     OH2      OT      -0.834000       15.9994           0
     52681 TIP3     10100    TIP3     H1       HT       0.417000       1.00800           0
     52682 TIP3     10100    TIP3     H2       HT       0.417000       1.00800           0
     52683 TIP3     10101    TIP3     OH2      OT      -0.834000       15.9994           0
     52684 TIP3     10101    TIP3     H1       HT       0.417000       1.00800           0
     52685 TIP3     10101    TIP3     H2       HT       0.417000       1.00800           0
     52686 TIP3     10102    TIP3     OH2      OT      -0.834000       15.9994           0
     52687 TIP3     10102    TIP3     H1       HT       0.417000       1.00800           0
     52688 TIP3     10102    TIP3     H2       HT       0.417000       1.00800           0
     52689 TIP3     10103    TIP3     OH2      OT      -0.834000       15.9994           0
     52690 TIP3     10103    TIP3     H1       HT       0.417000       1.00800           0
     52691 TIP3     10103    TIP3     H2       HT       0.417000       1.00800           0
     52692 TIP3     10104    TIP3     OH2      OT      -0.834000       15.9994           0
     52693 TIP3     10104    TIP3     H1       HT       0.417000       1.00800           0
     52694 TIP3     10104    TIP3     H2       HT       0.417000       1.00800           0
     52695 TIP3     10105    TIP3     OH2      OT      -0.834000       15.9994           0
     52696 TIP3     10105    TIP3     H1       HT       0.417000       1.00800           0
     52697 TIP3     10105    TIP3     H2       HT       0.417000       1.00800           0
     52698 TIP3     10106    TIP3     OH2      OT      -0.834000       15.9994           0
     52699 TIP3     10106    TIP3     H1       HT       0.417000       1.00800           0
     52700 TIP3     10106    TIP3     H2       HT       0.417000       1.00800           0
     52701 TIP3     10107    TIP3     OH2      OT      -0.834000       15.9994           0
     52702 TIP3     10107    TIP3     H1       HT       0.417000       1.00800           0
     52703 TIP3     10107    TIP3     H2       HT       0.417000       1.00800           0
     52704 TIP3     10108    TIP3     OH2      OT      -0.834000       15.9994           0
     52705 TIP3     10108    TIP3     H1       HT       0.417000       1.00800           0
     52706 TIP3     10108    TIP3     H2       HT       0.417000       1.00800           0
     52707 TIP3     10109    TIP3     OH2      OT      -0.834000       15.9994           0
     52708 TIP3     10109    TIP3     H1       HT       0.417000       1.00800           0
     52709 TIP3     10109    TIP3     H2       HT       0.417000       1.00800           0
     52710 TIP3     10110    TIP3     OH2      OT      -0.834000       15.9994           0
     52711 TIP3     10110    TIP3     H1       HT       0.417000       1.00800           0
     52712 TIP3     10110    TIP3     H2       HT       0.417000       1.00800           0
     52713 TIP3     10111    TIP3     OH2      OT      -0.834000       15.9994           0
     52714 TIP3     10111    TIP3     H1       HT       0.417000       1.00800           0
     52715 TIP3     10111    TIP3     H2       HT       0.417000       1.00800           0
     52716 TIP3     10112    TIP3     OH2      OT      -0.834000       15.9994           0
     52717 TIP3     10112    TIP3     H1       HT       0.417000       1.00800           0
     52718 TIP3     10112    TIP3     H2       HT       0.417000       1.00800           0
     52719 TIP3     10113    TIP3     OH2      OT      -0.834000       15.9994           0
     52720 TIP3     10113    TIP3     H1       HT       0.417000       1.00800           0
     52721 TIP3     10113    TIP3     H2       HT       0.417000       1.00800           0
     52722 TIP3     10114    TIP3     OH2      OT      -0.834000       15.9994           0
     52723 TIP3     10114    TIP3     H1       HT       0.417000       1.00800           0
     52724 TIP3     10114    TIP3     H2       HT       0.417000       1.00800           0
     52725 TIP3     10115    TIP3     OH2      OT      -0.834000       15.9994           0
     52726 TIP3     10115    TIP3     H1       HT       0.417000       1.00800           0
     52727 TIP3     10115    TIP3     H2       HT       0.417000       1.00800           0
     52728 TIP3     10116    TIP3     OH2      OT      -0.834000       15.9994           0
     52729 TIP3     10116    TIP3     H1       HT       0.417000       1.00800           0
     52730 TIP3     10116    TIP3     H2       HT       0.417000       1.00800           0
     52731 TIP3     10117    TIP3     OH2      OT      -0.834000       15.9994           0
     52732 TIP3     10117    TIP3     H1       HT       0.417000       1.00800           0
     52733 TIP3     10117    TIP3     H2       HT       0.417000       1.00800           0
     52734 TIP3     10118    TIP3     OH2      OT      -0.834000       15.9994           0
     52735 TIP3     10118    TIP3     H1       HT       0.417000       1.00800           0
     52736 TIP3     10118    TIP3     H2       HT       0.417000       1.00800           0
     52737 TIP3     10119    TIP3     OH2      OT      -0.834000       15.9994           0
     52738 TIP3     10119    TIP3     H1       HT       0.417000       1.00800           0
     52739 TIP3     10119    TIP3     H2       HT       0.417000       1.00800           0
     52740 TIP3     10120    TIP3     OH2      OT      -0.834000       15.9994           0
     52741 TIP3     10120    TIP3     H1       HT       0.417000       1.00800           0
     52742 TIP3     10120    TIP3     H2       HT       0.417000       1.00800           0
     52743 TIP3     10121    TIP3     OH2      OT      -0.834000       15.9994           0
     52744 TIP3     10121    TIP3     H1       HT       0.417000       1.00800           0
     52745 TIP3     10121    TIP3     H2       HT       0.417000       1.00800           0
     52746 TIP3     10122    TIP3     OH2      OT      -0.834000       15.9994           0
     52747 TIP3     10122    TIP3     H1       HT       0.417000       1.00800           0
     52748 TIP3     10122    TIP3     H2       HT       0.417000       1.00800           0
     52749 TIP3     10123    TIP3     OH2      OT      -0.834000       15.9994           0
     52750 TIP3     10123    TIP3     H1       HT       0.417000       1.00800           0
     52751 TIP3     10123    TIP3     H2       HT       0.417000       1.00800           0
     52752 TIP3     10124    TIP3     OH2      OT      -0.834000       15.9994           0
     52753 TIP3     10124    TIP3     H1       HT       0.417000       1.00800           0
     52754 TIP3     10124    TIP3     H2       HT       0.417000       1.00800           0
     52755 TIP3     10125    TIP3     OH2      OT      -0.834000       15.9994           0
     52756 TIP3     10125    TIP3     H1       HT       0.417000       1.00800           0
     52757 TIP3     10125    TIP3     H2       HT       0.417000       1.00800           0
     52758 TIP3     10126    TIP3     OH2      OT      -0.834000       15.9994           0
     52759 TIP3     10126    TIP3     H1       HT       0.417000       1.00800           0
     52760 TIP3     10126    TIP3     H2       HT       0.417000       1.00800           0
     52761 TIP3     10127    TIP3     OH2      OT      -0.834000       15.9994           0
     52762 TIP3     10127    TIP3     H1       HT       0.417000       1.00800           0
     52763 TIP3     10127    TIP3     H2       HT       0.417000       1.00800           0
     52764 TIP3     10128    TIP3     OH2      OT      -0.834000       15.9994           0
     52765 TIP3     10128    TIP3     H1       HT       0.417000       1.00800           0
     52766 TIP3     10128    TIP3     H2       HT       0.417000       1.00800           0
     52767 TIP3     10129    TIP3     OH2      OT      -0.834000       15.9994           0
     52768 TIP3     10129    TIP3     H1       HT       0.417000       1.00800           0
     52769 TIP3     10129    TIP3     H2       HT       0.417000       1.00800           0
     52770 TIP3     10130    TIP3     OH2      OT      -0.834000       15.9994           0
     52771 TIP3     10130    TIP3     H1       HT       0.417000       1.00800           0
     52772 TIP3     10130    TIP3     H2       HT       0.417000       1.00800           0
     52773 TIP3     10131    TIP3     OH2      OT      -0.834000       15.9994           0
     52774 TIP3     10131    TIP3     H1       HT       0.417000       1.00800           0
     52775 TIP3     10131    TIP3     H2       HT       0.417000       1.00800           0
     52776 TIP3     10132    TIP3     OH2      OT      -0.834000       15.9994           0
     52777 TIP3     10132    TIP3     H1       HT       0.417000       1.00800           0
     52778 TIP3     10132    TIP3     H2       HT       0.417000       1.00800           0
     52779 TIP3     10133    TIP3     OH2      OT      -0.834000       15.9994           0
     52780 TIP3     10133    TIP3     H1       HT       0.417000       1.00800           0
     52781 TIP3     10133    TIP3     H2       HT       0.417000       1.00800           0
     52782 TIP3     10134    TIP3     OH2      OT      -0.834000       15.9994           0
     52783 TIP3     10134    TIP3     H1       HT       0.417000       1.00800           0
     52784 TIP3     10134    TIP3     H2       HT       0.417000       1.00800           0
     52785 TIP3     10135    TIP3     OH2      OT      -0.834000       15.9994           0
     52786 TIP3     10135    TIP3     H1       HT       0.417000       1.00800           0
     52787 TIP3     10135    TIP3     H2       HT       0.417000       1.00800           0
     52788 TIP3     10136    TIP3     OH2      OT      -0.834000       15.9994           0
     52789 TIP3     10136    TIP3     H1       HT       0.417000       1.00800           0
     52790 TIP3     10136    TIP3     H2       HT       0.417000       1.00800           0
     52791 TIP3     10137    TIP3     OH2      OT      -0.834000       15.9994           0
     52792 TIP3     10137    TIP3     H1       HT       0.417000       1.00800           0
     52793 TIP3     10137    TIP3     H2       HT       0.417000       1.00800           0
     52794 TIP3     10138    TIP3     OH2      OT      -0.834000       15.9994           0
     52795 TIP3     10138    TIP3     H1       HT       0.417000       1.00800           0
     52796 TIP3     10138    TIP3     H2       HT       0.417000       1.00800           0
     52797 TIP3     10139    TIP3     OH2      OT      -0.834000       15.9994           0
     52798 TIP3     10139    TIP3     H1       HT       0.417000       1.00800           0
     52799 TIP3     10139    TIP3     H2       HT       0.417000       1.00800           0
     52800 TIP3     10140    TIP3     OH2      OT      -0.834000       15.9994           0
     52801 TIP3     10140    TIP3     H1       HT       0.417000       1.00800           0
     52802 TIP3     10140    TIP3     H2       HT       0.417000       1.00800           0
     52803 TIP3     10141    TIP3     OH2      OT      -0.834000       15.9994           0
     52804 TIP3     10141    TIP3     H1       HT       0.417000       1.00800           0
     52805 TIP3     10141    TIP3     H2       HT       0.417000       1.00800           0
     52806 TIP3     10142    TIP3     OH2      OT      -0.834000       15.9994           0
     52807 TIP3     10142    TIP3     H1       HT       0.417000       1.00800           0
     52808 TIP3     10142    TIP3     H2       HT       0.417000       1.00800           0
     52809 TIP3     10143    TIP3     OH2      OT      -0.834000       15.9994           0
     52810 TIP3     10143    TIP3     H1       HT       0.417000       1.00800           0
     52811 TIP3     10143    TIP3     H2       HT       0.417000       1.00800           0
     52812 TIP3     10144    TIP3     OH2      OT      -0.834000       15.9994           0
     52813 TIP3     10144    TIP3     H1       HT       0.417000       1.00800           0
     52814 TIP3     10144    TIP3     H2       HT       0.417000       1.00800           0
     52815 TIP3     10145    TIP3     OH2      OT      -0.834000       15.9994           0
     52816 TIP3     10145    TIP3     H1       HT       0.417000       1.00800           0
     52817 TIP3     10145    TIP3     H2       HT       0.417000       1.00800           0
     52818 TIP3     10146    TIP3     OH2      OT      -0.834000       15.9994           0
     52819 TIP3     10146    TIP3     H1       HT       0.417000       1.00800           0
     52820 TIP3     10146    TIP3     H2       HT       0.417000       1.00800           0
     52821 TIP3     10147    TIP3     OH2      OT      -0.834000       15.9994           0
     52822 TIP3     10147    TIP3     H1       HT       0.417000       1.00800           0
     52823 TIP3     10147    TIP3     H2       HT       0.417000       1.00800           0
     52824 TIP3     10148    TIP3     OH2      OT      -0.834000       15.9994           0
     52825 TIP3     10148    TIP3     H1       HT       0.417000       1.00800           0
     52826 TIP3     10148    TIP3     H2       HT       0.417000       1.00800           0
     52827 TIP3     10149    TIP3     OH2      OT      -0.834000       15.9994           0
     52828 TIP3     10149    TIP3     H1       HT       0.417000       1.00800           0
     52829 TIP3     10149    TIP3     H2       HT       0.417000       1.00800           0
     52830 TIP3     10150    TIP3     OH2      OT      -0.834000       15.9994           0
     52831 TIP3     10150    TIP3     H1       HT       0.417000       1.00800           0
     52832 TIP3     10150    TIP3     H2       HT       0.417000       1.00800           0
     52833 TIP3     10151    TIP3     OH2      OT      -0.834000       15.9994           0
     52834 TIP3     10151    TIP3     H1       HT       0.417000       1.00800           0
     52835 TIP3     10151    TIP3     H2       HT       0.417000       1.00800           0
     52836 TIP3     10152    TIP3     OH2      OT      -0.834000       15.9994           0
     52837 TIP3     10152    TIP3     H1       HT       0.417000       1.00800           0
     52838 TIP3     10152    TIP3     H2       HT       0.417000       1.00800           0
     52839 TIP3     10153    TIP3     OH2      OT      -0.834000       15.9994           0
     52840 TIP3     10153    TIP3     H1       HT       0.417000       1.00800           0
     52841 TIP3     10153    TIP3     H2       HT       0.417000       1.00800           0
     52842 TIP3     10154    TIP3     OH2      OT      -0.834000       15.9994           0
     52843 TIP3     10154    TIP3     H1       HT       0.417000       1.00800           0
     52844 TIP3     10154    TIP3     H2       HT       0.417000       1.00800           0
     52845 TIP3     10155    TIP3     OH2      OT      -0.834000       15.9994           0
     52846 TIP3     10155    TIP3     H1       HT       0.417000       1.00800           0
     52847 TIP3     10155    TIP3     H2       HT       0.417000       1.00800           0
     52848 TIP3     10156    TIP3     OH2      OT      -0.834000       15.9994           0
     52849 TIP3     10156    TIP3     H1       HT       0.417000       1.00800           0
     52850 TIP3     10156    TIP3     H2       HT       0.417000       1.00800           0
     52851 TIP3     10157    TIP3     OH2      OT      -0.834000       15.9994           0
     52852 TIP3     10157    TIP3     H1       HT       0.417000       1.00800           0
     52853 TIP3     10157    TIP3     H2       HT       0.417000       1.00800           0
     52854 TIP3     10158    TIP3     OH2      OT      -0.834000       15.9994           0
     52855 TIP3     10158    TIP3     H1       HT       0.417000       1.00800           0
     52856 TIP3     10158    TIP3     H2       HT       0.417000       1.00800           0
     52857 TIP3     10159    TIP3     OH2      OT      -0.834000       15.9994           0
     52858 TIP3     10159    TIP3     H1       HT       0.417000       1.00800           0
     52859 TIP3     10159    TIP3     H2       HT       0.417000       1.00800           0
     52860 TIP3     10160    TIP3     OH2      OT      -0.834000       15.9994           0
     52861 TIP3     10160    TIP3     H1       HT       0.417000       1.00800           0
     52862 TIP3     10160    TIP3     H2       HT       0.417000       1.00800           0
     52863 TIP3     10161    TIP3     OH2      OT      -0.834000       15.9994           0
     52864 TIP3     10161    TIP3     H1       HT       0.417000       1.00800           0
     52865 TIP3     10161    TIP3     H2       HT       0.417000       1.00800           0
     52866 TIP3     10162    TIP3     OH2      OT      -0.834000       15.9994           0
     52867 TIP3     10162    TIP3     H1       HT       0.417000       1.00800           0
     52868 TIP3     10162    TIP3     H2       HT       0.417000       1.00800           0
     52869 TIP3     10163    TIP3     OH2      OT      -0.834000       15.9994           0
     52870 TIP3     10163    TIP3     H1       HT       0.417000       1.00800           0
     52871 TIP3     10163    TIP3     H2       HT       0.417000       1.00800           0
     52872 TIP3     10164    TIP3     OH2      OT      -0.834000       15.9994           0
     52873 TIP3     10164    TIP3     H1       HT       0.417000       1.00800           0
     52874 TIP3     10164    TIP3     H2       HT       0.417000       1.00800           0
     52875 TIP3     10165    TIP3     OH2      OT      -0.834000       15.9994           0
     52876 TIP3     10165    TIP3     H1       HT       0.417000       1.00800           0
     52877 TIP3     10165    TIP3     H2       HT       0.417000       1.00800           0
     52878 TIP3     10166    TIP3     OH2      OT      -0.834000       15.9994           0
     52879 TIP3     10166    TIP3     H1       HT       0.417000       1.00800           0
     52880 TIP3     10166    TIP3     H2       HT       0.417000       1.00800           0
     52881 TIP3     10167    TIP3     OH2      OT      -0.834000       15.9994           0
     52882 TIP3     10167    TIP3     H1       HT       0.417000       1.00800           0
     52883 TIP3     10167    TIP3     H2       HT       0.417000       1.00800           0
     52884 TIP3     10168    TIP3     OH2      OT      -0.834000       15.9994           0
     52885 TIP3     10168    TIP3     H1       HT       0.417000       1.00800           0
     52886 TIP3     10168    TIP3     H2       HT       0.417000       1.00800           0
     52887 TIP3     10169    TIP3     OH2      OT      -0.834000       15.9994           0
     52888 TIP3     10169    TIP3     H1       HT       0.417000       1.00800           0
     52889 TIP3     10169    TIP3     H2       HT       0.417000       1.00800           0
     52890 TIP3     10170    TIP3     OH2      OT      -0.834000       15.9994           0
     52891 TIP3     10170    TIP3     H1       HT       0.417000       1.00800           0
     52892 TIP3     10170    TIP3     H2       HT       0.417000       1.00800           0
     52893 TIP3     10171    TIP3     OH2      OT      -0.834000       15.9994           0
     52894 TIP3     10171    TIP3     H1       HT       0.417000       1.00800           0
     52895 TIP3     10171    TIP3     H2       HT       0.417000       1.00800           0
     52896 TIP3     10172    TIP3     OH2      OT      -0.834000       15.9994           0
     52897 TIP3     10172    TIP3     H1       HT       0.417000       1.00800           0
     52898 TIP3     10172    TIP3     H2       HT       0.417000       1.00800           0
     52899 TIP3     10173    TIP3     OH2      OT      -0.834000       15.9994           0
     52900 TIP3     10173    TIP3     H1       HT       0.417000       1.00800           0
     52901 TIP3     10173    TIP3     H2       HT       0.417000       1.00800           0
     52902 TIP3     10174    TIP3     OH2      OT      -0.834000       15.9994           0
     52903 TIP3     10174    TIP3     H1       HT       0.417000       1.00800           0
     52904 TIP3     10174    TIP3     H2       HT       0.417000       1.00800           0
     52905 TIP3     10175    TIP3     OH2      OT      -0.834000       15.9994           0
     52906 TIP3     10175    TIP3     H1       HT       0.417000       1.00800           0
     52907 TIP3     10175    TIP3     H2       HT       0.417000       1.00800           0
     52908 TIP3     10176    TIP3     OH2      OT      -0.834000       15.9994           0
     52909 TIP3     10176    TIP3     H1       HT       0.417000       1.00800           0
     52910 TIP3     10176    TIP3     H2       HT       0.417000       1.00800           0
     52911 TIP3     10177    TIP3     OH2      OT      -0.834000       15.9994           0
     52912 TIP3     10177    TIP3     H1       HT       0.417000       1.00800           0
     52913 TIP3     10177    TIP3     H2       HT       0.417000       1.00800           0
     52914 TIP3     10178    TIP3     OH2      OT      -0.834000       15.9994           0
     52915 TIP3     10178    TIP3     H1       HT       0.417000       1.00800           0
     52916 TIP3     10178    TIP3     H2       HT       0.417000       1.00800           0
     52917 TIP3     10179    TIP3     OH2      OT      -0.834000       15.9994           0
     52918 TIP3     10179    TIP3     H1       HT       0.417000       1.00800           0
     52919 TIP3     10179    TIP3     H2       HT       0.417000       1.00800           0
     52920 TIP3     10180    TIP3     OH2      OT      -0.834000       15.9994           0
     52921 TIP3     10180    TIP3     H1       HT       0.417000       1.00800           0
     52922 TIP3     10180    TIP3     H2       HT       0.417000       1.00800           0
     52923 TIP3     10181    TIP3     OH2      OT      -0.834000       15.9994           0
     52924 TIP3     10181    TIP3     H1       HT       0.417000       1.00800           0
     52925 TIP3     10181    TIP3     H2       HT       0.417000       1.00800           0
     52926 TIP3     10182    TIP3     OH2      OT      -0.834000       15.9994           0
     52927 TIP3     10182    TIP3     H1       HT       0.417000       1.00800           0
     52928 TIP3     10182    TIP3     H2       HT       0.417000       1.00800           0
     52929 TIP3     10183    TIP3     OH2      OT      -0.834000       15.9994           0
     52930 TIP3     10183    TIP3     H1       HT       0.417000       1.00800           0
     52931 TIP3     10183    TIP3     H2       HT       0.417000       1.00800           0
     52932 TIP3     10184    TIP3     OH2      OT      -0.834000       15.9994           0
     52933 TIP3     10184    TIP3     H1       HT       0.417000       1.00800           0
     52934 TIP3     10184    TIP3     H2       HT       0.417000       1.00800           0
     52935 TIP3     10185    TIP3     OH2      OT      -0.834000       15.9994           0
     52936 TIP3     10185    TIP3     H1       HT       0.417000       1.00800           0
     52937 TIP3     10185    TIP3     H2       HT       0.417000       1.00800           0
     52938 TIP3     10186    TIP3     OH2      OT      -0.834000       15.9994           0
     52939 TIP3     10186    TIP3     H1       HT       0.417000       1.00800           0
     52940 TIP3     10186    TIP3     H2       HT       0.417000       1.00800           0
     52941 TIP3     10187    TIP3     OH2      OT      -0.834000       15.9994           0
     52942 TIP3     10187    TIP3     H1       HT       0.417000       1.00800           0
     52943 TIP3     10187    TIP3     H2       HT       0.417000       1.00800           0
     52944 TIP3     10188    TIP3     OH2      OT      -0.834000       15.9994           0
     52945 TIP3     10188    TIP3     H1       HT       0.417000       1.00800           0
     52946 TIP3     10188    TIP3     H2       HT       0.417000       1.00800           0
     52947 TIP3     10189    TIP3     OH2      OT      -0.834000       15.9994           0
     52948 TIP3     10189    TIP3     H1       HT       0.417000       1.00800           0
     52949 TIP3     10189    TIP3     H2       HT       0.417000       1.00800           0
     52950 TIP3     10190    TIP3     OH2      OT      -0.834000       15.9994           0
     52951 TIP3     10190    TIP3     H1       HT       0.417000       1.00800           0
     52952 TIP3     10190    TIP3     H2       HT       0.417000       1.00800           0
     52953 TIP3     10191    TIP3     OH2      OT      -0.834000       15.9994           0
     52954 TIP3     10191    TIP3     H1       HT       0.417000       1.00800           0
     52955 TIP3     10191    TIP3     H2       HT       0.417000       1.00800           0
     52956 TIP3     10192    TIP3     OH2      OT      -0.834000       15.9994           0
     52957 TIP3     10192    TIP3     H1       HT       0.417000       1.00800           0
     52958 TIP3     10192    TIP3     H2       HT       0.417000       1.00800           0
     52959 TIP3     10193    TIP3     OH2      OT      -0.834000       15.9994           0
     52960 TIP3     10193    TIP3     H1       HT       0.417000       1.00800           0
     52961 TIP3     10193    TIP3     H2       HT       0.417000       1.00800           0
     52962 TIP3     10194    TIP3     OH2      OT      -0.834000       15.9994           0
     52963 TIP3     10194    TIP3     H1       HT       0.417000       1.00800           0
     52964 TIP3     10194    TIP3     H2       HT       0.417000       1.00800           0
     52965 TIP3     10195    TIP3     OH2      OT      -0.834000       15.9994           0
     52966 TIP3     10195    TIP3     H1       HT       0.417000       1.00800           0
     52967 TIP3     10195    TIP3     H2       HT       0.417000       1.00800           0
     52968 TIP3     10196    TIP3     OH2      OT      -0.834000       15.9994           0
     52969 TIP3     10196    TIP3     H1       HT       0.417000       1.00800           0
     52970 TIP3     10196    TIP3     H2       HT       0.417000       1.00800           0
     52971 TIP3     10197    TIP3     OH2      OT      -0.834000       15.9994           0
     52972 TIP3     10197    TIP3     H1       HT       0.417000       1.00800           0
     52973 TIP3     10197    TIP3     H2       HT       0.417000       1.00800           0
     52974 TIP3     10198    TIP3     OH2      OT      -0.834000       15.9994           0
     52975 TIP3     10198    TIP3     H1       HT       0.417000       1.00800           0
     52976 TIP3     10198    TIP3     H2       HT       0.417000       1.00800           0
     52977 TIP3     10199    TIP3     OH2      OT      -0.834000       15.9994           0
     52978 TIP3     10199    TIP3     H1       HT       0.417000       1.00800           0
     52979 TIP3     10199    TIP3     H2       HT       0.417000       1.00800           0
     52980 TIP3     10200    TIP3     OH2      OT      -0.834000       15.9994           0
     52981 TIP3     10200    TIP3     H1       HT       0.417000       1.00800           0
     52982 TIP3     10200    TIP3     H2       HT       0.417000       1.00800           0
     52983 TIP3     10201    TIP3     OH2      OT      -0.834000       15.9994           0
     52984 TIP3     10201    TIP3     H1       HT       0.417000       1.00800           0
     52985 TIP3     10201    TIP3     H2       HT       0.417000       1.00800           0
     52986 TIP3     10202    TIP3     OH2      OT      -0.834000       15.9994           0
     52987 TIP3     10202    TIP3     H1       HT       0.417000       1.00800           0
     52988 TIP3     10202    TIP3     H2       HT       0.417000       1.00800           0
     52989 TIP3     10203    TIP3     OH2      OT      -0.834000       15.9994           0
     52990 TIP3     10203    TIP3     H1       HT       0.417000       1.00800           0
     52991 TIP3     10203    TIP3     H2       HT       0.417000       1.00800           0
     52992 TIP3     10204    TIP3     OH2      OT      -0.834000       15.9994           0
     52993 TIP3     10204    TIP3     H1       HT       0.417000       1.00800           0
     52994 TIP3     10204    TIP3     H2       HT       0.417000       1.00800           0
     52995 TIP3     10205    TIP3     OH2      OT      -0.834000       15.9994           0
     52996 TIP3     10205    TIP3     H1       HT       0.417000       1.00800           0
     52997 TIP3     10205    TIP3     H2       HT       0.417000       1.00800           0
     52998 TIP3     10206    TIP3     OH2      OT      -0.834000       15.9994           0
     52999 TIP3     10206    TIP3     H1       HT       0.417000       1.00800           0
     53000 TIP3     10206    TIP3     H2       HT       0.417000       1.00800           0
     53001 TIP3     10207    TIP3     OH2      OT      -0.834000       15.9994           0
     53002 TIP3     10207    TIP3     H1       HT       0.417000       1.00800           0
     53003 TIP3     10207    TIP3     H2       HT       0.417000       1.00800           0
     53004 TIP3     10208    TIP3     OH2      OT      -0.834000       15.9994           0
     53005 TIP3     10208    TIP3     H1       HT       0.417000       1.00800           0
     53006 TIP3     10208    TIP3     H2       HT       0.417000       1.00800           0
     53007 TIP3     10209    TIP3     OH2      OT      -0.834000       15.9994           0
     53008 TIP3     10209    TIP3     H1       HT       0.417000       1.00800           0
     53009 TIP3     10209    TIP3     H2       HT       0.417000       1.00800           0
     53010 TIP3     10210    TIP3     OH2      OT      -0.834000       15.9994           0
     53011 TIP3     10210    TIP3     H1       HT       0.417000       1.00800           0
     53012 TIP3     10210    TIP3     H2       HT       0.417000       1.00800           0
     53013 TIP3     10211    TIP3     OH2      OT      -0.834000       15.9994           0
     53014 TIP3     10211    TIP3     H1       HT       0.417000       1.00800           0
     53015 TIP3     10211    TIP3     H2       HT       0.417000       1.00800           0
     53016 TIP3     10212    TIP3     OH2      OT      -0.834000       15.9994           0
     53017 TIP3     10212    TIP3     H1       HT       0.417000       1.00800           0
     53018 TIP3     10212    TIP3     H2       HT       0.417000       1.00800           0
     53019 TIP3     10213    TIP3     OH2      OT      -0.834000       15.9994           0
     53020 TIP3     10213    TIP3     H1       HT       0.417000       1.00800           0
     53021 TIP3     10213    TIP3     H2       HT       0.417000       1.00800           0
     53022 TIP3     10214    TIP3     OH2      OT      -0.834000       15.9994           0
     53023 TIP3     10214    TIP3     H1       HT       0.417000       1.00800           0
     53024 TIP3     10214    TIP3     H2       HT       0.417000       1.00800           0
     53025 TIP3     10215    TIP3     OH2      OT      -0.834000       15.9994           0
     53026 TIP3     10215    TIP3     H1       HT       0.417000       1.00800           0
     53027 TIP3     10215    TIP3     H2       HT       0.417000       1.00800           0
     53028 TIP3     10216    TIP3     OH2      OT      -0.834000       15.9994           0
     53029 TIP3     10216    TIP3     H1       HT       0.417000       1.00800           0
     53030 TIP3     10216    TIP3     H2       HT       0.417000       1.00800           0
     53031 TIP3     10217    TIP3     OH2      OT      -0.834000       15.9994           0
     53032 TIP3     10217    TIP3     H1       HT       0.417000       1.00800           0
     53033 TIP3     10217    TIP3     H2       HT       0.417000       1.00800           0
     53034 TIP3     10218    TIP3     OH2      OT      -0.834000       15.9994           0
     53035 TIP3     10218    TIP3     H1       HT       0.417000       1.00800           0
     53036 TIP3     10218    TIP3     H2       HT       0.417000       1.00800           0
     53037 TIP3     10219    TIP3     OH2      OT      -0.834000       15.9994           0
     53038 TIP3     10219    TIP3     H1       HT       0.417000       1.00800           0
     53039 TIP3     10219    TIP3     H2       HT       0.417000       1.00800           0
     53040 TIP3     10220    TIP3     OH2      OT      -0.834000       15.9994           0
     53041 TIP3     10220    TIP3     H1       HT       0.417000       1.00800           0
     53042 TIP3     10220    TIP3     H2       HT       0.417000       1.00800           0
     53043 TIP3     10221    TIP3     OH2      OT      -0.834000       15.9994           0
     53044 TIP3     10221    TIP3     H1       HT       0.417000       1.00800           0
     53045 TIP3     10221    TIP3     H2       HT       0.417000       1.00800           0
     53046 TIP3     10222    TIP3     OH2      OT      -0.834000       15.9994           0
     53047 TIP3     10222    TIP3     H1       HT       0.417000       1.00800           0
     53048 TIP3     10222    TIP3     H2       HT       0.417000       1.00800           0
     53049 TIP3     10223    TIP3     OH2      OT      -0.834000       15.9994           0
     53050 TIP3     10223    TIP3     H1       HT       0.417000       1.00800           0
     53051 TIP3     10223    TIP3     H2       HT       0.417000       1.00800           0
     53052 TIP3     10224    TIP3     OH2      OT      -0.834000       15.9994           0
     53053 TIP3     10224    TIP3     H1       HT       0.417000       1.00800           0
     53054 TIP3     10224    TIP3     H2       HT       0.417000       1.00800           0
     53055 TIP3     10225    TIP3     OH2      OT      -0.834000       15.9994           0
     53056 TIP3     10225    TIP3     H1       HT       0.417000       1.00800           0
     53057 TIP3     10225    TIP3     H2       HT       0.417000       1.00800           0
     53058 TIP3     10226    TIP3     OH2      OT      -0.834000       15.9994           0
     53059 TIP3     10226    TIP3     H1       HT       0.417000       1.00800           0
     53060 TIP3     10226    TIP3     H2       HT       0.417000       1.00800           0
     53061 TIP3     10227    TIP3     OH2      OT      -0.834000       15.9994           0
     53062 TIP3     10227    TIP3     H1       HT       0.417000       1.00800           0
     53063 TIP3     10227    TIP3     H2       HT       0.417000       1.00800           0
     53064 TIP3     10228    TIP3     OH2      OT      -0.834000       15.9994           0
     53065 TIP3     10228    TIP3     H1       HT       0.417000       1.00800           0
     53066 TIP3     10228    TIP3     H2       HT       0.417000       1.00800           0
     53067 TIP3     10229    TIP3     OH2      OT      -0.834000       15.9994           0
     53068 TIP3     10229    TIP3     H1       HT       0.417000       1.00800           0
     53069 TIP3     10229    TIP3     H2       HT       0.417000       1.00800           0
     53070 TIP3     10230    TIP3     OH2      OT      -0.834000       15.9994           0
     53071 TIP3     10230    TIP3     H1       HT       0.417000       1.00800           0
     53072 TIP3     10230    TIP3     H2       HT       0.417000       1.00800           0
     53073 TIP3     10231    TIP3     OH2      OT      -0.834000       15.9994           0
     53074 TIP3     10231    TIP3     H1       HT       0.417000       1.00800           0
     53075 TIP3     10231    TIP3     H2       HT       0.417000       1.00800           0
     53076 TIP3     10232    TIP3     OH2      OT      -0.834000       15.9994           0
     53077 TIP3     10232    TIP3     H1       HT       0.417000       1.00800           0
     53078 TIP3     10232    TIP3     H2       HT       0.417000       1.00800           0
     53079 TIP3     10233    TIP3     OH2      OT      -0.834000       15.9994           0
     53080 TIP3     10233    TIP3     H1       HT       0.417000       1.00800           0
     53081 TIP3     10233    TIP3     H2       HT       0.417000       1.00800           0
     53082 TIP3     10234    TIP3     OH2      OT      -0.834000       15.9994           0
     53083 TIP3     10234    TIP3     H1       HT       0.417000       1.00800           0
     53084 TIP3     10234    TIP3     H2       HT       0.417000       1.00800           0
     53085 TIP3     10235    TIP3     OH2      OT      -0.834000       15.9994           0
     53086 TIP3     10235    TIP3     H1       HT       0.417000       1.00800           0
     53087 TIP3     10235    TIP3     H2       HT       0.417000       1.00800           0
     53088 TIP3     10236    TIP3     OH2      OT      -0.834000       15.9994           0
     53089 TIP3     10236    TIP3     H1       HT       0.417000       1.00800           0
     53090 TIP3     10236    TIP3     H2       HT       0.417000       1.00800           0
     53091 TIP3     10237    TIP3     OH2      OT      -0.834000       15.9994           0
     53092 TIP3     10237    TIP3     H1       HT       0.417000       1.00800           0
     53093 TIP3     10237    TIP3     H2       HT       0.417000       1.00800           0
     53094 TIP3     10238    TIP3     OH2      OT      -0.834000       15.9994           0
     53095 TIP3     10238    TIP3     H1       HT       0.417000       1.00800           0
     53096 TIP3     10238    TIP3     H2       HT       0.417000       1.00800           0
     53097 TIP3     10239    TIP3     OH2      OT      -0.834000       15.9994           0
     53098 TIP3     10239    TIP3     H1       HT       0.417000       1.00800           0
     53099 TIP3     10239    TIP3     H2       HT       0.417000       1.00800           0
     53100 TIP3     10240    TIP3     OH2      OT      -0.834000       15.9994           0
     53101 TIP3     10240    TIP3     H1       HT       0.417000       1.00800           0
     53102 TIP3     10240    TIP3     H2       HT       0.417000       1.00800           0
     53103 TIP3     10241    TIP3     OH2      OT      -0.834000       15.9994           0
     53104 TIP3     10241    TIP3     H1       HT       0.417000       1.00800           0
     53105 TIP3     10241    TIP3     H2       HT       0.417000       1.00800           0
     53106 TIP3     10242    TIP3     OH2      OT      -0.834000       15.9994           0
     53107 TIP3     10242    TIP3     H1       HT       0.417000       1.00800           0
     53108 TIP3     10242    TIP3     H2       HT       0.417000       1.00800           0
     53109 TIP3     10243    TIP3     OH2      OT      -0.834000       15.9994           0
     53110 TIP3     10243    TIP3     H1       HT       0.417000       1.00800           0
     53111 TIP3     10243    TIP3     H2       HT       0.417000       1.00800           0
     53112 TIP3     10244    TIP3     OH2      OT      -0.834000       15.9994           0
     53113 TIP3     10244    TIP3     H1       HT       0.417000       1.00800           0
     53114 TIP3     10244    TIP3     H2       HT       0.417000       1.00800           0
     53115 TIP3     10245    TIP3     OH2      OT      -0.834000       15.9994           0
     53116 TIP3     10245    TIP3     H1       HT       0.417000       1.00800           0
     53117 TIP3     10245    TIP3     H2       HT       0.417000       1.00800           0
     53118 TIP3     10246    TIP3     OH2      OT      -0.834000       15.9994           0
     53119 TIP3     10246    TIP3     H1       HT       0.417000       1.00800           0
     53120 TIP3     10246    TIP3     H2       HT       0.417000       1.00800           0
     53121 TIP3     10247    TIP3     OH2      OT      -0.834000       15.9994           0
     53122 TIP3     10247    TIP3     H1       HT       0.417000       1.00800           0
     53123 TIP3     10247    TIP3     H2       HT       0.417000       1.00800           0
     53124 TIP3     10248    TIP3     OH2      OT      -0.834000       15.9994           0
     53125 TIP3     10248    TIP3     H1       HT       0.417000       1.00800           0
     53126 TIP3     10248    TIP3     H2       HT       0.417000       1.00800           0
     53127 TIP3     10249    TIP3     OH2      OT      -0.834000       15.9994           0
     53128 TIP3     10249    TIP3     H1       HT       0.417000       1.00800           0
     53129 TIP3     10249    TIP3     H2       HT       0.417000       1.00800           0
     53130 TIP3     10250    TIP3     OH2      OT      -0.834000       15.9994           0
     53131 TIP3     10250    TIP3     H1       HT       0.417000       1.00800           0
     53132 TIP3     10250    TIP3     H2       HT       0.417000       1.00800           0
     53133 TIP3     10251    TIP3     OH2      OT      -0.834000       15.9994           0
     53134 TIP3     10251    TIP3     H1       HT       0.417000       1.00800           0
     53135 TIP3     10251    TIP3     H2       HT       0.417000       1.00800           0
     53136 TIP3     10252    TIP3     OH2      OT      -0.834000       15.9994           0
     53137 TIP3     10252    TIP3     H1       HT       0.417000       1.00800           0
     53138 TIP3     10252    TIP3     H2       HT       0.417000       1.00800           0
     53139 TIP3     10253    TIP3     OH2      OT      -0.834000       15.9994           0
     53140 TIP3     10253    TIP3     H1       HT       0.417000       1.00800           0
     53141 TIP3     10253    TIP3     H2       HT       0.417000       1.00800           0
     53142 TIP3     10254    TIP3     OH2      OT      -0.834000       15.9994           0
     53143 TIP3     10254    TIP3     H1       HT       0.417000       1.00800           0
     53144 TIP3     10254    TIP3     H2       HT       0.417000       1.00800           0
     53145 TIP3     10255    TIP3     OH2      OT      -0.834000       15.9994           0
     53146 TIP3     10255    TIP3     H1       HT       0.417000       1.00800           0
     53147 TIP3     10255    TIP3     H2       HT       0.417000       1.00800           0
     53148 TIP3     10256    TIP3     OH2      OT      -0.834000       15.9994           0
     53149 TIP3     10256    TIP3     H1       HT       0.417000       1.00800           0
     53150 TIP3     10256    TIP3     H2       HT       0.417000       1.00800           0
     53151 TIP3     10257    TIP3     OH2      OT      -0.834000       15.9994           0
     53152 TIP3     10257    TIP3     H1       HT       0.417000       1.00800           0
     53153 TIP3     10257    TIP3     H2       HT       0.417000       1.00800           0
     53154 TIP3     10258    TIP3     OH2      OT      -0.834000       15.9994           0
     53155 TIP3     10258    TIP3     H1       HT       0.417000       1.00800           0
     53156 TIP3     10258    TIP3     H2       HT       0.417000       1.00800           0
     53157 TIP3     10259    TIP3     OH2      OT      -0.834000       15.9994           0
     53158 TIP3     10259    TIP3     H1       HT       0.417000       1.00800           0
     53159 TIP3     10259    TIP3     H2       HT       0.417000       1.00800           0
     53160 TIP3     10260    TIP3     OH2      OT      -0.834000       15.9994           0
     53161 TIP3     10260    TIP3     H1       HT       0.417000       1.00800           0
     53162 TIP3     10260    TIP3     H2       HT       0.417000       1.00800           0
     53163 TIP3     10261    TIP3     OH2      OT      -0.834000       15.9994           0
     53164 TIP3     10261    TIP3     H1       HT       0.417000       1.00800           0
     53165 TIP3     10261    TIP3     H2       HT       0.417000       1.00800           0
     53166 TIP3     10262    TIP3     OH2      OT      -0.834000       15.9994           0
     53167 TIP3     10262    TIP3     H1       HT       0.417000       1.00800           0
     53168 TIP3     10262    TIP3     H2       HT       0.417000       1.00800           0
     53169 TIP3     10263    TIP3     OH2      OT      -0.834000       15.9994           0
     53170 TIP3     10263    TIP3     H1       HT       0.417000       1.00800           0
     53171 TIP3     10263    TIP3     H2       HT       0.417000       1.00800           0
     53172 TIP3     10264    TIP3     OH2      OT      -0.834000       15.9994           0
     53173 TIP3     10264    TIP3     H1       HT       0.417000       1.00800           0
     53174 TIP3     10264    TIP3     H2       HT       0.417000       1.00800           0
     53175 TIP3     10265    TIP3     OH2      OT      -0.834000       15.9994           0
     53176 TIP3     10265    TIP3     H1       HT       0.417000       1.00800           0
     53177 TIP3     10265    TIP3     H2       HT       0.417000       1.00800           0
     53178 TIP3     10266    TIP3     OH2      OT      -0.834000       15.9994           0
     53179 TIP3     10266    TIP3     H1       HT       0.417000       1.00800           0
     53180 TIP3     10266    TIP3     H2       HT       0.417000       1.00800           0
     53181 TIP3     10267    TIP3     OH2      OT      -0.834000       15.9994           0
     53182 TIP3     10267    TIP3     H1       HT       0.417000       1.00800           0
     53183 TIP3     10267    TIP3     H2       HT       0.417000       1.00800           0
     53184 TIP3     10268    TIP3     OH2      OT      -0.834000       15.9994           0
     53185 TIP3     10268    TIP3     H1       HT       0.417000       1.00800           0
     53186 TIP3     10268    TIP3     H2       HT       0.417000       1.00800           0
     53187 TIP3     10269    TIP3     OH2      OT      -0.834000       15.9994           0
     53188 TIP3     10269    TIP3     H1       HT       0.417000       1.00800           0
     53189 TIP3     10269    TIP3     H2       HT       0.417000       1.00800           0
     53190 TIP3     10270    TIP3     OH2      OT      -0.834000       15.9994           0
     53191 TIP3     10270    TIP3     H1       HT       0.417000       1.00800           0
     53192 TIP3     10270    TIP3     H2       HT       0.417000       1.00800           0
     53193 TIP3     10271    TIP3     OH2      OT      -0.834000       15.9994           0
     53194 TIP3     10271    TIP3     H1       HT       0.417000       1.00800           0
     53195 TIP3     10271    TIP3     H2       HT       0.417000       1.00800           0
     53196 TIP3     10272    TIP3     OH2      OT      -0.834000       15.9994           0
     53197 TIP3     10272    TIP3     H1       HT       0.417000       1.00800           0
     53198 TIP3     10272    TIP3     H2       HT       0.417000       1.00800           0
     53199 TIP3     10273    TIP3     OH2      OT      -0.834000       15.9994           0
     53200 TIP3     10273    TIP3     H1       HT       0.417000       1.00800           0
     53201 TIP3     10273    TIP3     H2       HT       0.417000       1.00800           0
     53202 TIP3     10274    TIP3     OH2      OT      -0.834000       15.9994           0
     53203 TIP3     10274    TIP3     H1       HT       0.417000       1.00800           0
     53204 TIP3     10274    TIP3     H2       HT       0.417000       1.00800           0
     53205 TIP3     10275    TIP3     OH2      OT      -0.834000       15.9994           0
     53206 TIP3     10275    TIP3     H1       HT       0.417000       1.00800           0
     53207 TIP3     10275    TIP3     H2       HT       0.417000       1.00800           0
     53208 TIP3     10276    TIP3     OH2      OT      -0.834000       15.9994           0
     53209 TIP3     10276    TIP3     H1       HT       0.417000       1.00800           0
     53210 TIP3     10276    TIP3     H2       HT       0.417000       1.00800           0
     53211 TIP3     10277    TIP3     OH2      OT      -0.834000       15.9994           0
     53212 TIP3     10277    TIP3     H1       HT       0.417000       1.00800           0
     53213 TIP3     10277    TIP3     H2       HT       0.417000       1.00800           0
     53214 TIP3     10278    TIP3     OH2      OT      -0.834000       15.9994           0
     53215 TIP3     10278    TIP3     H1       HT       0.417000       1.00800           0
     53216 TIP3     10278    TIP3     H2       HT       0.417000       1.00800           0
     53217 TIP3     10279    TIP3     OH2      OT      -0.834000       15.9994           0
     53218 TIP3     10279    TIP3     H1       HT       0.417000       1.00800           0
     53219 TIP3     10279    TIP3     H2       HT       0.417000       1.00800           0
     53220 TIP3     10280    TIP3     OH2      OT      -0.834000       15.9994           0
     53221 TIP3     10280    TIP3     H1       HT       0.417000       1.00800           0
     53222 TIP3     10280    TIP3     H2       HT       0.417000       1.00800           0
     53223 TIP3     10281    TIP3     OH2      OT      -0.834000       15.9994           0
     53224 TIP3     10281    TIP3     H1       HT       0.417000       1.00800           0
     53225 TIP3     10281    TIP3     H2       HT       0.417000       1.00800           0
     53226 TIP3     10282    TIP3     OH2      OT      -0.834000       15.9994           0
     53227 TIP3     10282    TIP3     H1       HT       0.417000       1.00800           0
     53228 TIP3     10282    TIP3     H2       HT       0.417000       1.00800           0
     53229 TIP3     10283    TIP3     OH2      OT      -0.834000       15.9994           0
     53230 TIP3     10283    TIP3     H1       HT       0.417000       1.00800           0
     53231 TIP3     10283    TIP3     H2       HT       0.417000       1.00800           0
     53232 TIP3     10284    TIP3     OH2      OT      -0.834000       15.9994           0
     53233 TIP3     10284    TIP3     H1       HT       0.417000       1.00800           0
     53234 TIP3     10284    TIP3     H2       HT       0.417000       1.00800           0
     53235 TIP3     10285    TIP3     OH2      OT      -0.834000       15.9994           0
     53236 TIP3     10285    TIP3     H1       HT       0.417000       1.00800           0
     53237 TIP3     10285    TIP3     H2       HT       0.417000       1.00800           0
     53238 TIP3     10286    TIP3     OH2      OT      -0.834000       15.9994           0
     53239 TIP3     10286    TIP3     H1       HT       0.417000       1.00800           0
     53240 TIP3     10286    TIP3     H2       HT       0.417000       1.00800           0
     53241 TIP3     10287    TIP3     OH2      OT      -0.834000       15.9994           0
     53242 TIP3     10287    TIP3     H1       HT       0.417000       1.00800           0
     53243 TIP3     10287    TIP3     H2       HT       0.417000       1.00800           0
     53244 TIP3     10288    TIP3     OH2      OT      -0.834000       15.9994           0
     53245 TIP3     10288    TIP3     H1       HT       0.417000       1.00800           0
     53246 TIP3     10288    TIP3     H2       HT       0.417000       1.00800           0
     53247 TIP3     10289    TIP3     OH2      OT      -0.834000       15.9994           0
     53248 TIP3     10289    TIP3     H1       HT       0.417000       1.00800           0
     53249 TIP3     10289    TIP3     H2       HT       0.417000       1.00800           0
     53250 TIP3     10290    TIP3     OH2      OT      -0.834000       15.9994           0
     53251 TIP3     10290    TIP3     H1       HT       0.417000       1.00800           0
     53252 TIP3     10290    TIP3     H2       HT       0.417000       1.00800           0
     53253 TIP3     10291    TIP3     OH2      OT      -0.834000       15.9994           0
     53254 TIP3     10291    TIP3     H1       HT       0.417000       1.00800           0
     53255 TIP3     10291    TIP3     H2       HT       0.417000       1.00800           0
     53256 TIP3     10292    TIP3     OH2      OT      -0.834000       15.9994           0
     53257 TIP3     10292    TIP3     H1       HT       0.417000       1.00800           0
     53258 TIP3     10292    TIP3     H2       HT       0.417000       1.00800           0
     53259 TIP3     10293    TIP3     OH2      OT      -0.834000       15.9994           0
     53260 TIP3     10293    TIP3     H1       HT       0.417000       1.00800           0
     53261 TIP3     10293    TIP3     H2       HT       0.417000       1.00800           0
     53262 TIP3     10294    TIP3     OH2      OT      -0.834000       15.9994           0
     53263 TIP3     10294    TIP3     H1       HT       0.417000       1.00800           0
     53264 TIP3     10294    TIP3     H2       HT       0.417000       1.00800           0
     53265 TIP3     10295    TIP3     OH2      OT      -0.834000       15.9994           0
     53266 TIP3     10295    TIP3     H1       HT       0.417000       1.00800           0
     53267 TIP3     10295    TIP3     H2       HT       0.417000       1.00800           0
     53268 TIP3     10296    TIP3     OH2      OT      -0.834000       15.9994           0
     53269 TIP3     10296    TIP3     H1       HT       0.417000       1.00800           0
     53270 TIP3     10296    TIP3     H2       HT       0.417000       1.00800           0
     53271 TIP3     10297    TIP3     OH2      OT      -0.834000       15.9994           0
     53272 TIP3     10297    TIP3     H1       HT       0.417000       1.00800           0
     53273 TIP3     10297    TIP3     H2       HT       0.417000       1.00800           0
     53274 TIP3     10298    TIP3     OH2      OT      -0.834000       15.9994           0
     53275 TIP3     10298    TIP3     H1       HT       0.417000       1.00800           0
     53276 TIP3     10298    TIP3     H2       HT       0.417000       1.00800           0
     53277 TIP3     10299    TIP3     OH2      OT      -0.834000       15.9994           0
     53278 TIP3     10299    TIP3     H1       HT       0.417000       1.00800           0
     53279 TIP3     10299    TIP3     H2       HT       0.417000       1.00800           0
     53280 TIP3     10300    TIP3     OH2      OT      -0.834000       15.9994           0
     53281 TIP3     10300    TIP3     H1       HT       0.417000       1.00800           0
     53282 TIP3     10300    TIP3     H2       HT       0.417000       1.00800           0
     53283 TIP3     10301    TIP3     OH2      OT      -0.834000       15.9994           0
     53284 TIP3     10301    TIP3     H1       HT       0.417000       1.00800           0
     53285 TIP3     10301    TIP3     H2       HT       0.417000       1.00800           0
     53286 TIP3     10302    TIP3     OH2      OT      -0.834000       15.9994           0
     53287 TIP3     10302    TIP3     H1       HT       0.417000       1.00800           0
     53288 TIP3     10302    TIP3     H2       HT       0.417000       1.00800           0
     53289 TIP3     10303    TIP3     OH2      OT      -0.834000       15.9994           0
     53290 TIP3     10303    TIP3     H1       HT       0.417000       1.00800           0
     53291 TIP3     10303    TIP3     H2       HT       0.417000       1.00800           0
     53292 TIP3     10304    TIP3     OH2      OT      -0.834000       15.9994           0
     53293 TIP3     10304    TIP3     H1       HT       0.417000       1.00800           0
     53294 TIP3     10304    TIP3     H2       HT       0.417000       1.00800           0
     53295 TIP3     10305    TIP3     OH2      OT      -0.834000       15.9994           0
     53296 TIP3     10305    TIP3     H1       HT       0.417000       1.00800           0
     53297 TIP3     10305    TIP3     H2       HT       0.417000       1.00800           0
     53298 TIP3     10306    TIP3     OH2      OT      -0.834000       15.9994           0
     53299 TIP3     10306    TIP3     H1       HT       0.417000       1.00800           0
     53300 TIP3     10306    TIP3     H2       HT       0.417000       1.00800           0
     53301 TIP3     10307    TIP3     OH2      OT      -0.834000       15.9994           0
     53302 TIP3     10307    TIP3     H1       HT       0.417000       1.00800           0
     53303 TIP3     10307    TIP3     H2       HT       0.417000       1.00800           0
     53304 TIP3     10308    TIP3     OH2      OT      -0.834000       15.9994           0
     53305 TIP3     10308    TIP3     H1       HT       0.417000       1.00800           0
     53306 TIP3     10308    TIP3     H2       HT       0.417000       1.00800           0
     53307 TIP3     10309    TIP3     OH2      OT      -0.834000       15.9994           0
     53308 TIP3     10309    TIP3     H1       HT       0.417000       1.00800           0
     53309 TIP3     10309    TIP3     H2       HT       0.417000       1.00800           0
     53310 TIP3     10310    TIP3     OH2      OT      -0.834000       15.9994           0
     53311 TIP3     10310    TIP3     H1       HT       0.417000       1.00800           0
     53312 TIP3     10310    TIP3     H2       HT       0.417000       1.00800           0
     53313 TIP3     10311    TIP3     OH2      OT      -0.834000       15.9994           0
     53314 TIP3     10311    TIP3     H1       HT       0.417000       1.00800           0
     53315 TIP3     10311    TIP3     H2       HT       0.417000       1.00800           0
     53316 TIP3     10312    TIP3     OH2      OT      -0.834000       15.9994           0
     53317 TIP3     10312    TIP3     H1       HT       0.417000       1.00800           0
     53318 TIP3     10312    TIP3     H2       HT       0.417000       1.00800           0
     53319 TIP3     10313    TIP3     OH2      OT      -0.834000       15.9994           0
     53320 TIP3     10313    TIP3     H1       HT       0.417000       1.00800           0
     53321 TIP3     10313    TIP3     H2       HT       0.417000       1.00800           0
     53322 TIP3     10314    TIP3     OH2      OT      -0.834000       15.9994           0
     53323 TIP3     10314    TIP3     H1       HT       0.417000       1.00800           0
     53324 TIP3     10314    TIP3     H2       HT       0.417000       1.00800           0
     53325 TIP3     10315    TIP3     OH2      OT      -0.834000       15.9994           0
     53326 TIP3     10315    TIP3     H1       HT       0.417000       1.00800           0
     53327 TIP3     10315    TIP3     H2       HT       0.417000       1.00800           0
     53328 TIP3     10316    TIP3     OH2      OT      -0.834000       15.9994           0
     53329 TIP3     10316    TIP3     H1       HT       0.417000       1.00800           0
     53330 TIP3     10316    TIP3     H2       HT       0.417000       1.00800           0
     53331 TIP3     10317    TIP3     OH2      OT      -0.834000       15.9994           0
     53332 TIP3     10317    TIP3     H1       HT       0.417000       1.00800           0
     53333 TIP3     10317    TIP3     H2       HT       0.417000       1.00800           0
     53334 TIP3     10318    TIP3     OH2      OT      -0.834000       15.9994           0
     53335 TIP3     10318    TIP3     H1       HT       0.417000       1.00800           0
     53336 TIP3     10318    TIP3     H2       HT       0.417000       1.00800           0
     53337 TIP3     10319    TIP3     OH2      OT      -0.834000       15.9994           0
     53338 TIP3     10319    TIP3     H1       HT       0.417000       1.00800           0
     53339 TIP3     10319    TIP3     H2       HT       0.417000       1.00800           0
     53340 TIP3     10320    TIP3     OH2      OT      -0.834000       15.9994           0
     53341 TIP3     10320    TIP3     H1       HT       0.417000       1.00800           0
     53342 TIP3     10320    TIP3     H2       HT       0.417000       1.00800           0
     53343 TIP3     10321    TIP3     OH2      OT      -0.834000       15.9994           0
     53344 TIP3     10321    TIP3     H1       HT       0.417000       1.00800           0
     53345 TIP3     10321    TIP3     H2       HT       0.417000       1.00800           0
     53346 TIP3     10322    TIP3     OH2      OT      -0.834000       15.9994           0
     53347 TIP3     10322    TIP3     H1       HT       0.417000       1.00800           0
     53348 TIP3     10322    TIP3     H2       HT       0.417000       1.00800           0
     53349 TIP3     10323    TIP3     OH2      OT      -0.834000       15.9994           0
     53350 TIP3     10323    TIP3     H1       HT       0.417000       1.00800           0
     53351 TIP3     10323    TIP3     H2       HT       0.417000       1.00800           0
     53352 TIP3     10324    TIP3     OH2      OT      -0.834000       15.9994           0
     53353 TIP3     10324    TIP3     H1       HT       0.417000       1.00800           0
     53354 TIP3     10324    TIP3     H2       HT       0.417000       1.00800           0
     53355 TIP3     10325    TIP3     OH2      OT      -0.834000       15.9994           0
     53356 TIP3     10325    TIP3     H1       HT       0.417000       1.00800           0
     53357 TIP3     10325    TIP3     H2       HT       0.417000       1.00800           0
     53358 TIP3     10326    TIP3     OH2      OT      -0.834000       15.9994           0
     53359 TIP3     10326    TIP3     H1       HT       0.417000       1.00800           0
     53360 TIP3     10326    TIP3     H2       HT       0.417000       1.00800           0
     53361 TIP3     10327    TIP3     OH2      OT      -0.834000       15.9994           0
     53362 TIP3     10327    TIP3     H1       HT       0.417000       1.00800           0
     53363 TIP3     10327    TIP3     H2       HT       0.417000       1.00800           0
     53364 TIP3     10328    TIP3     OH2      OT      -0.834000       15.9994           0
     53365 TIP3     10328    TIP3     H1       HT       0.417000       1.00800           0
     53366 TIP3     10328    TIP3     H2       HT       0.417000       1.00800           0
     53367 TIP3     10329    TIP3     OH2      OT      -0.834000       15.9994           0
     53368 TIP3     10329    TIP3     H1       HT       0.417000       1.00800           0
     53369 TIP3     10329    TIP3     H2       HT       0.417000       1.00800           0
     53370 TIP3     10330    TIP3     OH2      OT      -0.834000       15.9994           0
     53371 TIP3     10330    TIP3     H1       HT       0.417000       1.00800           0
     53372 TIP3     10330    TIP3     H2       HT       0.417000       1.00800           0
     53373 TIP3     10331    TIP3     OH2      OT      -0.834000       15.9994           0
     53374 TIP3     10331    TIP3     H1       HT       0.417000       1.00800           0
     53375 TIP3     10331    TIP3     H2       HT       0.417000       1.00800           0
     53376 TIP3     10332    TIP3     OH2      OT      -0.834000       15.9994           0
     53377 TIP3     10332    TIP3     H1       HT       0.417000       1.00800           0
     53378 TIP3     10332    TIP3     H2       HT       0.417000       1.00800           0
     53379 TIP3     10333    TIP3     OH2      OT      -0.834000       15.9994           0
     53380 TIP3     10333    TIP3     H1       HT       0.417000       1.00800           0
     53381 TIP3     10333    TIP3     H2       HT       0.417000       1.00800           0
     53382 TIP3     10334    TIP3     OH2      OT      -0.834000       15.9994           0
     53383 TIP3     10334    TIP3     H1       HT       0.417000       1.00800           0
     53384 TIP3     10334    TIP3     H2       HT       0.417000       1.00800           0
     53385 TIP3     10335    TIP3     OH2      OT      -0.834000       15.9994           0
     53386 TIP3     10335    TIP3     H1       HT       0.417000       1.00800           0
     53387 TIP3     10335    TIP3     H2       HT       0.417000       1.00800           0
     53388 TIP3     10336    TIP3     OH2      OT      -0.834000       15.9994           0
     53389 TIP3     10336    TIP3     H1       HT       0.417000       1.00800           0
     53390 TIP3     10336    TIP3     H2       HT       0.417000       1.00800           0
     53391 TIP3     10337    TIP3     OH2      OT      -0.834000       15.9994           0
     53392 TIP3     10337    TIP3     H1       HT       0.417000       1.00800           0
     53393 TIP3     10337    TIP3     H2       HT       0.417000       1.00800           0
     53394 TIP3     10338    TIP3     OH2      OT      -0.834000       15.9994           0
     53395 TIP3     10338    TIP3     H1       HT       0.417000       1.00800           0
     53396 TIP3     10338    TIP3     H2       HT       0.417000       1.00800           0
     53397 TIP3     10339    TIP3     OH2      OT      -0.834000       15.9994           0
     53398 TIP3     10339    TIP3     H1       HT       0.417000       1.00800           0
     53399 TIP3     10339    TIP3     H2       HT       0.417000       1.00800           0
     53400 TIP3     10340    TIP3     OH2      OT      -0.834000       15.9994           0
     53401 TIP3     10340    TIP3     H1       HT       0.417000       1.00800           0
     53402 TIP3     10340    TIP3     H2       HT       0.417000       1.00800           0
     53403 TIP3     10341    TIP3     OH2      OT      -0.834000       15.9994           0
     53404 TIP3     10341    TIP3     H1       HT       0.417000       1.00800           0
     53405 TIP3     10341    TIP3     H2       HT       0.417000       1.00800           0
     53406 TIP3     10342    TIP3     OH2      OT      -0.834000       15.9994           0
     53407 TIP3     10342    TIP3     H1       HT       0.417000       1.00800           0
     53408 TIP3     10342    TIP3     H2       HT       0.417000       1.00800           0
     53409 TIP3     10343    TIP3     OH2      OT      -0.834000       15.9994           0
     53410 TIP3     10343    TIP3     H1       HT       0.417000       1.00800           0
     53411 TIP3     10343    TIP3     H2       HT       0.417000       1.00800           0
     53412 TIP3     10344    TIP3     OH2      OT      -0.834000       15.9994           0
     53413 TIP3     10344    TIP3     H1       HT       0.417000       1.00800           0
     53414 TIP3     10344    TIP3     H2       HT       0.417000       1.00800           0
     53415 TIP3     10345    TIP3     OH2      OT      -0.834000       15.9994           0
     53416 TIP3     10345    TIP3     H1       HT       0.417000       1.00800           0
     53417 TIP3     10345    TIP3     H2       HT       0.417000       1.00800           0
     53418 TIP3     10346    TIP3     OH2      OT      -0.834000       15.9994           0
     53419 TIP3     10346    TIP3     H1       HT       0.417000       1.00800           0
     53420 TIP3     10346    TIP3     H2       HT       0.417000       1.00800           0
     53421 TIP3     10347    TIP3     OH2      OT      -0.834000       15.9994           0
     53422 TIP3     10347    TIP3     H1       HT       0.417000       1.00800           0
     53423 TIP3     10347    TIP3     H2       HT       0.417000       1.00800           0
     53424 TIP3     10348    TIP3     OH2      OT      -0.834000       15.9994           0
     53425 TIP3     10348    TIP3     H1       HT       0.417000       1.00800           0
     53426 TIP3     10348    TIP3     H2       HT       0.417000       1.00800           0
     53427 TIP3     10349    TIP3     OH2      OT      -0.834000       15.9994           0
     53428 TIP3     10349    TIP3     H1       HT       0.417000       1.00800           0
     53429 TIP3     10349    TIP3     H2       HT       0.417000       1.00800           0
     53430 TIP3     10350    TIP3     OH2      OT      -0.834000       15.9994           0
     53431 TIP3     10350    TIP3     H1       HT       0.417000       1.00800           0
     53432 TIP3     10350    TIP3     H2       HT       0.417000       1.00800           0
     53433 TIP3     10351    TIP3     OH2      OT      -0.834000       15.9994           0
     53434 TIP3     10351    TIP3     H1       HT       0.417000       1.00800           0
     53435 TIP3     10351    TIP3     H2       HT       0.417000       1.00800           0
     53436 TIP3     10352    TIP3     OH2      OT      -0.834000       15.9994           0
     53437 TIP3     10352    TIP3     H1       HT       0.417000       1.00800           0
     53438 TIP3     10352    TIP3     H2       HT       0.417000       1.00800           0
     53439 TIP3     10353    TIP3     OH2      OT      -0.834000       15.9994           0
     53440 TIP3     10353    TIP3     H1       HT       0.417000       1.00800           0
     53441 TIP3     10353    TIP3     H2       HT       0.417000       1.00800           0
     53442 TIP3     10354    TIP3     OH2      OT      -0.834000       15.9994           0
     53443 TIP3     10354    TIP3     H1       HT       0.417000       1.00800           0
     53444 TIP3     10354    TIP3     H2       HT       0.417000       1.00800           0
     53445 TIP3     10355    TIP3     OH2      OT      -0.834000       15.9994           0
     53446 TIP3     10355    TIP3     H1       HT       0.417000       1.00800           0
     53447 TIP3     10355    TIP3     H2       HT       0.417000       1.00800           0
     53448 TIP3     10356    TIP3     OH2      OT      -0.834000       15.9994           0
     53449 TIP3     10356    TIP3     H1       HT       0.417000       1.00800           0
     53450 TIP3     10356    TIP3     H2       HT       0.417000       1.00800           0
     53451 TIP3     10357    TIP3     OH2      OT      -0.834000       15.9994           0
     53452 TIP3     10357    TIP3     H1       HT       0.417000       1.00800           0
     53453 TIP3     10357    TIP3     H2       HT       0.417000       1.00800           0
     53454 TIP3     10358    TIP3     OH2      OT      -0.834000       15.9994           0
     53455 TIP3     10358    TIP3     H1       HT       0.417000       1.00800           0
     53456 TIP3     10358    TIP3     H2       HT       0.417000       1.00800           0
     53457 TIP3     10359    TIP3     OH2      OT      -0.834000       15.9994           0
     53458 TIP3     10359    TIP3     H1       HT       0.417000       1.00800           0
     53459 TIP3     10359    TIP3     H2       HT       0.417000       1.00800           0
     53460 TIP3     10360    TIP3     OH2      OT      -0.834000       15.9994           0
     53461 TIP3     10360    TIP3     H1       HT       0.417000       1.00800           0
     53462 TIP3     10360    TIP3     H2       HT       0.417000       1.00800           0
     53463 TIP3     10361    TIP3     OH2      OT      -0.834000       15.9994           0
     53464 TIP3     10361    TIP3     H1       HT       0.417000       1.00800           0
     53465 TIP3     10361    TIP3     H2       HT       0.417000       1.00800           0
     53466 TIP3     10362    TIP3     OH2      OT      -0.834000       15.9994           0
     53467 TIP3     10362    TIP3     H1       HT       0.417000       1.00800           0
     53468 TIP3     10362    TIP3     H2       HT       0.417000       1.00800           0
     53469 TIP3     10363    TIP3     OH2      OT      -0.834000       15.9994           0
     53470 TIP3     10363    TIP3     H1       HT       0.417000       1.00800           0
     53471 TIP3     10363    TIP3     H2       HT       0.417000       1.00800           0
     53472 TIP3     10364    TIP3     OH2      OT      -0.834000       15.9994           0
     53473 TIP3     10364    TIP3     H1       HT       0.417000       1.00800           0
     53474 TIP3     10364    TIP3     H2       HT       0.417000       1.00800           0
     53475 TIP3     10365    TIP3     OH2      OT      -0.834000       15.9994           0
     53476 TIP3     10365    TIP3     H1       HT       0.417000       1.00800           0
     53477 TIP3     10365    TIP3     H2       HT       0.417000       1.00800           0
     53478 TIP3     10366    TIP3     OH2      OT      -0.834000       15.9994           0
     53479 TIP3     10366    TIP3     H1       HT       0.417000       1.00800           0
     53480 TIP3     10366    TIP3     H2       HT       0.417000       1.00800           0
     53481 TIP3     10367    TIP3     OH2      OT      -0.834000       15.9994           0
     53482 TIP3     10367    TIP3     H1       HT       0.417000       1.00800           0
     53483 TIP3     10367    TIP3     H2       HT       0.417000       1.00800           0
     53484 TIP3     10368    TIP3     OH2      OT      -0.834000       15.9994           0
     53485 TIP3     10368    TIP3     H1       HT       0.417000       1.00800           0
     53486 TIP3     10368    TIP3     H2       HT       0.417000       1.00800           0
     53487 TIP3     10369    TIP3     OH2      OT      -0.834000       15.9994           0
     53488 TIP3     10369    TIP3     H1       HT       0.417000       1.00800           0
     53489 TIP3     10369    TIP3     H2       HT       0.417000       1.00800           0
     53490 TIP3     10370    TIP3     OH2      OT      -0.834000       15.9994           0
     53491 TIP3     10370    TIP3     H1       HT       0.417000       1.00800           0
     53492 TIP3     10370    TIP3     H2       HT       0.417000       1.00800           0
     53493 TIP3     10371    TIP3     OH2      OT      -0.834000       15.9994           0
     53494 TIP3     10371    TIP3     H1       HT       0.417000       1.00800           0
     53495 TIP3     10371    TIP3     H2       HT       0.417000       1.00800           0
     53496 TIP3     10372    TIP3     OH2      OT      -0.834000       15.9994           0
     53497 TIP3     10372    TIP3     H1       HT       0.417000       1.00800           0
     53498 TIP3     10372    TIP3     H2       HT       0.417000       1.00800           0
     53499 TIP3     10373    TIP3     OH2      OT      -0.834000       15.9994           0
     53500 TIP3     10373    TIP3     H1       HT       0.417000       1.00800           0
     53501 TIP3     10373    TIP3     H2       HT       0.417000       1.00800           0
     53502 TIP3     10374    TIP3     OH2      OT      -0.834000       15.9994           0
     53503 TIP3     10374    TIP3     H1       HT       0.417000       1.00800           0
     53504 TIP3     10374    TIP3     H2       HT       0.417000       1.00800           0
     53505 TIP3     10375    TIP3     OH2      OT      -0.834000       15.9994           0
     53506 TIP3     10375    TIP3     H1       HT       0.417000       1.00800           0
     53507 TIP3     10375    TIP3     H2       HT       0.417000       1.00800           0
     53508 TIP3     10376    TIP3     OH2      OT      -0.834000       15.9994           0
     53509 TIP3     10376    TIP3     H1       HT       0.417000       1.00800           0
     53510 TIP3     10376    TIP3     H2       HT       0.417000       1.00800           0
     53511 TIP3     10377    TIP3     OH2      OT      -0.834000       15.9994           0
     53512 TIP3     10377    TIP3     H1       HT       0.417000       1.00800           0
     53513 TIP3     10377    TIP3     H2       HT       0.417000       1.00800           0
     53514 TIP3     10378    TIP3     OH2      OT      -0.834000       15.9994           0
     53515 TIP3     10378    TIP3     H1       HT       0.417000       1.00800           0
     53516 TIP3     10378    TIP3     H2       HT       0.417000       1.00800           0
     53517 TIP3     10379    TIP3     OH2      OT      -0.834000       15.9994           0
     53518 TIP3     10379    TIP3     H1       HT       0.417000       1.00800           0
     53519 TIP3     10379    TIP3     H2       HT       0.417000       1.00800           0
     53520 TIP3     10380    TIP3     OH2      OT      -0.834000       15.9994           0
     53521 TIP3     10380    TIP3     H1       HT       0.417000       1.00800           0
     53522 TIP3     10380    TIP3     H2       HT       0.417000       1.00800           0
     53523 TIP3     10381    TIP3     OH2      OT      -0.834000       15.9994           0
     53524 TIP3     10381    TIP3     H1       HT       0.417000       1.00800           0
     53525 TIP3     10381    TIP3     H2       HT       0.417000       1.00800           0
     53526 TIP3     10382    TIP3     OH2      OT      -0.834000       15.9994           0
     53527 TIP3     10382    TIP3     H1       HT       0.417000       1.00800           0
     53528 TIP3     10382    TIP3     H2       HT       0.417000       1.00800           0
     53529 TIP3     10383    TIP3     OH2      OT      -0.834000       15.9994           0
     53530 TIP3     10383    TIP3     H1       HT       0.417000       1.00800           0
     53531 TIP3     10383    TIP3     H2       HT       0.417000       1.00800           0
     53532 TIP3     10384    TIP3     OH2      OT      -0.834000       15.9994           0
     53533 TIP3     10384    TIP3     H1       HT       0.417000       1.00800           0
     53534 TIP3     10384    TIP3     H2       HT       0.417000       1.00800           0
     53535 TIP3     10385    TIP3     OH2      OT      -0.834000       15.9994           0
     53536 TIP3     10385    TIP3     H1       HT       0.417000       1.00800           0
     53537 TIP3     10385    TIP3     H2       HT       0.417000       1.00800           0
     53538 TIP3     10386    TIP3     OH2      OT      -0.834000       15.9994           0
     53539 TIP3     10386    TIP3     H1       HT       0.417000       1.00800           0
     53540 TIP3     10386    TIP3     H2       HT       0.417000       1.00800           0
     53541 TIP3     10387    TIP3     OH2      OT      -0.834000       15.9994           0
     53542 TIP3     10387    TIP3     H1       HT       0.417000       1.00800           0
     53543 TIP3     10387    TIP3     H2       HT       0.417000       1.00800           0
     53544 TIP3     10388    TIP3     OH2      OT      -0.834000       15.9994           0
     53545 TIP3     10388    TIP3     H1       HT       0.417000       1.00800           0
     53546 TIP3     10388    TIP3     H2       HT       0.417000       1.00800           0
     53547 TIP3     10389    TIP3     OH2      OT      -0.834000       15.9994           0
     53548 TIP3     10389    TIP3     H1       HT       0.417000       1.00800           0
     53549 TIP3     10389    TIP3     H2       HT       0.417000       1.00800           0
     53550 TIP3     10390    TIP3     OH2      OT      -0.834000       15.9994           0
     53551 TIP3     10390    TIP3     H1       HT       0.417000       1.00800           0
     53552 TIP3     10390    TIP3     H2       HT       0.417000       1.00800           0
     53553 TIP3     10391    TIP3     OH2      OT      -0.834000       15.9994           0
     53554 TIP3     10391    TIP3     H1       HT       0.417000       1.00800           0
     53555 TIP3     10391    TIP3     H2       HT       0.417000       1.00800           0
     53556 TIP3     10392    TIP3     OH2      OT      -0.834000       15.9994           0
     53557 TIP3     10392    TIP3     H1       HT       0.417000       1.00800           0
     53558 TIP3     10392    TIP3     H2       HT       0.417000       1.00800           0
     53559 TIP3     10393    TIP3     OH2      OT      -0.834000       15.9994           0
     53560 TIP3     10393    TIP3     H1       HT       0.417000       1.00800           0
     53561 TIP3     10393    TIP3     H2       HT       0.417000       1.00800           0
     53562 TIP3     10394    TIP3     OH2      OT      -0.834000       15.9994           0
     53563 TIP3     10394    TIP3     H1       HT       0.417000       1.00800           0
     53564 TIP3     10394    TIP3     H2       HT       0.417000       1.00800           0
     53565 TIP3     10395    TIP3     OH2      OT      -0.834000       15.9994           0
     53566 TIP3     10395    TIP3     H1       HT       0.417000       1.00800           0
     53567 TIP3     10395    TIP3     H2       HT       0.417000       1.00800           0
     53568 TIP3     10396    TIP3     OH2      OT      -0.834000       15.9994           0
     53569 TIP3     10396    TIP3     H1       HT       0.417000       1.00800           0
     53570 TIP3     10396    TIP3     H2       HT       0.417000       1.00800           0
     53571 TIP3     10397    TIP3     OH2      OT      -0.834000       15.9994           0
     53572 TIP3     10397    TIP3     H1       HT       0.417000       1.00800           0
     53573 TIP3     10397    TIP3     H2       HT       0.417000       1.00800           0
     53574 TIP3     10398    TIP3     OH2      OT      -0.834000       15.9994           0
     53575 TIP3     10398    TIP3     H1       HT       0.417000       1.00800           0
     53576 TIP3     10398    TIP3     H2       HT       0.417000       1.00800           0
     53577 TIP3     10399    TIP3     OH2      OT      -0.834000       15.9994           0
     53578 TIP3     10399    TIP3     H1       HT       0.417000       1.00800           0
     53579 TIP3     10399    TIP3     H2       HT       0.417000       1.00800           0
     53580 TIP3     10400    TIP3     OH2      OT      -0.834000       15.9994           0
     53581 TIP3     10400    TIP3     H1       HT       0.417000       1.00800           0
     53582 TIP3     10400    TIP3     H2       HT       0.417000       1.00800           0
     53583 TIP3     10401    TIP3     OH2      OT      -0.834000       15.9994           0
     53584 TIP3     10401    TIP3     H1       HT       0.417000       1.00800           0
     53585 TIP3     10401    TIP3     H2       HT       0.417000       1.00800           0
     53586 TIP3     10402    TIP3     OH2      OT      -0.834000       15.9994           0
     53587 TIP3     10402    TIP3     H1       HT       0.417000       1.00800           0
     53588 TIP3     10402    TIP3     H2       HT       0.417000       1.00800           0
     53589 TIP3     10403    TIP3     OH2      OT      -0.834000       15.9994           0
     53590 TIP3     10403    TIP3     H1       HT       0.417000       1.00800           0
     53591 TIP3     10403    TIP3     H2       HT       0.417000       1.00800           0
     53592 TIP3     10404    TIP3     OH2      OT      -0.834000       15.9994           0
     53593 TIP3     10404    TIP3     H1       HT       0.417000       1.00800           0
     53594 TIP3     10404    TIP3     H2       HT       0.417000       1.00800           0
     53595 TIP3     10405    TIP3     OH2      OT      -0.834000       15.9994           0
     53596 TIP3     10405    TIP3     H1       HT       0.417000       1.00800           0
     53597 TIP3     10405    TIP3     H2       HT       0.417000       1.00800           0
     53598 TIP3     10406    TIP3     OH2      OT      -0.834000       15.9994           0
     53599 TIP3     10406    TIP3     H1       HT       0.417000       1.00800           0
     53600 TIP3     10406    TIP3     H2       HT       0.417000       1.00800           0
     53601 TIP3     10407    TIP3     OH2      OT      -0.834000       15.9994           0
     53602 TIP3     10407    TIP3     H1       HT       0.417000       1.00800           0
     53603 TIP3     10407    TIP3     H2       HT       0.417000       1.00800           0
     53604 TIP3     10408    TIP3     OH2      OT      -0.834000       15.9994           0
     53605 TIP3     10408    TIP3     H1       HT       0.417000       1.00800           0
     53606 TIP3     10408    TIP3     H2       HT       0.417000       1.00800           0
     53607 TIP3     10409    TIP3     OH2      OT      -0.834000       15.9994           0
     53608 TIP3     10409    TIP3     H1       HT       0.417000       1.00800           0
     53609 TIP3     10409    TIP3     H2       HT       0.417000       1.00800           0
     53610 TIP3     10410    TIP3     OH2      OT      -0.834000       15.9994           0
     53611 TIP3     10410    TIP3     H1       HT       0.417000       1.00800           0
     53612 TIP3     10410    TIP3     H2       HT       0.417000       1.00800           0
     53613 TIP3     10411    TIP3     OH2      OT      -0.834000       15.9994           0
     53614 TIP3     10411    TIP3     H1       HT       0.417000       1.00800           0
     53615 TIP3     10411    TIP3     H2       HT       0.417000       1.00800           0
     53616 TIP3     10412    TIP3     OH2      OT      -0.834000       15.9994           0
     53617 TIP3     10412    TIP3     H1       HT       0.417000       1.00800           0
     53618 TIP3     10412    TIP3     H2       HT       0.417000       1.00800           0
     53619 TIP3     10413    TIP3     OH2      OT      -0.834000       15.9994           0
     53620 TIP3     10413    TIP3     H1       HT       0.417000       1.00800           0
     53621 TIP3     10413    TIP3     H2       HT       0.417000       1.00800           0
     53622 TIP3     10414    TIP3     OH2      OT      -0.834000       15.9994           0
     53623 TIP3     10414    TIP3     H1       HT       0.417000       1.00800           0
     53624 TIP3     10414    TIP3     H2       HT       0.417000       1.00800           0
     53625 TIP3     10415    TIP3     OH2      OT      -0.834000       15.9994           0
     53626 TIP3     10415    TIP3     H1       HT       0.417000       1.00800           0
     53627 TIP3     10415    TIP3     H2       HT       0.417000       1.00800           0
     53628 TIP3     10416    TIP3     OH2      OT      -0.834000       15.9994           0
     53629 TIP3     10416    TIP3     H1       HT       0.417000       1.00800           0
     53630 TIP3     10416    TIP3     H2       HT       0.417000       1.00800           0
     53631 TIP3     10417    TIP3     OH2      OT      -0.834000       15.9994           0
     53632 TIP3     10417    TIP3     H1       HT       0.417000       1.00800           0
     53633 TIP3     10417    TIP3     H2       HT       0.417000       1.00800           0
     53634 TIP3     10418    TIP3     OH2      OT      -0.834000       15.9994           0
     53635 TIP3     10418    TIP3     H1       HT       0.417000       1.00800           0
     53636 TIP3     10418    TIP3     H2       HT       0.417000       1.00800           0
     53637 TIP3     10419    TIP3     OH2      OT      -0.834000       15.9994           0
     53638 TIP3     10419    TIP3     H1       HT       0.417000       1.00800           0
     53639 TIP3     10419    TIP3     H2       HT       0.417000       1.00800           0
     53640 TIP3     10420    TIP3     OH2      OT      -0.834000       15.9994           0
     53641 TIP3     10420    TIP3     H1       HT       0.417000       1.00800           0
     53642 TIP3     10420    TIP3     H2       HT       0.417000       1.00800           0
     53643 TIP3     10421    TIP3     OH2      OT      -0.834000       15.9994           0
     53644 TIP3     10421    TIP3     H1       HT       0.417000       1.00800           0
     53645 TIP3     10421    TIP3     H2       HT       0.417000       1.00800           0
     53646 TIP3     10422    TIP3     OH2      OT      -0.834000       15.9994           0
     53647 TIP3     10422    TIP3     H1       HT       0.417000       1.00800           0
     53648 TIP3     10422    TIP3     H2       HT       0.417000       1.00800           0
     53649 TIP3     10423    TIP3     OH2      OT      -0.834000       15.9994           0
     53650 TIP3     10423    TIP3     H1       HT       0.417000       1.00800           0
     53651 TIP3     10423    TIP3     H2       HT       0.417000       1.00800           0
     53652 TIP3     10424    TIP3     OH2      OT      -0.834000       15.9994           0
     53653 TIP3     10424    TIP3     H1       HT       0.417000       1.00800           0
     53654 TIP3     10424    TIP3     H2       HT       0.417000       1.00800           0
     53655 TIP3     10425    TIP3     OH2      OT      -0.834000       15.9994           0
     53656 TIP3     10425    TIP3     H1       HT       0.417000       1.00800           0
     53657 TIP3     10425    TIP3     H2       HT       0.417000       1.00800           0
     53658 TIP3     10426    TIP3     OH2      OT      -0.834000       15.9994           0
     53659 TIP3     10426    TIP3     H1       HT       0.417000       1.00800           0
     53660 TIP3     10426    TIP3     H2       HT       0.417000       1.00800           0
     53661 TIP3     10427    TIP3     OH2      OT      -0.834000       15.9994           0
     53662 TIP3     10427    TIP3     H1       HT       0.417000       1.00800           0
     53663 TIP3     10427    TIP3     H2       HT       0.417000       1.00800           0
     53664 TIP3     10428    TIP3     OH2      OT      -0.834000       15.9994           0
     53665 TIP3     10428    TIP3     H1       HT       0.417000       1.00800           0
     53666 TIP3     10428    TIP3     H2       HT       0.417000       1.00800           0
     53667 TIP3     10429    TIP3     OH2      OT      -0.834000       15.9994           0
     53668 TIP3     10429    TIP3     H1       HT       0.417000       1.00800           0
     53669 TIP3     10429    TIP3     H2       HT       0.417000       1.00800           0
     53670 TIP3     10430    TIP3     OH2      OT      -0.834000       15.9994           0
     53671 TIP3     10430    TIP3     H1       HT       0.417000       1.00800           0
     53672 TIP3     10430    TIP3     H2       HT       0.417000       1.00800           0
     53673 TIP3     10431    TIP3     OH2      OT      -0.834000       15.9994           0
     53674 TIP3     10431    TIP3     H1       HT       0.417000       1.00800           0
     53675 TIP3     10431    TIP3     H2       HT       0.417000       1.00800           0
     53676 TIP3     10432    TIP3     OH2      OT      -0.834000       15.9994           0
     53677 TIP3     10432    TIP3     H1       HT       0.417000       1.00800           0
     53678 TIP3     10432    TIP3     H2       HT       0.417000       1.00800           0
     53679 TIP3     10433    TIP3     OH2      OT      -0.834000       15.9994           0
     53680 TIP3     10433    TIP3     H1       HT       0.417000       1.00800           0
     53681 TIP3     10433    TIP3     H2       HT       0.417000       1.00800           0
     53682 TIP3     10434    TIP3     OH2      OT      -0.834000       15.9994           0
     53683 TIP3     10434    TIP3     H1       HT       0.417000       1.00800           0
     53684 TIP3     10434    TIP3     H2       HT       0.417000       1.00800           0
     53685 TIP3     10435    TIP3     OH2      OT      -0.834000       15.9994           0
     53686 TIP3     10435    TIP3     H1       HT       0.417000       1.00800           0
     53687 TIP3     10435    TIP3     H2       HT       0.417000       1.00800           0
     53688 TIP3     10436    TIP3     OH2      OT      -0.834000       15.9994           0
     53689 TIP3     10436    TIP3     H1       HT       0.417000       1.00800           0
     53690 TIP3     10436    TIP3     H2       HT       0.417000       1.00800           0
     53691 TIP3     10437    TIP3     OH2      OT      -0.834000       15.9994           0
     53692 TIP3     10437    TIP3     H1       HT       0.417000       1.00800           0
     53693 TIP3     10437    TIP3     H2       HT       0.417000       1.00800           0
     53694 TIP3     10438    TIP3     OH2      OT      -0.834000       15.9994           0
     53695 TIP3     10438    TIP3     H1       HT       0.417000       1.00800           0
     53696 TIP3     10438    TIP3     H2       HT       0.417000       1.00800           0
     53697 TIP3     10439    TIP3     OH2      OT      -0.834000       15.9994           0
     53698 TIP3     10439    TIP3     H1       HT       0.417000       1.00800           0
     53699 TIP3     10439    TIP3     H2       HT       0.417000       1.00800           0
     53700 TIP3     10440    TIP3     OH2      OT      -0.834000       15.9994           0
     53701 TIP3     10440    TIP3     H1       HT       0.417000       1.00800           0
     53702 TIP3     10440    TIP3     H2       HT       0.417000       1.00800           0
     53703 TIP3     10441    TIP3     OH2      OT      -0.834000       15.9994           0
     53704 TIP3     10441    TIP3     H1       HT       0.417000       1.00800           0
     53705 TIP3     10441    TIP3     H2       HT       0.417000       1.00800           0
     53706 TIP3     10442    TIP3     OH2      OT      -0.834000       15.9994           0
     53707 TIP3     10442    TIP3     H1       HT       0.417000       1.00800           0
     53708 TIP3     10442    TIP3     H2       HT       0.417000       1.00800           0
     53709 TIP3     10443    TIP3     OH2      OT      -0.834000       15.9994           0
     53710 TIP3     10443    TIP3     H1       HT       0.417000       1.00800           0
     53711 TIP3     10443    TIP3     H2       HT       0.417000       1.00800           0
     53712 TIP3     10444    TIP3     OH2      OT      -0.834000       15.9994           0
     53713 TIP3     10444    TIP3     H1       HT       0.417000       1.00800           0
     53714 TIP3     10444    TIP3     H2       HT       0.417000       1.00800           0
     53715 TIP3     10445    TIP3     OH2      OT      -0.834000       15.9994           0
     53716 TIP3     10445    TIP3     H1       HT       0.417000       1.00800           0
     53717 TIP3     10445    TIP3     H2       HT       0.417000       1.00800           0
     53718 TIP3     10446    TIP3     OH2      OT      -0.834000       15.9994           0
     53719 TIP3     10446    TIP3     H1       HT       0.417000       1.00800           0
     53720 TIP3     10446    TIP3     H2       HT       0.417000       1.00800           0
     53721 TIP3     10447    TIP3     OH2      OT      -0.834000       15.9994           0
     53722 TIP3     10447    TIP3     H1       HT       0.417000       1.00800           0
     53723 TIP3     10447    TIP3     H2       HT       0.417000       1.00800           0
     53724 TIP3     10448    TIP3     OH2      OT      -0.834000       15.9994           0
     53725 TIP3     10448    TIP3     H1       HT       0.417000       1.00800           0
     53726 TIP3     10448    TIP3     H2       HT       0.417000       1.00800           0
     53727 TIP3     10449    TIP3     OH2      OT      -0.834000       15.9994           0
     53728 TIP3     10449    TIP3     H1       HT       0.417000       1.00800           0
     53729 TIP3     10449    TIP3     H2       HT       0.417000       1.00800           0
     53730 TIP3     10450    TIP3     OH2      OT      -0.834000       15.9994           0
     53731 TIP3     10450    TIP3     H1       HT       0.417000       1.00800           0
     53732 TIP3     10450    TIP3     H2       HT       0.417000       1.00800           0
     53733 TIP3     10451    TIP3     OH2      OT      -0.834000       15.9994           0
     53734 TIP3     10451    TIP3     H1       HT       0.417000       1.00800           0
     53735 TIP3     10451    TIP3     H2       HT       0.417000       1.00800           0
     53736 TIP3     10452    TIP3     OH2      OT      -0.834000       15.9994           0
     53737 TIP3     10452    TIP3     H1       HT       0.417000       1.00800           0
     53738 TIP3     10452    TIP3     H2       HT       0.417000       1.00800           0
     53739 TIP3     10453    TIP3     OH2      OT      -0.834000       15.9994           0
     53740 TIP3     10453    TIP3     H1       HT       0.417000       1.00800           0
     53741 TIP3     10453    TIP3     H2       HT       0.417000       1.00800           0
     53742 TIP3     10454    TIP3     OH2      OT      -0.834000       15.9994           0
     53743 TIP3     10454    TIP3     H1       HT       0.417000       1.00800           0
     53744 TIP3     10454    TIP3     H2       HT       0.417000       1.00800           0
     53745 TIP3     10455    TIP3     OH2      OT      -0.834000       15.9994           0
     53746 TIP3     10455    TIP3     H1       HT       0.417000       1.00800           0
     53747 TIP3     10455    TIP3     H2       HT       0.417000       1.00800           0
     53748 TIP3     10456    TIP3     OH2      OT      -0.834000       15.9994           0
     53749 TIP3     10456    TIP3     H1       HT       0.417000       1.00800           0
     53750 TIP3     10456    TIP3     H2       HT       0.417000       1.00800           0
     53751 TIP3     10457    TIP3     OH2      OT      -0.834000       15.9994           0
     53752 TIP3     10457    TIP3     H1       HT       0.417000       1.00800           0
     53753 TIP3     10457    TIP3     H2       HT       0.417000       1.00800           0
     53754 TIP3     10458    TIP3     OH2      OT      -0.834000       15.9994           0
     53755 TIP3     10458    TIP3     H1       HT       0.417000       1.00800           0
     53756 TIP3     10458    TIP3     H2       HT       0.417000       1.00800           0
     53757 TIP3     10459    TIP3     OH2      OT      -0.834000       15.9994           0
     53758 TIP3     10459    TIP3     H1       HT       0.417000       1.00800           0
     53759 TIP3     10459    TIP3     H2       HT       0.417000       1.00800           0
     53760 TIP3     10460    TIP3     OH2      OT      -0.834000       15.9994           0
     53761 TIP3     10460    TIP3     H1       HT       0.417000       1.00800           0
     53762 TIP3     10460    TIP3     H2       HT       0.417000       1.00800           0
     53763 TIP3     10461    TIP3     OH2      OT      -0.834000       15.9994           0
     53764 TIP3     10461    TIP3     H1       HT       0.417000       1.00800           0
     53765 TIP3     10461    TIP3     H2       HT       0.417000       1.00800           0
     53766 TIP3     10462    TIP3     OH2      OT      -0.834000       15.9994           0
     53767 TIP3     10462    TIP3     H1       HT       0.417000       1.00800           0
     53768 TIP3     10462    TIP3     H2       HT       0.417000       1.00800           0
     53769 TIP3     10463    TIP3     OH2      OT      -0.834000       15.9994           0
     53770 TIP3     10463    TIP3     H1       HT       0.417000       1.00800           0
     53771 TIP3     10463    TIP3     H2       HT       0.417000       1.00800           0
     53772 TIP3     10464    TIP3     OH2      OT      -0.834000       15.9994           0
     53773 TIP3     10464    TIP3     H1       HT       0.417000       1.00800           0
     53774 TIP3     10464    TIP3     H2       HT       0.417000       1.00800           0
     53775 TIP3     10465    TIP3     OH2      OT      -0.834000       15.9994           0
     53776 TIP3     10465    TIP3     H1       HT       0.417000       1.00800           0
     53777 TIP3     10465    TIP3     H2       HT       0.417000       1.00800           0
     53778 TIP3     10466    TIP3     OH2      OT      -0.834000       15.9994           0
     53779 TIP3     10466    TIP3     H1       HT       0.417000       1.00800           0
     53780 TIP3     10466    TIP3     H2       HT       0.417000       1.00800           0
     53781 TIP3     10467    TIP3     OH2      OT      -0.834000       15.9994           0
     53782 TIP3     10467    TIP3     H1       HT       0.417000       1.00800           0
     53783 TIP3     10467    TIP3     H2       HT       0.417000       1.00800           0
     53784 TIP3     10468    TIP3     OH2      OT      -0.834000       15.9994           0
     53785 TIP3     10468    TIP3     H1       HT       0.417000       1.00800           0
     53786 TIP3     10468    TIP3     H2       HT       0.417000       1.00800           0
     53787 TIP3     10469    TIP3     OH2      OT      -0.834000       15.9994           0
     53788 TIP3     10469    TIP3     H1       HT       0.417000       1.00800           0
     53789 TIP3     10469    TIP3     H2       HT       0.417000       1.00800           0
     53790 TIP3     10470    TIP3     OH2      OT      -0.834000       15.9994           0
     53791 TIP3     10470    TIP3     H1       HT       0.417000       1.00800           0
     53792 TIP3     10470    TIP3     H2       HT       0.417000       1.00800           0
     53793 TIP3     10471    TIP3     OH2      OT      -0.834000       15.9994           0
     53794 TIP3     10471    TIP3     H1       HT       0.417000       1.00800           0
     53795 TIP3     10471    TIP3     H2       HT       0.417000       1.00800           0
     53796 TIP3     10472    TIP3     OH2      OT      -0.834000       15.9994           0
     53797 TIP3     10472    TIP3     H1       HT       0.417000       1.00800           0
     53798 TIP3     10472    TIP3     H2       HT       0.417000       1.00800           0
     53799 TIP3     10473    TIP3     OH2      OT      -0.834000       15.9994           0
     53800 TIP3     10473    TIP3     H1       HT       0.417000       1.00800           0
     53801 TIP3     10473    TIP3     H2       HT       0.417000       1.00800           0
     53802 TIP3     10474    TIP3     OH2      OT      -0.834000       15.9994           0
     53803 TIP3     10474    TIP3     H1       HT       0.417000       1.00800           0
     53804 TIP3     10474    TIP3     H2       HT       0.417000       1.00800           0
     53805 TIP3     10475    TIP3     OH2      OT      -0.834000       15.9994           0
     53806 TIP3     10475    TIP3     H1       HT       0.417000       1.00800           0
     53807 TIP3     10475    TIP3     H2       HT       0.417000       1.00800           0
     53808 TIP3     10476    TIP3     OH2      OT      -0.834000       15.9994           0
     53809 TIP3     10476    TIP3     H1       HT       0.417000       1.00800           0
     53810 TIP3     10476    TIP3     H2       HT       0.417000       1.00800           0
     53811 TIP3     10477    TIP3     OH2      OT      -0.834000       15.9994           0
     53812 TIP3     10477    TIP3     H1       HT       0.417000       1.00800           0
     53813 TIP3     10477    TIP3     H2       HT       0.417000       1.00800           0
     53814 TIP3     10478    TIP3     OH2      OT      -0.834000       15.9994           0
     53815 TIP3     10478    TIP3     H1       HT       0.417000       1.00800           0
     53816 TIP3     10478    TIP3     H2       HT       0.417000       1.00800           0
     53817 TIP3     10479    TIP3     OH2      OT      -0.834000       15.9994           0
     53818 TIP3     10479    TIP3     H1       HT       0.417000       1.00800           0
     53819 TIP3     10479    TIP3     H2       HT       0.417000       1.00800           0
     53820 TIP3     10480    TIP3     OH2      OT      -0.834000       15.9994           0
     53821 TIP3     10480    TIP3     H1       HT       0.417000       1.00800           0
     53822 TIP3     10480    TIP3     H2       HT       0.417000       1.00800           0
     53823 TIP3     10481    TIP3     OH2      OT      -0.834000       15.9994           0
     53824 TIP3     10481    TIP3     H1       HT       0.417000       1.00800           0
     53825 TIP3     10481    TIP3     H2       HT       0.417000       1.00800           0
     53826 TIP3     10482    TIP3     OH2      OT      -0.834000       15.9994           0
     53827 TIP3     10482    TIP3     H1       HT       0.417000       1.00800           0
     53828 TIP3     10482    TIP3     H2       HT       0.417000       1.00800           0
     53829 TIP3     10483    TIP3     OH2      OT      -0.834000       15.9994           0
     53830 TIP3     10483    TIP3     H1       HT       0.417000       1.00800           0
     53831 TIP3     10483    TIP3     H2       HT       0.417000       1.00800           0
     53832 TIP3     10484    TIP3     OH2      OT      -0.834000       15.9994           0
     53833 TIP3     10484    TIP3     H1       HT       0.417000       1.00800           0
     53834 TIP3     10484    TIP3     H2       HT       0.417000       1.00800           0
     53835 TIP3     10485    TIP3     OH2      OT      -0.834000       15.9994           0
     53836 TIP3     10485    TIP3     H1       HT       0.417000       1.00800           0
     53837 TIP3     10485    TIP3     H2       HT       0.417000       1.00800           0
     53838 TIP3     10486    TIP3     OH2      OT      -0.834000       15.9994           0
     53839 TIP3     10486    TIP3     H1       HT       0.417000       1.00800           0
     53840 TIP3     10486    TIP3     H2       HT       0.417000       1.00800           0
     53841 TIP3     10487    TIP3     OH2      OT      -0.834000       15.9994           0
     53842 TIP3     10487    TIP3     H1       HT       0.417000       1.00800           0
     53843 TIP3     10487    TIP3     H2       HT       0.417000       1.00800           0
     53844 TIP3     10488    TIP3     OH2      OT      -0.834000       15.9994           0
     53845 TIP3     10488    TIP3     H1       HT       0.417000       1.00800           0
     53846 TIP3     10488    TIP3     H2       HT       0.417000       1.00800           0
     53847 TIP3     10489    TIP3     OH2      OT      -0.834000       15.9994           0
     53848 TIP3     10489    TIP3     H1       HT       0.417000       1.00800           0
     53849 TIP3     10489    TIP3     H2       HT       0.417000       1.00800           0
     53850 TIP3     10490    TIP3     OH2      OT      -0.834000       15.9994           0
     53851 TIP3     10490    TIP3     H1       HT       0.417000       1.00800           0
     53852 TIP3     10490    TIP3     H2       HT       0.417000       1.00800           0
     53853 TIP3     10491    TIP3     OH2      OT      -0.834000       15.9994           0
     53854 TIP3     10491    TIP3     H1       HT       0.417000       1.00800           0
     53855 TIP3     10491    TIP3     H2       HT       0.417000       1.00800           0
     53856 TIP3     10492    TIP3     OH2      OT      -0.834000       15.9994           0
     53857 TIP3     10492    TIP3     H1       HT       0.417000       1.00800           0
     53858 TIP3     10492    TIP3     H2       HT       0.417000       1.00800           0
     53859 TIP3     10493    TIP3     OH2      OT      -0.834000       15.9994           0
     53860 TIP3     10493    TIP3     H1       HT       0.417000       1.00800           0
     53861 TIP3     10493    TIP3     H2       HT       0.417000       1.00800           0
     53862 TIP3     10494    TIP3     OH2      OT      -0.834000       15.9994           0
     53863 TIP3     10494    TIP3     H1       HT       0.417000       1.00800           0
     53864 TIP3     10494    TIP3     H2       HT       0.417000       1.00800           0
     53865 TIP3     10495    TIP3     OH2      OT      -0.834000       15.9994           0
     53866 TIP3     10495    TIP3     H1       HT       0.417000       1.00800           0
     53867 TIP3     10495    TIP3     H2       HT       0.417000       1.00800           0
     53868 TIP3     10496    TIP3     OH2      OT      -0.834000       15.9994           0
     53869 TIP3     10496    TIP3     H1       HT       0.417000       1.00800           0
     53870 TIP3     10496    TIP3     H2       HT       0.417000       1.00800           0
     53871 TIP3     10497    TIP3     OH2      OT      -0.834000       15.9994           0
     53872 TIP3     10497    TIP3     H1       HT       0.417000       1.00800           0
     53873 TIP3     10497    TIP3     H2       HT       0.417000       1.00800           0
     53874 TIP3     10498    TIP3     OH2      OT      -0.834000       15.9994           0
     53875 TIP3     10498    TIP3     H1       HT       0.417000       1.00800           0
     53876 TIP3     10498    TIP3     H2       HT       0.417000       1.00800           0
     53877 TIP3     10499    TIP3     OH2      OT      -0.834000       15.9994           0
     53878 TIP3     10499    TIP3     H1       HT       0.417000       1.00800           0
     53879 TIP3     10499    TIP3     H2       HT       0.417000       1.00800           0
     53880 TIP3     10500    TIP3     OH2      OT      -0.834000       15.9994           0
     53881 TIP3     10500    TIP3     H1       HT       0.417000       1.00800           0
     53882 TIP3     10500    TIP3     H2       HT       0.417000       1.00800           0
     53883 TIP3     10501    TIP3     OH2      OT      -0.834000       15.9994           0
     53884 TIP3     10501    TIP3     H1       HT       0.417000       1.00800           0
     53885 TIP3     10501    TIP3     H2       HT       0.417000       1.00800           0
     53886 TIP3     10502    TIP3     OH2      OT      -0.834000       15.9994           0
     53887 TIP3     10502    TIP3     H1       HT       0.417000       1.00800           0
     53888 TIP3     10502    TIP3     H2       HT       0.417000       1.00800           0
     53889 TIP3     10503    TIP3     OH2      OT      -0.834000       15.9994           0
     53890 TIP3     10503    TIP3     H1       HT       0.417000       1.00800           0
     53891 TIP3     10503    TIP3     H2       HT       0.417000       1.00800           0
     53892 TIP3     10504    TIP3     OH2      OT      -0.834000       15.9994           0
     53893 TIP3     10504    TIP3     H1       HT       0.417000       1.00800           0
     53894 TIP3     10504    TIP3     H2       HT       0.417000       1.00800           0
     53895 TIP3     10505    TIP3     OH2      OT      -0.834000       15.9994           0
     53896 TIP3     10505    TIP3     H1       HT       0.417000       1.00800           0
     53897 TIP3     10505    TIP3     H2       HT       0.417000       1.00800           0
     53898 TIP3     10506    TIP3     OH2      OT      -0.834000       15.9994           0
     53899 TIP3     10506    TIP3     H1       HT       0.417000       1.00800           0
     53900 TIP3     10506    TIP3     H2       HT       0.417000       1.00800           0
     53901 TIP3     10507    TIP3     OH2      OT      -0.834000       15.9994           0
     53902 TIP3     10507    TIP3     H1       HT       0.417000       1.00800           0
     53903 TIP3     10507    TIP3     H2       HT       0.417000       1.00800           0
     53904 TIP3     10508    TIP3     OH2      OT      -0.834000       15.9994           0
     53905 TIP3     10508    TIP3     H1       HT       0.417000       1.00800           0
     53906 TIP3     10508    TIP3     H2       HT       0.417000       1.00800           0
     53907 TIP3     10509    TIP3     OH2      OT      -0.834000       15.9994           0
     53908 TIP3     10509    TIP3     H1       HT       0.417000       1.00800           0
     53909 TIP3     10509    TIP3     H2       HT       0.417000       1.00800           0
     53910 TIP3     10510    TIP3     OH2      OT      -0.834000       15.9994           0
     53911 TIP3     10510    TIP3     H1       HT       0.417000       1.00800           0
     53912 TIP3     10510    TIP3     H2       HT       0.417000       1.00800           0
     53913 TIP3     10511    TIP3     OH2      OT      -0.834000       15.9994           0
     53914 TIP3     10511    TIP3     H1       HT       0.417000       1.00800           0
     53915 TIP3     10511    TIP3     H2       HT       0.417000       1.00800           0
     53916 TIP3     10512    TIP3     OH2      OT      -0.834000       15.9994           0
     53917 TIP3     10512    TIP3     H1       HT       0.417000       1.00800           0
     53918 TIP3     10512    TIP3     H2       HT       0.417000       1.00800           0
     53919 TIP3     10513    TIP3     OH2      OT      -0.834000       15.9994           0
     53920 TIP3     10513    TIP3     H1       HT       0.417000       1.00800           0
     53921 TIP3     10513    TIP3     H2       HT       0.417000       1.00800           0
     53922 TIP3     10514    TIP3     OH2      OT      -0.834000       15.9994           0
     53923 TIP3     10514    TIP3     H1       HT       0.417000       1.00800           0
     53924 TIP3     10514    TIP3     H2       HT       0.417000       1.00800           0
     53925 TIP3     10515    TIP3     OH2      OT      -0.834000       15.9994           0
     53926 TIP3     10515    TIP3     H1       HT       0.417000       1.00800           0
     53927 TIP3     10515    TIP3     H2       HT       0.417000       1.00800           0
     53928 TIP3     10516    TIP3     OH2      OT      -0.834000       15.9994           0
     53929 TIP3     10516    TIP3     H1       HT       0.417000       1.00800           0
     53930 TIP3     10516    TIP3     H2       HT       0.417000       1.00800           0
     53931 TIP3     10517    TIP3     OH2      OT      -0.834000       15.9994           0
     53932 TIP3     10517    TIP3     H1       HT       0.417000       1.00800           0
     53933 TIP3     10517    TIP3     H2       HT       0.417000       1.00800           0
     53934 TIP3     10518    TIP3     OH2      OT      -0.834000       15.9994           0
     53935 TIP3     10518    TIP3     H1       HT       0.417000       1.00800           0
     53936 TIP3     10518    TIP3     H2       HT       0.417000       1.00800           0
     53937 TIP3     10519    TIP3     OH2      OT      -0.834000       15.9994           0
     53938 TIP3     10519    TIP3     H1       HT       0.417000       1.00800           0
     53939 TIP3     10519    TIP3     H2       HT       0.417000       1.00800           0
     53940 TIP3     10520    TIP3     OH2      OT      -0.834000       15.9994           0
     53941 TIP3     10520    TIP3     H1       HT       0.417000       1.00800           0
     53942 TIP3     10520    TIP3     H2       HT       0.417000       1.00800           0
     53943 TIP3     10521    TIP3     OH2      OT      -0.834000       15.9994           0
     53944 TIP3     10521    TIP3     H1       HT       0.417000       1.00800           0
     53945 TIP3     10521    TIP3     H2       HT       0.417000       1.00800           0
     53946 TIP3     10522    TIP3     OH2      OT      -0.834000       15.9994           0
     53947 TIP3     10522    TIP3     H1       HT       0.417000       1.00800           0
     53948 TIP3     10522    TIP3     H2       HT       0.417000       1.00800           0
     53949 TIP3     10523    TIP3     OH2      OT      -0.834000       15.9994           0
     53950 TIP3     10523    TIP3     H1       HT       0.417000       1.00800           0
     53951 TIP3     10523    TIP3     H2       HT       0.417000       1.00800           0
     53952 TIP3     10524    TIP3     OH2      OT      -0.834000       15.9994           0
     53953 TIP3     10524    TIP3     H1       HT       0.417000       1.00800           0
     53954 TIP3     10524    TIP3     H2       HT       0.417000       1.00800           0
     53955 TIP3     10525    TIP3     OH2      OT      -0.834000       15.9994           0
     53956 TIP3     10525    TIP3     H1       HT       0.417000       1.00800           0
     53957 TIP3     10525    TIP3     H2       HT       0.417000       1.00800           0
     53958 TIP3     10526    TIP3     OH2      OT      -0.834000       15.9994           0
     53959 TIP3     10526    TIP3     H1       HT       0.417000       1.00800           0
     53960 TIP3     10526    TIP3     H2       HT       0.417000       1.00800           0
     53961 TIP3     10527    TIP3     OH2      OT      -0.834000       15.9994           0
     53962 TIP3     10527    TIP3     H1       HT       0.417000       1.00800           0
     53963 TIP3     10527    TIP3     H2       HT       0.417000       1.00800           0
     53964 TIP3     10528    TIP3     OH2      OT      -0.834000       15.9994           0
     53965 TIP3     10528    TIP3     H1       HT       0.417000       1.00800           0
     53966 TIP3     10528    TIP3     H2       HT       0.417000       1.00800           0
     53967 TIP3     10529    TIP3     OH2      OT      -0.834000       15.9994           0
     53968 TIP3     10529    TIP3     H1       HT       0.417000       1.00800           0
     53969 TIP3     10529    TIP3     H2       HT       0.417000       1.00800           0
     53970 TIP3     10530    TIP3     OH2      OT      -0.834000       15.9994           0
     53971 TIP3     10530    TIP3     H1       HT       0.417000       1.00800           0
     53972 TIP3     10530    TIP3     H2       HT       0.417000       1.00800           0
     53973 TIP3     10531    TIP3     OH2      OT      -0.834000       15.9994           0
     53974 TIP3     10531    TIP3     H1       HT       0.417000       1.00800           0
     53975 TIP3     10531    TIP3     H2       HT       0.417000       1.00800           0
     53976 TIP3     10532    TIP3     OH2      OT      -0.834000       15.9994           0
     53977 TIP3     10532    TIP3     H1       HT       0.417000       1.00800           0
     53978 TIP3     10532    TIP3     H2       HT       0.417000       1.00800           0
     53979 TIP3     10533    TIP3     OH2      OT      -0.834000       15.9994           0
     53980 TIP3     10533    TIP3     H1       HT       0.417000       1.00800           0
     53981 TIP3     10533    TIP3     H2       HT       0.417000       1.00800           0
     53982 TIP3     10534    TIP3     OH2      OT      -0.834000       15.9994           0
     53983 TIP3     10534    TIP3     H1       HT       0.417000       1.00800           0
     53984 TIP3     10534    TIP3     H2       HT       0.417000       1.00800           0
     53985 TIP3     10535    TIP3     OH2      OT      -0.834000       15.9994           0
     53986 TIP3     10535    TIP3     H1       HT       0.417000       1.00800           0
     53987 TIP3     10535    TIP3     H2       HT       0.417000       1.00800           0
     53988 TIP3     10536    TIP3     OH2      OT      -0.834000       15.9994           0
     53989 TIP3     10536    TIP3     H1       HT       0.417000       1.00800           0
     53990 TIP3     10536    TIP3     H2       HT       0.417000       1.00800           0
     53991 TIP3     10537    TIP3     OH2      OT      -0.834000       15.9994           0
     53992 TIP3     10537    TIP3     H1       HT       0.417000       1.00800           0
     53993 TIP3     10537    TIP3     H2       HT       0.417000       1.00800           0
     53994 TIP3     10538    TIP3     OH2      OT      -0.834000       15.9994           0
     53995 TIP3     10538    TIP3     H1       HT       0.417000       1.00800           0
     53996 TIP3     10538    TIP3     H2       HT       0.417000       1.00800           0
     53997 TIP3     10539    TIP3     OH2      OT      -0.834000       15.9994           0
     53998 TIP3     10539    TIP3     H1       HT       0.417000       1.00800           0
     53999 TIP3     10539    TIP3     H2       HT       0.417000       1.00800           0
     54000 TIP3     10540    TIP3     OH2      OT      -0.834000       15.9994           0
     54001 TIP3     10540    TIP3     H1       HT       0.417000       1.00800           0
     54002 TIP3     10540    TIP3     H2       HT       0.417000       1.00800           0
     54003 TIP3     10541    TIP3     OH2      OT      -0.834000       15.9994           0
     54004 TIP3     10541    TIP3     H1       HT       0.417000       1.00800           0
     54005 TIP3     10541    TIP3     H2       HT       0.417000       1.00800           0
     54006 TIP3     10542    TIP3     OH2      OT      -0.834000       15.9994           0
     54007 TIP3     10542    TIP3     H1       HT       0.417000       1.00800           0
     54008 TIP3     10542    TIP3     H2       HT       0.417000       1.00800           0
     54009 TIP3     10543    TIP3     OH2      OT      -0.834000       15.9994           0
     54010 TIP3     10543    TIP3     H1       HT       0.417000       1.00800           0
     54011 TIP3     10543    TIP3     H2       HT       0.417000       1.00800           0
     54012 TIP3     10544    TIP3     OH2      OT      -0.834000       15.9994           0
     54013 TIP3     10544    TIP3     H1       HT       0.417000       1.00800           0
     54014 TIP3     10544    TIP3     H2       HT       0.417000       1.00800           0
     54015 TIP3     10545    TIP3     OH2      OT      -0.834000       15.9994           0
     54016 TIP3     10545    TIP3     H1       HT       0.417000       1.00800           0
     54017 TIP3     10545    TIP3     H2       HT       0.417000       1.00800           0
     54018 TIP3     10546    TIP3     OH2      OT      -0.834000       15.9994           0
     54019 TIP3     10546    TIP3     H1       HT       0.417000       1.00800           0
     54020 TIP3     10546    TIP3     H2       HT       0.417000       1.00800           0
     54021 TIP3     10547    TIP3     OH2      OT      -0.834000       15.9994           0
     54022 TIP3     10547    TIP3     H1       HT       0.417000       1.00800           0
     54023 TIP3     10547    TIP3     H2       HT       0.417000       1.00800           0
     54024 TIP3     10548    TIP3     OH2      OT      -0.834000       15.9994           0
     54025 TIP3     10548    TIP3     H1       HT       0.417000       1.00800           0
     54026 TIP3     10548    TIP3     H2       HT       0.417000       1.00800           0
     54027 TIP3     10549    TIP3     OH2      OT      -0.834000       15.9994           0
     54028 TIP3     10549    TIP3     H1       HT       0.417000       1.00800           0
     54029 TIP3     10549    TIP3     H2       HT       0.417000       1.00800           0
     54030 TIP3     10550    TIP3     OH2      OT      -0.834000       15.9994           0
     54031 TIP3     10550    TIP3     H1       HT       0.417000       1.00800           0
     54032 TIP3     10550    TIP3     H2       HT       0.417000       1.00800           0
     54033 TIP3     10551    TIP3     OH2      OT      -0.834000       15.9994           0
     54034 TIP3     10551    TIP3     H1       HT       0.417000       1.00800           0
     54035 TIP3     10551    TIP3     H2       HT       0.417000       1.00800           0
     54036 TIP3     10552    TIP3     OH2      OT      -0.834000       15.9994           0
     54037 TIP3     10552    TIP3     H1       HT       0.417000       1.00800           0
     54038 TIP3     10552    TIP3     H2       HT       0.417000       1.00800           0
     54039 TIP3     10553    TIP3     OH2      OT      -0.834000       15.9994           0
     54040 TIP3     10553    TIP3     H1       HT       0.417000       1.00800           0
     54041 TIP3     10553    TIP3     H2       HT       0.417000       1.00800           0
     54042 TIP3     10554    TIP3     OH2      OT      -0.834000       15.9994           0
     54043 TIP3     10554    TIP3     H1       HT       0.417000       1.00800           0
     54044 TIP3     10554    TIP3     H2       HT       0.417000       1.00800           0
     54045 TIP3     10555    TIP3     OH2      OT      -0.834000       15.9994           0
     54046 TIP3     10555    TIP3     H1       HT       0.417000       1.00800           0
     54047 TIP3     10555    TIP3     H2       HT       0.417000       1.00800           0
     54048 TIP3     10556    TIP3     OH2      OT      -0.834000       15.9994           0
     54049 TIP3     10556    TIP3     H1       HT       0.417000       1.00800           0
     54050 TIP3     10556    TIP3     H2       HT       0.417000       1.00800           0
     54051 TIP3     10557    TIP3     OH2      OT      -0.834000       15.9994           0
     54052 TIP3     10557    TIP3     H1       HT       0.417000       1.00800           0
     54053 TIP3     10557    TIP3     H2       HT       0.417000       1.00800           0
     54054 TIP3     10558    TIP3     OH2      OT      -0.834000       15.9994           0
     54055 TIP3     10558    TIP3     H1       HT       0.417000       1.00800           0
     54056 TIP3     10558    TIP3     H2       HT       0.417000       1.00800           0
     54057 TIP3     10559    TIP3     OH2      OT      -0.834000       15.9994           0
     54058 TIP3     10559    TIP3     H1       HT       0.417000       1.00800           0
     54059 TIP3     10559    TIP3     H2       HT       0.417000       1.00800           0
     54060 TIP3     10560    TIP3     OH2      OT      -0.834000       15.9994           0
     54061 TIP3     10560    TIP3     H1       HT       0.417000       1.00800           0
     54062 TIP3     10560    TIP3     H2       HT       0.417000       1.00800           0
     54063 TIP3     10561    TIP3     OH2      OT      -0.834000       15.9994           0
     54064 TIP3     10561    TIP3     H1       HT       0.417000       1.00800           0
     54065 TIP3     10561    TIP3     H2       HT       0.417000       1.00800           0
     54066 TIP3     10562    TIP3     OH2      OT      -0.834000       15.9994           0
     54067 TIP3     10562    TIP3     H1       HT       0.417000       1.00800           0
     54068 TIP3     10562    TIP3     H2       HT       0.417000       1.00800           0
     54069 TIP3     10563    TIP3     OH2      OT      -0.834000       15.9994           0
     54070 TIP3     10563    TIP3     H1       HT       0.417000       1.00800           0
     54071 TIP3     10563    TIP3     H2       HT       0.417000       1.00800           0
     54072 TIP3     10564    TIP3     OH2      OT      -0.834000       15.9994           0
     54073 TIP3     10564    TIP3     H1       HT       0.417000       1.00800           0
     54074 TIP3     10564    TIP3     H2       HT       0.417000       1.00800           0
     54075 TIP3     10565    TIP3     OH2      OT      -0.834000       15.9994           0
     54076 TIP3     10565    TIP3     H1       HT       0.417000       1.00800           0
     54077 TIP3     10565    TIP3     H2       HT       0.417000       1.00800           0
     54078 TIP3     10566    TIP3     OH2      OT      -0.834000       15.9994           0
     54079 TIP3     10566    TIP3     H1       HT       0.417000       1.00800           0
     54080 TIP3     10566    TIP3     H2       HT       0.417000       1.00800           0
     54081 TIP3     10567    TIP3     OH2      OT      -0.834000       15.9994           0
     54082 TIP3     10567    TIP3     H1       HT       0.417000       1.00800           0
     54083 TIP3     10567    TIP3     H2       HT       0.417000       1.00800           0
     54084 TIP3     10568    TIP3     OH2      OT      -0.834000       15.9994           0
     54085 TIP3     10568    TIP3     H1       HT       0.417000       1.00800           0
     54086 TIP3     10568    TIP3     H2       HT       0.417000       1.00800           0
     54087 TIP3     10569    TIP3     OH2      OT      -0.834000       15.9994           0
     54088 TIP3     10569    TIP3     H1       HT       0.417000       1.00800           0
     54089 TIP3     10569    TIP3     H2       HT       0.417000       1.00800           0
     54090 TIP3     10570    TIP3     OH2      OT      -0.834000       15.9994           0
     54091 TIP3     10570    TIP3     H1       HT       0.417000       1.00800           0
     54092 TIP3     10570    TIP3     H2       HT       0.417000       1.00800           0
     54093 TIP3     10571    TIP3     OH2      OT      -0.834000       15.9994           0
     54094 TIP3     10571    TIP3     H1       HT       0.417000       1.00800           0
     54095 TIP3     10571    TIP3     H2       HT       0.417000       1.00800           0
     54096 TIP3     10572    TIP3     OH2      OT      -0.834000       15.9994           0
     54097 TIP3     10572    TIP3     H1       HT       0.417000       1.00800           0
     54098 TIP3     10572    TIP3     H2       HT       0.417000       1.00800           0
     54099 TIP3     10573    TIP3     OH2      OT      -0.834000       15.9994           0
     54100 TIP3     10573    TIP3     H1       HT       0.417000       1.00800           0
     54101 TIP3     10573    TIP3     H2       HT       0.417000       1.00800           0
     54102 TIP3     10574    TIP3     OH2      OT      -0.834000       15.9994           0
     54103 TIP3     10574    TIP3     H1       HT       0.417000       1.00800           0
     54104 TIP3     10574    TIP3     H2       HT       0.417000       1.00800           0
     54105 TIP3     10575    TIP3     OH2      OT      -0.834000       15.9994           0
     54106 TIP3     10575    TIP3     H1       HT       0.417000       1.00800           0
     54107 TIP3     10575    TIP3     H2       HT       0.417000       1.00800           0
     54108 TIP3     10576    TIP3     OH2      OT      -0.834000       15.9994           0
     54109 TIP3     10576    TIP3     H1       HT       0.417000       1.00800           0
     54110 TIP3     10576    TIP3     H2       HT       0.417000       1.00800           0
     54111 TIP3     10577    TIP3     OH2      OT      -0.834000       15.9994           0
     54112 TIP3     10577    TIP3     H1       HT       0.417000       1.00800           0
     54113 TIP3     10577    TIP3     H2       HT       0.417000       1.00800           0
     54114 TIP3     10578    TIP3     OH2      OT      -0.834000       15.9994           0
     54115 TIP3     10578    TIP3     H1       HT       0.417000       1.00800           0
     54116 TIP3     10578    TIP3     H2       HT       0.417000       1.00800           0
     54117 TIP3     10579    TIP3     OH2      OT      -0.834000       15.9994           0
     54118 TIP3     10579    TIP3     H1       HT       0.417000       1.00800           0
     54119 TIP3     10579    TIP3     H2       HT       0.417000       1.00800           0
     54120 TIP3     10580    TIP3     OH2      OT      -0.834000       15.9994           0
     54121 TIP3     10580    TIP3     H1       HT       0.417000       1.00800           0
     54122 TIP3     10580    TIP3     H2       HT       0.417000       1.00800           0
     54123 TIP3     10581    TIP3     OH2      OT      -0.834000       15.9994           0
     54124 TIP3     10581    TIP3     H1       HT       0.417000       1.00800           0
     54125 TIP3     10581    TIP3     H2       HT       0.417000       1.00800           0
     54126 TIP3     10582    TIP3     OH2      OT      -0.834000       15.9994           0
     54127 TIP3     10582    TIP3     H1       HT       0.417000       1.00800           0
     54128 TIP3     10582    TIP3     H2       HT       0.417000       1.00800           0
     54129 TIP3     10583    TIP3     OH2      OT      -0.834000       15.9994           0
     54130 TIP3     10583    TIP3     H1       HT       0.417000       1.00800           0
     54131 TIP3     10583    TIP3     H2       HT       0.417000       1.00800           0
     54132 TIP3     10584    TIP3     OH2      OT      -0.834000       15.9994           0
     54133 TIP3     10584    TIP3     H1       HT       0.417000       1.00800           0
     54134 TIP3     10584    TIP3     H2       HT       0.417000       1.00800           0
     54135 TIP3     10585    TIP3     OH2      OT      -0.834000       15.9994           0
     54136 TIP3     10585    TIP3     H1       HT       0.417000       1.00800           0
     54137 TIP3     10585    TIP3     H2       HT       0.417000       1.00800           0
     54138 TIP3     10586    TIP3     OH2      OT      -0.834000       15.9994           0
     54139 TIP3     10586    TIP3     H1       HT       0.417000       1.00800           0
     54140 TIP3     10586    TIP3     H2       HT       0.417000       1.00800           0
     54141 TIP3     10587    TIP3     OH2      OT      -0.834000       15.9994           0
     54142 TIP3     10587    TIP3     H1       HT       0.417000       1.00800           0
     54143 TIP3     10587    TIP3     H2       HT       0.417000       1.00800           0
     54144 TIP3     10588    TIP3     OH2      OT      -0.834000       15.9994           0
     54145 TIP3     10588    TIP3     H1       HT       0.417000       1.00800           0
     54146 TIP3     10588    TIP3     H2       HT       0.417000       1.00800           0
     54147 TIP3     10589    TIP3     OH2      OT      -0.834000       15.9994           0
     54148 TIP3     10589    TIP3     H1       HT       0.417000       1.00800           0
     54149 TIP3     10589    TIP3     H2       HT       0.417000       1.00800           0
     54150 TIP3     10590    TIP3     OH2      OT      -0.834000       15.9994           0
     54151 TIP3     10590    TIP3     H1       HT       0.417000       1.00800           0
     54152 TIP3     10590    TIP3     H2       HT       0.417000       1.00800           0
     54153 TIP3     10591    TIP3     OH2      OT      -0.834000       15.9994           0
     54154 TIP3     10591    TIP3     H1       HT       0.417000       1.00800           0
     54155 TIP3     10591    TIP3     H2       HT       0.417000       1.00800           0
     54156 TIP3     10592    TIP3     OH2      OT      -0.834000       15.9994           0
     54157 TIP3     10592    TIP3     H1       HT       0.417000       1.00800           0
     54158 TIP3     10592    TIP3     H2       HT       0.417000       1.00800           0
     54159 TIP3     10593    TIP3     OH2      OT      -0.834000       15.9994           0
     54160 TIP3     10593    TIP3     H1       HT       0.417000       1.00800           0
     54161 TIP3     10593    TIP3     H2       HT       0.417000       1.00800           0
     54162 TIP3     10594    TIP3     OH2      OT      -0.834000       15.9994           0
     54163 TIP3     10594    TIP3     H1       HT       0.417000       1.00800           0
     54164 TIP3     10594    TIP3     H2       HT       0.417000       1.00800           0
     54165 TIP3     10595    TIP3     OH2      OT      -0.834000       15.9994           0
     54166 TIP3     10595    TIP3     H1       HT       0.417000       1.00800           0
     54167 TIP3     10595    TIP3     H2       HT       0.417000       1.00800           0
     54168 TIP3     10596    TIP3     OH2      OT      -0.834000       15.9994           0
     54169 TIP3     10596    TIP3     H1       HT       0.417000       1.00800           0
     54170 TIP3     10596    TIP3     H2       HT       0.417000       1.00800           0
     54171 TIP3     10597    TIP3     OH2      OT      -0.834000       15.9994           0
     54172 TIP3     10597    TIP3     H1       HT       0.417000       1.00800           0
     54173 TIP3     10597    TIP3     H2       HT       0.417000       1.00800           0
     54174 TIP3     10598    TIP3     OH2      OT      -0.834000       15.9994           0
     54175 TIP3     10598    TIP3     H1       HT       0.417000       1.00800           0
     54176 TIP3     10598    TIP3     H2       HT       0.417000       1.00800           0
     54177 TIP3     10599    TIP3     OH2      OT      -0.834000       15.9994           0
     54178 TIP3     10599    TIP3     H1       HT       0.417000       1.00800           0
     54179 TIP3     10599    TIP3     H2       HT       0.417000       1.00800           0
     54180 TIP3     10600    TIP3     OH2      OT      -0.834000       15.9994           0
     54181 TIP3     10600    TIP3     H1       HT       0.417000       1.00800           0
     54182 TIP3     10600    TIP3     H2       HT       0.417000       1.00800           0
     54183 TIP3     10601    TIP3     OH2      OT      -0.834000       15.9994           0
     54184 TIP3     10601    TIP3     H1       HT       0.417000       1.00800           0
     54185 TIP3     10601    TIP3     H2       HT       0.417000       1.00800           0
     54186 TIP3     10602    TIP3     OH2      OT      -0.834000       15.9994           0
     54187 TIP3     10602    TIP3     H1       HT       0.417000       1.00800           0
     54188 TIP3     10602    TIP3     H2       HT       0.417000       1.00800           0
     54189 TIP3     10603    TIP3     OH2      OT      -0.834000       15.9994           0
     54190 TIP3     10603    TIP3     H1       HT       0.417000       1.00800           0
     54191 TIP3     10603    TIP3     H2       HT       0.417000       1.00800           0
     54192 TIP3     10604    TIP3     OH2      OT      -0.834000       15.9994           0
     54193 TIP3     10604    TIP3     H1       HT       0.417000       1.00800           0
     54194 TIP3     10604    TIP3     H2       HT       0.417000       1.00800           0
     54195 TIP3     10605    TIP3     OH2      OT      -0.834000       15.9994           0
     54196 TIP3     10605    TIP3     H1       HT       0.417000       1.00800           0
     54197 TIP3     10605    TIP3     H2       HT       0.417000       1.00800           0
     54198 TIP3     10606    TIP3     OH2      OT      -0.834000       15.9994           0
     54199 TIP3     10606    TIP3     H1       HT       0.417000       1.00800           0
     54200 TIP3     10606    TIP3     H2       HT       0.417000       1.00800           0
     54201 TIP3     10607    TIP3     OH2      OT      -0.834000       15.9994           0
     54202 TIP3     10607    TIP3     H1       HT       0.417000       1.00800           0
     54203 TIP3     10607    TIP3     H2       HT       0.417000       1.00800           0
     54204 TIP3     10608    TIP3     OH2      OT      -0.834000       15.9994           0
     54205 TIP3     10608    TIP3     H1       HT       0.417000       1.00800           0
     54206 TIP3     10608    TIP3     H2       HT       0.417000       1.00800           0
     54207 TIP3     10609    TIP3     OH2      OT      -0.834000       15.9994           0
     54208 TIP3     10609    TIP3     H1       HT       0.417000       1.00800           0
     54209 TIP3     10609    TIP3     H2       HT       0.417000       1.00800           0
     54210 TIP3     10610    TIP3     OH2      OT      -0.834000       15.9994           0
     54211 TIP3     10610    TIP3     H1       HT       0.417000       1.00800           0
     54212 TIP3     10610    TIP3     H2       HT       0.417000       1.00800           0
     54213 TIP3     10611    TIP3     OH2      OT      -0.834000       15.9994           0
     54214 TIP3     10611    TIP3     H1       HT       0.417000       1.00800           0
     54215 TIP3     10611    TIP3     H2       HT       0.417000       1.00800           0
     54216 TIP3     10612    TIP3     OH2      OT      -0.834000       15.9994           0
     54217 TIP3     10612    TIP3     H1       HT       0.417000       1.00800           0
     54218 TIP3     10612    TIP3     H2       HT       0.417000       1.00800           0
     54219 TIP3     10613    TIP3     OH2      OT      -0.834000       15.9994           0
     54220 TIP3     10613    TIP3     H1       HT       0.417000       1.00800           0
     54221 TIP3     10613    TIP3     H2       HT       0.417000       1.00800           0
     54222 TIP3     10614    TIP3     OH2      OT      -0.834000       15.9994           0
     54223 TIP3     10614    TIP3     H1       HT       0.417000       1.00800           0
     54224 TIP3     10614    TIP3     H2       HT       0.417000       1.00800           0
     54225 TIP3     10615    TIP3     OH2      OT      -0.834000       15.9994           0
     54226 TIP3     10615    TIP3     H1       HT       0.417000       1.00800           0
     54227 TIP3     10615    TIP3     H2       HT       0.417000       1.00800           0
     54228 TIP3     10616    TIP3     OH2      OT      -0.834000       15.9994           0
     54229 TIP3     10616    TIP3     H1       HT       0.417000       1.00800           0
     54230 TIP3     10616    TIP3     H2       HT       0.417000       1.00800           0
     54231 TIP3     10617    TIP3     OH2      OT      -0.834000       15.9994           0
     54232 TIP3     10617    TIP3     H1       HT       0.417000       1.00800           0
     54233 TIP3     10617    TIP3     H2       HT       0.417000       1.00800           0
     54234 TIP3     10618    TIP3     OH2      OT      -0.834000       15.9994           0
     54235 TIP3     10618    TIP3     H1       HT       0.417000       1.00800           0
     54236 TIP3     10618    TIP3     H2       HT       0.417000       1.00800           0
     54237 TIP3     10619    TIP3     OH2      OT      -0.834000       15.9994           0
     54238 TIP3     10619    TIP3     H1       HT       0.417000       1.00800           0
     54239 TIP3     10619    TIP3     H2       HT       0.417000       1.00800           0
     54240 TIP3     10620    TIP3     OH2      OT      -0.834000       15.9994           0
     54241 TIP3     10620    TIP3     H1       HT       0.417000       1.00800           0
     54242 TIP3     10620    TIP3     H2       HT       0.417000       1.00800           0
     54243 TIP3     10621    TIP3     OH2      OT      -0.834000       15.9994           0
     54244 TIP3     10621    TIP3     H1       HT       0.417000       1.00800           0
     54245 TIP3     10621    TIP3     H2       HT       0.417000       1.00800           0
     54246 TIP3     10622    TIP3     OH2      OT      -0.834000       15.9994           0
     54247 TIP3     10622    TIP3     H1       HT       0.417000       1.00800           0
     54248 TIP3     10622    TIP3     H2       HT       0.417000       1.00800           0
     54249 TIP3     10623    TIP3     OH2      OT      -0.834000       15.9994           0
     54250 TIP3     10623    TIP3     H1       HT       0.417000       1.00800           0
     54251 TIP3     10623    TIP3     H2       HT       0.417000       1.00800           0
     54252 TIP3     10624    TIP3     OH2      OT      -0.834000       15.9994           0
     54253 TIP3     10624    TIP3     H1       HT       0.417000       1.00800           0
     54254 TIP3     10624    TIP3     H2       HT       0.417000       1.00800           0
     54255 TIP3     10625    TIP3     OH2      OT      -0.834000       15.9994           0
     54256 TIP3     10625    TIP3     H1       HT       0.417000       1.00800           0
     54257 TIP3     10625    TIP3     H2       HT       0.417000       1.00800           0
     54258 TIP3     10626    TIP3     OH2      OT      -0.834000       15.9994           0
     54259 TIP3     10626    TIP3     H1       HT       0.417000       1.00800           0
     54260 TIP3     10626    TIP3     H2       HT       0.417000       1.00800           0
     54261 TIP3     10627    TIP3     OH2      OT      -0.834000       15.9994           0
     54262 TIP3     10627    TIP3     H1       HT       0.417000       1.00800           0
     54263 TIP3     10627    TIP3     H2       HT       0.417000       1.00800           0
     54264 TIP3     10628    TIP3     OH2      OT      -0.834000       15.9994           0
     54265 TIP3     10628    TIP3     H1       HT       0.417000       1.00800           0
     54266 TIP3     10628    TIP3     H2       HT       0.417000       1.00800           0
     54267 TIP3     10629    TIP3     OH2      OT      -0.834000       15.9994           0
     54268 TIP3     10629    TIP3     H1       HT       0.417000       1.00800           0
     54269 TIP3     10629    TIP3     H2       HT       0.417000       1.00800           0
     54270 TIP3     10630    TIP3     OH2      OT      -0.834000       15.9994           0
     54271 TIP3     10630    TIP3     H1       HT       0.417000       1.00800           0
     54272 TIP3     10630    TIP3     H2       HT       0.417000       1.00800           0
     54273 TIP3     10631    TIP3     OH2      OT      -0.834000       15.9994           0
     54274 TIP3     10631    TIP3     H1       HT       0.417000       1.00800           0
     54275 TIP3     10631    TIP3     H2       HT       0.417000       1.00800           0
     54276 TIP3     10632    TIP3     OH2      OT      -0.834000       15.9994           0
     54277 TIP3     10632    TIP3     H1       HT       0.417000       1.00800           0
     54278 TIP3     10632    TIP3     H2       HT       0.417000       1.00800           0
     54279 TIP3     10633    TIP3     OH2      OT      -0.834000       15.9994           0
     54280 TIP3     10633    TIP3     H1       HT       0.417000       1.00800           0
     54281 TIP3     10633    TIP3     H2       HT       0.417000       1.00800           0
     54282 TIP3     10634    TIP3     OH2      OT      -0.834000       15.9994           0
     54283 TIP3     10634    TIP3     H1       HT       0.417000       1.00800           0
     54284 TIP3     10634    TIP3     H2       HT       0.417000       1.00800           0
     54285 TIP3     10635    TIP3     OH2      OT      -0.834000       15.9994           0
     54286 TIP3     10635    TIP3     H1       HT       0.417000       1.00800           0
     54287 TIP3     10635    TIP3     H2       HT       0.417000       1.00800           0
     54288 TIP3     10636    TIP3     OH2      OT      -0.834000       15.9994           0
     54289 TIP3     10636    TIP3     H1       HT       0.417000       1.00800           0
     54290 TIP3     10636    TIP3     H2       HT       0.417000       1.00800           0
     54291 TIP3     10637    TIP3     OH2      OT      -0.834000       15.9994           0
     54292 TIP3     10637    TIP3     H1       HT       0.417000       1.00800           0
     54293 TIP3     10637    TIP3     H2       HT       0.417000       1.00800           0
     54294 TIP3     10638    TIP3     OH2      OT      -0.834000       15.9994           0
     54295 TIP3     10638    TIP3     H1       HT       0.417000       1.00800           0
     54296 TIP3     10638    TIP3     H2       HT       0.417000       1.00800           0
     54297 TIP3     10639    TIP3     OH2      OT      -0.834000       15.9994           0
     54298 TIP3     10639    TIP3     H1       HT       0.417000       1.00800           0
     54299 TIP3     10639    TIP3     H2       HT       0.417000       1.00800           0
     54300 TIP3     10640    TIP3     OH2      OT      -0.834000       15.9994           0
     54301 TIP3     10640    TIP3     H1       HT       0.417000       1.00800           0
     54302 TIP3     10640    TIP3     H2       HT       0.417000       1.00800           0
     54303 TIP3     10641    TIP3     OH2      OT      -0.834000       15.9994           0
     54304 TIP3     10641    TIP3     H1       HT       0.417000       1.00800           0
     54305 TIP3     10641    TIP3     H2       HT       0.417000       1.00800           0
     54306 TIP3     10642    TIP3     OH2      OT      -0.834000       15.9994           0
     54307 TIP3     10642    TIP3     H1       HT       0.417000       1.00800           0
     54308 TIP3     10642    TIP3     H2       HT       0.417000       1.00800           0
     54309 TIP3     10643    TIP3     OH2      OT      -0.834000       15.9994           0
     54310 TIP3     10643    TIP3     H1       HT       0.417000       1.00800           0
     54311 TIP3     10643    TIP3     H2       HT       0.417000       1.00800           0
     54312 TIP3     10644    TIP3     OH2      OT      -0.834000       15.9994           0
     54313 TIP3     10644    TIP3     H1       HT       0.417000       1.00800           0
     54314 TIP3     10644    TIP3     H2       HT       0.417000       1.00800           0
     54315 TIP3     10645    TIP3     OH2      OT      -0.834000       15.9994           0
     54316 TIP3     10645    TIP3     H1       HT       0.417000       1.00800           0
     54317 TIP3     10645    TIP3     H2       HT       0.417000       1.00800           0
     54318 TIP3     10646    TIP3     OH2      OT      -0.834000       15.9994           0
     54319 TIP3     10646    TIP3     H1       HT       0.417000       1.00800           0
     54320 TIP3     10646    TIP3     H2       HT       0.417000       1.00800           0
     54321 TIP3     10647    TIP3     OH2      OT      -0.834000       15.9994           0
     54322 TIP3     10647    TIP3     H1       HT       0.417000       1.00800           0
     54323 TIP3     10647    TIP3     H2       HT       0.417000       1.00800           0
     54324 TIP3     10648    TIP3     OH2      OT      -0.834000       15.9994           0
     54325 TIP3     10648    TIP3     H1       HT       0.417000       1.00800           0
     54326 TIP3     10648    TIP3     H2       HT       0.417000       1.00800           0
     54327 TIP3     10649    TIP3     OH2      OT      -0.834000       15.9994           0
     54328 TIP3     10649    TIP3     H1       HT       0.417000       1.00800           0
     54329 TIP3     10649    TIP3     H2       HT       0.417000       1.00800           0
     54330 TIP3     10650    TIP3     OH2      OT      -0.834000       15.9994           0
     54331 TIP3     10650    TIP3     H1       HT       0.417000       1.00800           0
     54332 TIP3     10650    TIP3     H2       HT       0.417000       1.00800           0
     54333 TIP3     10651    TIP3     OH2      OT      -0.834000       15.9994           0
     54334 TIP3     10651    TIP3     H1       HT       0.417000       1.00800           0
     54335 TIP3     10651    TIP3     H2       HT       0.417000       1.00800           0
     54336 TIP3     10652    TIP3     OH2      OT      -0.834000       15.9994           0
     54337 TIP3     10652    TIP3     H1       HT       0.417000       1.00800           0
     54338 TIP3     10652    TIP3     H2       HT       0.417000       1.00800           0
     54339 TIP3     10653    TIP3     OH2      OT      -0.834000       15.9994           0
     54340 TIP3     10653    TIP3     H1       HT       0.417000       1.00800           0
     54341 TIP3     10653    TIP3     H2       HT       0.417000       1.00800           0
     54342 TIP3     10654    TIP3     OH2      OT      -0.834000       15.9994           0
     54343 TIP3     10654    TIP3     H1       HT       0.417000       1.00800           0
     54344 TIP3     10654    TIP3     H2       HT       0.417000       1.00800           0
     54345 TIP3     10655    TIP3     OH2      OT      -0.834000       15.9994           0
     54346 TIP3     10655    TIP3     H1       HT       0.417000       1.00800           0
     54347 TIP3     10655    TIP3     H2       HT       0.417000       1.00800           0
     54348 TIP3     10656    TIP3     OH2      OT      -0.834000       15.9994           0
     54349 TIP3     10656    TIP3     H1       HT       0.417000       1.00800           0
     54350 TIP3     10656    TIP3     H2       HT       0.417000       1.00800           0
     54351 TIP3     10657    TIP3     OH2      OT      -0.834000       15.9994           0
     54352 TIP3     10657    TIP3     H1       HT       0.417000       1.00800           0
     54353 TIP3     10657    TIP3     H2       HT       0.417000       1.00800           0
     54354 TIP3     10658    TIP3     OH2      OT      -0.834000       15.9994           0
     54355 TIP3     10658    TIP3     H1       HT       0.417000       1.00800           0
     54356 TIP3     10658    TIP3     H2       HT       0.417000       1.00800           0
     54357 TIP3     10659    TIP3     OH2      OT      -0.834000       15.9994           0
     54358 TIP3     10659    TIP3     H1       HT       0.417000       1.00800           0
     54359 TIP3     10659    TIP3     H2       HT       0.417000       1.00800           0
     54360 TIP3     10660    TIP3     OH2      OT      -0.834000       15.9994           0
     54361 TIP3     10660    TIP3     H1       HT       0.417000       1.00800           0
     54362 TIP3     10660    TIP3     H2       HT       0.417000       1.00800           0
     54363 TIP3     10661    TIP3     OH2      OT      -0.834000       15.9994           0
     54364 TIP3     10661    TIP3     H1       HT       0.417000       1.00800           0
     54365 TIP3     10661    TIP3     H2       HT       0.417000       1.00800           0
     54366 TIP3     10662    TIP3     OH2      OT      -0.834000       15.9994           0
     54367 TIP3     10662    TIP3     H1       HT       0.417000       1.00800           0
     54368 TIP3     10662    TIP3     H2       HT       0.417000       1.00800           0
     54369 TIP3     10663    TIP3     OH2      OT      -0.834000       15.9994           0
     54370 TIP3     10663    TIP3     H1       HT       0.417000       1.00800           0
     54371 TIP3     10663    TIP3     H2       HT       0.417000       1.00800           0
     54372 TIP3     10664    TIP3     OH2      OT      -0.834000       15.9994           0
     54373 TIP3     10664    TIP3     H1       HT       0.417000       1.00800           0
     54374 TIP3     10664    TIP3     H2       HT       0.417000       1.00800           0
     54375 TIP3     10665    TIP3     OH2      OT      -0.834000       15.9994           0
     54376 TIP3     10665    TIP3     H1       HT       0.417000       1.00800           0
     54377 TIP3     10665    TIP3     H2       HT       0.417000       1.00800           0
     54378 TIP3     10666    TIP3     OH2      OT      -0.834000       15.9994           0
     54379 TIP3     10666    TIP3     H1       HT       0.417000       1.00800           0
     54380 TIP3     10666    TIP3     H2       HT       0.417000       1.00800           0
     54381 TIP3     10667    TIP3     OH2      OT      -0.834000       15.9994           0
     54382 TIP3     10667    TIP3     H1       HT       0.417000       1.00800           0
     54383 TIP3     10667    TIP3     H2       HT       0.417000       1.00800           0
     54384 TIP3     10668    TIP3     OH2      OT      -0.834000       15.9994           0
     54385 TIP3     10668    TIP3     H1       HT       0.417000       1.00800           0
     54386 TIP3     10668    TIP3     H2       HT       0.417000       1.00800           0
     54387 TIP3     10669    TIP3     OH2      OT      -0.834000       15.9994           0
     54388 TIP3     10669    TIP3     H1       HT       0.417000       1.00800           0
     54389 TIP3     10669    TIP3     H2       HT       0.417000       1.00800           0
     54390 TIP3     10670    TIP3     OH2      OT      -0.834000       15.9994           0
     54391 TIP3     10670    TIP3     H1       HT       0.417000       1.00800           0
     54392 TIP3     10670    TIP3     H2       HT       0.417000       1.00800           0
     54393 TIP3     10671    TIP3     OH2      OT      -0.834000       15.9994           0
     54394 TIP3     10671    TIP3     H1       HT       0.417000       1.00800           0
     54395 TIP3     10671    TIP3     H2       HT       0.417000       1.00800           0
     54396 TIP3     10672    TIP3     OH2      OT      -0.834000       15.9994           0
     54397 TIP3     10672    TIP3     H1       HT       0.417000       1.00800           0
     54398 TIP3     10672    TIP3     H2       HT       0.417000       1.00800           0
     54399 TIP3     10673    TIP3     OH2      OT      -0.834000       15.9994           0
     54400 TIP3     10673    TIP3     H1       HT       0.417000       1.00800           0
     54401 TIP3     10673    TIP3     H2       HT       0.417000       1.00800           0
     54402 TIP3     10674    TIP3     OH2      OT      -0.834000       15.9994           0
     54403 TIP3     10674    TIP3     H1       HT       0.417000       1.00800           0
     54404 TIP3     10674    TIP3     H2       HT       0.417000       1.00800           0
     54405 TIP3     10675    TIP3     OH2      OT      -0.834000       15.9994           0
     54406 TIP3     10675    TIP3     H1       HT       0.417000       1.00800           0
     54407 TIP3     10675    TIP3     H2       HT       0.417000       1.00800           0
     54408 TIP3     10676    TIP3     OH2      OT      -0.834000       15.9994           0
     54409 TIP3     10676    TIP3     H1       HT       0.417000       1.00800           0
     54410 TIP3     10676    TIP3     H2       HT       0.417000       1.00800           0
     54411 TIP3     10677    TIP3     OH2      OT      -0.834000       15.9994           0
     54412 TIP3     10677    TIP3     H1       HT       0.417000       1.00800           0
     54413 TIP3     10677    TIP3     H2       HT       0.417000       1.00800           0
     54414 TIP3     10678    TIP3     OH2      OT      -0.834000       15.9994           0
     54415 TIP3     10678    TIP3     H1       HT       0.417000       1.00800           0
     54416 TIP3     10678    TIP3     H2       HT       0.417000       1.00800           0
     54417 TIP3     10679    TIP3     OH2      OT      -0.834000       15.9994           0
     54418 TIP3     10679    TIP3     H1       HT       0.417000       1.00800           0
     54419 TIP3     10679    TIP3     H2       HT       0.417000       1.00800           0
     54420 TIP3     10680    TIP3     OH2      OT      -0.834000       15.9994           0
     54421 TIP3     10680    TIP3     H1       HT       0.417000       1.00800           0
     54422 TIP3     10680    TIP3     H2       HT       0.417000       1.00800           0
     54423 TIP3     10681    TIP3     OH2      OT      -0.834000       15.9994           0
     54424 TIP3     10681    TIP3     H1       HT       0.417000       1.00800           0
     54425 TIP3     10681    TIP3     H2       HT       0.417000       1.00800           0
     54426 TIP3     10682    TIP3     OH2      OT      -0.834000       15.9994           0
     54427 TIP3     10682    TIP3     H1       HT       0.417000       1.00800           0
     54428 TIP3     10682    TIP3     H2       HT       0.417000       1.00800           0
     54429 TIP3     10683    TIP3     OH2      OT      -0.834000       15.9994           0
     54430 TIP3     10683    TIP3     H1       HT       0.417000       1.00800           0
     54431 TIP3     10683    TIP3     H2       HT       0.417000       1.00800           0
     54432 TIP3     10684    TIP3     OH2      OT      -0.834000       15.9994           0
     54433 TIP3     10684    TIP3     H1       HT       0.417000       1.00800           0
     54434 TIP3     10684    TIP3     H2       HT       0.417000       1.00800           0
     54435 TIP3     10685    TIP3     OH2      OT      -0.834000       15.9994           0
     54436 TIP3     10685    TIP3     H1       HT       0.417000       1.00800           0
     54437 TIP3     10685    TIP3     H2       HT       0.417000       1.00800           0
     54438 TIP3     10686    TIP3     OH2      OT      -0.834000       15.9994           0
     54439 TIP3     10686    TIP3     H1       HT       0.417000       1.00800           0
     54440 TIP3     10686    TIP3     H2       HT       0.417000       1.00800           0
     54441 TIP3     10687    TIP3     OH2      OT      -0.834000       15.9994           0
     54442 TIP3     10687    TIP3     H1       HT       0.417000       1.00800           0
     54443 TIP3     10687    TIP3     H2       HT       0.417000       1.00800           0
     54444 TIP3     10688    TIP3     OH2      OT      -0.834000       15.9994           0
     54445 TIP3     10688    TIP3     H1       HT       0.417000       1.00800           0
     54446 TIP3     10688    TIP3     H2       HT       0.417000       1.00800           0
     54447 TIP3     10689    TIP3     OH2      OT      -0.834000       15.9994           0
     54448 TIP3     10689    TIP3     H1       HT       0.417000       1.00800           0
     54449 TIP3     10689    TIP3     H2       HT       0.417000       1.00800           0
     54450 TIP3     10690    TIP3     OH2      OT      -0.834000       15.9994           0
     54451 TIP3     10690    TIP3     H1       HT       0.417000       1.00800           0
     54452 TIP3     10690    TIP3     H2       HT       0.417000       1.00800           0
     54453 TIP3     10691    TIP3     OH2      OT      -0.834000       15.9994           0
     54454 TIP3     10691    TIP3     H1       HT       0.417000       1.00800           0
     54455 TIP3     10691    TIP3     H2       HT       0.417000       1.00800           0
     54456 TIP3     10692    TIP3     OH2      OT      -0.834000       15.9994           0
     54457 TIP3     10692    TIP3     H1       HT       0.417000       1.00800           0
     54458 TIP3     10692    TIP3     H2       HT       0.417000       1.00800           0
     54459 TIP3     10693    TIP3     OH2      OT      -0.834000       15.9994           0
     54460 TIP3     10693    TIP3     H1       HT       0.417000       1.00800           0
     54461 TIP3     10693    TIP3     H2       HT       0.417000       1.00800           0
     54462 TIP3     10694    TIP3     OH2      OT      -0.834000       15.9994           0
     54463 TIP3     10694    TIP3     H1       HT       0.417000       1.00800           0
     54464 TIP3     10694    TIP3     H2       HT       0.417000       1.00800           0
     54465 TIP3     10695    TIP3     OH2      OT      -0.834000       15.9994           0
     54466 TIP3     10695    TIP3     H1       HT       0.417000       1.00800           0
     54467 TIP3     10695    TIP3     H2       HT       0.417000       1.00800           0
     54468 TIP3     10696    TIP3     OH2      OT      -0.834000       15.9994           0
     54469 TIP3     10696    TIP3     H1       HT       0.417000       1.00800           0
     54470 TIP3     10696    TIP3     H2       HT       0.417000       1.00800           0
     54471 TIP3     10697    TIP3     OH2      OT      -0.834000       15.9994           0
     54472 TIP3     10697    TIP3     H1       HT       0.417000       1.00800           0
     54473 TIP3     10697    TIP3     H2       HT       0.417000       1.00800           0
     54474 TIP3     10698    TIP3     OH2      OT      -0.834000       15.9994           0
     54475 TIP3     10698    TIP3     H1       HT       0.417000       1.00800           0
     54476 TIP3     10698    TIP3     H2       HT       0.417000       1.00800           0
     54477 TIP3     10699    TIP3     OH2      OT      -0.834000       15.9994           0
     54478 TIP3     10699    TIP3     H1       HT       0.417000       1.00800           0
     54479 TIP3     10699    TIP3     H2       HT       0.417000       1.00800           0
     54480 TIP3     10700    TIP3     OH2      OT      -0.834000       15.9994           0
     54481 TIP3     10700    TIP3     H1       HT       0.417000       1.00800           0
     54482 TIP3     10700    TIP3     H2       HT       0.417000       1.00800           0
     54483 TIP3     10701    TIP3     OH2      OT      -0.834000       15.9994           0
     54484 TIP3     10701    TIP3     H1       HT       0.417000       1.00800           0
     54485 TIP3     10701    TIP3     H2       HT       0.417000       1.00800           0
     54486 TIP3     10702    TIP3     OH2      OT      -0.834000       15.9994           0
     54487 TIP3     10702    TIP3     H1       HT       0.417000       1.00800           0
     54488 TIP3     10702    TIP3     H2       HT       0.417000       1.00800           0
     54489 TIP3     10703    TIP3     OH2      OT      -0.834000       15.9994           0
     54490 TIP3     10703    TIP3     H1       HT       0.417000       1.00800           0
     54491 TIP3     10703    TIP3     H2       HT       0.417000       1.00800           0
     54492 TIP3     10704    TIP3     OH2      OT      -0.834000       15.9994           0
     54493 TIP3     10704    TIP3     H1       HT       0.417000       1.00800           0
     54494 TIP3     10704    TIP3     H2       HT       0.417000       1.00800           0
     54495 TIP3     10705    TIP3     OH2      OT      -0.834000       15.9994           0
     54496 TIP3     10705    TIP3     H1       HT       0.417000       1.00800           0
     54497 TIP3     10705    TIP3     H2       HT       0.417000       1.00800           0
     54498 TIP3     10706    TIP3     OH2      OT      -0.834000       15.9994           0
     54499 TIP3     10706    TIP3     H1       HT       0.417000       1.00800           0
     54500 TIP3     10706    TIP3     H2       HT       0.417000       1.00800           0
     54501 TIP3     10707    TIP3     OH2      OT      -0.834000       15.9994           0
     54502 TIP3     10707    TIP3     H1       HT       0.417000       1.00800           0
     54503 TIP3     10707    TIP3     H2       HT       0.417000       1.00800           0
     54504 TIP3     10708    TIP3     OH2      OT      -0.834000       15.9994           0
     54505 TIP3     10708    TIP3     H1       HT       0.417000       1.00800           0
     54506 TIP3     10708    TIP3     H2       HT       0.417000       1.00800           0
     54507 TIP3     10709    TIP3     OH2      OT      -0.834000       15.9994           0
     54508 TIP3     10709    TIP3     H1       HT       0.417000       1.00800           0
     54509 TIP3     10709    TIP3     H2       HT       0.417000       1.00800           0
     54510 TIP3     10710    TIP3     OH2      OT      -0.834000       15.9994           0
     54511 TIP3     10710    TIP3     H1       HT       0.417000       1.00800           0
     54512 TIP3     10710    TIP3     H2       HT       0.417000       1.00800           0
     54513 TIP3     10711    TIP3     OH2      OT      -0.834000       15.9994           0
     54514 TIP3     10711    TIP3     H1       HT       0.417000       1.00800           0
     54515 TIP3     10711    TIP3     H2       HT       0.417000       1.00800           0
     54516 TIP3     10712    TIP3     OH2      OT      -0.834000       15.9994           0
     54517 TIP3     10712    TIP3     H1       HT       0.417000       1.00800           0
     54518 TIP3     10712    TIP3     H2       HT       0.417000       1.00800           0
     54519 TIP3     10713    TIP3     OH2      OT      -0.834000       15.9994           0
     54520 TIP3     10713    TIP3     H1       HT       0.417000       1.00800           0
     54521 TIP3     10713    TIP3     H2       HT       0.417000       1.00800           0
     54522 TIP3     10714    TIP3     OH2      OT      -0.834000       15.9994           0
     54523 TIP3     10714    TIP3     H1       HT       0.417000       1.00800           0
     54524 TIP3     10714    TIP3     H2       HT       0.417000       1.00800           0
     54525 TIP3     10715    TIP3     OH2      OT      -0.834000       15.9994           0
     54526 TIP3     10715    TIP3     H1       HT       0.417000       1.00800           0
     54527 TIP3     10715    TIP3     H2       HT       0.417000       1.00800           0
     54528 TIP3     10716    TIP3     OH2      OT      -0.834000       15.9994           0
     54529 TIP3     10716    TIP3     H1       HT       0.417000       1.00800           0
     54530 TIP3     10716    TIP3     H2       HT       0.417000       1.00800           0
     54531 TIP3     10717    TIP3     OH2      OT      -0.834000       15.9994           0
     54532 TIP3     10717    TIP3     H1       HT       0.417000       1.00800           0
     54533 TIP3     10717    TIP3     H2       HT       0.417000       1.00800           0
     54534 TIP3     10718    TIP3     OH2      OT      -0.834000       15.9994           0
     54535 TIP3     10718    TIP3     H1       HT       0.417000       1.00800           0
     54536 TIP3     10718    TIP3     H2       HT       0.417000       1.00800           0
     54537 TIP3     10719    TIP3     OH2      OT      -0.834000       15.9994           0
     54538 TIP3     10719    TIP3     H1       HT       0.417000       1.00800           0
     54539 TIP3     10719    TIP3     H2       HT       0.417000       1.00800           0
     54540 TIP3     10720    TIP3     OH2      OT      -0.834000       15.9994           0
     54541 TIP3     10720    TIP3     H1       HT       0.417000       1.00800           0
     54542 TIP3     10720    TIP3     H2       HT       0.417000       1.00800           0
     54543 TIP3     10721    TIP3     OH2      OT      -0.834000       15.9994           0
     54544 TIP3     10721    TIP3     H1       HT       0.417000       1.00800           0
     54545 TIP3     10721    TIP3     H2       HT       0.417000       1.00800           0
     54546 TIP3     10722    TIP3     OH2      OT      -0.834000       15.9994           0
     54547 TIP3     10722    TIP3     H1       HT       0.417000       1.00800           0
     54548 TIP3     10722    TIP3     H2       HT       0.417000       1.00800           0
     54549 TIP3     10723    TIP3     OH2      OT      -0.834000       15.9994           0
     54550 TIP3     10723    TIP3     H1       HT       0.417000       1.00800           0
     54551 TIP3     10723    TIP3     H2       HT       0.417000       1.00800           0
     54552 TIP3     10724    TIP3     OH2      OT      -0.834000       15.9994           0
     54553 TIP3     10724    TIP3     H1       HT       0.417000       1.00800           0
     54554 TIP3     10724    TIP3     H2       HT       0.417000       1.00800           0
     54555 TIP3     10725    TIP3     OH2      OT      -0.834000       15.9994           0
     54556 TIP3     10725    TIP3     H1       HT       0.417000       1.00800           0
     54557 TIP3     10725    TIP3     H2       HT       0.417000       1.00800           0
     54558 TIP3     10726    TIP3     OH2      OT      -0.834000       15.9994           0
     54559 TIP3     10726    TIP3     H1       HT       0.417000       1.00800           0
     54560 TIP3     10726    TIP3     H2       HT       0.417000       1.00800           0
     54561 TIP3     10727    TIP3     OH2      OT      -0.834000       15.9994           0
     54562 TIP3     10727    TIP3     H1       HT       0.417000       1.00800           0
     54563 TIP3     10727    TIP3     H2       HT       0.417000       1.00800           0
     54564 TIP3     10728    TIP3     OH2      OT      -0.834000       15.9994           0
     54565 TIP3     10728    TIP3     H1       HT       0.417000       1.00800           0
     54566 TIP3     10728    TIP3     H2       HT       0.417000       1.00800           0
     54567 TIP3     10729    TIP3     OH2      OT      -0.834000       15.9994           0
     54568 TIP3     10729    TIP3     H1       HT       0.417000       1.00800           0
     54569 TIP3     10729    TIP3     H2       HT       0.417000       1.00800           0
     54570 TIP3     10730    TIP3     OH2      OT      -0.834000       15.9994           0
     54571 TIP3     10730    TIP3     H1       HT       0.417000       1.00800           0
     54572 TIP3     10730    TIP3     H2       HT       0.417000       1.00800           0
     54573 TIP3     10731    TIP3     OH2      OT      -0.834000       15.9994           0
     54574 TIP3     10731    TIP3     H1       HT       0.417000       1.00800           0
     54575 TIP3     10731    TIP3     H2       HT       0.417000       1.00800           0
     54576 TIP3     10732    TIP3     OH2      OT      -0.834000       15.9994           0
     54577 TIP3     10732    TIP3     H1       HT       0.417000       1.00800           0
     54578 TIP3     10732    TIP3     H2       HT       0.417000       1.00800           0
     54579 TIP3     10733    TIP3     OH2      OT      -0.834000       15.9994           0
     54580 TIP3     10733    TIP3     H1       HT       0.417000       1.00800           0
     54581 TIP3     10733    TIP3     H2       HT       0.417000       1.00800           0
     54582 TIP3     10734    TIP3     OH2      OT      -0.834000       15.9994           0
     54583 TIP3     10734    TIP3     H1       HT       0.417000       1.00800           0
     54584 TIP3     10734    TIP3     H2       HT       0.417000       1.00800           0
     54585 TIP3     10735    TIP3     OH2      OT      -0.834000       15.9994           0
     54586 TIP3     10735    TIP3     H1       HT       0.417000       1.00800           0
     54587 TIP3     10735    TIP3     H2       HT       0.417000       1.00800           0
     54588 TIP3     10736    TIP3     OH2      OT      -0.834000       15.9994           0
     54589 TIP3     10736    TIP3     H1       HT       0.417000       1.00800           0
     54590 TIP3     10736    TIP3     H2       HT       0.417000       1.00800           0
     54591 TIP3     10737    TIP3     OH2      OT      -0.834000       15.9994           0
     54592 TIP3     10737    TIP3     H1       HT       0.417000       1.00800           0
     54593 TIP3     10737    TIP3     H2       HT       0.417000       1.00800           0
     54594 TIP3     10738    TIP3     OH2      OT      -0.834000       15.9994           0
     54595 TIP3     10738    TIP3     H1       HT       0.417000       1.00800           0
     54596 TIP3     10738    TIP3     H2       HT       0.417000       1.00800           0
     54597 TIP3     10739    TIP3     OH2      OT      -0.834000       15.9994           0
     54598 TIP3     10739    TIP3     H1       HT       0.417000       1.00800           0
     54599 TIP3     10739    TIP3     H2       HT       0.417000       1.00800           0
     54600 TIP3     10740    TIP3     OH2      OT      -0.834000       15.9994           0
     54601 TIP3     10740    TIP3     H1       HT       0.417000       1.00800           0
     54602 TIP3     10740    TIP3     H2       HT       0.417000       1.00800           0
     54603 TIP3     10741    TIP3     OH2      OT      -0.834000       15.9994           0
     54604 TIP3     10741    TIP3     H1       HT       0.417000       1.00800           0
     54605 TIP3     10741    TIP3     H2       HT       0.417000       1.00800           0
     54606 TIP3     10742    TIP3     OH2      OT      -0.834000       15.9994           0
     54607 TIP3     10742    TIP3     H1       HT       0.417000       1.00800           0
     54608 TIP3     10742    TIP3     H2       HT       0.417000       1.00800           0
     54609 TIP3     10743    TIP3     OH2      OT      -0.834000       15.9994           0
     54610 TIP3     10743    TIP3     H1       HT       0.417000       1.00800           0
     54611 TIP3     10743    TIP3     H2       HT       0.417000       1.00800           0
     54612 TIP3     10744    TIP3     OH2      OT      -0.834000       15.9994           0
     54613 TIP3     10744    TIP3     H1       HT       0.417000       1.00800           0
     54614 TIP3     10744    TIP3     H2       HT       0.417000       1.00800           0
     54615 TIP3     10745    TIP3     OH2      OT      -0.834000       15.9994           0
     54616 TIP3     10745    TIP3     H1       HT       0.417000       1.00800           0
     54617 TIP3     10745    TIP3     H2       HT       0.417000       1.00800           0
     54618 TIP3     10746    TIP3     OH2      OT      -0.834000       15.9994           0
     54619 TIP3     10746    TIP3     H1       HT       0.417000       1.00800           0
     54620 TIP3     10746    TIP3     H2       HT       0.417000       1.00800           0
     54621 TIP3     10747    TIP3     OH2      OT      -0.834000       15.9994           0
     54622 TIP3     10747    TIP3     H1       HT       0.417000       1.00800           0
     54623 TIP3     10747    TIP3     H2       HT       0.417000       1.00800           0
     54624 TIP3     10748    TIP3     OH2      OT      -0.834000       15.9994           0
     54625 TIP3     10748    TIP3     H1       HT       0.417000       1.00800           0
     54626 TIP3     10748    TIP3     H2       HT       0.417000       1.00800           0
     54627 TIP3     10749    TIP3     OH2      OT      -0.834000       15.9994           0
     54628 TIP3     10749    TIP3     H1       HT       0.417000       1.00800           0
     54629 TIP3     10749    TIP3     H2       HT       0.417000       1.00800           0
     54630 TIP3     10750    TIP3     OH2      OT      -0.834000       15.9994           0
     54631 TIP3     10750    TIP3     H1       HT       0.417000       1.00800           0
     54632 TIP3     10750    TIP3     H2       HT       0.417000       1.00800           0
     54633 TIP3     10751    TIP3     OH2      OT      -0.834000       15.9994           0
     54634 TIP3     10751    TIP3     H1       HT       0.417000       1.00800           0
     54635 TIP3     10751    TIP3     H2       HT       0.417000       1.00800           0
     54636 TIP3     10752    TIP3     OH2      OT      -0.834000       15.9994           0
     54637 TIP3     10752    TIP3     H1       HT       0.417000       1.00800           0
     54638 TIP3     10752    TIP3     H2       HT       0.417000       1.00800           0
     54639 TIP3     10753    TIP3     OH2      OT      -0.834000       15.9994           0
     54640 TIP3     10753    TIP3     H1       HT       0.417000       1.00800           0
     54641 TIP3     10753    TIP3     H2       HT       0.417000       1.00800           0
     54642 TIP3     10754    TIP3     OH2      OT      -0.834000       15.9994           0
     54643 TIP3     10754    TIP3     H1       HT       0.417000       1.00800           0
     54644 TIP3     10754    TIP3     H2       HT       0.417000       1.00800           0
     54645 TIP3     10755    TIP3     OH2      OT      -0.834000       15.9994           0
     54646 TIP3     10755    TIP3     H1       HT       0.417000       1.00800           0
     54647 TIP3     10755    TIP3     H2       HT       0.417000       1.00800           0
     54648 TIP3     10756    TIP3     OH2      OT      -0.834000       15.9994           0
     54649 TIP3     10756    TIP3     H1       HT       0.417000       1.00800           0
     54650 TIP3     10756    TIP3     H2       HT       0.417000       1.00800           0
     54651 TIP3     10757    TIP3     OH2      OT      -0.834000       15.9994           0
     54652 TIP3     10757    TIP3     H1       HT       0.417000       1.00800           0
     54653 TIP3     10757    TIP3     H2       HT       0.417000       1.00800           0
     54654 TIP3     10758    TIP3     OH2      OT      -0.834000       15.9994           0
     54655 TIP3     10758    TIP3     H1       HT       0.417000       1.00800           0
     54656 TIP3     10758    TIP3     H2       HT       0.417000       1.00800           0
     54657 TIP3     10759    TIP3     OH2      OT      -0.834000       15.9994           0
     54658 TIP3     10759    TIP3     H1       HT       0.417000       1.00800           0
     54659 TIP3     10759    TIP3     H2       HT       0.417000       1.00800           0
     54660 TIP3     10760    TIP3     OH2      OT      -0.834000       15.9994           0
     54661 TIP3     10760    TIP3     H1       HT       0.417000       1.00800           0
     54662 TIP3     10760    TIP3     H2       HT       0.417000       1.00800           0
     54663 TIP3     10761    TIP3     OH2      OT      -0.834000       15.9994           0
     54664 TIP3     10761    TIP3     H1       HT       0.417000       1.00800           0
     54665 TIP3     10761    TIP3     H2       HT       0.417000       1.00800           0
     54666 TIP3     10762    TIP3     OH2      OT      -0.834000       15.9994           0
     54667 TIP3     10762    TIP3     H1       HT       0.417000       1.00800           0
     54668 TIP3     10762    TIP3     H2       HT       0.417000       1.00800           0
     54669 TIP3     10763    TIP3     OH2      OT      -0.834000       15.9994           0
     54670 TIP3     10763    TIP3     H1       HT       0.417000       1.00800           0
     54671 TIP3     10763    TIP3     H2       HT       0.417000       1.00800           0
     54672 TIP3     10764    TIP3     OH2      OT      -0.834000       15.9994           0
     54673 TIP3     10764    TIP3     H1       HT       0.417000       1.00800           0
     54674 TIP3     10764    TIP3     H2       HT       0.417000       1.00800           0
     54675 TIP3     10765    TIP3     OH2      OT      -0.834000       15.9994           0
     54676 TIP3     10765    TIP3     H1       HT       0.417000       1.00800           0
     54677 TIP3     10765    TIP3     H2       HT       0.417000       1.00800           0
     54678 TIP3     10766    TIP3     OH2      OT      -0.834000       15.9994           0
     54679 TIP3     10766    TIP3     H1       HT       0.417000       1.00800           0
     54680 TIP3     10766    TIP3     H2       HT       0.417000       1.00800           0
     54681 TIP3     10767    TIP3     OH2      OT      -0.834000       15.9994           0
     54682 TIP3     10767    TIP3     H1       HT       0.417000       1.00800           0
     54683 TIP3     10767    TIP3     H2       HT       0.417000       1.00800           0
     54684 TIP3     10768    TIP3     OH2      OT      -0.834000       15.9994           0
     54685 TIP3     10768    TIP3     H1       HT       0.417000       1.00800           0
     54686 TIP3     10768    TIP3     H2       HT       0.417000       1.00800           0
     54687 TIP3     10769    TIP3     OH2      OT      -0.834000       15.9994           0
     54688 TIP3     10769    TIP3     H1       HT       0.417000       1.00800           0
     54689 TIP3     10769    TIP3     H2       HT       0.417000       1.00800           0
     54690 TIP3     10770    TIP3     OH2      OT      -0.834000       15.9994           0
     54691 TIP3     10770    TIP3     H1       HT       0.417000       1.00800           0
     54692 TIP3     10770    TIP3     H2       HT       0.417000       1.00800           0
     54693 TIP3     10771    TIP3     OH2      OT      -0.834000       15.9994           0
     54694 TIP3     10771    TIP3     H1       HT       0.417000       1.00800           0
     54695 TIP3     10771    TIP3     H2       HT       0.417000       1.00800           0
     54696 TIP3     10772    TIP3     OH2      OT      -0.834000       15.9994           0
     54697 TIP3     10772    TIP3     H1       HT       0.417000       1.00800           0
     54698 TIP3     10772    TIP3     H2       HT       0.417000       1.00800           0
     54699 TIP3     10773    TIP3     OH2      OT      -0.834000       15.9994           0
     54700 TIP3     10773    TIP3     H1       HT       0.417000       1.00800           0
     54701 TIP3     10773    TIP3     H2       HT       0.417000       1.00800           0
     54702 TIP3     10774    TIP3     OH2      OT      -0.834000       15.9994           0
     54703 TIP3     10774    TIP3     H1       HT       0.417000       1.00800           0
     54704 TIP3     10774    TIP3     H2       HT       0.417000       1.00800           0
     54705 TIP3     10775    TIP3     OH2      OT      -0.834000       15.9994           0
     54706 TIP3     10775    TIP3     H1       HT       0.417000       1.00800           0
     54707 TIP3     10775    TIP3     H2       HT       0.417000       1.00800           0
     54708 TIP3     10776    TIP3     OH2      OT      -0.834000       15.9994           0
     54709 TIP3     10776    TIP3     H1       HT       0.417000       1.00800           0
     54710 TIP3     10776    TIP3     H2       HT       0.417000       1.00800           0
     54711 TIP3     10777    TIP3     OH2      OT      -0.834000       15.9994           0
     54712 TIP3     10777    TIP3     H1       HT       0.417000       1.00800           0
     54713 TIP3     10777    TIP3     H2       HT       0.417000       1.00800           0
     54714 TIP3     10778    TIP3     OH2      OT      -0.834000       15.9994           0
     54715 TIP3     10778    TIP3     H1       HT       0.417000       1.00800           0
     54716 TIP3     10778    TIP3     H2       HT       0.417000       1.00800           0
     54717 TIP3     10779    TIP3     OH2      OT      -0.834000       15.9994           0
     54718 TIP3     10779    TIP3     H1       HT       0.417000       1.00800           0
     54719 TIP3     10779    TIP3     H2       HT       0.417000       1.00800           0
     54720 TIP3     10780    TIP3     OH2      OT      -0.834000       15.9994           0
     54721 TIP3     10780    TIP3     H1       HT       0.417000       1.00800           0
     54722 TIP3     10780    TIP3     H2       HT       0.417000       1.00800           0
     54723 TIP3     10781    TIP3     OH2      OT      -0.834000       15.9994           0
     54724 TIP3     10781    TIP3     H1       HT       0.417000       1.00800           0
     54725 TIP3     10781    TIP3     H2       HT       0.417000       1.00800           0
     54726 TIP3     10782    TIP3     OH2      OT      -0.834000       15.9994           0
     54727 TIP3     10782    TIP3     H1       HT       0.417000       1.00800           0
     54728 TIP3     10782    TIP3     H2       HT       0.417000       1.00800           0
     54729 TIP3     10783    TIP3     OH2      OT      -0.834000       15.9994           0
     54730 TIP3     10783    TIP3     H1       HT       0.417000       1.00800           0
     54731 TIP3     10783    TIP3     H2       HT       0.417000       1.00800           0
     54732 TIP3     10784    TIP3     OH2      OT      -0.834000       15.9994           0
     54733 TIP3     10784    TIP3     H1       HT       0.417000       1.00800           0
     54734 TIP3     10784    TIP3     H2       HT       0.417000       1.00800           0
     54735 TIP3     10785    TIP3     OH2      OT      -0.834000       15.9994           0
     54736 TIP3     10785    TIP3     H1       HT       0.417000       1.00800           0
     54737 TIP3     10785    TIP3     H2       HT       0.417000       1.00800           0
     54738 TIP3     10786    TIP3     OH2      OT      -0.834000       15.9994           0
     54739 TIP3     10786    TIP3     H1       HT       0.417000       1.00800           0
     54740 TIP3     10786    TIP3     H2       HT       0.417000       1.00800           0
     54741 TIP3     10787    TIP3     OH2      OT      -0.834000       15.9994           0
     54742 TIP3     10787    TIP3     H1       HT       0.417000       1.00800           0
     54743 TIP3     10787    TIP3     H2       HT       0.417000       1.00800           0
     54744 TIP3     10788    TIP3     OH2      OT      -0.834000       15.9994           0
     54745 TIP3     10788    TIP3     H1       HT       0.417000       1.00800           0
     54746 TIP3     10788    TIP3     H2       HT       0.417000       1.00800           0
     54747 TIP3     10789    TIP3     OH2      OT      -0.834000       15.9994           0
     54748 TIP3     10789    TIP3     H1       HT       0.417000       1.00800           0
     54749 TIP3     10789    TIP3     H2       HT       0.417000       1.00800           0
     54750 TIP3     10790    TIP3     OH2      OT      -0.834000       15.9994           0
     54751 TIP3     10790    TIP3     H1       HT       0.417000       1.00800           0
     54752 TIP3     10790    TIP3     H2       HT       0.417000       1.00800           0
     54753 TIP3     10791    TIP3     OH2      OT      -0.834000       15.9994           0
     54754 TIP3     10791    TIP3     H1       HT       0.417000       1.00800           0
     54755 TIP3     10791    TIP3     H2       HT       0.417000       1.00800           0
     54756 TIP3     10792    TIP3     OH2      OT      -0.834000       15.9994           0
     54757 TIP3     10792    TIP3     H1       HT       0.417000       1.00800           0
     54758 TIP3     10792    TIP3     H2       HT       0.417000       1.00800           0
     54759 TIP3     10793    TIP3     OH2      OT      -0.834000       15.9994           0
     54760 TIP3     10793    TIP3     H1       HT       0.417000       1.00800           0
     54761 TIP3     10793    TIP3     H2       HT       0.417000       1.00800           0
     54762 TIP3     10794    TIP3     OH2      OT      -0.834000       15.9994           0
     54763 TIP3     10794    TIP3     H1       HT       0.417000       1.00800           0
     54764 TIP3     10794    TIP3     H2       HT       0.417000       1.00800           0
     54765 TIP3     10795    TIP3     OH2      OT      -0.834000       15.9994           0
     54766 TIP3     10795    TIP3     H1       HT       0.417000       1.00800           0
     54767 TIP3     10795    TIP3     H2       HT       0.417000       1.00800           0
     54768 TIP3     10796    TIP3     OH2      OT      -0.834000       15.9994           0
     54769 TIP3     10796    TIP3     H1       HT       0.417000       1.00800           0
     54770 TIP3     10796    TIP3     H2       HT       0.417000       1.00800           0
     54771 TIP3     10797    TIP3     OH2      OT      -0.834000       15.9994           0
     54772 TIP3     10797    TIP3     H1       HT       0.417000       1.00800           0
     54773 TIP3     10797    TIP3     H2       HT       0.417000       1.00800           0
     54774 TIP3     10798    TIP3     OH2      OT      -0.834000       15.9994           0
     54775 TIP3     10798    TIP3     H1       HT       0.417000       1.00800           0
     54776 TIP3     10798    TIP3     H2       HT       0.417000       1.00800           0
     54777 TIP3     10799    TIP3     OH2      OT      -0.834000       15.9994           0
     54778 TIP3     10799    TIP3     H1       HT       0.417000       1.00800           0
     54779 TIP3     10799    TIP3     H2       HT       0.417000       1.00800           0
     54780 TIP3     10800    TIP3     OH2      OT      -0.834000       15.9994           0
     54781 TIP3     10800    TIP3     H1       HT       0.417000       1.00800           0
     54782 TIP3     10800    TIP3     H2       HT       0.417000       1.00800           0
     54783 TIP3     10801    TIP3     OH2      OT      -0.834000       15.9994           0
     54784 TIP3     10801    TIP3     H1       HT       0.417000       1.00800           0
     54785 TIP3     10801    TIP3     H2       HT       0.417000       1.00800           0
     54786 TIP3     10802    TIP3     OH2      OT      -0.834000       15.9994           0
     54787 TIP3     10802    TIP3     H1       HT       0.417000       1.00800           0
     54788 TIP3     10802    TIP3     H2       HT       0.417000       1.00800           0
     54789 TIP3     10803    TIP3     OH2      OT      -0.834000       15.9994           0
     54790 TIP3     10803    TIP3     H1       HT       0.417000       1.00800           0
     54791 TIP3     10803    TIP3     H2       HT       0.417000       1.00800           0
     54792 TIP3     10804    TIP3     OH2      OT      -0.834000       15.9994           0
     54793 TIP3     10804    TIP3     H1       HT       0.417000       1.00800           0
     54794 TIP3     10804    TIP3     H2       HT       0.417000       1.00800           0
     54795 TIP3     10805    TIP3     OH2      OT      -0.834000       15.9994           0
     54796 TIP3     10805    TIP3     H1       HT       0.417000       1.00800           0
     54797 TIP3     10805    TIP3     H2       HT       0.417000       1.00800           0
     54798 TIP3     10806    TIP3     OH2      OT      -0.834000       15.9994           0
     54799 TIP3     10806    TIP3     H1       HT       0.417000       1.00800           0
     54800 TIP3     10806    TIP3     H2       HT       0.417000       1.00800           0
     54801 TIP3     10807    TIP3     OH2      OT      -0.834000       15.9994           0
     54802 TIP3     10807    TIP3     H1       HT       0.417000       1.00800           0
     54803 TIP3     10807    TIP3     H2       HT       0.417000       1.00800           0
     54804 TIP3     10808    TIP3     OH2      OT      -0.834000       15.9994           0
     54805 TIP3     10808    TIP3     H1       HT       0.417000       1.00800           0
     54806 TIP3     10808    TIP3     H2       HT       0.417000       1.00800           0
     54807 TIP3     10809    TIP3     OH2      OT      -0.834000       15.9994           0
     54808 TIP3     10809    TIP3     H1       HT       0.417000       1.00800           0
     54809 TIP3     10809    TIP3     H2       HT       0.417000       1.00800           0
     54810 TIP3     10810    TIP3     OH2      OT      -0.834000       15.9994           0
     54811 TIP3     10810    TIP3     H1       HT       0.417000       1.00800           0
     54812 TIP3     10810    TIP3     H2       HT       0.417000       1.00800           0
     54813 TIP3     10811    TIP3     OH2      OT      -0.834000       15.9994           0
     54814 TIP3     10811    TIP3     H1       HT       0.417000       1.00800           0
     54815 TIP3     10811    TIP3     H2       HT       0.417000       1.00800           0
     54816 TIP3     10812    TIP3     OH2      OT      -0.834000       15.9994           0
     54817 TIP3     10812    TIP3     H1       HT       0.417000       1.00800           0
     54818 TIP3     10812    TIP3     H2       HT       0.417000       1.00800           0
     54819 TIP3     10813    TIP3     OH2      OT      -0.834000       15.9994           0
     54820 TIP3     10813    TIP3     H1       HT       0.417000       1.00800           0
     54821 TIP3     10813    TIP3     H2       HT       0.417000       1.00800           0
     54822 TIP3     10814    TIP3     OH2      OT      -0.834000       15.9994           0
     54823 TIP3     10814    TIP3     H1       HT       0.417000       1.00800           0
     54824 TIP3     10814    TIP3     H2       HT       0.417000       1.00800           0
     54825 TIP3     10815    TIP3     OH2      OT      -0.834000       15.9994           0
     54826 TIP3     10815    TIP3     H1       HT       0.417000       1.00800           0
     54827 TIP3     10815    TIP3     H2       HT       0.417000       1.00800           0
     54828 TIP3     10816    TIP3     OH2      OT      -0.834000       15.9994           0
     54829 TIP3     10816    TIP3     H1       HT       0.417000       1.00800           0
     54830 TIP3     10816    TIP3     H2       HT       0.417000       1.00800           0
     54831 TIP3     10817    TIP3     OH2      OT      -0.834000       15.9994           0
     54832 TIP3     10817    TIP3     H1       HT       0.417000       1.00800           0
     54833 TIP3     10817    TIP3     H2       HT       0.417000       1.00800           0
     54834 TIP3     10818    TIP3     OH2      OT      -0.834000       15.9994           0
     54835 TIP3     10818    TIP3     H1       HT       0.417000       1.00800           0
     54836 TIP3     10818    TIP3     H2       HT       0.417000       1.00800           0
     54837 TIP3     10819    TIP3     OH2      OT      -0.834000       15.9994           0
     54838 TIP3     10819    TIP3     H1       HT       0.417000       1.00800           0
     54839 TIP3     10819    TIP3     H2       HT       0.417000       1.00800           0
     54840 TIP3     10820    TIP3     OH2      OT      -0.834000       15.9994           0
     54841 TIP3     10820    TIP3     H1       HT       0.417000       1.00800           0
     54842 TIP3     10820    TIP3     H2       HT       0.417000       1.00800           0
     54843 TIP3     10821    TIP3     OH2      OT      -0.834000       15.9994           0
     54844 TIP3     10821    TIP3     H1       HT       0.417000       1.00800           0
     54845 TIP3     10821    TIP3     H2       HT       0.417000       1.00800           0
     54846 TIP3     10822    TIP3     OH2      OT      -0.834000       15.9994           0
     54847 TIP3     10822    TIP3     H1       HT       0.417000       1.00800           0
     54848 TIP3     10822    TIP3     H2       HT       0.417000       1.00800           0
     54849 TIP3     10823    TIP3     OH2      OT      -0.834000       15.9994           0
     54850 TIP3     10823    TIP3     H1       HT       0.417000       1.00800           0
     54851 TIP3     10823    TIP3     H2       HT       0.417000       1.00800           0
     54852 TIP3     10824    TIP3     OH2      OT      -0.834000       15.9994           0
     54853 TIP3     10824    TIP3     H1       HT       0.417000       1.00800           0
     54854 TIP3     10824    TIP3     H2       HT       0.417000       1.00800           0
     54855 TIP3     10825    TIP3     OH2      OT      -0.834000       15.9994           0
     54856 TIP3     10825    TIP3     H1       HT       0.417000       1.00800           0
     54857 TIP3     10825    TIP3     H2       HT       0.417000       1.00800           0
     54858 TIP3     10826    TIP3     OH2      OT      -0.834000       15.9994           0
     54859 TIP3     10826    TIP3     H1       HT       0.417000       1.00800           0
     54860 TIP3     10826    TIP3     H2       HT       0.417000       1.00800           0
     54861 TIP3     10827    TIP3     OH2      OT      -0.834000       15.9994           0
     54862 TIP3     10827    TIP3     H1       HT       0.417000       1.00800           0
     54863 TIP3     10827    TIP3     H2       HT       0.417000       1.00800           0
     54864 TIP3     10828    TIP3     OH2      OT      -0.834000       15.9994           0
     54865 TIP3     10828    TIP3     H1       HT       0.417000       1.00800           0
     54866 TIP3     10828    TIP3     H2       HT       0.417000       1.00800           0
     54867 TIP3     10829    TIP3     OH2      OT      -0.834000       15.9994           0
     54868 TIP3     10829    TIP3     H1       HT       0.417000       1.00800           0
     54869 TIP3     10829    TIP3     H2       HT       0.417000       1.00800           0
     54870 TIP3     10830    TIP3     OH2      OT      -0.834000       15.9994           0
     54871 TIP3     10830    TIP3     H1       HT       0.417000       1.00800           0
     54872 TIP3     10830    TIP3     H2       HT       0.417000       1.00800           0
     54873 TIP3     10831    TIP3     OH2      OT      -0.834000       15.9994           0
     54874 TIP3     10831    TIP3     H1       HT       0.417000       1.00800           0
     54875 TIP3     10831    TIP3     H2       HT       0.417000       1.00800           0
     54876 TIP3     10832    TIP3     OH2      OT      -0.834000       15.9994           0
     54877 TIP3     10832    TIP3     H1       HT       0.417000       1.00800           0
     54878 TIP3     10832    TIP3     H2       HT       0.417000       1.00800           0
     54879 TIP3     10833    TIP3     OH2      OT      -0.834000       15.9994           0
     54880 TIP3     10833    TIP3     H1       HT       0.417000       1.00800           0
     54881 TIP3     10833    TIP3     H2       HT       0.417000       1.00800           0
     54882 TIP3     10834    TIP3     OH2      OT      -0.834000       15.9994           0
     54883 TIP3     10834    TIP3     H1       HT       0.417000       1.00800           0
     54884 TIP3     10834    TIP3     H2       HT       0.417000       1.00800           0
     54885 TIP3     10835    TIP3     OH2      OT      -0.834000       15.9994           0
     54886 TIP3     10835    TIP3     H1       HT       0.417000       1.00800           0
     54887 TIP3     10835    TIP3     H2       HT       0.417000       1.00800           0
     54888 TIP3     10836    TIP3     OH2      OT      -0.834000       15.9994           0
     54889 TIP3     10836    TIP3     H1       HT       0.417000       1.00800           0
     54890 TIP3     10836    TIP3     H2       HT       0.417000       1.00800           0
     54891 TIP3     10837    TIP3     OH2      OT      -0.834000       15.9994           0
     54892 TIP3     10837    TIP3     H1       HT       0.417000       1.00800           0
     54893 TIP3     10837    TIP3     H2       HT       0.417000       1.00800           0
     54894 TIP3     10838    TIP3     OH2      OT      -0.834000       15.9994           0
     54895 TIP3     10838    TIP3     H1       HT       0.417000       1.00800           0
     54896 TIP3     10838    TIP3     H2       HT       0.417000       1.00800           0
     54897 TIP3     10839    TIP3     OH2      OT      -0.834000       15.9994           0
     54898 TIP3     10839    TIP3     H1       HT       0.417000       1.00800           0
     54899 TIP3     10839    TIP3     H2       HT       0.417000       1.00800           0
     54900 TIP3     10840    TIP3     OH2      OT      -0.834000       15.9994           0
     54901 TIP3     10840    TIP3     H1       HT       0.417000       1.00800           0
     54902 TIP3     10840    TIP3     H2       HT       0.417000       1.00800           0
     54903 TIP3     10841    TIP3     OH2      OT      -0.834000       15.9994           0
     54904 TIP3     10841    TIP3     H1       HT       0.417000       1.00800           0
     54905 TIP3     10841    TIP3     H2       HT       0.417000       1.00800           0
     54906 TIP3     10842    TIP3     OH2      OT      -0.834000       15.9994           0
     54907 TIP3     10842    TIP3     H1       HT       0.417000       1.00800           0
     54908 TIP3     10842    TIP3     H2       HT       0.417000       1.00800           0
     54909 TIP3     10843    TIP3     OH2      OT      -0.834000       15.9994           0
     54910 TIP3     10843    TIP3     H1       HT       0.417000       1.00800           0
     54911 TIP3     10843    TIP3     H2       HT       0.417000       1.00800           0
     54912 TIP3     10844    TIP3     OH2      OT      -0.834000       15.9994           0
     54913 TIP3     10844    TIP3     H1       HT       0.417000       1.00800           0
     54914 TIP3     10844    TIP3     H2       HT       0.417000       1.00800           0
     54915 TIP3     10845    TIP3     OH2      OT      -0.834000       15.9994           0
     54916 TIP3     10845    TIP3     H1       HT       0.417000       1.00800           0
     54917 TIP3     10845    TIP3     H2       HT       0.417000       1.00800           0
     54918 TIP3     10846    TIP3     OH2      OT      -0.834000       15.9994           0
     54919 TIP3     10846    TIP3     H1       HT       0.417000       1.00800           0
     54920 TIP3     10846    TIP3     H2       HT       0.417000       1.00800           0
     54921 TIP3     10847    TIP3     OH2      OT      -0.834000       15.9994           0
     54922 TIP3     10847    TIP3     H1       HT       0.417000       1.00800           0
     54923 TIP3     10847    TIP3     H2       HT       0.417000       1.00800           0
     54924 TIP3     10848    TIP3     OH2      OT      -0.834000       15.9994           0
     54925 TIP3     10848    TIP3     H1       HT       0.417000       1.00800           0
     54926 TIP3     10848    TIP3     H2       HT       0.417000       1.00800           0
     54927 TIP3     10849    TIP3     OH2      OT      -0.834000       15.9994           0
     54928 TIP3     10849    TIP3     H1       HT       0.417000       1.00800           0
     54929 TIP3     10849    TIP3     H2       HT       0.417000       1.00800           0
     54930 TIP3     10850    TIP3     OH2      OT      -0.834000       15.9994           0
     54931 TIP3     10850    TIP3     H1       HT       0.417000       1.00800           0
     54932 TIP3     10850    TIP3     H2       HT       0.417000       1.00800           0
     54933 TIP3     10851    TIP3     OH2      OT      -0.834000       15.9994           0
     54934 TIP3     10851    TIP3     H1       HT       0.417000       1.00800           0
     54935 TIP3     10851    TIP3     H2       HT       0.417000       1.00800           0
     54936 TIP3     10852    TIP3     OH2      OT      -0.834000       15.9994           0
     54937 TIP3     10852    TIP3     H1       HT       0.417000       1.00800           0
     54938 TIP3     10852    TIP3     H2       HT       0.417000       1.00800           0
     54939 TIP3     10853    TIP3     OH2      OT      -0.834000       15.9994           0
     54940 TIP3     10853    TIP3     H1       HT       0.417000       1.00800           0
     54941 TIP3     10853    TIP3     H2       HT       0.417000       1.00800           0
     54942 TIP3     10854    TIP3     OH2      OT      -0.834000       15.9994           0
     54943 TIP3     10854    TIP3     H1       HT       0.417000       1.00800           0
     54944 TIP3     10854    TIP3     H2       HT       0.417000       1.00800           0
     54945 TIP3     10855    TIP3     OH2      OT      -0.834000       15.9994           0
     54946 TIP3     10855    TIP3     H1       HT       0.417000       1.00800           0
     54947 TIP3     10855    TIP3     H2       HT       0.417000       1.00800           0
     54948 TIP3     10856    TIP3     OH2      OT      -0.834000       15.9994           0
     54949 TIP3     10856    TIP3     H1       HT       0.417000       1.00800           0
     54950 TIP3     10856    TIP3     H2       HT       0.417000       1.00800           0
     54951 TIP3     10857    TIP3     OH2      OT      -0.834000       15.9994           0
     54952 TIP3     10857    TIP3     H1       HT       0.417000       1.00800           0
     54953 TIP3     10857    TIP3     H2       HT       0.417000       1.00800           0
     54954 TIP3     10858    TIP3     OH2      OT      -0.834000       15.9994           0
     54955 TIP3     10858    TIP3     H1       HT       0.417000       1.00800           0
     54956 TIP3     10858    TIP3     H2       HT       0.417000       1.00800           0
     54957 TIP3     10859    TIP3     OH2      OT      -0.834000       15.9994           0
     54958 TIP3     10859    TIP3     H1       HT       0.417000       1.00800           0
     54959 TIP3     10859    TIP3     H2       HT       0.417000       1.00800           0
     54960 TIP3     10860    TIP3     OH2      OT      -0.834000       15.9994           0
     54961 TIP3     10860    TIP3     H1       HT       0.417000       1.00800           0
     54962 TIP3     10860    TIP3     H2       HT       0.417000       1.00800           0
     54963 TIP3     10861    TIP3     OH2      OT      -0.834000       15.9994           0
     54964 TIP3     10861    TIP3     H1       HT       0.417000       1.00800           0
     54965 TIP3     10861    TIP3     H2       HT       0.417000       1.00800           0
     54966 TIP3     10862    TIP3     OH2      OT      -0.834000       15.9994           0
     54967 TIP3     10862    TIP3     H1       HT       0.417000       1.00800           0
     54968 TIP3     10862    TIP3     H2       HT       0.417000       1.00800           0
     54969 TIP3     10863    TIP3     OH2      OT      -0.834000       15.9994           0
     54970 TIP3     10863    TIP3     H1       HT       0.417000       1.00800           0
     54971 TIP3     10863    TIP3     H2       HT       0.417000       1.00800           0
     54972 TIP3     10864    TIP3     OH2      OT      -0.834000       15.9994           0
     54973 TIP3     10864    TIP3     H1       HT       0.417000       1.00800           0
     54974 TIP3     10864    TIP3     H2       HT       0.417000       1.00800           0
     54975 TIP3     10865    TIP3     OH2      OT      -0.834000       15.9994           0
     54976 TIP3     10865    TIP3     H1       HT       0.417000       1.00800           0
     54977 TIP3     10865    TIP3     H2       HT       0.417000       1.00800           0
     54978 TIP3     10866    TIP3     OH2      OT      -0.834000       15.9994           0
     54979 TIP3     10866    TIP3     H1       HT       0.417000       1.00800           0
     54980 TIP3     10866    TIP3     H2       HT       0.417000       1.00800           0
     54981 TIP3     10867    TIP3     OH2      OT      -0.834000       15.9994           0
     54982 TIP3     10867    TIP3     H1       HT       0.417000       1.00800           0
     54983 TIP3     10867    TIP3     H2       HT       0.417000       1.00800           0
     54984 TIP3     10868    TIP3     OH2      OT      -0.834000       15.9994           0
     54985 TIP3     10868    TIP3     H1       HT       0.417000       1.00800           0
     54986 TIP3     10868    TIP3     H2       HT       0.417000       1.00800           0
     54987 TIP3     10869    TIP3     OH2      OT      -0.834000       15.9994           0
     54988 TIP3     10869    TIP3     H1       HT       0.417000       1.00800           0
     54989 TIP3     10869    TIP3     H2       HT       0.417000       1.00800           0
     54990 TIP3     10870    TIP3     OH2      OT      -0.834000       15.9994           0
     54991 TIP3     10870    TIP3     H1       HT       0.417000       1.00800           0
     54992 TIP3     10870    TIP3     H2       HT       0.417000       1.00800           0
     54993 TIP3     10871    TIP3     OH2      OT      -0.834000       15.9994           0
     54994 TIP3     10871    TIP3     H1       HT       0.417000       1.00800           0
     54995 TIP3     10871    TIP3     H2       HT       0.417000       1.00800           0
     54996 TIP3     10872    TIP3     OH2      OT      -0.834000       15.9994           0
     54997 TIP3     10872    TIP3     H1       HT       0.417000       1.00800           0
     54998 TIP3     10872    TIP3     H2       HT       0.417000       1.00800           0
     54999 TIP3     10873    TIP3     OH2      OT      -0.834000       15.9994           0
     55000 TIP3     10873    TIP3     H1       HT       0.417000       1.00800           0
     55001 TIP3     10873    TIP3     H2       HT       0.417000       1.00800           0
     55002 TIP3     10874    TIP3     OH2      OT      -0.834000       15.9994           0
     55003 TIP3     10874    TIP3     H1       HT       0.417000       1.00800           0
     55004 TIP3     10874    TIP3     H2       HT       0.417000       1.00800           0
     55005 TIP3     10875    TIP3     OH2      OT      -0.834000       15.9994           0
     55006 TIP3     10875    TIP3     H1       HT       0.417000       1.00800           0
     55007 TIP3     10875    TIP3     H2       HT       0.417000       1.00800           0
     55008 TIP3     10876    TIP3     OH2      OT      -0.834000       15.9994           0
     55009 TIP3     10876    TIP3     H1       HT       0.417000       1.00800           0
     55010 TIP3     10876    TIP3     H2       HT       0.417000       1.00800           0
     55011 TIP3     10877    TIP3     OH2      OT      -0.834000       15.9994           0
     55012 TIP3     10877    TIP3     H1       HT       0.417000       1.00800           0
     55013 TIP3     10877    TIP3     H2       HT       0.417000       1.00800           0
     55014 TIP3     10878    TIP3     OH2      OT      -0.834000       15.9994           0
     55015 TIP3     10878    TIP3     H1       HT       0.417000       1.00800           0
     55016 TIP3     10878    TIP3     H2       HT       0.417000       1.00800           0
     55017 TIP3     10879    TIP3     OH2      OT      -0.834000       15.9994           0
     55018 TIP3     10879    TIP3     H1       HT       0.417000       1.00800           0
     55019 TIP3     10879    TIP3     H2       HT       0.417000       1.00800           0
     55020 TIP3     10880    TIP3     OH2      OT      -0.834000       15.9994           0
     55021 TIP3     10880    TIP3     H1       HT       0.417000       1.00800           0
     55022 TIP3     10880    TIP3     H2       HT       0.417000       1.00800           0
     55023 TIP3     10881    TIP3     OH2      OT      -0.834000       15.9994           0
     55024 TIP3     10881    TIP3     H1       HT       0.417000       1.00800           0
     55025 TIP3     10881    TIP3     H2       HT       0.417000       1.00800           0
     55026 TIP3     10882    TIP3     OH2      OT      -0.834000       15.9994           0
     55027 TIP3     10882    TIP3     H1       HT       0.417000       1.00800           0
     55028 TIP3     10882    TIP3     H2       HT       0.417000       1.00800           0
     55029 TIP3     10883    TIP3     OH2      OT      -0.834000       15.9994           0
     55030 TIP3     10883    TIP3     H1       HT       0.417000       1.00800           0
     55031 TIP3     10883    TIP3     H2       HT       0.417000       1.00800           0
     55032 TIP3     10884    TIP3     OH2      OT      -0.834000       15.9994           0
     55033 TIP3     10884    TIP3     H1       HT       0.417000       1.00800           0
     55034 TIP3     10884    TIP3     H2       HT       0.417000       1.00800           0
     55035 TIP3     10885    TIP3     OH2      OT      -0.834000       15.9994           0
     55036 TIP3     10885    TIP3     H1       HT       0.417000       1.00800           0
     55037 TIP3     10885    TIP3     H2       HT       0.417000       1.00800           0
     55038 TIP3     10886    TIP3     OH2      OT      -0.834000       15.9994           0
     55039 TIP3     10886    TIP3     H1       HT       0.417000       1.00800           0
     55040 TIP3     10886    TIP3     H2       HT       0.417000       1.00800           0
     55041 TIP3     10887    TIP3     OH2      OT      -0.834000       15.9994           0
     55042 TIP3     10887    TIP3     H1       HT       0.417000       1.00800           0
     55043 TIP3     10887    TIP3     H2       HT       0.417000       1.00800           0
     55044 TIP3     10888    TIP3     OH2      OT      -0.834000       15.9994           0
     55045 TIP3     10888    TIP3     H1       HT       0.417000       1.00800           0
     55046 TIP3     10888    TIP3     H2       HT       0.417000       1.00800           0
     55047 TIP3     10889    TIP3     OH2      OT      -0.834000       15.9994           0
     55048 TIP3     10889    TIP3     H1       HT       0.417000       1.00800           0
     55049 TIP3     10889    TIP3     H2       HT       0.417000       1.00800           0
     55050 TIP3     10890    TIP3     OH2      OT      -0.834000       15.9994           0
     55051 TIP3     10890    TIP3     H1       HT       0.417000       1.00800           0
     55052 TIP3     10890    TIP3     H2       HT       0.417000       1.00800           0
     55053 TIP3     10891    TIP3     OH2      OT      -0.834000       15.9994           0
     55054 TIP3     10891    TIP3     H1       HT       0.417000       1.00800           0
     55055 TIP3     10891    TIP3     H2       HT       0.417000       1.00800           0
     55056 TIP3     10892    TIP3     OH2      OT      -0.834000       15.9994           0
     55057 TIP3     10892    TIP3     H1       HT       0.417000       1.00800           0
     55058 TIP3     10892    TIP3     H2       HT       0.417000       1.00800           0
     55059 TIP3     10893    TIP3     OH2      OT      -0.834000       15.9994           0
     55060 TIP3     10893    TIP3     H1       HT       0.417000       1.00800           0
     55061 TIP3     10893    TIP3     H2       HT       0.417000       1.00800           0
     55062 TIP3     10894    TIP3     OH2      OT      -0.834000       15.9994           0
     55063 TIP3     10894    TIP3     H1       HT       0.417000       1.00800           0
     55064 TIP3     10894    TIP3     H2       HT       0.417000       1.00800           0
     55065 TIP3     10895    TIP3     OH2      OT      -0.834000       15.9994           0
     55066 TIP3     10895    TIP3     H1       HT       0.417000       1.00800           0
     55067 TIP3     10895    TIP3     H2       HT       0.417000       1.00800           0
     55068 TIP3     10896    TIP3     OH2      OT      -0.834000       15.9994           0
     55069 TIP3     10896    TIP3     H1       HT       0.417000       1.00800           0
     55070 TIP3     10896    TIP3     H2       HT       0.417000       1.00800           0
     55071 TIP3     10897    TIP3     OH2      OT      -0.834000       15.9994           0
     55072 TIP3     10897    TIP3     H1       HT       0.417000       1.00800           0
     55073 TIP3     10897    TIP3     H2       HT       0.417000       1.00800           0
     55074 TIP3     10898    TIP3     OH2      OT      -0.834000       15.9994           0
     55075 TIP3     10898    TIP3     H1       HT       0.417000       1.00800           0
     55076 TIP3     10898    TIP3     H2       HT       0.417000       1.00800           0
     55077 TIP3     10899    TIP3     OH2      OT      -0.834000       15.9994           0
     55078 TIP3     10899    TIP3     H1       HT       0.417000       1.00800           0
     55079 TIP3     10899    TIP3     H2       HT       0.417000       1.00800           0
     55080 TIP3     10900    TIP3     OH2      OT      -0.834000       15.9994           0
     55081 TIP3     10900    TIP3     H1       HT       0.417000       1.00800           0
     55082 TIP3     10900    TIP3     H2       HT       0.417000       1.00800           0
     55083 TIP3     10901    TIP3     OH2      OT      -0.834000       15.9994           0
     55084 TIP3     10901    TIP3     H1       HT       0.417000       1.00800           0
     55085 TIP3     10901    TIP3     H2       HT       0.417000       1.00800           0
     55086 TIP3     10902    TIP3     OH2      OT      -0.834000       15.9994           0
     55087 TIP3     10902    TIP3     H1       HT       0.417000       1.00800           0
     55088 TIP3     10902    TIP3     H2       HT       0.417000       1.00800           0
     55089 TIP3     10903    TIP3     OH2      OT      -0.834000       15.9994           0
     55090 TIP3     10903    TIP3     H1       HT       0.417000       1.00800           0
     55091 TIP3     10903    TIP3     H2       HT       0.417000       1.00800           0
     55092 TIP3     10904    TIP3     OH2      OT      -0.834000       15.9994           0
     55093 TIP3     10904    TIP3     H1       HT       0.417000       1.00800           0
     55094 TIP3     10904    TIP3     H2       HT       0.417000       1.00800           0
     55095 TIP3     10905    TIP3     OH2      OT      -0.834000       15.9994           0
     55096 TIP3     10905    TIP3     H1       HT       0.417000       1.00800           0
     55097 TIP3     10905    TIP3     H2       HT       0.417000       1.00800           0
     55098 TIP3     10906    TIP3     OH2      OT      -0.834000       15.9994           0
     55099 TIP3     10906    TIP3     H1       HT       0.417000       1.00800           0
     55100 TIP3     10906    TIP3     H2       HT       0.417000       1.00800           0
     55101 TIP3     10907    TIP3     OH2      OT      -0.834000       15.9994           0
     55102 TIP3     10907    TIP3     H1       HT       0.417000       1.00800           0
     55103 TIP3     10907    TIP3     H2       HT       0.417000       1.00800           0
     55104 TIP3     10908    TIP3     OH2      OT      -0.834000       15.9994           0
     55105 TIP3     10908    TIP3     H1       HT       0.417000       1.00800           0
     55106 TIP3     10908    TIP3     H2       HT       0.417000       1.00800           0
     55107 TIP3     10909    TIP3     OH2      OT      -0.834000       15.9994           0
     55108 TIP3     10909    TIP3     H1       HT       0.417000       1.00800           0
     55109 TIP3     10909    TIP3     H2       HT       0.417000       1.00800           0
     55110 TIP3     10910    TIP3     OH2      OT      -0.834000       15.9994           0
     55111 TIP3     10910    TIP3     H1       HT       0.417000       1.00800           0
     55112 TIP3     10910    TIP3     H2       HT       0.417000       1.00800           0
     55113 TIP3     10911    TIP3     OH2      OT      -0.834000       15.9994           0
     55114 TIP3     10911    TIP3     H1       HT       0.417000       1.00800           0
     55115 TIP3     10911    TIP3     H2       HT       0.417000       1.00800           0
     55116 TIP3     10912    TIP3     OH2      OT      -0.834000       15.9994           0
     55117 TIP3     10912    TIP3     H1       HT       0.417000       1.00800           0
     55118 TIP3     10912    TIP3     H2       HT       0.417000       1.00800           0
     55119 TIP3     10913    TIP3     OH2      OT      -0.834000       15.9994           0
     55120 TIP3     10913    TIP3     H1       HT       0.417000       1.00800           0
     55121 TIP3     10913    TIP3     H2       HT       0.417000       1.00800           0
     55122 TIP3     10914    TIP3     OH2      OT      -0.834000       15.9994           0
     55123 TIP3     10914    TIP3     H1       HT       0.417000       1.00800           0
     55124 TIP3     10914    TIP3     H2       HT       0.417000       1.00800           0
     55125 TIP3     10915    TIP3     OH2      OT      -0.834000       15.9994           0
     55126 TIP3     10915    TIP3     H1       HT       0.417000       1.00800           0
     55127 TIP3     10915    TIP3     H2       HT       0.417000       1.00800           0
     55128 TIP3     10916    TIP3     OH2      OT      -0.834000       15.9994           0
     55129 TIP3     10916    TIP3     H1       HT       0.417000       1.00800           0
     55130 TIP3     10916    TIP3     H2       HT       0.417000       1.00800           0
     55131 TIP3     10917    TIP3     OH2      OT      -0.834000       15.9994           0
     55132 TIP3     10917    TIP3     H1       HT       0.417000       1.00800           0
     55133 TIP3     10917    TIP3     H2       HT       0.417000       1.00800           0
     55134 TIP3     10918    TIP3     OH2      OT      -0.834000       15.9994           0
     55135 TIP3     10918    TIP3     H1       HT       0.417000       1.00800           0
     55136 TIP3     10918    TIP3     H2       HT       0.417000       1.00800           0
     55137 TIP3     10919    TIP3     OH2      OT      -0.834000       15.9994           0
     55138 TIP3     10919    TIP3     H1       HT       0.417000       1.00800           0
     55139 TIP3     10919    TIP3     H2       HT       0.417000       1.00800           0
     55140 TIP3     10920    TIP3     OH2      OT      -0.834000       15.9994           0
     55141 TIP3     10920    TIP3     H1       HT       0.417000       1.00800           0
     55142 TIP3     10920    TIP3     H2       HT       0.417000       1.00800           0
     55143 TIP3     10921    TIP3     OH2      OT      -0.834000       15.9994           0
     55144 TIP3     10921    TIP3     H1       HT       0.417000       1.00800           0
     55145 TIP3     10921    TIP3     H2       HT       0.417000       1.00800           0
     55146 TIP3     10922    TIP3     OH2      OT      -0.834000       15.9994           0
     55147 TIP3     10922    TIP3     H1       HT       0.417000       1.00800           0
     55148 TIP3     10922    TIP3     H2       HT       0.417000       1.00800           0
     55149 TIP3     10923    TIP3     OH2      OT      -0.834000       15.9994           0
     55150 TIP3     10923    TIP3     H1       HT       0.417000       1.00800           0
     55151 TIP3     10923    TIP3     H2       HT       0.417000       1.00800           0
     55152 TIP3     10924    TIP3     OH2      OT      -0.834000       15.9994           0
     55153 TIP3     10924    TIP3     H1       HT       0.417000       1.00800           0
     55154 TIP3     10924    TIP3     H2       HT       0.417000       1.00800           0
     55155 TIP3     10925    TIP3     OH2      OT      -0.834000       15.9994           0
     55156 TIP3     10925    TIP3     H1       HT       0.417000       1.00800           0
     55157 TIP3     10925    TIP3     H2       HT       0.417000       1.00800           0
     55158 TIP3     10926    TIP3     OH2      OT      -0.834000       15.9994           0
     55159 TIP3     10926    TIP3     H1       HT       0.417000       1.00800           0
     55160 TIP3     10926    TIP3     H2       HT       0.417000       1.00800           0
     55161 TIP3     10927    TIP3     OH2      OT      -0.834000       15.9994           0
     55162 TIP3     10927    TIP3     H1       HT       0.417000       1.00800           0
     55163 TIP3     10927    TIP3     H2       HT       0.417000       1.00800           0
     55164 TIP3     10928    TIP3     OH2      OT      -0.834000       15.9994           0
     55165 TIP3     10928    TIP3     H1       HT       0.417000       1.00800           0
     55166 TIP3     10928    TIP3     H2       HT       0.417000       1.00800           0
     55167 TIP3     10929    TIP3     OH2      OT      -0.834000       15.9994           0
     55168 TIP3     10929    TIP3     H1       HT       0.417000       1.00800           0
     55169 TIP3     10929    TIP3     H2       HT       0.417000       1.00800           0
     55170 TIP3     10930    TIP3     OH2      OT      -0.834000       15.9994           0
     55171 TIP3     10930    TIP3     H1       HT       0.417000       1.00800           0
     55172 TIP3     10930    TIP3     H2       HT       0.417000       1.00800           0
     55173 TIP3     10931    TIP3     OH2      OT      -0.834000       15.9994           0
     55174 TIP3     10931    TIP3     H1       HT       0.417000       1.00800           0
     55175 TIP3     10931    TIP3     H2       HT       0.417000       1.00800           0
     55176 TIP3     10932    TIP3     OH2      OT      -0.834000       15.9994           0
     55177 TIP3     10932    TIP3     H1       HT       0.417000       1.00800           0
     55178 TIP3     10932    TIP3     H2       HT       0.417000       1.00800           0
     55179 TIP3     10933    TIP3     OH2      OT      -0.834000       15.9994           0
     55180 TIP3     10933    TIP3     H1       HT       0.417000       1.00800           0
     55181 TIP3     10933    TIP3     H2       HT       0.417000       1.00800           0
     55182 TIP3     10934    TIP3     OH2      OT      -0.834000       15.9994           0
     55183 TIP3     10934    TIP3     H1       HT       0.417000       1.00800           0
     55184 TIP3     10934    TIP3     H2       HT       0.417000       1.00800           0
     55185 TIP3     10935    TIP3     OH2      OT      -0.834000       15.9994           0
     55186 TIP3     10935    TIP3     H1       HT       0.417000       1.00800           0
     55187 TIP3     10935    TIP3     H2       HT       0.417000       1.00800           0
     55188 TIP3     10936    TIP3     OH2      OT      -0.834000       15.9994           0
     55189 TIP3     10936    TIP3     H1       HT       0.417000       1.00800           0
     55190 TIP3     10936    TIP3     H2       HT       0.417000       1.00800           0
     55191 TIP3     10937    TIP3     OH2      OT      -0.834000       15.9994           0
     55192 TIP3     10937    TIP3     H1       HT       0.417000       1.00800           0
     55193 TIP3     10937    TIP3     H2       HT       0.417000       1.00800           0
     55194 TIP3     10938    TIP3     OH2      OT      -0.834000       15.9994           0
     55195 TIP3     10938    TIP3     H1       HT       0.417000       1.00800           0
     55196 TIP3     10938    TIP3     H2       HT       0.417000       1.00800           0
     55197 TIP3     10939    TIP3     OH2      OT      -0.834000       15.9994           0
     55198 TIP3     10939    TIP3     H1       HT       0.417000       1.00800           0
     55199 TIP3     10939    TIP3     H2       HT       0.417000       1.00800           0
     55200 TIP3     10940    TIP3     OH2      OT      -0.834000       15.9994           0
     55201 TIP3     10940    TIP3     H1       HT       0.417000       1.00800           0
     55202 TIP3     10940    TIP3     H2       HT       0.417000       1.00800           0
     55203 TIP3     10941    TIP3     OH2      OT      -0.834000       15.9994           0
     55204 TIP3     10941    TIP3     H1       HT       0.417000       1.00800           0
     55205 TIP3     10941    TIP3     H2       HT       0.417000       1.00800           0
     55206 TIP3     10942    TIP3     OH2      OT      -0.834000       15.9994           0
     55207 TIP3     10942    TIP3     H1       HT       0.417000       1.00800           0
     55208 TIP3     10942    TIP3     H2       HT       0.417000       1.00800           0
     55209 TIP3     10943    TIP3     OH2      OT      -0.834000       15.9994           0
     55210 TIP3     10943    TIP3     H1       HT       0.417000       1.00800           0
     55211 TIP3     10943    TIP3     H2       HT       0.417000       1.00800           0
     55212 TIP3     10944    TIP3     OH2      OT      -0.834000       15.9994           0
     55213 TIP3     10944    TIP3     H1       HT       0.417000       1.00800           0
     55214 TIP3     10944    TIP3     H2       HT       0.417000       1.00800           0
     55215 TIP3     10945    TIP3     OH2      OT      -0.834000       15.9994           0
     55216 TIP3     10945    TIP3     H1       HT       0.417000       1.00800           0
     55217 TIP3     10945    TIP3     H2       HT       0.417000       1.00800           0
     55218 TIP3     10946    TIP3     OH2      OT      -0.834000       15.9994           0
     55219 TIP3     10946    TIP3     H1       HT       0.417000       1.00800           0
     55220 TIP3     10946    TIP3     H2       HT       0.417000       1.00800           0
     55221 TIP3     10947    TIP3     OH2      OT      -0.834000       15.9994           0
     55222 TIP3     10947    TIP3     H1       HT       0.417000       1.00800           0
     55223 TIP3     10947    TIP3     H2       HT       0.417000       1.00800           0
     55224 TIP3     10948    TIP3     OH2      OT      -0.834000       15.9994           0
     55225 TIP3     10948    TIP3     H1       HT       0.417000       1.00800           0
     55226 TIP3     10948    TIP3     H2       HT       0.417000       1.00800           0
     55227 TIP3     10949    TIP3     OH2      OT      -0.834000       15.9994           0
     55228 TIP3     10949    TIP3     H1       HT       0.417000       1.00800           0
     55229 TIP3     10949    TIP3     H2       HT       0.417000       1.00800           0
     55230 TIP3     10950    TIP3     OH2      OT      -0.834000       15.9994           0
     55231 TIP3     10950    TIP3     H1       HT       0.417000       1.00800           0
     55232 TIP3     10950    TIP3     H2       HT       0.417000       1.00800           0
     55233 TIP3     10951    TIP3     OH2      OT      -0.834000       15.9994           0
     55234 TIP3     10951    TIP3     H1       HT       0.417000       1.00800           0
     55235 TIP3     10951    TIP3     H2       HT       0.417000       1.00800           0
     55236 TIP3     10952    TIP3     OH2      OT      -0.834000       15.9994           0
     55237 TIP3     10952    TIP3     H1       HT       0.417000       1.00800           0
     55238 TIP3     10952    TIP3     H2       HT       0.417000       1.00800           0
     55239 TIP3     10953    TIP3     OH2      OT      -0.834000       15.9994           0
     55240 TIP3     10953    TIP3     H1       HT       0.417000       1.00800           0
     55241 TIP3     10953    TIP3     H2       HT       0.417000       1.00800           0
     55242 TIP3     10954    TIP3     OH2      OT      -0.834000       15.9994           0
     55243 TIP3     10954    TIP3     H1       HT       0.417000       1.00800           0
     55244 TIP3     10954    TIP3     H2       HT       0.417000       1.00800           0
     55245 TIP3     10955    TIP3     OH2      OT      -0.834000       15.9994           0
     55246 TIP3     10955    TIP3     H1       HT       0.417000       1.00800           0
     55247 TIP3     10955    TIP3     H2       HT       0.417000       1.00800           0
     55248 TIP3     10956    TIP3     OH2      OT      -0.834000       15.9994           0
     55249 TIP3     10956    TIP3     H1       HT       0.417000       1.00800           0
     55250 TIP3     10956    TIP3     H2       HT       0.417000       1.00800           0
     55251 TIP3     10957    TIP3     OH2      OT      -0.834000       15.9994           0
     55252 TIP3     10957    TIP3     H1       HT       0.417000       1.00800           0
     55253 TIP3     10957    TIP3     H2       HT       0.417000       1.00800           0
     55254 TIP3     10958    TIP3     OH2      OT      -0.834000       15.9994           0
     55255 TIP3     10958    TIP3     H1       HT       0.417000       1.00800           0
     55256 TIP3     10958    TIP3     H2       HT       0.417000       1.00800           0
     55257 TIP3     10959    TIP3     OH2      OT      -0.834000       15.9994           0
     55258 TIP3     10959    TIP3     H1       HT       0.417000       1.00800           0
     55259 TIP3     10959    TIP3     H2       HT       0.417000       1.00800           0
     55260 TIP3     10960    TIP3     OH2      OT      -0.834000       15.9994           0
     55261 TIP3     10960    TIP3     H1       HT       0.417000       1.00800           0
     55262 TIP3     10960    TIP3     H2       HT       0.417000       1.00800           0
     55263 TIP3     10961    TIP3     OH2      OT      -0.834000       15.9994           0
     55264 TIP3     10961    TIP3     H1       HT       0.417000       1.00800           0
     55265 TIP3     10961    TIP3     H2       HT       0.417000       1.00800           0
     55266 TIP3     10962    TIP3     OH2      OT      -0.834000       15.9994           0
     55267 TIP3     10962    TIP3     H1       HT       0.417000       1.00800           0
     55268 TIP3     10962    TIP3     H2       HT       0.417000       1.00800           0
     55269 TIP3     10963    TIP3     OH2      OT      -0.834000       15.9994           0
     55270 TIP3     10963    TIP3     H1       HT       0.417000       1.00800           0
     55271 TIP3     10963    TIP3     H2       HT       0.417000       1.00800           0
     55272 TIP3     10964    TIP3     OH2      OT      -0.834000       15.9994           0
     55273 TIP3     10964    TIP3     H1       HT       0.417000       1.00800           0
     55274 TIP3     10964    TIP3     H2       HT       0.417000       1.00800           0
     55275 TIP3     10965    TIP3     OH2      OT      -0.834000       15.9994           0
     55276 TIP3     10965    TIP3     H1       HT       0.417000       1.00800           0
     55277 TIP3     10965    TIP3     H2       HT       0.417000       1.00800           0
     55278 TIP3     10966    TIP3     OH2      OT      -0.834000       15.9994           0
     55279 TIP3     10966    TIP3     H1       HT       0.417000       1.00800           0
     55280 TIP3     10966    TIP3     H2       HT       0.417000       1.00800           0
     55281 TIP3     10967    TIP3     OH2      OT      -0.834000       15.9994           0
     55282 TIP3     10967    TIP3     H1       HT       0.417000       1.00800           0
     55283 TIP3     10967    TIP3     H2       HT       0.417000       1.00800           0
     55284 TIP3     10968    TIP3     OH2      OT      -0.834000       15.9994           0
     55285 TIP3     10968    TIP3     H1       HT       0.417000       1.00800           0
     55286 TIP3     10968    TIP3     H2       HT       0.417000       1.00800           0
     55287 TIP3     10969    TIP3     OH2      OT      -0.834000       15.9994           0
     55288 TIP3     10969    TIP3     H1       HT       0.417000       1.00800           0
     55289 TIP3     10969    TIP3     H2       HT       0.417000       1.00800           0
     55290 TIP3     10970    TIP3     OH2      OT      -0.834000       15.9994           0
     55291 TIP3     10970    TIP3     H1       HT       0.417000       1.00800           0
     55292 TIP3     10970    TIP3     H2       HT       0.417000       1.00800           0
     55293 TIP3     10971    TIP3     OH2      OT      -0.834000       15.9994           0
     55294 TIP3     10971    TIP3     H1       HT       0.417000       1.00800           0
     55295 TIP3     10971    TIP3     H2       HT       0.417000       1.00800           0
     55296 TIP3     10972    TIP3     OH2      OT      -0.834000       15.9994           0
     55297 TIP3     10972    TIP3     H1       HT       0.417000       1.00800           0
     55298 TIP3     10972    TIP3     H2       HT       0.417000       1.00800           0
     55299 TIP3     10973    TIP3     OH2      OT      -0.834000       15.9994           0
     55300 TIP3     10973    TIP3     H1       HT       0.417000       1.00800           0
     55301 TIP3     10973    TIP3     H2       HT       0.417000       1.00800           0
     55302 TIP3     10974    TIP3     OH2      OT      -0.834000       15.9994           0
     55303 TIP3     10974    TIP3     H1       HT       0.417000       1.00800           0
     55304 TIP3     10974    TIP3     H2       HT       0.417000       1.00800           0
     55305 TIP3     10975    TIP3     OH2      OT      -0.834000       15.9994           0
     55306 TIP3     10975    TIP3     H1       HT       0.417000       1.00800           0
     55307 TIP3     10975    TIP3     H2       HT       0.417000       1.00800           0
     55308 TIP3     10976    TIP3     OH2      OT      -0.834000       15.9994           0
     55309 TIP3     10976    TIP3     H1       HT       0.417000       1.00800           0
     55310 TIP3     10976    TIP3     H2       HT       0.417000       1.00800           0
     55311 TIP3     10977    TIP3     OH2      OT      -0.834000       15.9994           0
     55312 TIP3     10977    TIP3     H1       HT       0.417000       1.00800           0
     55313 TIP3     10977    TIP3     H2       HT       0.417000       1.00800           0
     55314 TIP3     10978    TIP3     OH2      OT      -0.834000       15.9994           0
     55315 TIP3     10978    TIP3     H1       HT       0.417000       1.00800           0
     55316 TIP3     10978    TIP3     H2       HT       0.417000       1.00800           0
     55317 TIP3     10979    TIP3     OH2      OT      -0.834000       15.9994           0
     55318 TIP3     10979    TIP3     H1       HT       0.417000       1.00800           0
     55319 TIP3     10979    TIP3     H2       HT       0.417000       1.00800           0
     55320 TIP3     10980    TIP3     OH2      OT      -0.834000       15.9994           0
     55321 TIP3     10980    TIP3     H1       HT       0.417000       1.00800           0
     55322 TIP3     10980    TIP3     H2       HT       0.417000       1.00800           0
     55323 TIP3     10981    TIP3     OH2      OT      -0.834000       15.9994           0
     55324 TIP3     10981    TIP3     H1       HT       0.417000       1.00800           0
     55325 TIP3     10981    TIP3     H2       HT       0.417000       1.00800           0
     55326 TIP3     10982    TIP3     OH2      OT      -0.834000       15.9994           0
     55327 TIP3     10982    TIP3     H1       HT       0.417000       1.00800           0
     55328 TIP3     10982    TIP3     H2       HT       0.417000       1.00800           0
     55329 TIP3     10983    TIP3     OH2      OT      -0.834000       15.9994           0
     55330 TIP3     10983    TIP3     H1       HT       0.417000       1.00800           0
     55331 TIP3     10983    TIP3     H2       HT       0.417000       1.00800           0
     55332 TIP3     10984    TIP3     OH2      OT      -0.834000       15.9994           0
     55333 TIP3     10984    TIP3     H1       HT       0.417000       1.00800           0
     55334 TIP3     10984    TIP3     H2       HT       0.417000       1.00800           0
     55335 TIP3     10985    TIP3     OH2      OT      -0.834000       15.9994           0
     55336 TIP3     10985    TIP3     H1       HT       0.417000       1.00800           0
     55337 TIP3     10985    TIP3     H2       HT       0.417000       1.00800           0
     55338 TIP3     10986    TIP3     OH2      OT      -0.834000       15.9994           0
     55339 TIP3     10986    TIP3     H1       HT       0.417000       1.00800           0
     55340 TIP3     10986    TIP3     H2       HT       0.417000       1.00800           0
     55341 TIP3     10987    TIP3     OH2      OT      -0.834000       15.9994           0
     55342 TIP3     10987    TIP3     H1       HT       0.417000       1.00800           0
     55343 TIP3     10987    TIP3     H2       HT       0.417000       1.00800           0
     55344 TIP3     10988    TIP3     OH2      OT      -0.834000       15.9994           0
     55345 TIP3     10988    TIP3     H1       HT       0.417000       1.00800           0
     55346 TIP3     10988    TIP3     H2       HT       0.417000       1.00800           0
     55347 TIP3     10989    TIP3     OH2      OT      -0.834000       15.9994           0
     55348 TIP3     10989    TIP3     H1       HT       0.417000       1.00800           0
     55349 TIP3     10989    TIP3     H2       HT       0.417000       1.00800           0
     55350 TIP3     10990    TIP3     OH2      OT      -0.834000       15.9994           0
     55351 TIP3     10990    TIP3     H1       HT       0.417000       1.00800           0
     55352 TIP3     10990    TIP3     H2       HT       0.417000       1.00800           0
     55353 TIP3     10991    TIP3     OH2      OT      -0.834000       15.9994           0
     55354 TIP3     10991    TIP3     H1       HT       0.417000       1.00800           0
     55355 TIP3     10991    TIP3     H2       HT       0.417000       1.00800           0
     55356 TIP3     10992    TIP3     OH2      OT      -0.834000       15.9994           0
     55357 TIP3     10992    TIP3     H1       HT       0.417000       1.00800           0
     55358 TIP3     10992    TIP3     H2       HT       0.417000       1.00800           0
     55359 TIP3     10993    TIP3     OH2      OT      -0.834000       15.9994           0
     55360 TIP3     10993    TIP3     H1       HT       0.417000       1.00800           0
     55361 TIP3     10993    TIP3     H2       HT       0.417000       1.00800           0
     55362 TIP3     10994    TIP3     OH2      OT      -0.834000       15.9994           0
     55363 TIP3     10994    TIP3     H1       HT       0.417000       1.00800           0
     55364 TIP3     10994    TIP3     H2       HT       0.417000       1.00800           0
     55365 TIP3     10995    TIP3     OH2      OT      -0.834000       15.9994           0
     55366 TIP3     10995    TIP3     H1       HT       0.417000       1.00800           0
     55367 TIP3     10995    TIP3     H2       HT       0.417000       1.00800           0
     55368 TIP3     10996    TIP3     OH2      OT      -0.834000       15.9994           0
     55369 TIP3     10996    TIP3     H1       HT       0.417000       1.00800           0
     55370 TIP3     10996    TIP3     H2       HT       0.417000       1.00800           0
     55371 TIP3     10997    TIP3     OH2      OT      -0.834000       15.9994           0
     55372 TIP3     10997    TIP3     H1       HT       0.417000       1.00800           0
     55373 TIP3     10997    TIP3     H2       HT       0.417000       1.00800           0
     55374 TIP3     10998    TIP3     OH2      OT      -0.834000       15.9994           0
     55375 TIP3     10998    TIP3     H1       HT       0.417000       1.00800           0
     55376 TIP3     10998    TIP3     H2       HT       0.417000       1.00800           0
     55377 TIP3     10999    TIP3     OH2      OT      -0.834000       15.9994           0
     55378 TIP3     10999    TIP3     H1       HT       0.417000       1.00800           0
     55379 TIP3     10999    TIP3     H2       HT       0.417000       1.00800           0
     55380 TIP3     11000    TIP3     OH2      OT      -0.834000       15.9994           0
     55381 TIP3     11000    TIP3     H1       HT       0.417000       1.00800           0
     55382 TIP3     11000    TIP3     H2       HT       0.417000       1.00800           0
     55383 TIP3     11001    TIP3     OH2      OT      -0.834000       15.9994           0
     55384 TIP3     11001    TIP3     H1       HT       0.417000       1.00800           0
     55385 TIP3     11001    TIP3     H2       HT       0.417000       1.00800           0
     55386 TIP3     11002    TIP3     OH2      OT      -0.834000       15.9994           0
     55387 TIP3     11002    TIP3     H1       HT       0.417000       1.00800           0
     55388 TIP3     11002    TIP3     H2       HT       0.417000       1.00800           0
     55389 TIP3     11003    TIP3     OH2      OT      -0.834000       15.9994           0
     55390 TIP3     11003    TIP3     H1       HT       0.417000       1.00800           0
     55391 TIP3     11003    TIP3     H2       HT       0.417000       1.00800           0
     55392 TIP3     11004    TIP3     OH2      OT      -0.834000       15.9994           0
     55393 TIP3     11004    TIP3     H1       HT       0.417000       1.00800           0
     55394 TIP3     11004    TIP3     H2       HT       0.417000       1.00800           0
     55395 TIP3     11005    TIP3     OH2      OT      -0.834000       15.9994           0
     55396 TIP3     11005    TIP3     H1       HT       0.417000       1.00800           0
     55397 TIP3     11005    TIP3     H2       HT       0.417000       1.00800           0
     55398 TIP3     11006    TIP3     OH2      OT      -0.834000       15.9994           0
     55399 TIP3     11006    TIP3     H1       HT       0.417000       1.00800           0
     55400 TIP3     11006    TIP3     H2       HT       0.417000       1.00800           0
     55401 TIP3     11007    TIP3     OH2      OT      -0.834000       15.9994           0
     55402 TIP3     11007    TIP3     H1       HT       0.417000       1.00800           0
     55403 TIP3     11007    TIP3     H2       HT       0.417000       1.00800           0
     55404 TIP3     11008    TIP3     OH2      OT      -0.834000       15.9994           0
     55405 TIP3     11008    TIP3     H1       HT       0.417000       1.00800           0
     55406 TIP3     11008    TIP3     H2       HT       0.417000       1.00800           0
     55407 TIP3     11009    TIP3     OH2      OT      -0.834000       15.9994           0
     55408 TIP3     11009    TIP3     H1       HT       0.417000       1.00800           0
     55409 TIP3     11009    TIP3     H2       HT       0.417000       1.00800           0
     55410 TIP3     11010    TIP3     OH2      OT      -0.834000       15.9994           0
     55411 TIP3     11010    TIP3     H1       HT       0.417000       1.00800           0
     55412 TIP3     11010    TIP3     H2       HT       0.417000       1.00800           0
     55413 TIP3     11011    TIP3     OH2      OT      -0.834000       15.9994           0
     55414 TIP3     11011    TIP3     H1       HT       0.417000       1.00800           0
     55415 TIP3     11011    TIP3     H2       HT       0.417000       1.00800           0
     55416 TIP3     11012    TIP3     OH2      OT      -0.834000       15.9994           0
     55417 TIP3     11012    TIP3     H1       HT       0.417000       1.00800           0
     55418 TIP3     11012    TIP3     H2       HT       0.417000       1.00800           0
     55419 TIP3     11013    TIP3     OH2      OT      -0.834000       15.9994           0
     55420 TIP3     11013    TIP3     H1       HT       0.417000       1.00800           0
     55421 TIP3     11013    TIP3     H2       HT       0.417000       1.00800           0
     55422 TIP3     11014    TIP3     OH2      OT      -0.834000       15.9994           0
     55423 TIP3     11014    TIP3     H1       HT       0.417000       1.00800           0
     55424 TIP3     11014    TIP3     H2       HT       0.417000       1.00800           0
     55425 TIP3     11015    TIP3     OH2      OT      -0.834000       15.9994           0
     55426 TIP3     11015    TIP3     H1       HT       0.417000       1.00800           0
     55427 TIP3     11015    TIP3     H2       HT       0.417000       1.00800           0
     55428 TIP3     11016    TIP3     OH2      OT      -0.834000       15.9994           0
     55429 TIP3     11016    TIP3     H1       HT       0.417000       1.00800           0
     55430 TIP3     11016    TIP3     H2       HT       0.417000       1.00800           0
     55431 TIP3     11017    TIP3     OH2      OT      -0.834000       15.9994           0
     55432 TIP3     11017    TIP3     H1       HT       0.417000       1.00800           0
     55433 TIP3     11017    TIP3     H2       HT       0.417000       1.00800           0
     55434 TIP3     11018    TIP3     OH2      OT      -0.834000       15.9994           0
     55435 TIP3     11018    TIP3     H1       HT       0.417000       1.00800           0
     55436 TIP3     11018    TIP3     H2       HT       0.417000       1.00800           0
     55437 TIP3     11019    TIP3     OH2      OT      -0.834000       15.9994           0
     55438 TIP3     11019    TIP3     H1       HT       0.417000       1.00800           0
     55439 TIP3     11019    TIP3     H2       HT       0.417000       1.00800           0
     55440 TIP3     11020    TIP3     OH2      OT      -0.834000       15.9994           0
     55441 TIP3     11020    TIP3     H1       HT       0.417000       1.00800           0
     55442 TIP3     11020    TIP3     H2       HT       0.417000       1.00800           0
     55443 TIP3     11021    TIP3     OH2      OT      -0.834000       15.9994           0
     55444 TIP3     11021    TIP3     H1       HT       0.417000       1.00800           0
     55445 TIP3     11021    TIP3     H2       HT       0.417000       1.00800           0
     55446 TIP3     11022    TIP3     OH2      OT      -0.834000       15.9994           0
     55447 TIP3     11022    TIP3     H1       HT       0.417000       1.00800           0
     55448 TIP3     11022    TIP3     H2       HT       0.417000       1.00800           0
     55449 TIP3     11023    TIP3     OH2      OT      -0.834000       15.9994           0
     55450 TIP3     11023    TIP3     H1       HT       0.417000       1.00800           0
     55451 TIP3     11023    TIP3     H2       HT       0.417000       1.00800           0
     55452 TIP3     11024    TIP3     OH2      OT      -0.834000       15.9994           0
     55453 TIP3     11024    TIP3     H1       HT       0.417000       1.00800           0
     55454 TIP3     11024    TIP3     H2       HT       0.417000       1.00800           0
     55455 TIP3     11025    TIP3     OH2      OT      -0.834000       15.9994           0
     55456 TIP3     11025    TIP3     H1       HT       0.417000       1.00800           0
     55457 TIP3     11025    TIP3     H2       HT       0.417000       1.00800           0
     55458 TIP3     11026    TIP3     OH2      OT      -0.834000       15.9994           0
     55459 TIP3     11026    TIP3     H1       HT       0.417000       1.00800           0
     55460 TIP3     11026    TIP3     H2       HT       0.417000       1.00800           0
     55461 TIP3     11027    TIP3     OH2      OT      -0.834000       15.9994           0
     55462 TIP3     11027    TIP3     H1       HT       0.417000       1.00800           0
     55463 TIP3     11027    TIP3     H2       HT       0.417000       1.00800           0
     55464 TIP3     11028    TIP3     OH2      OT      -0.834000       15.9994           0
     55465 TIP3     11028    TIP3     H1       HT       0.417000       1.00800           0
     55466 TIP3     11028    TIP3     H2       HT       0.417000       1.00800           0
     55467 TIP3     11029    TIP3     OH2      OT      -0.834000       15.9994           0
     55468 TIP3     11029    TIP3     H1       HT       0.417000       1.00800           0
     55469 TIP3     11029    TIP3     H2       HT       0.417000       1.00800           0
     55470 TIP3     11030    TIP3     OH2      OT      -0.834000       15.9994           0
     55471 TIP3     11030    TIP3     H1       HT       0.417000       1.00800           0
     55472 TIP3     11030    TIP3     H2       HT       0.417000       1.00800           0
     55473 TIP3     11031    TIP3     OH2      OT      -0.834000       15.9994           0
     55474 TIP3     11031    TIP3     H1       HT       0.417000       1.00800           0
     55475 TIP3     11031    TIP3     H2       HT       0.417000       1.00800           0
     55476 TIP3     11032    TIP3     OH2      OT      -0.834000       15.9994           0
     55477 TIP3     11032    TIP3     H1       HT       0.417000       1.00800           0
     55478 TIP3     11032    TIP3     H2       HT       0.417000       1.00800           0
     55479 TIP3     11033    TIP3     OH2      OT      -0.834000       15.9994           0
     55480 TIP3     11033    TIP3     H1       HT       0.417000       1.00800           0
     55481 TIP3     11033    TIP3     H2       HT       0.417000       1.00800           0
     55482 TIP3     11034    TIP3     OH2      OT      -0.834000       15.9994           0
     55483 TIP3     11034    TIP3     H1       HT       0.417000       1.00800           0
     55484 TIP3     11034    TIP3     H2       HT       0.417000       1.00800           0
     55485 TIP3     11035    TIP3     OH2      OT      -0.834000       15.9994           0
     55486 TIP3     11035    TIP3     H1       HT       0.417000       1.00800           0
     55487 TIP3     11035    TIP3     H2       HT       0.417000       1.00800           0
     55488 TIP3     11036    TIP3     OH2      OT      -0.834000       15.9994           0
     55489 TIP3     11036    TIP3     H1       HT       0.417000       1.00800           0
     55490 TIP3     11036    TIP3     H2       HT       0.417000       1.00800           0
     55491 TIP3     11037    TIP3     OH2      OT      -0.834000       15.9994           0
     55492 TIP3     11037    TIP3     H1       HT       0.417000       1.00800           0
     55493 TIP3     11037    TIP3     H2       HT       0.417000       1.00800           0
     55494 TIP3     11038    TIP3     OH2      OT      -0.834000       15.9994           0
     55495 TIP3     11038    TIP3     H1       HT       0.417000       1.00800           0
     55496 TIP3     11038    TIP3     H2       HT       0.417000       1.00800           0
     55497 TIP3     11039    TIP3     OH2      OT      -0.834000       15.9994           0
     55498 TIP3     11039    TIP3     H1       HT       0.417000       1.00800           0
     55499 TIP3     11039    TIP3     H2       HT       0.417000       1.00800           0
     55500 TIP3     11040    TIP3     OH2      OT      -0.834000       15.9994           0
     55501 TIP3     11040    TIP3     H1       HT       0.417000       1.00800           0
     55502 TIP3     11040    TIP3     H2       HT       0.417000       1.00800           0
     55503 TIP3     11041    TIP3     OH2      OT      -0.834000       15.9994           0
     55504 TIP3     11041    TIP3     H1       HT       0.417000       1.00800           0
     55505 TIP3     11041    TIP3     H2       HT       0.417000       1.00800           0
     55506 TIP3     11042    TIP3     OH2      OT      -0.834000       15.9994           0
     55507 TIP3     11042    TIP3     H1       HT       0.417000       1.00800           0
     55508 TIP3     11042    TIP3     H2       HT       0.417000       1.00800           0
     55509 TIP3     11043    TIP3     OH2      OT      -0.834000       15.9994           0
     55510 TIP3     11043    TIP3     H1       HT       0.417000       1.00800           0
     55511 TIP3     11043    TIP3     H2       HT       0.417000       1.00800           0
     55512 TIP3     11044    TIP3     OH2      OT      -0.834000       15.9994           0
     55513 TIP3     11044    TIP3     H1       HT       0.417000       1.00800           0
     55514 TIP3     11044    TIP3     H2       HT       0.417000       1.00800           0
     55515 TIP3     11045    TIP3     OH2      OT      -0.834000       15.9994           0
     55516 TIP3     11045    TIP3     H1       HT       0.417000       1.00800           0
     55517 TIP3     11045    TIP3     H2       HT       0.417000       1.00800           0
     55518 TIP3     11046    TIP3     OH2      OT      -0.834000       15.9994           0
     55519 TIP3     11046    TIP3     H1       HT       0.417000       1.00800           0
     55520 TIP3     11046    TIP3     H2       HT       0.417000       1.00800           0
     55521 TIP3     11047    TIP3     OH2      OT      -0.834000       15.9994           0
     55522 TIP3     11047    TIP3     H1       HT       0.417000       1.00800           0
     55523 TIP3     11047    TIP3     H2       HT       0.417000       1.00800           0
     55524 TIP3     11048    TIP3     OH2      OT      -0.834000       15.9994           0
     55525 TIP3     11048    TIP3     H1       HT       0.417000       1.00800           0
     55526 TIP3     11048    TIP3     H2       HT       0.417000       1.00800           0
     55527 TIP3     11049    TIP3     OH2      OT      -0.834000       15.9994           0
     55528 TIP3     11049    TIP3     H1       HT       0.417000       1.00800           0
     55529 TIP3     11049    TIP3     H2       HT       0.417000       1.00800           0
     55530 TIP3     11050    TIP3     OH2      OT      -0.834000       15.9994           0
     55531 TIP3     11050    TIP3     H1       HT       0.417000       1.00800           0
     55532 TIP3     11050    TIP3     H2       HT       0.417000       1.00800           0
     55533 TIP3     11051    TIP3     OH2      OT      -0.834000       15.9994           0
     55534 TIP3     11051    TIP3     H1       HT       0.417000       1.00800           0
     55535 TIP3     11051    TIP3     H2       HT       0.417000       1.00800           0
     55536 TIP3     11052    TIP3     OH2      OT      -0.834000       15.9994           0
     55537 TIP3     11052    TIP3     H1       HT       0.417000       1.00800           0
     55538 TIP3     11052    TIP3     H2       HT       0.417000       1.00800           0
     55539 TIP3     11053    TIP3     OH2      OT      -0.834000       15.9994           0
     55540 TIP3     11053    TIP3     H1       HT       0.417000       1.00800           0
     55541 TIP3     11053    TIP3     H2       HT       0.417000       1.00800           0
     55542 TIP3     11054    TIP3     OH2      OT      -0.834000       15.9994           0
     55543 TIP3     11054    TIP3     H1       HT       0.417000       1.00800           0
     55544 TIP3     11054    TIP3     H2       HT       0.417000       1.00800           0
     55545 TIP3     11055    TIP3     OH2      OT      -0.834000       15.9994           0
     55546 TIP3     11055    TIP3     H1       HT       0.417000       1.00800           0
     55547 TIP3     11055    TIP3     H2       HT       0.417000       1.00800           0
     55548 TIP3     11056    TIP3     OH2      OT      -0.834000       15.9994           0
     55549 TIP3     11056    TIP3     H1       HT       0.417000       1.00800           0
     55550 TIP3     11056    TIP3     H2       HT       0.417000       1.00800           0
     55551 TIP3     11057    TIP3     OH2      OT      -0.834000       15.9994           0
     55552 TIP3     11057    TIP3     H1       HT       0.417000       1.00800           0
     55553 TIP3     11057    TIP3     H2       HT       0.417000       1.00800           0
     55554 TIP3     11058    TIP3     OH2      OT      -0.834000       15.9994           0
     55555 TIP3     11058    TIP3     H1       HT       0.417000       1.00800           0
     55556 TIP3     11058    TIP3     H2       HT       0.417000       1.00800           0
     55557 TIP3     11059    TIP3     OH2      OT      -0.834000       15.9994           0
     55558 TIP3     11059    TIP3     H1       HT       0.417000       1.00800           0
     55559 TIP3     11059    TIP3     H2       HT       0.417000       1.00800           0
     55560 TIP3     11060    TIP3     OH2      OT      -0.834000       15.9994           0
     55561 TIP3     11060    TIP3     H1       HT       0.417000       1.00800           0
     55562 TIP3     11060    TIP3     H2       HT       0.417000       1.00800           0
     55563 TIP3     11061    TIP3     OH2      OT      -0.834000       15.9994           0
     55564 TIP3     11061    TIP3     H1       HT       0.417000       1.00800           0
     55565 TIP3     11061    TIP3     H2       HT       0.417000       1.00800           0
     55566 TIP3     11062    TIP3     OH2      OT      -0.834000       15.9994           0
     55567 TIP3     11062    TIP3     H1       HT       0.417000       1.00800           0
     55568 TIP3     11062    TIP3     H2       HT       0.417000       1.00800           0
     55569 TIP3     11063    TIP3     OH2      OT      -0.834000       15.9994           0
     55570 TIP3     11063    TIP3     H1       HT       0.417000       1.00800           0
     55571 TIP3     11063    TIP3     H2       HT       0.417000       1.00800           0
     55572 TIP3     11064    TIP3     OH2      OT      -0.834000       15.9994           0
     55573 TIP3     11064    TIP3     H1       HT       0.417000       1.00800           0
     55574 TIP3     11064    TIP3     H2       HT       0.417000       1.00800           0
     55575 TIP3     11065    TIP3     OH2      OT      -0.834000       15.9994           0
     55576 TIP3     11065    TIP3     H1       HT       0.417000       1.00800           0
     55577 TIP3     11065    TIP3     H2       HT       0.417000       1.00800           0
     55578 TIP3     11066    TIP3     OH2      OT      -0.834000       15.9994           0
     55579 TIP3     11066    TIP3     H1       HT       0.417000       1.00800           0
     55580 TIP3     11066    TIP3     H2       HT       0.417000       1.00800           0
     55581 TIP3     11067    TIP3     OH2      OT      -0.834000       15.9994           0
     55582 TIP3     11067    TIP3     H1       HT       0.417000       1.00800           0
     55583 TIP3     11067    TIP3     H2       HT       0.417000       1.00800           0
     55584 TIP3     11068    TIP3     OH2      OT      -0.834000       15.9994           0
     55585 TIP3     11068    TIP3     H1       HT       0.417000       1.00800           0
     55586 TIP3     11068    TIP3     H2       HT       0.417000       1.00800           0
     55587 TIP3     11069    TIP3     OH2      OT      -0.834000       15.9994           0
     55588 TIP3     11069    TIP3     H1       HT       0.417000       1.00800           0
     55589 TIP3     11069    TIP3     H2       HT       0.417000       1.00800           0
     55590 TIP3     11070    TIP3     OH2      OT      -0.834000       15.9994           0
     55591 TIP3     11070    TIP3     H1       HT       0.417000       1.00800           0
     55592 TIP3     11070    TIP3     H2       HT       0.417000       1.00800           0
     55593 TIP3     11071    TIP3     OH2      OT      -0.834000       15.9994           0
     55594 TIP3     11071    TIP3     H1       HT       0.417000       1.00800           0
     55595 TIP3     11071    TIP3     H2       HT       0.417000       1.00800           0
     55596 TIP3     11072    TIP3     OH2      OT      -0.834000       15.9994           0
     55597 TIP3     11072    TIP3     H1       HT       0.417000       1.00800           0
     55598 TIP3     11072    TIP3     H2       HT       0.417000       1.00800           0
     55599 TIP3     11073    TIP3     OH2      OT      -0.834000       15.9994           0
     55600 TIP3     11073    TIP3     H1       HT       0.417000       1.00800           0
     55601 TIP3     11073    TIP3     H2       HT       0.417000       1.00800           0
     55602 TIP3     11074    TIP3     OH2      OT      -0.834000       15.9994           0
     55603 TIP3     11074    TIP3     H1       HT       0.417000       1.00800           0
     55604 TIP3     11074    TIP3     H2       HT       0.417000       1.00800           0
     55605 TIP3     11075    TIP3     OH2      OT      -0.834000       15.9994           0
     55606 TIP3     11075    TIP3     H1       HT       0.417000       1.00800           0
     55607 TIP3     11075    TIP3     H2       HT       0.417000       1.00800           0
     55608 TIP3     11076    TIP3     OH2      OT      -0.834000       15.9994           0
     55609 TIP3     11076    TIP3     H1       HT       0.417000       1.00800           0
     55610 TIP3     11076    TIP3     H2       HT       0.417000       1.00800           0
     55611 TIP3     11077    TIP3     OH2      OT      -0.834000       15.9994           0
     55612 TIP3     11077    TIP3     H1       HT       0.417000       1.00800           0
     55613 TIP3     11077    TIP3     H2       HT       0.417000       1.00800           0
     55614 TIP3     11078    TIP3     OH2      OT      -0.834000       15.9994           0
     55615 TIP3     11078    TIP3     H1       HT       0.417000       1.00800           0
     55616 TIP3     11078    TIP3     H2       HT       0.417000       1.00800           0
     55617 TIP3     11079    TIP3     OH2      OT      -0.834000       15.9994           0
     55618 TIP3     11079    TIP3     H1       HT       0.417000       1.00800           0
     55619 TIP3     11079    TIP3     H2       HT       0.417000       1.00800           0
     55620 TIP3     11080    TIP3     OH2      OT      -0.834000       15.9994           0
     55621 TIP3     11080    TIP3     H1       HT       0.417000       1.00800           0
     55622 TIP3     11080    TIP3     H2       HT       0.417000       1.00800           0
     55623 TIP3     11081    TIP3     OH2      OT      -0.834000       15.9994           0
     55624 TIP3     11081    TIP3     H1       HT       0.417000       1.00800           0
     55625 TIP3     11081    TIP3     H2       HT       0.417000       1.00800           0
     55626 TIP3     11082    TIP3     OH2      OT      -0.834000       15.9994           0
     55627 TIP3     11082    TIP3     H1       HT       0.417000       1.00800           0
     55628 TIP3     11082    TIP3     H2       HT       0.417000       1.00800           0
     55629 TIP3     11083    TIP3     OH2      OT      -0.834000       15.9994           0
     55630 TIP3     11083    TIP3     H1       HT       0.417000       1.00800           0
     55631 TIP3     11083    TIP3     H2       HT       0.417000       1.00800           0
     55632 TIP3     11084    TIP3     OH2      OT      -0.834000       15.9994           0
     55633 TIP3     11084    TIP3     H1       HT       0.417000       1.00800           0
     55634 TIP3     11084    TIP3     H2       HT       0.417000       1.00800           0
     55635 TIP3     11085    TIP3     OH2      OT      -0.834000       15.9994           0
     55636 TIP3     11085    TIP3     H1       HT       0.417000       1.00800           0
     55637 TIP3     11085    TIP3     H2       HT       0.417000       1.00800           0
     55638 TIP3     11086    TIP3     OH2      OT      -0.834000       15.9994           0
     55639 TIP3     11086    TIP3     H1       HT       0.417000       1.00800           0
     55640 TIP3     11086    TIP3     H2       HT       0.417000       1.00800           0
     55641 TIP3     11087    TIP3     OH2      OT      -0.834000       15.9994           0
     55642 TIP3     11087    TIP3     H1       HT       0.417000       1.00800           0
     55643 TIP3     11087    TIP3     H2       HT       0.417000       1.00800           0
     55644 TIP3     11088    TIP3     OH2      OT      -0.834000       15.9994           0
     55645 TIP3     11088    TIP3     H1       HT       0.417000       1.00800           0
     55646 TIP3     11088    TIP3     H2       HT       0.417000       1.00800           0
     55647 TIP3     11089    TIP3     OH2      OT      -0.834000       15.9994           0
     55648 TIP3     11089    TIP3     H1       HT       0.417000       1.00800           0
     55649 TIP3     11089    TIP3     H2       HT       0.417000       1.00800           0
     55650 TIP3     11090    TIP3     OH2      OT      -0.834000       15.9994           0
     55651 TIP3     11090    TIP3     H1       HT       0.417000       1.00800           0
     55652 TIP3     11090    TIP3     H2       HT       0.417000       1.00800           0
     55653 TIP3     11091    TIP3     OH2      OT      -0.834000       15.9994           0
     55654 TIP3     11091    TIP3     H1       HT       0.417000       1.00800           0
     55655 TIP3     11091    TIP3     H2       HT       0.417000       1.00800           0
     55656 TIP3     11092    TIP3     OH2      OT      -0.834000       15.9994           0
     55657 TIP3     11092    TIP3     H1       HT       0.417000       1.00800           0
     55658 TIP3     11092    TIP3     H2       HT       0.417000       1.00800           0
     55659 TIP3     11093    TIP3     OH2      OT      -0.834000       15.9994           0
     55660 TIP3     11093    TIP3     H1       HT       0.417000       1.00800           0
     55661 TIP3     11093    TIP3     H2       HT       0.417000       1.00800           0
     55662 TIP3     11094    TIP3     OH2      OT      -0.834000       15.9994           0
     55663 TIP3     11094    TIP3     H1       HT       0.417000       1.00800           0
     55664 TIP3     11094    TIP3     H2       HT       0.417000       1.00800           0
     55665 TIP3     11095    TIP3     OH2      OT      -0.834000       15.9994           0
     55666 TIP3     11095    TIP3     H1       HT       0.417000       1.00800           0
     55667 TIP3     11095    TIP3     H2       HT       0.417000       1.00800           0
     55668 TIP3     11096    TIP3     OH2      OT      -0.834000       15.9994           0
     55669 TIP3     11096    TIP3     H1       HT       0.417000       1.00800           0
     55670 TIP3     11096    TIP3     H2       HT       0.417000       1.00800           0
     55671 TIP3     11097    TIP3     OH2      OT      -0.834000       15.9994           0
     55672 TIP3     11097    TIP3     H1       HT       0.417000       1.00800           0
     55673 TIP3     11097    TIP3     H2       HT       0.417000       1.00800           0
     55674 TIP3     11098    TIP3     OH2      OT      -0.834000       15.9994           0
     55675 TIP3     11098    TIP3     H1       HT       0.417000       1.00800           0
     55676 TIP3     11098    TIP3     H2       HT       0.417000       1.00800           0
     55677 TIP3     11099    TIP3     OH2      OT      -0.834000       15.9994           0
     55678 TIP3     11099    TIP3     H1       HT       0.417000       1.00800           0
     55679 TIP3     11099    TIP3     H2       HT       0.417000       1.00800           0
     55680 TIP3     11100    TIP3     OH2      OT      -0.834000       15.9994           0
     55681 TIP3     11100    TIP3     H1       HT       0.417000       1.00800           0
     55682 TIP3     11100    TIP3     H2       HT       0.417000       1.00800           0
     55683 TIP3     11101    TIP3     OH2      OT      -0.834000       15.9994           0
     55684 TIP3     11101    TIP3     H1       HT       0.417000       1.00800           0
     55685 TIP3     11101    TIP3     H2       HT       0.417000       1.00800           0
     55686 TIP3     11102    TIP3     OH2      OT      -0.834000       15.9994           0
     55687 TIP3     11102    TIP3     H1       HT       0.417000       1.00800           0
     55688 TIP3     11102    TIP3     H2       HT       0.417000       1.00800           0
     55689 TIP3     11103    TIP3     OH2      OT      -0.834000       15.9994           0
     55690 TIP3     11103    TIP3     H1       HT       0.417000       1.00800           0
     55691 TIP3     11103    TIP3     H2       HT       0.417000       1.00800           0
     55692 TIP3     11104    TIP3     OH2      OT      -0.834000       15.9994           0
     55693 TIP3     11104    TIP3     H1       HT       0.417000       1.00800           0
     55694 TIP3     11104    TIP3     H2       HT       0.417000       1.00800           0
     55695 TIP3     11105    TIP3     OH2      OT      -0.834000       15.9994           0
     55696 TIP3     11105    TIP3     H1       HT       0.417000       1.00800           0
     55697 TIP3     11105    TIP3     H2       HT       0.417000       1.00800           0
     55698 TIP3     11106    TIP3     OH2      OT      -0.834000       15.9994           0
     55699 TIP3     11106    TIP3     H1       HT       0.417000       1.00800           0
     55700 TIP3     11106    TIP3     H2       HT       0.417000       1.00800           0
     55701 TIP3     11107    TIP3     OH2      OT      -0.834000       15.9994           0
     55702 TIP3     11107    TIP3     H1       HT       0.417000       1.00800           0
     55703 TIP3     11107    TIP3     H2       HT       0.417000       1.00800           0
     55704 TIP3     11108    TIP3     OH2      OT      -0.834000       15.9994           0
     55705 TIP3     11108    TIP3     H1       HT       0.417000       1.00800           0
     55706 TIP3     11108    TIP3     H2       HT       0.417000       1.00800           0
     55707 TIP3     11109    TIP3     OH2      OT      -0.834000       15.9994           0
     55708 TIP3     11109    TIP3     H1       HT       0.417000       1.00800           0
     55709 TIP3     11109    TIP3     H2       HT       0.417000       1.00800           0
     55710 TIP3     11110    TIP3     OH2      OT      -0.834000       15.9994           0
     55711 TIP3     11110    TIP3     H1       HT       0.417000       1.00800           0
     55712 TIP3     11110    TIP3     H2       HT       0.417000       1.00800           0
     55713 TIP3     11111    TIP3     OH2      OT      -0.834000       15.9994           0
     55714 TIP3     11111    TIP3     H1       HT       0.417000       1.00800           0
     55715 TIP3     11111    TIP3     H2       HT       0.417000       1.00800           0
     55716 TIP3     11112    TIP3     OH2      OT      -0.834000       15.9994           0
     55717 TIP3     11112    TIP3     H1       HT       0.417000       1.00800           0
     55718 TIP3     11112    TIP3     H2       HT       0.417000       1.00800           0
     55719 TIP3     11113    TIP3     OH2      OT      -0.834000       15.9994           0
     55720 TIP3     11113    TIP3     H1       HT       0.417000       1.00800           0
     55721 TIP3     11113    TIP3     H2       HT       0.417000       1.00800           0
     55722 TIP3     11114    TIP3     OH2      OT      -0.834000       15.9994           0
     55723 TIP3     11114    TIP3     H1       HT       0.417000       1.00800           0
     55724 TIP3     11114    TIP3     H2       HT       0.417000       1.00800           0
     55725 TIP3     11115    TIP3     OH2      OT      -0.834000       15.9994           0
     55726 TIP3     11115    TIP3     H1       HT       0.417000       1.00800           0
     55727 TIP3     11115    TIP3     H2       HT       0.417000       1.00800           0
     55728 TIP3     11116    TIP3     OH2      OT      -0.834000       15.9994           0
     55729 TIP3     11116    TIP3     H1       HT       0.417000       1.00800           0
     55730 TIP3     11116    TIP3     H2       HT       0.417000       1.00800           0
     55731 TIP3     11117    TIP3     OH2      OT      -0.834000       15.9994           0
     55732 TIP3     11117    TIP3     H1       HT       0.417000       1.00800           0
     55733 TIP3     11117    TIP3     H2       HT       0.417000       1.00800           0
     55734 TIP3     11118    TIP3     OH2      OT      -0.834000       15.9994           0
     55735 TIP3     11118    TIP3     H1       HT       0.417000       1.00800           0
     55736 TIP3     11118    TIP3     H2       HT       0.417000       1.00800           0
     55737 TIP3     11119    TIP3     OH2      OT      -0.834000       15.9994           0
     55738 TIP3     11119    TIP3     H1       HT       0.417000       1.00800           0
     55739 TIP3     11119    TIP3     H2       HT       0.417000       1.00800           0
     55740 TIP3     11120    TIP3     OH2      OT      -0.834000       15.9994           0
     55741 TIP3     11120    TIP3     H1       HT       0.417000       1.00800           0
     55742 TIP3     11120    TIP3     H2       HT       0.417000       1.00800           0
     55743 TIP3     11121    TIP3     OH2      OT      -0.834000       15.9994           0
     55744 TIP3     11121    TIP3     H1       HT       0.417000       1.00800           0
     55745 TIP3     11121    TIP3     H2       HT       0.417000       1.00800           0
     55746 TIP3     11122    TIP3     OH2      OT      -0.834000       15.9994           0
     55747 TIP3     11122    TIP3     H1       HT       0.417000       1.00800           0
     55748 TIP3     11122    TIP3     H2       HT       0.417000       1.00800           0
     55749 TIP3     11123    TIP3     OH2      OT      -0.834000       15.9994           0
     55750 TIP3     11123    TIP3     H1       HT       0.417000       1.00800           0
     55751 TIP3     11123    TIP3     H2       HT       0.417000       1.00800           0
     55752 TIP3     11124    TIP3     OH2      OT      -0.834000       15.9994           0
     55753 TIP3     11124    TIP3     H1       HT       0.417000       1.00800           0
     55754 TIP3     11124    TIP3     H2       HT       0.417000       1.00800           0
     55755 TIP3     11125    TIP3     OH2      OT      -0.834000       15.9994           0
     55756 TIP3     11125    TIP3     H1       HT       0.417000       1.00800           0
     55757 TIP3     11125    TIP3     H2       HT       0.417000       1.00800           0
     55758 TIP3     11126    TIP3     OH2      OT      -0.834000       15.9994           0
     55759 TIP3     11126    TIP3     H1       HT       0.417000       1.00800           0
     55760 TIP3     11126    TIP3     H2       HT       0.417000       1.00800           0
     55761 TIP3     11127    TIP3     OH2      OT      -0.834000       15.9994           0
     55762 TIP3     11127    TIP3     H1       HT       0.417000       1.00800           0
     55763 TIP3     11127    TIP3     H2       HT       0.417000       1.00800           0
     55764 TIP3     11128    TIP3     OH2      OT      -0.834000       15.9994           0
     55765 TIP3     11128    TIP3     H1       HT       0.417000       1.00800           0
     55766 TIP3     11128    TIP3     H2       HT       0.417000       1.00800           0
     55767 TIP3     11129    TIP3     OH2      OT      -0.834000       15.9994           0
     55768 TIP3     11129    TIP3     H1       HT       0.417000       1.00800           0
     55769 TIP3     11129    TIP3     H2       HT       0.417000       1.00800           0
     55770 TIP3     11130    TIP3     OH2      OT      -0.834000       15.9994           0
     55771 TIP3     11130    TIP3     H1       HT       0.417000       1.00800           0
     55772 TIP3     11130    TIP3     H2       HT       0.417000       1.00800           0
     55773 TIP3     11131    TIP3     OH2      OT      -0.834000       15.9994           0
     55774 TIP3     11131    TIP3     H1       HT       0.417000       1.00800           0
     55775 TIP3     11131    TIP3     H2       HT       0.417000       1.00800           0
     55776 TIP3     11132    TIP3     OH2      OT      -0.834000       15.9994           0
     55777 TIP3     11132    TIP3     H1       HT       0.417000       1.00800           0
     55778 TIP3     11132    TIP3     H2       HT       0.417000       1.00800           0
     55779 TIP3     11133    TIP3     OH2      OT      -0.834000       15.9994           0
     55780 TIP3     11133    TIP3     H1       HT       0.417000       1.00800           0
     55781 TIP3     11133    TIP3     H2       HT       0.417000       1.00800           0
     55782 TIP3     11134    TIP3     OH2      OT      -0.834000       15.9994           0
     55783 TIP3     11134    TIP3     H1       HT       0.417000       1.00800           0
     55784 TIP3     11134    TIP3     H2       HT       0.417000       1.00800           0
     55785 TIP3     11135    TIP3     OH2      OT      -0.834000       15.9994           0
     55786 TIP3     11135    TIP3     H1       HT       0.417000       1.00800           0
     55787 TIP3     11135    TIP3     H2       HT       0.417000       1.00800           0
     55788 TIP3     11136    TIP3     OH2      OT      -0.834000       15.9994           0
     55789 TIP3     11136    TIP3     H1       HT       0.417000       1.00800           0
     55790 TIP3     11136    TIP3     H2       HT       0.417000       1.00800           0
     55791 TIP3     11137    TIP3     OH2      OT      -0.834000       15.9994           0
     55792 TIP3     11137    TIP3     H1       HT       0.417000       1.00800           0
     55793 TIP3     11137    TIP3     H2       HT       0.417000       1.00800           0
     55794 TIP3     11138    TIP3     OH2      OT      -0.834000       15.9994           0
     55795 TIP3     11138    TIP3     H1       HT       0.417000       1.00800           0
     55796 TIP3     11138    TIP3     H2       HT       0.417000       1.00800           0
     55797 TIP3     11139    TIP3     OH2      OT      -0.834000       15.9994           0
     55798 TIP3     11139    TIP3     H1       HT       0.417000       1.00800           0
     55799 TIP3     11139    TIP3     H2       HT       0.417000       1.00800           0
     55800 TIP3     11140    TIP3     OH2      OT      -0.834000       15.9994           0
     55801 TIP3     11140    TIP3     H1       HT       0.417000       1.00800           0
     55802 TIP3     11140    TIP3     H2       HT       0.417000       1.00800           0
     55803 TIP3     11141    TIP3     OH2      OT      -0.834000       15.9994           0
     55804 TIP3     11141    TIP3     H1       HT       0.417000       1.00800           0
     55805 TIP3     11141    TIP3     H2       HT       0.417000       1.00800           0
     55806 TIP3     11142    TIP3     OH2      OT      -0.834000       15.9994           0
     55807 TIP3     11142    TIP3     H1       HT       0.417000       1.00800           0
     55808 TIP3     11142    TIP3     H2       HT       0.417000       1.00800           0
     55809 TIP3     11143    TIP3     OH2      OT      -0.834000       15.9994           0
     55810 TIP3     11143    TIP3     H1       HT       0.417000       1.00800           0
     55811 TIP3     11143    TIP3     H2       HT       0.417000       1.00800           0
     55812 TIP3     11144    TIP3     OH2      OT      -0.834000       15.9994           0
     55813 TIP3     11144    TIP3     H1       HT       0.417000       1.00800           0
     55814 TIP3     11144    TIP3     H2       HT       0.417000       1.00800           0
     55815 TIP3     11145    TIP3     OH2      OT      -0.834000       15.9994           0
     55816 TIP3     11145    TIP3     H1       HT       0.417000       1.00800           0
     55817 TIP3     11145    TIP3     H2       HT       0.417000       1.00800           0
     55818 TIP3     11146    TIP3     OH2      OT      -0.834000       15.9994           0
     55819 TIP3     11146    TIP3     H1       HT       0.417000       1.00800           0
     55820 TIP3     11146    TIP3     H2       HT       0.417000       1.00800           0
     55821 TIP3     11147    TIP3     OH2      OT      -0.834000       15.9994           0
     55822 TIP3     11147    TIP3     H1       HT       0.417000       1.00800           0
     55823 TIP3     11147    TIP3     H2       HT       0.417000       1.00800           0
     55824 TIP3     11148    TIP3     OH2      OT      -0.834000       15.9994           0
     55825 TIP3     11148    TIP3     H1       HT       0.417000       1.00800           0
     55826 TIP3     11148    TIP3     H2       HT       0.417000       1.00800           0
     55827 TIP3     11149    TIP3     OH2      OT      -0.834000       15.9994           0
     55828 TIP3     11149    TIP3     H1       HT       0.417000       1.00800           0
     55829 TIP3     11149    TIP3     H2       HT       0.417000       1.00800           0
     55830 TIP3     11150    TIP3     OH2      OT      -0.834000       15.9994           0
     55831 TIP3     11150    TIP3     H1       HT       0.417000       1.00800           0
     55832 TIP3     11150    TIP3     H2       HT       0.417000       1.00800           0
     55833 TIP3     11151    TIP3     OH2      OT      -0.834000       15.9994           0
     55834 TIP3     11151    TIP3     H1       HT       0.417000       1.00800           0
     55835 TIP3     11151    TIP3     H2       HT       0.417000       1.00800           0
     55836 TIP3     11152    TIP3     OH2      OT      -0.834000       15.9994           0
     55837 TIP3     11152    TIP3     H1       HT       0.417000       1.00800           0
     55838 TIP3     11152    TIP3     H2       HT       0.417000       1.00800           0
     55839 TIP3     11153    TIP3     OH2      OT      -0.834000       15.9994           0
     55840 TIP3     11153    TIP3     H1       HT       0.417000       1.00800           0
     55841 TIP3     11153    TIP3     H2       HT       0.417000       1.00800           0
     55842 TIP3     11154    TIP3     OH2      OT      -0.834000       15.9994           0
     55843 TIP3     11154    TIP3     H1       HT       0.417000       1.00800           0
     55844 TIP3     11154    TIP3     H2       HT       0.417000       1.00800           0
     55845 TIP3     11155    TIP3     OH2      OT      -0.834000       15.9994           0
     55846 TIP3     11155    TIP3     H1       HT       0.417000       1.00800           0
     55847 TIP3     11155    TIP3     H2       HT       0.417000       1.00800           0
     55848 TIP3     11156    TIP3     OH2      OT      -0.834000       15.9994           0
     55849 TIP3     11156    TIP3     H1       HT       0.417000       1.00800           0
     55850 TIP3     11156    TIP3     H2       HT       0.417000       1.00800           0
     55851 TIP3     11157    TIP3     OH2      OT      -0.834000       15.9994           0
     55852 TIP3     11157    TIP3     H1       HT       0.417000       1.00800           0
     55853 TIP3     11157    TIP3     H2       HT       0.417000       1.00800           0
     55854 TIP3     11158    TIP3     OH2      OT      -0.834000       15.9994           0
     55855 TIP3     11158    TIP3     H1       HT       0.417000       1.00800           0
     55856 TIP3     11158    TIP3     H2       HT       0.417000       1.00800           0
     55857 TIP3     11159    TIP3     OH2      OT      -0.834000       15.9994           0
     55858 TIP3     11159    TIP3     H1       HT       0.417000       1.00800           0
     55859 TIP3     11159    TIP3     H2       HT       0.417000       1.00800           0
     55860 TIP3     11160    TIP3     OH2      OT      -0.834000       15.9994           0
     55861 TIP3     11160    TIP3     H1       HT       0.417000       1.00800           0
     55862 TIP3     11160    TIP3     H2       HT       0.417000       1.00800           0
     55863 TIP3     11161    TIP3     OH2      OT      -0.834000       15.9994           0
     55864 TIP3     11161    TIP3     H1       HT       0.417000       1.00800           0
     55865 TIP3     11161    TIP3     H2       HT       0.417000       1.00800           0
     55866 TIP3     11162    TIP3     OH2      OT      -0.834000       15.9994           0
     55867 TIP3     11162    TIP3     H1       HT       0.417000       1.00800           0
     55868 TIP3     11162    TIP3     H2       HT       0.417000       1.00800           0
     55869 TIP3     11163    TIP3     OH2      OT      -0.834000       15.9994           0
     55870 TIP3     11163    TIP3     H1       HT       0.417000       1.00800           0
     55871 TIP3     11163    TIP3     H2       HT       0.417000       1.00800           0
     55872 TIP3     11164    TIP3     OH2      OT      -0.834000       15.9994           0
     55873 TIP3     11164    TIP3     H1       HT       0.417000       1.00800           0
     55874 TIP3     11164    TIP3     H2       HT       0.417000       1.00800           0
     55875 TIP3     11165    TIP3     OH2      OT      -0.834000       15.9994           0
     55876 TIP3     11165    TIP3     H1       HT       0.417000       1.00800           0
     55877 TIP3     11165    TIP3     H2       HT       0.417000       1.00800           0
     55878 TIP3     11166    TIP3     OH2      OT      -0.834000       15.9994           0
     55879 TIP3     11166    TIP3     H1       HT       0.417000       1.00800           0
     55880 TIP3     11166    TIP3     H2       HT       0.417000       1.00800           0
     55881 TIP3     11167    TIP3     OH2      OT      -0.834000       15.9994           0
     55882 TIP3     11167    TIP3     H1       HT       0.417000       1.00800           0
     55883 TIP3     11167    TIP3     H2       HT       0.417000       1.00800           0
     55884 TIP3     11168    TIP3     OH2      OT      -0.834000       15.9994           0
     55885 TIP3     11168    TIP3     H1       HT       0.417000       1.00800           0
     55886 TIP3     11168    TIP3     H2       HT       0.417000       1.00800           0
     55887 TIP3     11169    TIP3     OH2      OT      -0.834000       15.9994           0
     55888 TIP3     11169    TIP3     H1       HT       0.417000       1.00800           0
     55889 TIP3     11169    TIP3     H2       HT       0.417000       1.00800           0
     55890 TIP3     11170    TIP3     OH2      OT      -0.834000       15.9994           0
     55891 TIP3     11170    TIP3     H1       HT       0.417000       1.00800           0
     55892 TIP3     11170    TIP3     H2       HT       0.417000       1.00800           0
     55893 TIP3     11171    TIP3     OH2      OT      -0.834000       15.9994           0
     55894 TIP3     11171    TIP3     H1       HT       0.417000       1.00800           0
     55895 TIP3     11171    TIP3     H2       HT       0.417000       1.00800           0
     55896 TIP3     11172    TIP3     OH2      OT      -0.834000       15.9994           0
     55897 TIP3     11172    TIP3     H1       HT       0.417000       1.00800           0
     55898 TIP3     11172    TIP3     H2       HT       0.417000       1.00800           0
     55899 TIP3     11173    TIP3     OH2      OT      -0.834000       15.9994           0
     55900 TIP3     11173    TIP3     H1       HT       0.417000       1.00800           0
     55901 TIP3     11173    TIP3     H2       HT       0.417000       1.00800           0
     55902 TIP3     11174    TIP3     OH2      OT      -0.834000       15.9994           0
     55903 TIP3     11174    TIP3     H1       HT       0.417000       1.00800           0
     55904 TIP3     11174    TIP3     H2       HT       0.417000       1.00800           0
     55905 TIP3     11175    TIP3     OH2      OT      -0.834000       15.9994           0
     55906 TIP3     11175    TIP3     H1       HT       0.417000       1.00800           0
     55907 TIP3     11175    TIP3     H2       HT       0.417000       1.00800           0
     55908 TIP3     11176    TIP3     OH2      OT      -0.834000       15.9994           0
     55909 TIP3     11176    TIP3     H1       HT       0.417000       1.00800           0
     55910 TIP3     11176    TIP3     H2       HT       0.417000       1.00800           0
     55911 TIP3     11177    TIP3     OH2      OT      -0.834000       15.9994           0
     55912 TIP3     11177    TIP3     H1       HT       0.417000       1.00800           0
     55913 TIP3     11177    TIP3     H2       HT       0.417000       1.00800           0
     55914 TIP3     11178    TIP3     OH2      OT      -0.834000       15.9994           0
     55915 TIP3     11178    TIP3     H1       HT       0.417000       1.00800           0
     55916 TIP3     11178    TIP3     H2       HT       0.417000       1.00800           0
     55917 TIP3     11179    TIP3     OH2      OT      -0.834000       15.9994           0
     55918 TIP3     11179    TIP3     H1       HT       0.417000       1.00800           0
     55919 TIP3     11179    TIP3     H2       HT       0.417000       1.00800           0
     55920 TIP3     11180    TIP3     OH2      OT      -0.834000       15.9994           0
     55921 TIP3     11180    TIP3     H1       HT       0.417000       1.00800           0
     55922 TIP3     11180    TIP3     H2       HT       0.417000       1.00800           0
     55923 TIP3     11181    TIP3     OH2      OT      -0.834000       15.9994           0
     55924 TIP3     11181    TIP3     H1       HT       0.417000       1.00800           0
     55925 TIP3     11181    TIP3     H2       HT       0.417000       1.00800           0
     55926 TIP3     11182    TIP3     OH2      OT      -0.834000       15.9994           0
     55927 TIP3     11182    TIP3     H1       HT       0.417000       1.00800           0
     55928 TIP3     11182    TIP3     H2       HT       0.417000       1.00800           0
     55929 TIP3     11183    TIP3     OH2      OT      -0.834000       15.9994           0
     55930 TIP3     11183    TIP3     H1       HT       0.417000       1.00800           0
     55931 TIP3     11183    TIP3     H2       HT       0.417000       1.00800           0
     55932 TIP3     11184    TIP3     OH2      OT      -0.834000       15.9994           0
     55933 TIP3     11184    TIP3     H1       HT       0.417000       1.00800           0
     55934 TIP3     11184    TIP3     H2       HT       0.417000       1.00800           0
     55935 TIP3     11185    TIP3     OH2      OT      -0.834000       15.9994           0
     55936 TIP3     11185    TIP3     H1       HT       0.417000       1.00800           0
     55937 TIP3     11185    TIP3     H2       HT       0.417000       1.00800           0
     55938 TIP3     11186    TIP3     OH2      OT      -0.834000       15.9994           0
     55939 TIP3     11186    TIP3     H1       HT       0.417000       1.00800           0
     55940 TIP3     11186    TIP3     H2       HT       0.417000       1.00800           0
     55941 TIP3     11187    TIP3     OH2      OT      -0.834000       15.9994           0
     55942 TIP3     11187    TIP3     H1       HT       0.417000       1.00800           0
     55943 TIP3     11187    TIP3     H2       HT       0.417000       1.00800           0
     55944 TIP3     11188    TIP3     OH2      OT      -0.834000       15.9994           0
     55945 TIP3     11188    TIP3     H1       HT       0.417000       1.00800           0
     55946 TIP3     11188    TIP3     H2       HT       0.417000       1.00800           0
     55947 TIP3     11189    TIP3     OH2      OT      -0.834000       15.9994           0
     55948 TIP3     11189    TIP3     H1       HT       0.417000       1.00800           0
     55949 TIP3     11189    TIP3     H2       HT       0.417000       1.00800           0
     55950 TIP3     11190    TIP3     OH2      OT      -0.834000       15.9994           0
     55951 TIP3     11190    TIP3     H1       HT       0.417000       1.00800           0
     55952 TIP3     11190    TIP3     H2       HT       0.417000       1.00800           0
     55953 TIP3     11191    TIP3     OH2      OT      -0.834000       15.9994           0
     55954 TIP3     11191    TIP3     H1       HT       0.417000       1.00800           0
     55955 TIP3     11191    TIP3     H2       HT       0.417000       1.00800           0
     55956 TIP3     11192    TIP3     OH2      OT      -0.834000       15.9994           0
     55957 TIP3     11192    TIP3     H1       HT       0.417000       1.00800           0
     55958 TIP3     11192    TIP3     H2       HT       0.417000       1.00800           0
     55959 TIP3     11193    TIP3     OH2      OT      -0.834000       15.9994           0
     55960 TIP3     11193    TIP3     H1       HT       0.417000       1.00800           0
     55961 TIP3     11193    TIP3     H2       HT       0.417000       1.00800           0
     55962 TIP3     11194    TIP3     OH2      OT      -0.834000       15.9994           0
     55963 TIP3     11194    TIP3     H1       HT       0.417000       1.00800           0
     55964 TIP3     11194    TIP3     H2       HT       0.417000       1.00800           0
     55965 TIP3     11195    TIP3     OH2      OT      -0.834000       15.9994           0
     55966 TIP3     11195    TIP3     H1       HT       0.417000       1.00800           0
     55967 TIP3     11195    TIP3     H2       HT       0.417000       1.00800           0
     55968 TIP3     11196    TIP3     OH2      OT      -0.834000       15.9994           0
     55969 TIP3     11196    TIP3     H1       HT       0.417000       1.00800           0
     55970 TIP3     11196    TIP3     H2       HT       0.417000       1.00800           0
     55971 TIP3     11197    TIP3     OH2      OT      -0.834000       15.9994           0
     55972 TIP3     11197    TIP3     H1       HT       0.417000       1.00800           0
     55973 TIP3     11197    TIP3     H2       HT       0.417000       1.00800           0
     55974 TIP3     11198    TIP3     OH2      OT      -0.834000       15.9994           0
     55975 TIP3     11198    TIP3     H1       HT       0.417000       1.00800           0
     55976 TIP3     11198    TIP3     H2       HT       0.417000       1.00800           0
     55977 TIP3     11199    TIP3     OH2      OT      -0.834000       15.9994           0
     55978 TIP3     11199    TIP3     H1       HT       0.417000       1.00800           0
     55979 TIP3     11199    TIP3     H2       HT       0.417000       1.00800           0
     55980 TIP3     11200    TIP3     OH2      OT      -0.834000       15.9994           0
     55981 TIP3     11200    TIP3     H1       HT       0.417000       1.00800           0
     55982 TIP3     11200    TIP3     H2       HT       0.417000       1.00800           0
     55983 TIP3     11201    TIP3     OH2      OT      -0.834000       15.9994           0
     55984 TIP3     11201    TIP3     H1       HT       0.417000       1.00800           0
     55985 TIP3     11201    TIP3     H2       HT       0.417000       1.00800           0
     55986 TIP3     11202    TIP3     OH2      OT      -0.834000       15.9994           0
     55987 TIP3     11202    TIP3     H1       HT       0.417000       1.00800           0
     55988 TIP3     11202    TIP3     H2       HT       0.417000       1.00800           0
     55989 TIP3     11203    TIP3     OH2      OT      -0.834000       15.9994           0
     55990 TIP3     11203    TIP3     H1       HT       0.417000       1.00800           0
     55991 TIP3     11203    TIP3     H2       HT       0.417000       1.00800           0
     55992 TIP3     11204    TIP3     OH2      OT      -0.834000       15.9994           0
     55993 TIP3     11204    TIP3     H1       HT       0.417000       1.00800           0
     55994 TIP3     11204    TIP3     H2       HT       0.417000       1.00800           0
     55995 TIP3     11205    TIP3     OH2      OT      -0.834000       15.9994           0
     55996 TIP3     11205    TIP3     H1       HT       0.417000       1.00800           0
     55997 TIP3     11205    TIP3     H2       HT       0.417000       1.00800           0
     55998 TIP3     11206    TIP3     OH2      OT      -0.834000       15.9994           0
     55999 TIP3     11206    TIP3     H1       HT       0.417000       1.00800           0
     56000 TIP3     11206    TIP3     H2       HT       0.417000       1.00800           0
     56001 TIP3     11207    TIP3     OH2      OT      -0.834000       15.9994           0
     56002 TIP3     11207    TIP3     H1       HT       0.417000       1.00800           0
     56003 TIP3     11207    TIP3     H2       HT       0.417000       1.00800           0
     56004 TIP3     11208    TIP3     OH2      OT      -0.834000       15.9994           0
     56005 TIP3     11208    TIP3     H1       HT       0.417000       1.00800           0
     56006 TIP3     11208    TIP3     H2       HT       0.417000       1.00800           0
     56007 TIP3     11209    TIP3     OH2      OT      -0.834000       15.9994           0
     56008 TIP3     11209    TIP3     H1       HT       0.417000       1.00800           0
     56009 TIP3     11209    TIP3     H2       HT       0.417000       1.00800           0
     56010 TIP3     11210    TIP3     OH2      OT      -0.834000       15.9994           0
     56011 TIP3     11210    TIP3     H1       HT       0.417000       1.00800           0
     56012 TIP3     11210    TIP3     H2       HT       0.417000       1.00800           0
     56013 TIP3     11211    TIP3     OH2      OT      -0.834000       15.9994           0
     56014 TIP3     11211    TIP3     H1       HT       0.417000       1.00800           0
     56015 TIP3     11211    TIP3     H2       HT       0.417000       1.00800           0
     56016 TIP3     11212    TIP3     OH2      OT      -0.834000       15.9994           0
     56017 TIP3     11212    TIP3     H1       HT       0.417000       1.00800           0
     56018 TIP3     11212    TIP3     H2       HT       0.417000       1.00800           0
     56019 TIP3     11213    TIP3     OH2      OT      -0.834000       15.9994           0
     56020 TIP3     11213    TIP3     H1       HT       0.417000       1.00800           0
     56021 TIP3     11213    TIP3     H2       HT       0.417000       1.00800           0
     56022 TIP3     11214    TIP3     OH2      OT      -0.834000       15.9994           0
     56023 TIP3     11214    TIP3     H1       HT       0.417000       1.00800           0
     56024 TIP3     11214    TIP3     H2       HT       0.417000       1.00800           0
     56025 TIP3     11215    TIP3     OH2      OT      -0.834000       15.9994           0
     56026 TIP3     11215    TIP3     H1       HT       0.417000       1.00800           0
     56027 TIP3     11215    TIP3     H2       HT       0.417000       1.00800           0
     56028 TIP3     11216    TIP3     OH2      OT      -0.834000       15.9994           0
     56029 TIP3     11216    TIP3     H1       HT       0.417000       1.00800           0
     56030 TIP3     11216    TIP3     H2       HT       0.417000       1.00800           0
     56031 TIP3     11217    TIP3     OH2      OT      -0.834000       15.9994           0
     56032 TIP3     11217    TIP3     H1       HT       0.417000       1.00800           0
     56033 TIP3     11217    TIP3     H2       HT       0.417000       1.00800           0
     56034 TIP3     11218    TIP3     OH2      OT      -0.834000       15.9994           0
     56035 TIP3     11218    TIP3     H1       HT       0.417000       1.00800           0
     56036 TIP3     11218    TIP3     H2       HT       0.417000       1.00800           0
     56037 TIP3     11219    TIP3     OH2      OT      -0.834000       15.9994           0
     56038 TIP3     11219    TIP3     H1       HT       0.417000       1.00800           0
     56039 TIP3     11219    TIP3     H2       HT       0.417000       1.00800           0
     56040 TIP3     11220    TIP3     OH2      OT      -0.834000       15.9994           0
     56041 TIP3     11220    TIP3     H1       HT       0.417000       1.00800           0
     56042 TIP3     11220    TIP3     H2       HT       0.417000       1.00800           0
     56043 TIP3     11221    TIP3     OH2      OT      -0.834000       15.9994           0
     56044 TIP3     11221    TIP3     H1       HT       0.417000       1.00800           0
     56045 TIP3     11221    TIP3     H2       HT       0.417000       1.00800           0
     56046 TIP3     11222    TIP3     OH2      OT      -0.834000       15.9994           0
     56047 TIP3     11222    TIP3     H1       HT       0.417000       1.00800           0
     56048 TIP3     11222    TIP3     H2       HT       0.417000       1.00800           0
     56049 TIP3     11223    TIP3     OH2      OT      -0.834000       15.9994           0
     56050 TIP3     11223    TIP3     H1       HT       0.417000       1.00800           0
     56051 TIP3     11223    TIP3     H2       HT       0.417000       1.00800           0
     56052 TIP3     11224    TIP3     OH2      OT      -0.834000       15.9994           0
     56053 TIP3     11224    TIP3     H1       HT       0.417000       1.00800           0
     56054 TIP3     11224    TIP3     H2       HT       0.417000       1.00800           0
     56055 TIP3     11225    TIP3     OH2      OT      -0.834000       15.9994           0
     56056 TIP3     11225    TIP3     H1       HT       0.417000       1.00800           0
     56057 TIP3     11225    TIP3     H2       HT       0.417000       1.00800           0
     56058 TIP3     11226    TIP3     OH2      OT      -0.834000       15.9994           0
     56059 TIP3     11226    TIP3     H1       HT       0.417000       1.00800           0
     56060 TIP3     11226    TIP3     H2       HT       0.417000       1.00800           0
     56061 TIP3     11227    TIP3     OH2      OT      -0.834000       15.9994           0
     56062 TIP3     11227    TIP3     H1       HT       0.417000       1.00800           0
     56063 TIP3     11227    TIP3     H2       HT       0.417000       1.00800           0
     56064 TIP3     11228    TIP3     OH2      OT      -0.834000       15.9994           0
     56065 TIP3     11228    TIP3     H1       HT       0.417000       1.00800           0
     56066 TIP3     11228    TIP3     H2       HT       0.417000       1.00800           0
     56067 TIP3     11229    TIP3     OH2      OT      -0.834000       15.9994           0
     56068 TIP3     11229    TIP3     H1       HT       0.417000       1.00800           0
     56069 TIP3     11229    TIP3     H2       HT       0.417000       1.00800           0
     56070 TIP3     11230    TIP3     OH2      OT      -0.834000       15.9994           0
     56071 TIP3     11230    TIP3     H1       HT       0.417000       1.00800           0
     56072 TIP3     11230    TIP3     H2       HT       0.417000       1.00800           0
     56073 TIP3     11231    TIP3     OH2      OT      -0.834000       15.9994           0
     56074 TIP3     11231    TIP3     H1       HT       0.417000       1.00800           0
     56075 TIP3     11231    TIP3     H2       HT       0.417000       1.00800           0
     56076 TIP3     11232    TIP3     OH2      OT      -0.834000       15.9994           0
     56077 TIP3     11232    TIP3     H1       HT       0.417000       1.00800           0
     56078 TIP3     11232    TIP3     H2       HT       0.417000       1.00800           0
     56079 TIP3     11233    TIP3     OH2      OT      -0.834000       15.9994           0
     56080 TIP3     11233    TIP3     H1       HT       0.417000       1.00800           0
     56081 TIP3     11233    TIP3     H2       HT       0.417000       1.00800           0
     56082 TIP3     11234    TIP3     OH2      OT      -0.834000       15.9994           0
     56083 TIP3     11234    TIP3     H1       HT       0.417000       1.00800           0
     56084 TIP3     11234    TIP3     H2       HT       0.417000       1.00800           0
     56085 TIP3     11235    TIP3     OH2      OT      -0.834000       15.9994           0
     56086 TIP3     11235    TIP3     H1       HT       0.417000       1.00800           0
     56087 TIP3     11235    TIP3     H2       HT       0.417000       1.00800           0
     56088 TIP3     11236    TIP3     OH2      OT      -0.834000       15.9994           0
     56089 TIP3     11236    TIP3     H1       HT       0.417000       1.00800           0
     56090 TIP3     11236    TIP3     H2       HT       0.417000       1.00800           0
     56091 TIP3     11237    TIP3     OH2      OT      -0.834000       15.9994           0
     56092 TIP3     11237    TIP3     H1       HT       0.417000       1.00800           0
     56093 TIP3     11237    TIP3     H2       HT       0.417000       1.00800           0
     56094 TIP3     11238    TIP3     OH2      OT      -0.834000       15.9994           0
     56095 TIP3     11238    TIP3     H1       HT       0.417000       1.00800           0
     56096 TIP3     11238    TIP3     H2       HT       0.417000       1.00800           0
     56097 TIP3     11239    TIP3     OH2      OT      -0.834000       15.9994           0
     56098 TIP3     11239    TIP3     H1       HT       0.417000       1.00800           0
     56099 TIP3     11239    TIP3     H2       HT       0.417000       1.00800           0
     56100 TIP3     11240    TIP3     OH2      OT      -0.834000       15.9994           0
     56101 TIP3     11240    TIP3     H1       HT       0.417000       1.00800           0
     56102 TIP3     11240    TIP3     H2       HT       0.417000       1.00800           0
     56103 TIP3     11241    TIP3     OH2      OT      -0.834000       15.9994           0
     56104 TIP3     11241    TIP3     H1       HT       0.417000       1.00800           0
     56105 TIP3     11241    TIP3     H2       HT       0.417000       1.00800           0
     56106 TIP3     11242    TIP3     OH2      OT      -0.834000       15.9994           0
     56107 TIP3     11242    TIP3     H1       HT       0.417000       1.00800           0
     56108 TIP3     11242    TIP3     H2       HT       0.417000       1.00800           0
     56109 TIP3     11243    TIP3     OH2      OT      -0.834000       15.9994           0
     56110 TIP3     11243    TIP3     H1       HT       0.417000       1.00800           0
     56111 TIP3     11243    TIP3     H2       HT       0.417000       1.00800           0
     56112 TIP3     11244    TIP3     OH2      OT      -0.834000       15.9994           0
     56113 TIP3     11244    TIP3     H1       HT       0.417000       1.00800           0
     56114 TIP3     11244    TIP3     H2       HT       0.417000       1.00800           0
     56115 TIP3     11245    TIP3     OH2      OT      -0.834000       15.9994           0
     56116 TIP3     11245    TIP3     H1       HT       0.417000       1.00800           0
     56117 TIP3     11245    TIP3     H2       HT       0.417000       1.00800           0
     56118 TIP3     11246    TIP3     OH2      OT      -0.834000       15.9994           0
     56119 TIP3     11246    TIP3     H1       HT       0.417000       1.00800           0
     56120 TIP3     11246    TIP3     H2       HT       0.417000       1.00800           0
     56121 TIP3     11247    TIP3     OH2      OT      -0.834000       15.9994           0
     56122 TIP3     11247    TIP3     H1       HT       0.417000       1.00800           0
     56123 TIP3     11247    TIP3     H2       HT       0.417000       1.00800           0
     56124 TIP3     11248    TIP3     OH2      OT      -0.834000       15.9994           0
     56125 TIP3     11248    TIP3     H1       HT       0.417000       1.00800           0
     56126 TIP3     11248    TIP3     H2       HT       0.417000       1.00800           0
     56127 TIP3     11249    TIP3     OH2      OT      -0.834000       15.9994           0
     56128 TIP3     11249    TIP3     H1       HT       0.417000       1.00800           0
     56129 TIP3     11249    TIP3     H2       HT       0.417000       1.00800           0
     56130 TIP3     11250    TIP3     OH2      OT      -0.834000       15.9994           0
     56131 TIP3     11250    TIP3     H1       HT       0.417000       1.00800           0
     56132 TIP3     11250    TIP3     H2       HT       0.417000       1.00800           0
     56133 TIP3     11251    TIP3     OH2      OT      -0.834000       15.9994           0
     56134 TIP3     11251    TIP3     H1       HT       0.417000       1.00800           0
     56135 TIP3     11251    TIP3     H2       HT       0.417000       1.00800           0
     56136 TIP3     11252    TIP3     OH2      OT      -0.834000       15.9994           0
     56137 TIP3     11252    TIP3     H1       HT       0.417000       1.00800           0
     56138 TIP3     11252    TIP3     H2       HT       0.417000       1.00800           0
     56139 TIP3     11253    TIP3     OH2      OT      -0.834000       15.9994           0
     56140 TIP3     11253    TIP3     H1       HT       0.417000       1.00800           0
     56141 TIP3     11253    TIP3     H2       HT       0.417000       1.00800           0
     56142 TIP3     11254    TIP3     OH2      OT      -0.834000       15.9994           0
     56143 TIP3     11254    TIP3     H1       HT       0.417000       1.00800           0
     56144 TIP3     11254    TIP3     H2       HT       0.417000       1.00800           0
     56145 TIP3     11255    TIP3     OH2      OT      -0.834000       15.9994           0
     56146 TIP3     11255    TIP3     H1       HT       0.417000       1.00800           0
     56147 TIP3     11255    TIP3     H2       HT       0.417000       1.00800           0
     56148 TIP3     11256    TIP3     OH2      OT      -0.834000       15.9994           0
     56149 TIP3     11256    TIP3     H1       HT       0.417000       1.00800           0
     56150 TIP3     11256    TIP3     H2       HT       0.417000       1.00800           0
     56151 TIP3     11257    TIP3     OH2      OT      -0.834000       15.9994           0
     56152 TIP3     11257    TIP3     H1       HT       0.417000       1.00800           0
     56153 TIP3     11257    TIP3     H2       HT       0.417000       1.00800           0
     56154 TIP3     11258    TIP3     OH2      OT      -0.834000       15.9994           0
     56155 TIP3     11258    TIP3     H1       HT       0.417000       1.00800           0
     56156 TIP3     11258    TIP3     H2       HT       0.417000       1.00800           0
     56157 TIP3     11259    TIP3     OH2      OT      -0.834000       15.9994           0
     56158 TIP3     11259    TIP3     H1       HT       0.417000       1.00800           0
     56159 TIP3     11259    TIP3     H2       HT       0.417000       1.00800           0
     56160 TIP3     11260    TIP3     OH2      OT      -0.834000       15.9994           0
     56161 TIP3     11260    TIP3     H1       HT       0.417000       1.00800           0
     56162 TIP3     11260    TIP3     H2       HT       0.417000       1.00800           0
     56163 TIP3     11261    TIP3     OH2      OT      -0.834000       15.9994           0
     56164 TIP3     11261    TIP3     H1       HT       0.417000       1.00800           0
     56165 TIP3     11261    TIP3     H2       HT       0.417000       1.00800           0
     56166 TIP3     11262    TIP3     OH2      OT      -0.834000       15.9994           0
     56167 TIP3     11262    TIP3     H1       HT       0.417000       1.00800           0
     56168 TIP3     11262    TIP3     H2       HT       0.417000       1.00800           0
     56169 TIP3     11263    TIP3     OH2      OT      -0.834000       15.9994           0
     56170 TIP3     11263    TIP3     H1       HT       0.417000       1.00800           0
     56171 TIP3     11263    TIP3     H2       HT       0.417000       1.00800           0
     56172 TIP3     11264    TIP3     OH2      OT      -0.834000       15.9994           0
     56173 TIP3     11264    TIP3     H1       HT       0.417000       1.00800           0
     56174 TIP3     11264    TIP3     H2       HT       0.417000       1.00800           0
     56175 TIP3     11265    TIP3     OH2      OT      -0.834000       15.9994           0
     56176 TIP3     11265    TIP3     H1       HT       0.417000       1.00800           0
     56177 TIP3     11265    TIP3     H2       HT       0.417000       1.00800           0
     56178 TIP3     11266    TIP3     OH2      OT      -0.834000       15.9994           0
     56179 TIP3     11266    TIP3     H1       HT       0.417000       1.00800           0
     56180 TIP3     11266    TIP3     H2       HT       0.417000       1.00800           0
     56181 TIP3     11267    TIP3     OH2      OT      -0.834000       15.9994           0
     56182 TIP3     11267    TIP3     H1       HT       0.417000       1.00800           0
     56183 TIP3     11267    TIP3     H2       HT       0.417000       1.00800           0
     56184 TIP3     11268    TIP3     OH2      OT      -0.834000       15.9994           0
     56185 TIP3     11268    TIP3     H1       HT       0.417000       1.00800           0
     56186 TIP3     11268    TIP3     H2       HT       0.417000       1.00800           0
     56187 TIP3     11269    TIP3     OH2      OT      -0.834000       15.9994           0
     56188 TIP3     11269    TIP3     H1       HT       0.417000       1.00800           0
     56189 TIP3     11269    TIP3     H2       HT       0.417000       1.00800           0
     56190 TIP3     11270    TIP3     OH2      OT      -0.834000       15.9994           0
     56191 TIP3     11270    TIP3     H1       HT       0.417000       1.00800           0
     56192 TIP3     11270    TIP3     H2       HT       0.417000       1.00800           0
     56193 TIP3     11271    TIP3     OH2      OT      -0.834000       15.9994           0
     56194 TIP3     11271    TIP3     H1       HT       0.417000       1.00800           0
     56195 TIP3     11271    TIP3     H2       HT       0.417000       1.00800           0
     56196 TIP3     11272    TIP3     OH2      OT      -0.834000       15.9994           0
     56197 TIP3     11272    TIP3     H1       HT       0.417000       1.00800           0
     56198 TIP3     11272    TIP3     H2       HT       0.417000       1.00800           0
     56199 TIP3     11273    TIP3     OH2      OT      -0.834000       15.9994           0
     56200 TIP3     11273    TIP3     H1       HT       0.417000       1.00800           0
     56201 TIP3     11273    TIP3     H2       HT       0.417000       1.00800           0
     56202 TIP3     11274    TIP3     OH2      OT      -0.834000       15.9994           0
     56203 TIP3     11274    TIP3     H1       HT       0.417000       1.00800           0
     56204 TIP3     11274    TIP3     H2       HT       0.417000       1.00800           0
     56205 TIP3     11275    TIP3     OH2      OT      -0.834000       15.9994           0
     56206 TIP3     11275    TIP3     H1       HT       0.417000       1.00800           0
     56207 TIP3     11275    TIP3     H2       HT       0.417000       1.00800           0
     56208 TIP3     11276    TIP3     OH2      OT      -0.834000       15.9994           0
     56209 TIP3     11276    TIP3     H1       HT       0.417000       1.00800           0
     56210 TIP3     11276    TIP3     H2       HT       0.417000       1.00800           0
     56211 TIP3     11277    TIP3     OH2      OT      -0.834000       15.9994           0
     56212 TIP3     11277    TIP3     H1       HT       0.417000       1.00800           0
     56213 TIP3     11277    TIP3     H2       HT       0.417000       1.00800           0
     56214 TIP3     11278    TIP3     OH2      OT      -0.834000       15.9994           0
     56215 TIP3     11278    TIP3     H1       HT       0.417000       1.00800           0
     56216 TIP3     11278    TIP3     H2       HT       0.417000       1.00800           0
     56217 TIP3     11279    TIP3     OH2      OT      -0.834000       15.9994           0
     56218 TIP3     11279    TIP3     H1       HT       0.417000       1.00800           0
     56219 TIP3     11279    TIP3     H2       HT       0.417000       1.00800           0
     56220 TIP3     11280    TIP3     OH2      OT      -0.834000       15.9994           0
     56221 TIP3     11280    TIP3     H1       HT       0.417000       1.00800           0
     56222 TIP3     11280    TIP3     H2       HT       0.417000       1.00800           0
     56223 TIP3     11281    TIP3     OH2      OT      -0.834000       15.9994           0
     56224 TIP3     11281    TIP3     H1       HT       0.417000       1.00800           0
     56225 TIP3     11281    TIP3     H2       HT       0.417000       1.00800           0
     56226 TIP3     11282    TIP3     OH2      OT      -0.834000       15.9994           0
     56227 TIP3     11282    TIP3     H1       HT       0.417000       1.00800           0
     56228 TIP3     11282    TIP3     H2       HT       0.417000       1.00800           0
     56229 TIP3     11283    TIP3     OH2      OT      -0.834000       15.9994           0
     56230 TIP3     11283    TIP3     H1       HT       0.417000       1.00800           0
     56231 TIP3     11283    TIP3     H2       HT       0.417000       1.00800           0
     56232 TIP3     11284    TIP3     OH2      OT      -0.834000       15.9994           0
     56233 TIP3     11284    TIP3     H1       HT       0.417000       1.00800           0
     56234 TIP3     11284    TIP3     H2       HT       0.417000       1.00800           0
     56235 TIP3     11285    TIP3     OH2      OT      -0.834000       15.9994           0
     56236 TIP3     11285    TIP3     H1       HT       0.417000       1.00800           0
     56237 TIP3     11285    TIP3     H2       HT       0.417000       1.00800           0
     56238 TIP3     11286    TIP3     OH2      OT      -0.834000       15.9994           0
     56239 TIP3     11286    TIP3     H1       HT       0.417000       1.00800           0
     56240 TIP3     11286    TIP3     H2       HT       0.417000       1.00800           0
     56241 TIP3     11287    TIP3     OH2      OT      -0.834000       15.9994           0
     56242 TIP3     11287    TIP3     H1       HT       0.417000       1.00800           0
     56243 TIP3     11287    TIP3     H2       HT       0.417000       1.00800           0
     56244 TIP3     11288    TIP3     OH2      OT      -0.834000       15.9994           0
     56245 TIP3     11288    TIP3     H1       HT       0.417000       1.00800           0
     56246 TIP3     11288    TIP3     H2       HT       0.417000       1.00800           0
     56247 TIP3     11289    TIP3     OH2      OT      -0.834000       15.9994           0
     56248 TIP3     11289    TIP3     H1       HT       0.417000       1.00800           0
     56249 TIP3     11289    TIP3     H2       HT       0.417000       1.00800           0
     56250 TIP3     11290    TIP3     OH2      OT      -0.834000       15.9994           0
     56251 TIP3     11290    TIP3     H1       HT       0.417000       1.00800           0
     56252 TIP3     11290    TIP3     H2       HT       0.417000       1.00800           0
     56253 TIP3     11291    TIP3     OH2      OT      -0.834000       15.9994           0
     56254 TIP3     11291    TIP3     H1       HT       0.417000       1.00800           0
     56255 TIP3     11291    TIP3     H2       HT       0.417000       1.00800           0
     56256 TIP3     11292    TIP3     OH2      OT      -0.834000       15.9994           0
     56257 TIP3     11292    TIP3     H1       HT       0.417000       1.00800           0
     56258 TIP3     11292    TIP3     H2       HT       0.417000       1.00800           0
     56259 TIP3     11293    TIP3     OH2      OT      -0.834000       15.9994           0
     56260 TIP3     11293    TIP3     H1       HT       0.417000       1.00800           0
     56261 TIP3     11293    TIP3     H2       HT       0.417000       1.00800           0
     56262 TIP3     11294    TIP3     OH2      OT      -0.834000       15.9994           0
     56263 TIP3     11294    TIP3     H1       HT       0.417000       1.00800           0
     56264 TIP3     11294    TIP3     H2       HT       0.417000       1.00800           0
     56265 TIP3     11295    TIP3     OH2      OT      -0.834000       15.9994           0
     56266 TIP3     11295    TIP3     H1       HT       0.417000       1.00800           0
     56267 TIP3     11295    TIP3     H2       HT       0.417000       1.00800           0
     56268 TIP3     11296    TIP3     OH2      OT      -0.834000       15.9994           0
     56269 TIP3     11296    TIP3     H1       HT       0.417000       1.00800           0
     56270 TIP3     11296    TIP3     H2       HT       0.417000       1.00800           0
     56271 TIP3     11297    TIP3     OH2      OT      -0.834000       15.9994           0
     56272 TIP3     11297    TIP3     H1       HT       0.417000       1.00800           0
     56273 TIP3     11297    TIP3     H2       HT       0.417000       1.00800           0
     56274 TIP3     11298    TIP3     OH2      OT      -0.834000       15.9994           0
     56275 TIP3     11298    TIP3     H1       HT       0.417000       1.00800           0
     56276 TIP3     11298    TIP3     H2       HT       0.417000       1.00800           0
     56277 TIP3     11299    TIP3     OH2      OT      -0.834000       15.9994           0
     56278 TIP3     11299    TIP3     H1       HT       0.417000       1.00800           0
     56279 TIP3     11299    TIP3     H2       HT       0.417000       1.00800           0
     56280 TIP3     11300    TIP3     OH2      OT      -0.834000       15.9994           0
     56281 TIP3     11300    TIP3     H1       HT       0.417000       1.00800           0
     56282 TIP3     11300    TIP3     H2       HT       0.417000       1.00800           0
     56283 TIP3     11301    TIP3     OH2      OT      -0.834000       15.9994           0
     56284 TIP3     11301    TIP3     H1       HT       0.417000       1.00800           0
     56285 TIP3     11301    TIP3     H2       HT       0.417000       1.00800           0
     56286 TIP3     11302    TIP3     OH2      OT      -0.834000       15.9994           0
     56287 TIP3     11302    TIP3     H1       HT       0.417000       1.00800           0
     56288 TIP3     11302    TIP3     H2       HT       0.417000       1.00800           0
     56289 TIP3     11303    TIP3     OH2      OT      -0.834000       15.9994           0
     56290 TIP3     11303    TIP3     H1       HT       0.417000       1.00800           0
     56291 TIP3     11303    TIP3     H2       HT       0.417000       1.00800           0
     56292 TIP3     11304    TIP3     OH2      OT      -0.834000       15.9994           0
     56293 TIP3     11304    TIP3     H1       HT       0.417000       1.00800           0
     56294 TIP3     11304    TIP3     H2       HT       0.417000       1.00800           0
     56295 TIP3     11305    TIP3     OH2      OT      -0.834000       15.9994           0
     56296 TIP3     11305    TIP3     H1       HT       0.417000       1.00800           0
     56297 TIP3     11305    TIP3     H2       HT       0.417000       1.00800           0
     56298 TIP3     11306    TIP3     OH2      OT      -0.834000       15.9994           0
     56299 TIP3     11306    TIP3     H1       HT       0.417000       1.00800           0
     56300 TIP3     11306    TIP3     H2       HT       0.417000       1.00800           0
     56301 TIP3     11307    TIP3     OH2      OT      -0.834000       15.9994           0
     56302 TIP3     11307    TIP3     H1       HT       0.417000       1.00800           0
     56303 TIP3     11307    TIP3     H2       HT       0.417000       1.00800           0
     56304 TIP3     11308    TIP3     OH2      OT      -0.834000       15.9994           0
     56305 TIP3     11308    TIP3     H1       HT       0.417000       1.00800           0
     56306 TIP3     11308    TIP3     H2       HT       0.417000       1.00800           0
     56307 TIP3     11309    TIP3     OH2      OT      -0.834000       15.9994           0
     56308 TIP3     11309    TIP3     H1       HT       0.417000       1.00800           0
     56309 TIP3     11309    TIP3     H2       HT       0.417000       1.00800           0
     56310 TIP3     11310    TIP3     OH2      OT      -0.834000       15.9994           0
     56311 TIP3     11310    TIP3     H1       HT       0.417000       1.00800           0
     56312 TIP3     11310    TIP3     H2       HT       0.417000       1.00800           0
     56313 TIP3     11311    TIP3     OH2      OT      -0.834000       15.9994           0
     56314 TIP3     11311    TIP3     H1       HT       0.417000       1.00800           0
     56315 TIP3     11311    TIP3     H2       HT       0.417000       1.00800           0
     56316 TIP3     11312    TIP3     OH2      OT      -0.834000       15.9994           0
     56317 TIP3     11312    TIP3     H1       HT       0.417000       1.00800           0
     56318 TIP3     11312    TIP3     H2       HT       0.417000       1.00800           0
     56319 TIP3     11313    TIP3     OH2      OT      -0.834000       15.9994           0
     56320 TIP3     11313    TIP3     H1       HT       0.417000       1.00800           0
     56321 TIP3     11313    TIP3     H2       HT       0.417000       1.00800           0
     56322 TIP3     11314    TIP3     OH2      OT      -0.834000       15.9994           0
     56323 TIP3     11314    TIP3     H1       HT       0.417000       1.00800           0
     56324 TIP3     11314    TIP3     H2       HT       0.417000       1.00800           0
     56325 TIP3     11315    TIP3     OH2      OT      -0.834000       15.9994           0
     56326 TIP3     11315    TIP3     H1       HT       0.417000       1.00800           0
     56327 TIP3     11315    TIP3     H2       HT       0.417000       1.00800           0
     56328 TIP3     11316    TIP3     OH2      OT      -0.834000       15.9994           0
     56329 TIP3     11316    TIP3     H1       HT       0.417000       1.00800           0
     56330 TIP3     11316    TIP3     H2       HT       0.417000       1.00800           0
     56331 TIP3     11317    TIP3     OH2      OT      -0.834000       15.9994           0
     56332 TIP3     11317    TIP3     H1       HT       0.417000       1.00800           0
     56333 TIP3     11317    TIP3     H2       HT       0.417000       1.00800           0
     56334 TIP3     11318    TIP3     OH2      OT      -0.834000       15.9994           0
     56335 TIP3     11318    TIP3     H1       HT       0.417000       1.00800           0
     56336 TIP3     11318    TIP3     H2       HT       0.417000       1.00800           0
     56337 TIP3     11319    TIP3     OH2      OT      -0.834000       15.9994           0
     56338 TIP3     11319    TIP3     H1       HT       0.417000       1.00800           0
     56339 TIP3     11319    TIP3     H2       HT       0.417000       1.00800           0
     56340 TIP3     11320    TIP3     OH2      OT      -0.834000       15.9994           0
     56341 TIP3     11320    TIP3     H1       HT       0.417000       1.00800           0
     56342 TIP3     11320    TIP3     H2       HT       0.417000       1.00800           0
     56343 TIP3     11321    TIP3     OH2      OT      -0.834000       15.9994           0
     56344 TIP3     11321    TIP3     H1       HT       0.417000       1.00800           0
     56345 TIP3     11321    TIP3     H2       HT       0.417000       1.00800           0
     56346 TIP3     11322    TIP3     OH2      OT      -0.834000       15.9994           0
     56347 TIP3     11322    TIP3     H1       HT       0.417000       1.00800           0
     56348 TIP3     11322    TIP3     H2       HT       0.417000       1.00800           0
     56349 TIP3     11323    TIP3     OH2      OT      -0.834000       15.9994           0
     56350 TIP3     11323    TIP3     H1       HT       0.417000       1.00800           0
     56351 TIP3     11323    TIP3     H2       HT       0.417000       1.00800           0
     56352 TIP3     11324    TIP3     OH2      OT      -0.834000       15.9994           0
     56353 TIP3     11324    TIP3     H1       HT       0.417000       1.00800           0
     56354 TIP3     11324    TIP3     H2       HT       0.417000       1.00800           0
     56355 TIP3     11325    TIP3     OH2      OT      -0.834000       15.9994           0
     56356 TIP3     11325    TIP3     H1       HT       0.417000       1.00800           0
     56357 TIP3     11325    TIP3     H2       HT       0.417000       1.00800           0
     56358 TIP3     11326    TIP3     OH2      OT      -0.834000       15.9994           0
     56359 TIP3     11326    TIP3     H1       HT       0.417000       1.00800           0
     56360 TIP3     11326    TIP3     H2       HT       0.417000       1.00800           0
     56361 TIP3     11327    TIP3     OH2      OT      -0.834000       15.9994           0
     56362 TIP3     11327    TIP3     H1       HT       0.417000       1.00800           0
     56363 TIP3     11327    TIP3     H2       HT       0.417000       1.00800           0
     56364 TIP3     11328    TIP3     OH2      OT      -0.834000       15.9994           0
     56365 TIP3     11328    TIP3     H1       HT       0.417000       1.00800           0
     56366 TIP3     11328    TIP3     H2       HT       0.417000       1.00800           0
     56367 TIP3     11329    TIP3     OH2      OT      -0.834000       15.9994           0
     56368 TIP3     11329    TIP3     H1       HT       0.417000       1.00800           0
     56369 TIP3     11329    TIP3     H2       HT       0.417000       1.00800           0
     56370 TIP3     11330    TIP3     OH2      OT      -0.834000       15.9994           0
     56371 TIP3     11330    TIP3     H1       HT       0.417000       1.00800           0
     56372 TIP3     11330    TIP3     H2       HT       0.417000       1.00800           0
     56373 TIP3     11331    TIP3     OH2      OT      -0.834000       15.9994           0
     56374 TIP3     11331    TIP3     H1       HT       0.417000       1.00800           0
     56375 TIP3     11331    TIP3     H2       HT       0.417000       1.00800           0
     56376 TIP3     11332    TIP3     OH2      OT      -0.834000       15.9994           0
     56377 TIP3     11332    TIP3     H1       HT       0.417000       1.00800           0
     56378 TIP3     11332    TIP3     H2       HT       0.417000       1.00800           0
     56379 TIP3     11333    TIP3     OH2      OT      -0.834000       15.9994           0
     56380 TIP3     11333    TIP3     H1       HT       0.417000       1.00800           0
     56381 TIP3     11333    TIP3     H2       HT       0.417000       1.00800           0
     56382 TIP3     11334    TIP3     OH2      OT      -0.834000       15.9994           0
     56383 TIP3     11334    TIP3     H1       HT       0.417000       1.00800           0
     56384 TIP3     11334    TIP3     H2       HT       0.417000       1.00800           0
     56385 TIP3     11335    TIP3     OH2      OT      -0.834000       15.9994           0
     56386 TIP3     11335    TIP3     H1       HT       0.417000       1.00800           0
     56387 TIP3     11335    TIP3     H2       HT       0.417000       1.00800           0
     56388 TIP3     11336    TIP3     OH2      OT      -0.834000       15.9994           0
     56389 TIP3     11336    TIP3     H1       HT       0.417000       1.00800           0
     56390 TIP3     11336    TIP3     H2       HT       0.417000       1.00800           0
     56391 TIP3     11337    TIP3     OH2      OT      -0.834000       15.9994           0
     56392 TIP3     11337    TIP3     H1       HT       0.417000       1.00800           0
     56393 TIP3     11337    TIP3     H2       HT       0.417000       1.00800           0
     56394 TIP3     11338    TIP3     OH2      OT      -0.834000       15.9994           0
     56395 TIP3     11338    TIP3     H1       HT       0.417000       1.00800           0
     56396 TIP3     11338    TIP3     H2       HT       0.417000       1.00800           0
     56397 TIP3     11339    TIP3     OH2      OT      -0.834000       15.9994           0
     56398 TIP3     11339    TIP3     H1       HT       0.417000       1.00800           0
     56399 TIP3     11339    TIP3     H2       HT       0.417000       1.00800           0
     56400 TIP3     11340    TIP3     OH2      OT      -0.834000       15.9994           0
     56401 TIP3     11340    TIP3     H1       HT       0.417000       1.00800           0
     56402 TIP3     11340    TIP3     H2       HT       0.417000       1.00800           0
     56403 TIP3     11341    TIP3     OH2      OT      -0.834000       15.9994           0
     56404 TIP3     11341    TIP3     H1       HT       0.417000       1.00800           0
     56405 TIP3     11341    TIP3     H2       HT       0.417000       1.00800           0
     56406 TIP3     11342    TIP3     OH2      OT      -0.834000       15.9994           0
     56407 TIP3     11342    TIP3     H1       HT       0.417000       1.00800           0
     56408 TIP3     11342    TIP3     H2       HT       0.417000       1.00800           0
     56409 TIP3     11343    TIP3     OH2      OT      -0.834000       15.9994           0
     56410 TIP3     11343    TIP3     H1       HT       0.417000       1.00800           0
     56411 TIP3     11343    TIP3     H2       HT       0.417000       1.00800           0
     56412 TIP3     11344    TIP3     OH2      OT      -0.834000       15.9994           0
     56413 TIP3     11344    TIP3     H1       HT       0.417000       1.00800           0
     56414 TIP3     11344    TIP3     H2       HT       0.417000       1.00800           0
     56415 TIP3     11345    TIP3     OH2      OT      -0.834000       15.9994           0
     56416 TIP3     11345    TIP3     H1       HT       0.417000       1.00800           0
     56417 TIP3     11345    TIP3     H2       HT       0.417000       1.00800           0
     56418 TIP3     11346    TIP3     OH2      OT      -0.834000       15.9994           0
     56419 TIP3     11346    TIP3     H1       HT       0.417000       1.00800           0
     56420 TIP3     11346    TIP3     H2       HT       0.417000       1.00800           0
     56421 TIP3     11347    TIP3     OH2      OT      -0.834000       15.9994           0
     56422 TIP3     11347    TIP3     H1       HT       0.417000       1.00800           0
     56423 TIP3     11347    TIP3     H2       HT       0.417000       1.00800           0
     56424 TIP3     11348    TIP3     OH2      OT      -0.834000       15.9994           0
     56425 TIP3     11348    TIP3     H1       HT       0.417000       1.00800           0
     56426 TIP3     11348    TIP3     H2       HT       0.417000       1.00800           0
     56427 TIP3     11349    TIP3     OH2      OT      -0.834000       15.9994           0
     56428 TIP3     11349    TIP3     H1       HT       0.417000       1.00800           0
     56429 TIP3     11349    TIP3     H2       HT       0.417000       1.00800           0
     56430 TIP3     11350    TIP3     OH2      OT      -0.834000       15.9994           0
     56431 TIP3     11350    TIP3     H1       HT       0.417000       1.00800           0
     56432 TIP3     11350    TIP3     H2       HT       0.417000       1.00800           0
     56433 TIP3     11351    TIP3     OH2      OT      -0.834000       15.9994           0
     56434 TIP3     11351    TIP3     H1       HT       0.417000       1.00800           0
     56435 TIP3     11351    TIP3     H2       HT       0.417000       1.00800           0
     56436 TIP3     11352    TIP3     OH2      OT      -0.834000       15.9994           0
     56437 TIP3     11352    TIP3     H1       HT       0.417000       1.00800           0
     56438 TIP3     11352    TIP3     H2       HT       0.417000       1.00800           0
     56439 TIP3     11353    TIP3     OH2      OT      -0.834000       15.9994           0
     56440 TIP3     11353    TIP3     H1       HT       0.417000       1.00800           0
     56441 TIP3     11353    TIP3     H2       HT       0.417000       1.00800           0
     56442 TIP3     11354    TIP3     OH2      OT      -0.834000       15.9994           0
     56443 TIP3     11354    TIP3     H1       HT       0.417000       1.00800           0
     56444 TIP3     11354    TIP3     H2       HT       0.417000       1.00800           0
     56445 TIP3     11355    TIP3     OH2      OT      -0.834000       15.9994           0
     56446 TIP3     11355    TIP3     H1       HT       0.417000       1.00800           0
     56447 TIP3     11355    TIP3     H2       HT       0.417000       1.00800           0
     56448 TIP3     11356    TIP3     OH2      OT      -0.834000       15.9994           0
     56449 TIP3     11356    TIP3     H1       HT       0.417000       1.00800           0
     56450 TIP3     11356    TIP3     H2       HT       0.417000       1.00800           0
     56451 TIP3     11357    TIP3     OH2      OT      -0.834000       15.9994           0
     56452 TIP3     11357    TIP3     H1       HT       0.417000       1.00800           0
     56453 TIP3     11357    TIP3     H2       HT       0.417000       1.00800           0
     56454 TIP3     11358    TIP3     OH2      OT      -0.834000       15.9994           0
     56455 TIP3     11358    TIP3     H1       HT       0.417000       1.00800           0
     56456 TIP3     11358    TIP3     H2       HT       0.417000       1.00800           0
     56457 TIP3     11359    TIP3     OH2      OT      -0.834000       15.9994           0
     56458 TIP3     11359    TIP3     H1       HT       0.417000       1.00800           0
     56459 TIP3     11359    TIP3     H2       HT       0.417000       1.00800           0
     56460 TIP3     11360    TIP3     OH2      OT      -0.834000       15.9994           0
     56461 TIP3     11360    TIP3     H1       HT       0.417000       1.00800           0
     56462 TIP3     11360    TIP3     H2       HT       0.417000       1.00800           0
     56463 TIP3     11361    TIP3     OH2      OT      -0.834000       15.9994           0
     56464 TIP3     11361    TIP3     H1       HT       0.417000       1.00800           0
     56465 TIP3     11361    TIP3     H2       HT       0.417000       1.00800           0
     56466 TIP3     11362    TIP3     OH2      OT      -0.834000       15.9994           0
     56467 TIP3     11362    TIP3     H1       HT       0.417000       1.00800           0
     56468 TIP3     11362    TIP3     H2       HT       0.417000       1.00800           0
     56469 TIP3     11363    TIP3     OH2      OT      -0.834000       15.9994           0
     56470 TIP3     11363    TIP3     H1       HT       0.417000       1.00800           0
     56471 TIP3     11363    TIP3     H2       HT       0.417000       1.00800           0
     56472 TIP3     11364    TIP3     OH2      OT      -0.834000       15.9994           0
     56473 TIP3     11364    TIP3     H1       HT       0.417000       1.00800           0
     56474 TIP3     11364    TIP3     H2       HT       0.417000       1.00800           0
     56475 TIP3     11365    TIP3     OH2      OT      -0.834000       15.9994           0
     56476 TIP3     11365    TIP3     H1       HT       0.417000       1.00800           0
     56477 TIP3     11365    TIP3     H2       HT       0.417000       1.00800           0
     56478 TIP3     11366    TIP3     OH2      OT      -0.834000       15.9994           0
     56479 TIP3     11366    TIP3     H1       HT       0.417000       1.00800           0
     56480 TIP3     11366    TIP3     H2       HT       0.417000       1.00800           0
     56481 TIP3     11367    TIP3     OH2      OT      -0.834000       15.9994           0
     56482 TIP3     11367    TIP3     H1       HT       0.417000       1.00800           0
     56483 TIP3     11367    TIP3     H2       HT       0.417000       1.00800           0
     56484 TIP3     11368    TIP3     OH2      OT      -0.834000       15.9994           0
     56485 TIP3     11368    TIP3     H1       HT       0.417000       1.00800           0
     56486 TIP3     11368    TIP3     H2       HT       0.417000       1.00800           0
     56487 TIP3     11369    TIP3     OH2      OT      -0.834000       15.9994           0
     56488 TIP3     11369    TIP3     H1       HT       0.417000       1.00800           0
     56489 TIP3     11369    TIP3     H2       HT       0.417000       1.00800           0
     56490 TIP3     11370    TIP3     OH2      OT      -0.834000       15.9994           0
     56491 TIP3     11370    TIP3     H1       HT       0.417000       1.00800           0
     56492 TIP3     11370    TIP3     H2       HT       0.417000       1.00800           0
     56493 TIP3     11371    TIP3     OH2      OT      -0.834000       15.9994           0
     56494 TIP3     11371    TIP3     H1       HT       0.417000       1.00800           0
     56495 TIP3     11371    TIP3     H2       HT       0.417000       1.00800           0
     56496 TIP3     11372    TIP3     OH2      OT      -0.834000       15.9994           0
     56497 TIP3     11372    TIP3     H1       HT       0.417000       1.00800           0
     56498 TIP3     11372    TIP3     H2       HT       0.417000       1.00800           0
     56499 TIP3     11373    TIP3     OH2      OT      -0.834000       15.9994           0
     56500 TIP3     11373    TIP3     H1       HT       0.417000       1.00800           0
     56501 TIP3     11373    TIP3     H2       HT       0.417000       1.00800           0
     56502 TIP3     11374    TIP3     OH2      OT      -0.834000       15.9994           0
     56503 TIP3     11374    TIP3     H1       HT       0.417000       1.00800           0
     56504 TIP3     11374    TIP3     H2       HT       0.417000       1.00800           0
     56505 TIP3     11375    TIP3     OH2      OT      -0.834000       15.9994           0
     56506 TIP3     11375    TIP3     H1       HT       0.417000       1.00800           0
     56507 TIP3     11375    TIP3     H2       HT       0.417000       1.00800           0
     56508 TIP3     11376    TIP3     OH2      OT      -0.834000       15.9994           0
     56509 TIP3     11376    TIP3     H1       HT       0.417000       1.00800           0
     56510 TIP3     11376    TIP3     H2       HT       0.417000       1.00800           0
     56511 TIP3     11377    TIP3     OH2      OT      -0.834000       15.9994           0
     56512 TIP3     11377    TIP3     H1       HT       0.417000       1.00800           0
     56513 TIP3     11377    TIP3     H2       HT       0.417000       1.00800           0
     56514 TIP3     11378    TIP3     OH2      OT      -0.834000       15.9994           0
     56515 TIP3     11378    TIP3     H1       HT       0.417000       1.00800           0
     56516 TIP3     11378    TIP3     H2       HT       0.417000       1.00800           0
     56517 TIP3     11379    TIP3     OH2      OT      -0.834000       15.9994           0
     56518 TIP3     11379    TIP3     H1       HT       0.417000       1.00800           0
     56519 TIP3     11379    TIP3     H2       HT       0.417000       1.00800           0
     56520 TIP3     11380    TIP3     OH2      OT      -0.834000       15.9994           0
     56521 TIP3     11380    TIP3     H1       HT       0.417000       1.00800           0
     56522 TIP3     11380    TIP3     H2       HT       0.417000       1.00800           0
     56523 TIP3     11381    TIP3     OH2      OT      -0.834000       15.9994           0
     56524 TIP3     11381    TIP3     H1       HT       0.417000       1.00800           0
     56525 TIP3     11381    TIP3     H2       HT       0.417000       1.00800           0
     56526 TIP3     11382    TIP3     OH2      OT      -0.834000       15.9994           0
     56527 TIP3     11382    TIP3     H1       HT       0.417000       1.00800           0
     56528 TIP3     11382    TIP3     H2       HT       0.417000       1.00800           0
     56529 TIP3     11383    TIP3     OH2      OT      -0.834000       15.9994           0
     56530 TIP3     11383    TIP3     H1       HT       0.417000       1.00800           0
     56531 TIP3     11383    TIP3     H2       HT       0.417000       1.00800           0
     56532 TIP3     11384    TIP3     OH2      OT      -0.834000       15.9994           0
     56533 TIP3     11384    TIP3     H1       HT       0.417000       1.00800           0
     56534 TIP3     11384    TIP3     H2       HT       0.417000       1.00800           0
     56535 TIP3     11385    TIP3     OH2      OT      -0.834000       15.9994           0
     56536 TIP3     11385    TIP3     H1       HT       0.417000       1.00800           0
     56537 TIP3     11385    TIP3     H2       HT       0.417000       1.00800           0
     56538 TIP3     11386    TIP3     OH2      OT      -0.834000       15.9994           0
     56539 TIP3     11386    TIP3     H1       HT       0.417000       1.00800           0
     56540 TIP3     11386    TIP3     H2       HT       0.417000       1.00800           0
     56541 TIP3     11387    TIP3     OH2      OT      -0.834000       15.9994           0
     56542 TIP3     11387    TIP3     H1       HT       0.417000       1.00800           0
     56543 TIP3     11387    TIP3     H2       HT       0.417000       1.00800           0
     56544 TIP3     11388    TIP3     OH2      OT      -0.834000       15.9994           0
     56545 TIP3     11388    TIP3     H1       HT       0.417000       1.00800           0
     56546 TIP3     11388    TIP3     H2       HT       0.417000       1.00800           0
     56547 TIP3     11389    TIP3     OH2      OT      -0.834000       15.9994           0
     56548 TIP3     11389    TIP3     H1       HT       0.417000       1.00800           0
     56549 TIP3     11389    TIP3     H2       HT       0.417000       1.00800           0
     56550 TIP3     11390    TIP3     OH2      OT      -0.834000       15.9994           0
     56551 TIP3     11390    TIP3     H1       HT       0.417000       1.00800           0
     56552 TIP3     11390    TIP3     H2       HT       0.417000       1.00800           0
     56553 TIP3     11391    TIP3     OH2      OT      -0.834000       15.9994           0
     56554 TIP3     11391    TIP3     H1       HT       0.417000       1.00800           0
     56555 TIP3     11391    TIP3     H2       HT       0.417000       1.00800           0
     56556 TIP3     11392    TIP3     OH2      OT      -0.834000       15.9994           0
     56557 TIP3     11392    TIP3     H1       HT       0.417000       1.00800           0
     56558 TIP3     11392    TIP3     H2       HT       0.417000       1.00800           0
     56559 TIP3     11393    TIP3     OH2      OT      -0.834000       15.9994           0
     56560 TIP3     11393    TIP3     H1       HT       0.417000       1.00800           0
     56561 TIP3     11393    TIP3     H2       HT       0.417000       1.00800           0
     56562 TIP3     11394    TIP3     OH2      OT      -0.834000       15.9994           0
     56563 TIP3     11394    TIP3     H1       HT       0.417000       1.00800           0
     56564 TIP3     11394    TIP3     H2       HT       0.417000       1.00800           0
     56565 TIP3     11395    TIP3     OH2      OT      -0.834000       15.9994           0
     56566 TIP3     11395    TIP3     H1       HT       0.417000       1.00800           0
     56567 TIP3     11395    TIP3     H2       HT       0.417000       1.00800           0
     56568 TIP3     11396    TIP3     OH2      OT      -0.834000       15.9994           0
     56569 TIP3     11396    TIP3     H1       HT       0.417000       1.00800           0
     56570 TIP3     11396    TIP3     H2       HT       0.417000       1.00800           0
     56571 TIP3     11397    TIP3     OH2      OT      -0.834000       15.9994           0
     56572 TIP3     11397    TIP3     H1       HT       0.417000       1.00800           0
     56573 TIP3     11397    TIP3     H2       HT       0.417000       1.00800           0
     56574 TIP3     11398    TIP3     OH2      OT      -0.834000       15.9994           0
     56575 TIP3     11398    TIP3     H1       HT       0.417000       1.00800           0
     56576 TIP3     11398    TIP3     H2       HT       0.417000       1.00800           0
     56577 TIP3     11399    TIP3     OH2      OT      -0.834000       15.9994           0
     56578 TIP3     11399    TIP3     H1       HT       0.417000       1.00800           0
     56579 TIP3     11399    TIP3     H2       HT       0.417000       1.00800           0
     56580 TIP3     11400    TIP3     OH2      OT      -0.834000       15.9994           0
     56581 TIP3     11400    TIP3     H1       HT       0.417000       1.00800           0
     56582 TIP3     11400    TIP3     H2       HT       0.417000       1.00800           0
     56583 TIP3     11401    TIP3     OH2      OT      -0.834000       15.9994           0
     56584 TIP3     11401    TIP3     H1       HT       0.417000       1.00800           0
     56585 TIP3     11401    TIP3     H2       HT       0.417000       1.00800           0
     56586 TIP3     11402    TIP3     OH2      OT      -0.834000       15.9994           0
     56587 TIP3     11402    TIP3     H1       HT       0.417000       1.00800           0
     56588 TIP3     11402    TIP3     H2       HT       0.417000       1.00800           0
     56589 TIP3     11403    TIP3     OH2      OT      -0.834000       15.9994           0
     56590 TIP3     11403    TIP3     H1       HT       0.417000       1.00800           0
     56591 TIP3     11403    TIP3     H2       HT       0.417000       1.00800           0
     56592 TIP3     11404    TIP3     OH2      OT      -0.834000       15.9994           0
     56593 TIP3     11404    TIP3     H1       HT       0.417000       1.00800           0
     56594 TIP3     11404    TIP3     H2       HT       0.417000       1.00800           0
     56595 TIP3     11405    TIP3     OH2      OT      -0.834000       15.9994           0
     56596 TIP3     11405    TIP3     H1       HT       0.417000       1.00800           0
     56597 TIP3     11405    TIP3     H2       HT       0.417000       1.00800           0
     56598 TIP3     11406    TIP3     OH2      OT      -0.834000       15.9994           0
     56599 TIP3     11406    TIP3     H1       HT       0.417000       1.00800           0
     56600 TIP3     11406    TIP3     H2       HT       0.417000       1.00800           0
     56601 TIP3     11407    TIP3     OH2      OT      -0.834000       15.9994           0
     56602 TIP3     11407    TIP3     H1       HT       0.417000       1.00800           0
     56603 TIP3     11407    TIP3     H2       HT       0.417000       1.00800           0
     56604 TIP3     11408    TIP3     OH2      OT      -0.834000       15.9994           0
     56605 TIP3     11408    TIP3     H1       HT       0.417000       1.00800           0
     56606 TIP3     11408    TIP3     H2       HT       0.417000       1.00800           0
     56607 TIP3     11409    TIP3     OH2      OT      -0.834000       15.9994           0
     56608 TIP3     11409    TIP3     H1       HT       0.417000       1.00800           0
     56609 TIP3     11409    TIP3     H2       HT       0.417000       1.00800           0
     56610 TIP3     11410    TIP3     OH2      OT      -0.834000       15.9994           0
     56611 TIP3     11410    TIP3     H1       HT       0.417000       1.00800           0
     56612 TIP3     11410    TIP3     H2       HT       0.417000       1.00800           0
     56613 TIP3     11411    TIP3     OH2      OT      -0.834000       15.9994           0
     56614 TIP3     11411    TIP3     H1       HT       0.417000       1.00800           0
     56615 TIP3     11411    TIP3     H2       HT       0.417000       1.00800           0
     56616 TIP3     11412    TIP3     OH2      OT      -0.834000       15.9994           0
     56617 TIP3     11412    TIP3     H1       HT       0.417000       1.00800           0
     56618 TIP3     11412    TIP3     H2       HT       0.417000       1.00800           0
     56619 TIP3     11413    TIP3     OH2      OT      -0.834000       15.9994           0
     56620 TIP3     11413    TIP3     H1       HT       0.417000       1.00800           0
     56621 TIP3     11413    TIP3     H2       HT       0.417000       1.00800           0
     56622 TIP3     11414    TIP3     OH2      OT      -0.834000       15.9994           0
     56623 TIP3     11414    TIP3     H1       HT       0.417000       1.00800           0
     56624 TIP3     11414    TIP3     H2       HT       0.417000       1.00800           0
     56625 TIP3     11415    TIP3     OH2      OT      -0.834000       15.9994           0
     56626 TIP3     11415    TIP3     H1       HT       0.417000       1.00800           0
     56627 TIP3     11415    TIP3     H2       HT       0.417000       1.00800           0
     56628 TIP3     11416    TIP3     OH2      OT      -0.834000       15.9994           0
     56629 TIP3     11416    TIP3     H1       HT       0.417000       1.00800           0
     56630 TIP3     11416    TIP3     H2       HT       0.417000       1.00800           0
     56631 TIP3     11417    TIP3     OH2      OT      -0.834000       15.9994           0
     56632 TIP3     11417    TIP3     H1       HT       0.417000       1.00800           0
     56633 TIP3     11417    TIP3     H2       HT       0.417000       1.00800           0
     56634 TIP3     11418    TIP3     OH2      OT      -0.834000       15.9994           0
     56635 TIP3     11418    TIP3     H1       HT       0.417000       1.00800           0
     56636 TIP3     11418    TIP3     H2       HT       0.417000       1.00800           0
     56637 TIP3     11419    TIP3     OH2      OT      -0.834000       15.9994           0
     56638 TIP3     11419    TIP3     H1       HT       0.417000       1.00800           0
     56639 TIP3     11419    TIP3     H2       HT       0.417000       1.00800           0
     56640 TIP3     11420    TIP3     OH2      OT      -0.834000       15.9994           0
     56641 TIP3     11420    TIP3     H1       HT       0.417000       1.00800           0
     56642 TIP3     11420    TIP3     H2       HT       0.417000       1.00800           0
     56643 TIP3     11421    TIP3     OH2      OT      -0.834000       15.9994           0
     56644 TIP3     11421    TIP3     H1       HT       0.417000       1.00800           0
     56645 TIP3     11421    TIP3     H2       HT       0.417000       1.00800           0
     56646 TIP3     11422    TIP3     OH2      OT      -0.834000       15.9994           0
     56647 TIP3     11422    TIP3     H1       HT       0.417000       1.00800           0
     56648 TIP3     11422    TIP3     H2       HT       0.417000       1.00800           0
     56649 TIP3     11423    TIP3     OH2      OT      -0.834000       15.9994           0
     56650 TIP3     11423    TIP3     H1       HT       0.417000       1.00800           0
     56651 TIP3     11423    TIP3     H2       HT       0.417000       1.00800           0
     56652 TIP3     11424    TIP3     OH2      OT      -0.834000       15.9994           0
     56653 TIP3     11424    TIP3     H1       HT       0.417000       1.00800           0
     56654 TIP3     11424    TIP3     H2       HT       0.417000       1.00800           0
     56655 TIP3     11425    TIP3     OH2      OT      -0.834000       15.9994           0
     56656 TIP3     11425    TIP3     H1       HT       0.417000       1.00800           0
     56657 TIP3     11425    TIP3     H2       HT       0.417000       1.00800           0
     56658 TIP3     11426    TIP3     OH2      OT      -0.834000       15.9994           0
     56659 TIP3     11426    TIP3     H1       HT       0.417000       1.00800           0
     56660 TIP3     11426    TIP3     H2       HT       0.417000       1.00800           0
     56661 TIP3     11427    TIP3     OH2      OT      -0.834000       15.9994           0
     56662 TIP3     11427    TIP3     H1       HT       0.417000       1.00800           0
     56663 TIP3     11427    TIP3     H2       HT       0.417000       1.00800           0
     56664 TIP3     11428    TIP3     OH2      OT      -0.834000       15.9994           0
     56665 TIP3     11428    TIP3     H1       HT       0.417000       1.00800           0
     56666 TIP3     11428    TIP3     H2       HT       0.417000       1.00800           0
     56667 TIP3     11429    TIP3     OH2      OT      -0.834000       15.9994           0
     56668 TIP3     11429    TIP3     H1       HT       0.417000       1.00800           0
     56669 TIP3     11429    TIP3     H2       HT       0.417000       1.00800           0
     56670 TIP3     11430    TIP3     OH2      OT      -0.834000       15.9994           0
     56671 TIP3     11430    TIP3     H1       HT       0.417000       1.00800           0
     56672 TIP3     11430    TIP3     H2       HT       0.417000       1.00800           0
     56673 TIP3     11431    TIP3     OH2      OT      -0.834000       15.9994           0
     56674 TIP3     11431    TIP3     H1       HT       0.417000       1.00800           0
     56675 TIP3     11431    TIP3     H2       HT       0.417000       1.00800           0
     56676 TIP3     11432    TIP3     OH2      OT      -0.834000       15.9994           0
     56677 TIP3     11432    TIP3     H1       HT       0.417000       1.00800           0
     56678 TIP3     11432    TIP3     H2       HT       0.417000       1.00800           0
     56679 TIP3     11433    TIP3     OH2      OT      -0.834000       15.9994           0
     56680 TIP3     11433    TIP3     H1       HT       0.417000       1.00800           0
     56681 TIP3     11433    TIP3     H2       HT       0.417000       1.00800           0
     56682 TIP3     11434    TIP3     OH2      OT      -0.834000       15.9994           0
     56683 TIP3     11434    TIP3     H1       HT       0.417000       1.00800           0
     56684 TIP3     11434    TIP3     H2       HT       0.417000       1.00800           0
     56685 TIP3     11435    TIP3     OH2      OT      -0.834000       15.9994           0
     56686 TIP3     11435    TIP3     H1       HT       0.417000       1.00800           0
     56687 TIP3     11435    TIP3     H2       HT       0.417000       1.00800           0
     56688 TIP3     11436    TIP3     OH2      OT      -0.834000       15.9994           0
     56689 TIP3     11436    TIP3     H1       HT       0.417000       1.00800           0
     56690 TIP3     11436    TIP3     H2       HT       0.417000       1.00800           0
     56691 TIP3     11437    TIP3     OH2      OT      -0.834000       15.9994           0
     56692 TIP3     11437    TIP3     H1       HT       0.417000       1.00800           0
     56693 TIP3     11437    TIP3     H2       HT       0.417000       1.00800           0
     56694 TIP3     11438    TIP3     OH2      OT      -0.834000       15.9994           0
     56695 TIP3     11438    TIP3     H1       HT       0.417000       1.00800           0
     56696 TIP3     11438    TIP3     H2       HT       0.417000       1.00800           0
     56697 TIP3     11439    TIP3     OH2      OT      -0.834000       15.9994           0
     56698 TIP3     11439    TIP3     H1       HT       0.417000       1.00800           0
     56699 TIP3     11439    TIP3     H2       HT       0.417000       1.00800           0
     56700 TIP3     11440    TIP3     OH2      OT      -0.834000       15.9994           0
     56701 TIP3     11440    TIP3     H1       HT       0.417000       1.00800           0
     56702 TIP3     11440    TIP3     H2       HT       0.417000       1.00800           0
     56703 TIP3     11441    TIP3     OH2      OT      -0.834000       15.9994           0
     56704 TIP3     11441    TIP3     H1       HT       0.417000       1.00800           0
     56705 TIP3     11441    TIP3     H2       HT       0.417000       1.00800           0
     56706 TIP3     11442    TIP3     OH2      OT      -0.834000       15.9994           0
     56707 TIP3     11442    TIP3     H1       HT       0.417000       1.00800           0
     56708 TIP3     11442    TIP3     H2       HT       0.417000       1.00800           0
     56709 TIP3     11443    TIP3     OH2      OT      -0.834000       15.9994           0
     56710 TIP3     11443    TIP3     H1       HT       0.417000       1.00800           0
     56711 TIP3     11443    TIP3     H2       HT       0.417000       1.00800           0
     56712 TIP3     11444    TIP3     OH2      OT      -0.834000       15.9994           0
     56713 TIP3     11444    TIP3     H1       HT       0.417000       1.00800           0
     56714 TIP3     11444    TIP3     H2       HT       0.417000       1.00800           0
     56715 TIP3     11445    TIP3     OH2      OT      -0.834000       15.9994           0
     56716 TIP3     11445    TIP3     H1       HT       0.417000       1.00800           0
     56717 TIP3     11445    TIP3     H2       HT       0.417000       1.00800           0
     56718 TIP3     11446    TIP3     OH2      OT      -0.834000       15.9994           0
     56719 TIP3     11446    TIP3     H1       HT       0.417000       1.00800           0
     56720 TIP3     11446    TIP3     H2       HT       0.417000       1.00800           0
     56721 TIP3     11447    TIP3     OH2      OT      -0.834000       15.9994           0
     56722 TIP3     11447    TIP3     H1       HT       0.417000       1.00800           0
     56723 TIP3     11447    TIP3     H2       HT       0.417000       1.00800           0
     56724 TIP3     11448    TIP3     OH2      OT      -0.834000       15.9994           0
     56725 TIP3     11448    TIP3     H1       HT       0.417000       1.00800           0
     56726 TIP3     11448    TIP3     H2       HT       0.417000       1.00800           0
     56727 TIP3     11449    TIP3     OH2      OT      -0.834000       15.9994           0
     56728 TIP3     11449    TIP3     H1       HT       0.417000       1.00800           0
     56729 TIP3     11449    TIP3     H2       HT       0.417000       1.00800           0
     56730 TIP3     11450    TIP3     OH2      OT      -0.834000       15.9994           0
     56731 TIP3     11450    TIP3     H1       HT       0.417000       1.00800           0
     56732 TIP3     11450    TIP3     H2       HT       0.417000       1.00800           0
     56733 TIP3     11451    TIP3     OH2      OT      -0.834000       15.9994           0
     56734 TIP3     11451    TIP3     H1       HT       0.417000       1.00800           0
     56735 TIP3     11451    TIP3     H2       HT       0.417000       1.00800           0
     56736 TIP3     11452    TIP3     OH2      OT      -0.834000       15.9994           0
     56737 TIP3     11452    TIP3     H1       HT       0.417000       1.00800           0
     56738 TIP3     11452    TIP3     H2       HT       0.417000       1.00800           0
     56739 TIP3     11453    TIP3     OH2      OT      -0.834000       15.9994           0
     56740 TIP3     11453    TIP3     H1       HT       0.417000       1.00800           0
     56741 TIP3     11453    TIP3     H2       HT       0.417000       1.00800           0
     56742 TIP3     11454    TIP3     OH2      OT      -0.834000       15.9994           0
     56743 TIP3     11454    TIP3     H1       HT       0.417000       1.00800           0
     56744 TIP3     11454    TIP3     H2       HT       0.417000       1.00800           0
     56745 TIP3     11455    TIP3     OH2      OT      -0.834000       15.9994           0
     56746 TIP3     11455    TIP3     H1       HT       0.417000       1.00800           0
     56747 TIP3     11455    TIP3     H2       HT       0.417000       1.00800           0
     56748 TIP3     11456    TIP3     OH2      OT      -0.834000       15.9994           0
     56749 TIP3     11456    TIP3     H1       HT       0.417000       1.00800           0
     56750 TIP3     11456    TIP3     H2       HT       0.417000       1.00800           0
     56751 TIP3     11457    TIP3     OH2      OT      -0.834000       15.9994           0
     56752 TIP3     11457    TIP3     H1       HT       0.417000       1.00800           0
     56753 TIP3     11457    TIP3     H2       HT       0.417000       1.00800           0
     56754 TIP3     11458    TIP3     OH2      OT      -0.834000       15.9994           0
     56755 TIP3     11458    TIP3     H1       HT       0.417000       1.00800           0
     56756 TIP3     11458    TIP3     H2       HT       0.417000       1.00800           0
     56757 TIP3     11459    TIP3     OH2      OT      -0.834000       15.9994           0
     56758 TIP3     11459    TIP3     H1       HT       0.417000       1.00800           0
     56759 TIP3     11459    TIP3     H2       HT       0.417000       1.00800           0
     56760 TIP3     11460    TIP3     OH2      OT      -0.834000       15.9994           0
     56761 TIP3     11460    TIP3     H1       HT       0.417000       1.00800           0
     56762 TIP3     11460    TIP3     H2       HT       0.417000       1.00800           0
     56763 TIP3     11461    TIP3     OH2      OT      -0.834000       15.9994           0
     56764 TIP3     11461    TIP3     H1       HT       0.417000       1.00800           0
     56765 TIP3     11461    TIP3     H2       HT       0.417000       1.00800           0
     56766 TIP3     11462    TIP3     OH2      OT      -0.834000       15.9994           0
     56767 TIP3     11462    TIP3     H1       HT       0.417000       1.00800           0
     56768 TIP3     11462    TIP3     H2       HT       0.417000       1.00800           0
     56769 TIP3     11463    TIP3     OH2      OT      -0.834000       15.9994           0
     56770 TIP3     11463    TIP3     H1       HT       0.417000       1.00800           0
     56771 TIP3     11463    TIP3     H2       HT       0.417000       1.00800           0
     56772 TIP3     11464    TIP3     OH2      OT      -0.834000       15.9994           0
     56773 TIP3     11464    TIP3     H1       HT       0.417000       1.00800           0
     56774 TIP3     11464    TIP3     H2       HT       0.417000       1.00800           0
     56775 TIP3     11465    TIP3     OH2      OT      -0.834000       15.9994           0
     56776 TIP3     11465    TIP3     H1       HT       0.417000       1.00800           0
     56777 TIP3     11465    TIP3     H2       HT       0.417000       1.00800           0
     56778 TIP3     11466    TIP3     OH2      OT      -0.834000       15.9994           0
     56779 TIP3     11466    TIP3     H1       HT       0.417000       1.00800           0
     56780 TIP3     11466    TIP3     H2       HT       0.417000       1.00800           0
     56781 TIP3     11467    TIP3     OH2      OT      -0.834000       15.9994           0
     56782 TIP3     11467    TIP3     H1       HT       0.417000       1.00800           0
     56783 TIP3     11467    TIP3     H2       HT       0.417000       1.00800           0
     56784 TIP3     11468    TIP3     OH2      OT      -0.834000       15.9994           0
     56785 TIP3     11468    TIP3     H1       HT       0.417000       1.00800           0
     56786 TIP3     11468    TIP3     H2       HT       0.417000       1.00800           0
     56787 TIP3     11469    TIP3     OH2      OT      -0.834000       15.9994           0
     56788 TIP3     11469    TIP3     H1       HT       0.417000       1.00800           0
     56789 TIP3     11469    TIP3     H2       HT       0.417000       1.00800           0
     56790 TIP3     11470    TIP3     OH2      OT      -0.834000       15.9994           0
     56791 TIP3     11470    TIP3     H1       HT       0.417000       1.00800           0
     56792 TIP3     11470    TIP3     H2       HT       0.417000       1.00800           0
     56793 TIP3     11471    TIP3     OH2      OT      -0.834000       15.9994           0
     56794 TIP3     11471    TIP3     H1       HT       0.417000       1.00800           0
     56795 TIP3     11471    TIP3     H2       HT       0.417000       1.00800           0
     56796 TIP3     11472    TIP3     OH2      OT      -0.834000       15.9994           0
     56797 TIP3     11472    TIP3     H1       HT       0.417000       1.00800           0
     56798 TIP3     11472    TIP3     H2       HT       0.417000       1.00800           0
     56799 TIP3     11473    TIP3     OH2      OT      -0.834000       15.9994           0
     56800 TIP3     11473    TIP3     H1       HT       0.417000       1.00800           0
     56801 TIP3     11473    TIP3     H2       HT       0.417000       1.00800           0
     56802 TIP3     11474    TIP3     OH2      OT      -0.834000       15.9994           0
     56803 TIP3     11474    TIP3     H1       HT       0.417000       1.00800           0
     56804 TIP3     11474    TIP3     H2       HT       0.417000       1.00800           0
     56805 TIP3     11475    TIP3     OH2      OT      -0.834000       15.9994           0
     56806 TIP3     11475    TIP3     H1       HT       0.417000       1.00800           0
     56807 TIP3     11475    TIP3     H2       HT       0.417000       1.00800           0
     56808 TIP3     11476    TIP3     OH2      OT      -0.834000       15.9994           0
     56809 TIP3     11476    TIP3     H1       HT       0.417000       1.00800           0
     56810 TIP3     11476    TIP3     H2       HT       0.417000       1.00800           0
     56811 TIP3     11477    TIP3     OH2      OT      -0.834000       15.9994           0
     56812 TIP3     11477    TIP3     H1       HT       0.417000       1.00800           0
     56813 TIP3     11477    TIP3     H2       HT       0.417000       1.00800           0
     56814 TIP3     11478    TIP3     OH2      OT      -0.834000       15.9994           0
     56815 TIP3     11478    TIP3     H1       HT       0.417000       1.00800           0
     56816 TIP3     11478    TIP3     H2       HT       0.417000       1.00800           0
     56817 TIP3     11479    TIP3     OH2      OT      -0.834000       15.9994           0
     56818 TIP3     11479    TIP3     H1       HT       0.417000       1.00800           0
     56819 TIP3     11479    TIP3     H2       HT       0.417000       1.00800           0
     56820 TIP3     11480    TIP3     OH2      OT      -0.834000       15.9994           0
     56821 TIP3     11480    TIP3     H1       HT       0.417000       1.00800           0
     56822 TIP3     11480    TIP3     H2       HT       0.417000       1.00800           0
     56823 TIP3     11481    TIP3     OH2      OT      -0.834000       15.9994           0
     56824 TIP3     11481    TIP3     H1       HT       0.417000       1.00800           0
     56825 TIP3     11481    TIP3     H2       HT       0.417000       1.00800           0
     56826 TIP3     11482    TIP3     OH2      OT      -0.834000       15.9994           0
     56827 TIP3     11482    TIP3     H1       HT       0.417000       1.00800           0
     56828 TIP3     11482    TIP3     H2       HT       0.417000       1.00800           0
     56829 TIP3     11483    TIP3     OH2      OT      -0.834000       15.9994           0
     56830 TIP3     11483    TIP3     H1       HT       0.417000       1.00800           0
     56831 TIP3     11483    TIP3     H2       HT       0.417000       1.00800           0
     56832 TIP3     11484    TIP3     OH2      OT      -0.834000       15.9994           0
     56833 TIP3     11484    TIP3     H1       HT       0.417000       1.00800           0
     56834 TIP3     11484    TIP3     H2       HT       0.417000       1.00800           0
     56835 TIP3     11485    TIP3     OH2      OT      -0.834000       15.9994           0
     56836 TIP3     11485    TIP3     H1       HT       0.417000       1.00800           0
     56837 TIP3     11485    TIP3     H2       HT       0.417000       1.00800           0
     56838 TIP3     11486    TIP3     OH2      OT      -0.834000       15.9994           0
     56839 TIP3     11486    TIP3     H1       HT       0.417000       1.00800           0
     56840 TIP3     11486    TIP3     H2       HT       0.417000       1.00800           0
     56841 TIP3     11487    TIP3     OH2      OT      -0.834000       15.9994           0
     56842 TIP3     11487    TIP3     H1       HT       0.417000       1.00800           0
     56843 TIP3     11487    TIP3     H2       HT       0.417000       1.00800           0
     56844 TIP3     11488    TIP3     OH2      OT      -0.834000       15.9994           0
     56845 TIP3     11488    TIP3     H1       HT       0.417000       1.00800           0
     56846 TIP3     11488    TIP3     H2       HT       0.417000       1.00800           0
     56847 TIP3     11489    TIP3     OH2      OT      -0.834000       15.9994           0
     56848 TIP3     11489    TIP3     H1       HT       0.417000       1.00800           0
     56849 TIP3     11489    TIP3     H2       HT       0.417000       1.00800           0
     56850 TIP3     11490    TIP3     OH2      OT      -0.834000       15.9994           0
     56851 TIP3     11490    TIP3     H1       HT       0.417000       1.00800           0
     56852 TIP3     11490    TIP3     H2       HT       0.417000       1.00800           0
     56853 TIP3     11491    TIP3     OH2      OT      -0.834000       15.9994           0
     56854 TIP3     11491    TIP3     H1       HT       0.417000       1.00800           0
     56855 TIP3     11491    TIP3     H2       HT       0.417000       1.00800           0
     56856 TIP3     11492    TIP3     OH2      OT      -0.834000       15.9994           0
     56857 TIP3     11492    TIP3     H1       HT       0.417000       1.00800           0
     56858 TIP3     11492    TIP3     H2       HT       0.417000       1.00800           0
     56859 TIP3     11493    TIP3     OH2      OT      -0.834000       15.9994           0
     56860 TIP3     11493    TIP3     H1       HT       0.417000       1.00800           0
     56861 TIP3     11493    TIP3     H2       HT       0.417000       1.00800           0
     56862 TIP3     11494    TIP3     OH2      OT      -0.834000       15.9994           0
     56863 TIP3     11494    TIP3     H1       HT       0.417000       1.00800           0
     56864 TIP3     11494    TIP3     H2       HT       0.417000       1.00800           0
     56865 TIP3     11495    TIP3     OH2      OT      -0.834000       15.9994           0
     56866 TIP3     11495    TIP3     H1       HT       0.417000       1.00800           0
     56867 TIP3     11495    TIP3     H2       HT       0.417000       1.00800           0
     56868 TIP3     11496    TIP3     OH2      OT      -0.834000       15.9994           0
     56869 TIP3     11496    TIP3     H1       HT       0.417000       1.00800           0
     56870 TIP3     11496    TIP3     H2       HT       0.417000       1.00800           0
     56871 TIP3     11497    TIP3     OH2      OT      -0.834000       15.9994           0
     56872 TIP3     11497    TIP3     H1       HT       0.417000       1.00800           0
     56873 TIP3     11497    TIP3     H2       HT       0.417000       1.00800           0
     56874 TIP3     11498    TIP3     OH2      OT      -0.834000       15.9994           0
     56875 TIP3     11498    TIP3     H1       HT       0.417000       1.00800           0
     56876 TIP3     11498    TIP3     H2       HT       0.417000       1.00800           0
     56877 TIP3     11499    TIP3     OH2      OT      -0.834000       15.9994           0
     56878 TIP3     11499    TIP3     H1       HT       0.417000       1.00800           0
     56879 TIP3     11499    TIP3     H2       HT       0.417000       1.00800           0
     56880 TIP3     11500    TIP3     OH2      OT      -0.834000       15.9994           0
     56881 TIP3     11500    TIP3     H1       HT       0.417000       1.00800           0
     56882 TIP3     11500    TIP3     H2       HT       0.417000       1.00800           0
     56883 TIP3     11501    TIP3     OH2      OT      -0.834000       15.9994           0
     56884 TIP3     11501    TIP3     H1       HT       0.417000       1.00800           0
     56885 TIP3     11501    TIP3     H2       HT       0.417000       1.00800           0
     56886 TIP3     11502    TIP3     OH2      OT      -0.834000       15.9994           0
     56887 TIP3     11502    TIP3     H1       HT       0.417000       1.00800           0
     56888 TIP3     11502    TIP3     H2       HT       0.417000       1.00800           0
     56889 TIP3     11503    TIP3     OH2      OT      -0.834000       15.9994           0
     56890 TIP3     11503    TIP3     H1       HT       0.417000       1.00800           0
     56891 TIP3     11503    TIP3     H2       HT       0.417000       1.00800           0
     56892 TIP3     11504    TIP3     OH2      OT      -0.834000       15.9994           0
     56893 TIP3     11504    TIP3     H1       HT       0.417000       1.00800           0
     56894 TIP3     11504    TIP3     H2       HT       0.417000       1.00800           0
     56895 TIP3     11505    TIP3     OH2      OT      -0.834000       15.9994           0
     56896 TIP3     11505    TIP3     H1       HT       0.417000       1.00800           0
     56897 TIP3     11505    TIP3     H2       HT       0.417000       1.00800           0
     56898 TIP3     11506    TIP3     OH2      OT      -0.834000       15.9994           0
     56899 TIP3     11506    TIP3     H1       HT       0.417000       1.00800           0
     56900 TIP3     11506    TIP3     H2       HT       0.417000       1.00800           0
     56901 TIP3     11507    TIP3     OH2      OT      -0.834000       15.9994           0
     56902 TIP3     11507    TIP3     H1       HT       0.417000       1.00800           0
     56903 TIP3     11507    TIP3     H2       HT       0.417000       1.00800           0
     56904 TIP3     11508    TIP3     OH2      OT      -0.834000       15.9994           0
     56905 TIP3     11508    TIP3     H1       HT       0.417000       1.00800           0
     56906 TIP3     11508    TIP3     H2       HT       0.417000       1.00800           0
     56907 TIP3     11509    TIP3     OH2      OT      -0.834000       15.9994           0
     56908 TIP3     11509    TIP3     H1       HT       0.417000       1.00800           0
     56909 TIP3     11509    TIP3     H2       HT       0.417000       1.00800           0
     56910 TIP3     11510    TIP3     OH2      OT      -0.834000       15.9994           0
     56911 TIP3     11510    TIP3     H1       HT       0.417000       1.00800           0
     56912 TIP3     11510    TIP3     H2       HT       0.417000       1.00800           0
     56913 TIP3     11511    TIP3     OH2      OT      -0.834000       15.9994           0
     56914 TIP3     11511    TIP3     H1       HT       0.417000       1.00800           0
     56915 TIP3     11511    TIP3     H2       HT       0.417000       1.00800           0
     56916 TIP3     11512    TIP3     OH2      OT      -0.834000       15.9994           0
     56917 TIP3     11512    TIP3     H1       HT       0.417000       1.00800           0
     56918 TIP3     11512    TIP3     H2       HT       0.417000       1.00800           0
     56919 TIP3     11513    TIP3     OH2      OT      -0.834000       15.9994           0
     56920 TIP3     11513    TIP3     H1       HT       0.417000       1.00800           0
     56921 TIP3     11513    TIP3     H2       HT       0.417000       1.00800           0
     56922 TIP3     11514    TIP3     OH2      OT      -0.834000       15.9994           0
     56923 TIP3     11514    TIP3     H1       HT       0.417000       1.00800           0
     56924 TIP3     11514    TIP3     H2       HT       0.417000       1.00800           0
     56925 TIP3     11515    TIP3     OH2      OT      -0.834000       15.9994           0
     56926 TIP3     11515    TIP3     H1       HT       0.417000       1.00800           0
     56927 TIP3     11515    TIP3     H2       HT       0.417000       1.00800           0
     56928 TIP3     11516    TIP3     OH2      OT      -0.834000       15.9994           0
     56929 TIP3     11516    TIP3     H1       HT       0.417000       1.00800           0
     56930 TIP3     11516    TIP3     H2       HT       0.417000       1.00800           0
     56931 TIP3     11517    TIP3     OH2      OT      -0.834000       15.9994           0
     56932 TIP3     11517    TIP3     H1       HT       0.417000       1.00800           0
     56933 TIP3     11517    TIP3     H2       HT       0.417000       1.00800           0
     56934 TIP3     11518    TIP3     OH2      OT      -0.834000       15.9994           0
     56935 TIP3     11518    TIP3     H1       HT       0.417000       1.00800           0
     56936 TIP3     11518    TIP3     H2       HT       0.417000       1.00800           0
     56937 TIP3     11519    TIP3     OH2      OT      -0.834000       15.9994           0
     56938 TIP3     11519    TIP3     H1       HT       0.417000       1.00800           0
     56939 TIP3     11519    TIP3     H2       HT       0.417000       1.00800           0
     56940 TIP3     11520    TIP3     OH2      OT      -0.834000       15.9994           0
     56941 TIP3     11520    TIP3     H1       HT       0.417000       1.00800           0
     56942 TIP3     11520    TIP3     H2       HT       0.417000       1.00800           0
     56943 TIP3     11521    TIP3     OH2      OT      -0.834000       15.9994           0
     56944 TIP3     11521    TIP3     H1       HT       0.417000       1.00800           0
     56945 TIP3     11521    TIP3     H2       HT       0.417000       1.00800           0
     56946 TIP3     11522    TIP3     OH2      OT      -0.834000       15.9994           0
     56947 TIP3     11522    TIP3     H1       HT       0.417000       1.00800           0
     56948 TIP3     11522    TIP3     H2       HT       0.417000       1.00800           0
     56949 TIP3     11523    TIP3     OH2      OT      -0.834000       15.9994           0
     56950 TIP3     11523    TIP3     H1       HT       0.417000       1.00800           0
     56951 TIP3     11523    TIP3     H2       HT       0.417000       1.00800           0
     56952 TIP3     11524    TIP3     OH2      OT      -0.834000       15.9994           0
     56953 TIP3     11524    TIP3     H1       HT       0.417000       1.00800           0
     56954 TIP3     11524    TIP3     H2       HT       0.417000       1.00800           0
     56955 TIP3     11525    TIP3     OH2      OT      -0.834000       15.9994           0
     56956 TIP3     11525    TIP3     H1       HT       0.417000       1.00800           0
     56957 TIP3     11525    TIP3     H2       HT       0.417000       1.00800           0
     56958 TIP3     11526    TIP3     OH2      OT      -0.834000       15.9994           0
     56959 TIP3     11526    TIP3     H1       HT       0.417000       1.00800           0
     56960 TIP3     11526    TIP3     H2       HT       0.417000       1.00800           0
     56961 TIP3     11527    TIP3     OH2      OT      -0.834000       15.9994           0
     56962 TIP3     11527    TIP3     H1       HT       0.417000       1.00800           0
     56963 TIP3     11527    TIP3     H2       HT       0.417000       1.00800           0
     56964 TIP3     11528    TIP3     OH2      OT      -0.834000       15.9994           0
     56965 TIP3     11528    TIP3     H1       HT       0.417000       1.00800           0
     56966 TIP3     11528    TIP3     H2       HT       0.417000       1.00800           0
     56967 TIP3     11529    TIP3     OH2      OT      -0.834000       15.9994           0
     56968 TIP3     11529    TIP3     H1       HT       0.417000       1.00800           0
     56969 TIP3     11529    TIP3     H2       HT       0.417000       1.00800           0
     56970 TIP3     11530    TIP3     OH2      OT      -0.834000       15.9994           0
     56971 TIP3     11530    TIP3     H1       HT       0.417000       1.00800           0
     56972 TIP3     11530    TIP3     H2       HT       0.417000       1.00800           0
     56973 TIP3     11531    TIP3     OH2      OT      -0.834000       15.9994           0
     56974 TIP3     11531    TIP3     H1       HT       0.417000       1.00800           0
     56975 TIP3     11531    TIP3     H2       HT       0.417000       1.00800           0
     56976 TIP3     11532    TIP3     OH2      OT      -0.834000       15.9994           0
     56977 TIP3     11532    TIP3     H1       HT       0.417000       1.00800           0
     56978 TIP3     11532    TIP3     H2       HT       0.417000       1.00800           0
     56979 TIP3     11533    TIP3     OH2      OT      -0.834000       15.9994           0
     56980 TIP3     11533    TIP3     H1       HT       0.417000       1.00800           0
     56981 TIP3     11533    TIP3     H2       HT       0.417000       1.00800           0
     56982 TIP3     11534    TIP3     OH2      OT      -0.834000       15.9994           0
     56983 TIP3     11534    TIP3     H1       HT       0.417000       1.00800           0
     56984 TIP3     11534    TIP3     H2       HT       0.417000       1.00800           0
     56985 TIP3     11535    TIP3     OH2      OT      -0.834000       15.9994           0
     56986 TIP3     11535    TIP3     H1       HT       0.417000       1.00800           0
     56987 TIP3     11535    TIP3     H2       HT       0.417000       1.00800           0
     56988 TIP3     11536    TIP3     OH2      OT      -0.834000       15.9994           0
     56989 TIP3     11536    TIP3     H1       HT       0.417000       1.00800           0
     56990 TIP3     11536    TIP3     H2       HT       0.417000       1.00800           0
     56991 TIP3     11537    TIP3     OH2      OT      -0.834000       15.9994           0
     56992 TIP3     11537    TIP3     H1       HT       0.417000       1.00800           0
     56993 TIP3     11537    TIP3     H2       HT       0.417000       1.00800           0
     56994 TIP3     11538    TIP3     OH2      OT      -0.834000       15.9994           0
     56995 TIP3     11538    TIP3     H1       HT       0.417000       1.00800           0
     56996 TIP3     11538    TIP3     H2       HT       0.417000       1.00800           0
     56997 TIP3     11539    TIP3     OH2      OT      -0.834000       15.9994           0
     56998 TIP3     11539    TIP3     H1       HT       0.417000       1.00800           0
     56999 TIP3     11539    TIP3     H2       HT       0.417000       1.00800           0
     57000 TIP3     11540    TIP3     OH2      OT      -0.834000       15.9994           0
     57001 TIP3     11540    TIP3     H1       HT       0.417000       1.00800           0
     57002 TIP3     11540    TIP3     H2       HT       0.417000       1.00800           0
     57003 TIP3     11541    TIP3     OH2      OT      -0.834000       15.9994           0
     57004 TIP3     11541    TIP3     H1       HT       0.417000       1.00800           0
     57005 TIP3     11541    TIP3     H2       HT       0.417000       1.00800           0
     57006 TIP3     11542    TIP3     OH2      OT      -0.834000       15.9994           0
     57007 TIP3     11542    TIP3     H1       HT       0.417000       1.00800           0
     57008 TIP3     11542    TIP3     H2       HT       0.417000       1.00800           0
     57009 TIP3     11543    TIP3     OH2      OT      -0.834000       15.9994           0
     57010 TIP3     11543    TIP3     H1       HT       0.417000       1.00800           0
     57011 TIP3     11543    TIP3     H2       HT       0.417000       1.00800           0
     57012 TIP3     11544    TIP3     OH2      OT      -0.834000       15.9994           0
     57013 TIP3     11544    TIP3     H1       HT       0.417000       1.00800           0
     57014 TIP3     11544    TIP3     H2       HT       0.417000       1.00800           0
     57015 TIP3     11545    TIP3     OH2      OT      -0.834000       15.9994           0
     57016 TIP3     11545    TIP3     H1       HT       0.417000       1.00800           0
     57017 TIP3     11545    TIP3     H2       HT       0.417000       1.00800           0
     57018 TIP3     11546    TIP3     OH2      OT      -0.834000       15.9994           0
     57019 TIP3     11546    TIP3     H1       HT       0.417000       1.00800           0
     57020 TIP3     11546    TIP3     H2       HT       0.417000       1.00800           0
     57021 TIP3     11547    TIP3     OH2      OT      -0.834000       15.9994           0
     57022 TIP3     11547    TIP3     H1       HT       0.417000       1.00800           0
     57023 TIP3     11547    TIP3     H2       HT       0.417000       1.00800           0
     57024 TIP3     11548    TIP3     OH2      OT      -0.834000       15.9994           0
     57025 TIP3     11548    TIP3     H1       HT       0.417000       1.00800           0
     57026 TIP3     11548    TIP3     H2       HT       0.417000       1.00800           0
     57027 TIP3     11549    TIP3     OH2      OT      -0.834000       15.9994           0
     57028 TIP3     11549    TIP3     H1       HT       0.417000       1.00800           0
     57029 TIP3     11549    TIP3     H2       HT       0.417000       1.00800           0
     57030 TIP3     11550    TIP3     OH2      OT      -0.834000       15.9994           0
     57031 TIP3     11550    TIP3     H1       HT       0.417000       1.00800           0
     57032 TIP3     11550    TIP3     H2       HT       0.417000       1.00800           0
     57033 TIP3     11551    TIP3     OH2      OT      -0.834000       15.9994           0
     57034 TIP3     11551    TIP3     H1       HT       0.417000       1.00800           0
     57035 TIP3     11551    TIP3     H2       HT       0.417000       1.00800           0
     57036 TIP3     11552    TIP3     OH2      OT      -0.834000       15.9994           0
     57037 TIP3     11552    TIP3     H1       HT       0.417000       1.00800           0
     57038 TIP3     11552    TIP3     H2       HT       0.417000       1.00800           0
     57039 TIP3     11553    TIP3     OH2      OT      -0.834000       15.9994           0
     57040 TIP3     11553    TIP3     H1       HT       0.417000       1.00800           0
     57041 TIP3     11553    TIP3     H2       HT       0.417000       1.00800           0
     57042 TIP3     11554    TIP3     OH2      OT      -0.834000       15.9994           0
     57043 TIP3     11554    TIP3     H1       HT       0.417000       1.00800           0
     57044 TIP3     11554    TIP3     H2       HT       0.417000       1.00800           0
     57045 TIP3     11555    TIP3     OH2      OT      -0.834000       15.9994           0
     57046 TIP3     11555    TIP3     H1       HT       0.417000       1.00800           0
     57047 TIP3     11555    TIP3     H2       HT       0.417000       1.00800           0
     57048 TIP3     11556    TIP3     OH2      OT      -0.834000       15.9994           0
     57049 TIP3     11556    TIP3     H1       HT       0.417000       1.00800           0
     57050 TIP3     11556    TIP3     H2       HT       0.417000       1.00800           0
     57051 TIP3     11557    TIP3     OH2      OT      -0.834000       15.9994           0
     57052 TIP3     11557    TIP3     H1       HT       0.417000       1.00800           0
     57053 TIP3     11557    TIP3     H2       HT       0.417000       1.00800           0
     57054 TIP3     11558    TIP3     OH2      OT      -0.834000       15.9994           0
     57055 TIP3     11558    TIP3     H1       HT       0.417000       1.00800           0
     57056 TIP3     11558    TIP3     H2       HT       0.417000       1.00800           0
     57057 TIP3     11559    TIP3     OH2      OT      -0.834000       15.9994           0
     57058 TIP3     11559    TIP3     H1       HT       0.417000       1.00800           0
     57059 TIP3     11559    TIP3     H2       HT       0.417000       1.00800           0
     57060 TIP3     11560    TIP3     OH2      OT      -0.834000       15.9994           0
     57061 TIP3     11560    TIP3     H1       HT       0.417000       1.00800           0
     57062 TIP3     11560    TIP3     H2       HT       0.417000       1.00800           0
     57063 TIP3     11561    TIP3     OH2      OT      -0.834000       15.9994           0
     57064 TIP3     11561    TIP3     H1       HT       0.417000       1.00800           0
     57065 TIP3     11561    TIP3     H2       HT       0.417000       1.00800           0
     57066 TIP3     11562    TIP3     OH2      OT      -0.834000       15.9994           0
     57067 TIP3     11562    TIP3     H1       HT       0.417000       1.00800           0
     57068 TIP3     11562    TIP3     H2       HT       0.417000       1.00800           0
     57069 TIP3     11563    TIP3     OH2      OT      -0.834000       15.9994           0
     57070 TIP3     11563    TIP3     H1       HT       0.417000       1.00800           0
     57071 TIP3     11563    TIP3     H2       HT       0.417000       1.00800           0
     57072 TIP3     11564    TIP3     OH2      OT      -0.834000       15.9994           0
     57073 TIP3     11564    TIP3     H1       HT       0.417000       1.00800           0
     57074 TIP3     11564    TIP3     H2       HT       0.417000       1.00800           0
     57075 TIP3     11565    TIP3     OH2      OT      -0.834000       15.9994           0
     57076 TIP3     11565    TIP3     H1       HT       0.417000       1.00800           0
     57077 TIP3     11565    TIP3     H2       HT       0.417000       1.00800           0
     57078 TIP3     11566    TIP3     OH2      OT      -0.834000       15.9994           0
     57079 TIP3     11566    TIP3     H1       HT       0.417000       1.00800           0
     57080 TIP3     11566    TIP3     H2       HT       0.417000       1.00800           0
     57081 TIP3     11567    TIP3     OH2      OT      -0.834000       15.9994           0
     57082 TIP3     11567    TIP3     H1       HT       0.417000       1.00800           0
     57083 TIP3     11567    TIP3     H2       HT       0.417000       1.00800           0
     57084 TIP3     11568    TIP3     OH2      OT      -0.834000       15.9994           0
     57085 TIP3     11568    TIP3     H1       HT       0.417000       1.00800           0
     57086 TIP3     11568    TIP3     H2       HT       0.417000       1.00800           0
     57087 TIP3     11569    TIP3     OH2      OT      -0.834000       15.9994           0
     57088 TIP3     11569    TIP3     H1       HT       0.417000       1.00800           0
     57089 TIP3     11569    TIP3     H2       HT       0.417000       1.00800           0
     57090 TIP3     11570    TIP3     OH2      OT      -0.834000       15.9994           0
     57091 TIP3     11570    TIP3     H1       HT       0.417000       1.00800           0
     57092 TIP3     11570    TIP3     H2       HT       0.417000       1.00800           0
     57093 TIP3     11571    TIP3     OH2      OT      -0.834000       15.9994           0
     57094 TIP3     11571    TIP3     H1       HT       0.417000       1.00800           0
     57095 TIP3     11571    TIP3     H2       HT       0.417000       1.00800           0
     57096 TIP3     11572    TIP3     OH2      OT      -0.834000       15.9994           0
     57097 TIP3     11572    TIP3     H1       HT       0.417000       1.00800           0
     57098 TIP3     11572    TIP3     H2       HT       0.417000       1.00800           0
     57099 TIP3     11573    TIP3     OH2      OT      -0.834000       15.9994           0
     57100 TIP3     11573    TIP3     H1       HT       0.417000       1.00800           0
     57101 TIP3     11573    TIP3     H2       HT       0.417000       1.00800           0
     57102 TIP3     11574    TIP3     OH2      OT      -0.834000       15.9994           0
     57103 TIP3     11574    TIP3     H1       HT       0.417000       1.00800           0
     57104 TIP3     11574    TIP3     H2       HT       0.417000       1.00800           0
     57105 TIP3     11575    TIP3     OH2      OT      -0.834000       15.9994           0
     57106 TIP3     11575    TIP3     H1       HT       0.417000       1.00800           0
     57107 TIP3     11575    TIP3     H2       HT       0.417000       1.00800           0
     57108 TIP3     11576    TIP3     OH2      OT      -0.834000       15.9994           0
     57109 TIP3     11576    TIP3     H1       HT       0.417000       1.00800           0
     57110 TIP3     11576    TIP3     H2       HT       0.417000       1.00800           0
     57111 TIP3     11577    TIP3     OH2      OT      -0.834000       15.9994           0
     57112 TIP3     11577    TIP3     H1       HT       0.417000       1.00800           0
     57113 TIP3     11577    TIP3     H2       HT       0.417000       1.00800           0
     57114 TIP3     11578    TIP3     OH2      OT      -0.834000       15.9994           0
     57115 TIP3     11578    TIP3     H1       HT       0.417000       1.00800           0
     57116 TIP3     11578    TIP3     H2       HT       0.417000       1.00800           0
     57117 TIP3     11579    TIP3     OH2      OT      -0.834000       15.9994           0
     57118 TIP3     11579    TIP3     H1       HT       0.417000       1.00800           0
     57119 TIP3     11579    TIP3     H2       HT       0.417000       1.00800           0
     57120 TIP3     11580    TIP3     OH2      OT      -0.834000       15.9994           0
     57121 TIP3     11580    TIP3     H1       HT       0.417000       1.00800           0
     57122 TIP3     11580    TIP3     H2       HT       0.417000       1.00800           0
     57123 TIP3     11581    TIP3     OH2      OT      -0.834000       15.9994           0
     57124 TIP3     11581    TIP3     H1       HT       0.417000       1.00800           0
     57125 TIP3     11581    TIP3     H2       HT       0.417000       1.00800           0
     57126 TIP3     11582    TIP3     OH2      OT      -0.834000       15.9994           0
     57127 TIP3     11582    TIP3     H1       HT       0.417000       1.00800           0
     57128 TIP3     11582    TIP3     H2       HT       0.417000       1.00800           0
     57129 TIP3     11583    TIP3     OH2      OT      -0.834000       15.9994           0
     57130 TIP3     11583    TIP3     H1       HT       0.417000       1.00800           0
     57131 TIP3     11583    TIP3     H2       HT       0.417000       1.00800           0
     57132 TIP3     11584    TIP3     OH2      OT      -0.834000       15.9994           0
     57133 TIP3     11584    TIP3     H1       HT       0.417000       1.00800           0
     57134 TIP3     11584    TIP3     H2       HT       0.417000       1.00800           0
     57135 TIP3     11585    TIP3     OH2      OT      -0.834000       15.9994           0
     57136 TIP3     11585    TIP3     H1       HT       0.417000       1.00800           0
     57137 TIP3     11585    TIP3     H2       HT       0.417000       1.00800           0
     57138 TIP3     11586    TIP3     OH2      OT      -0.834000       15.9994           0
     57139 TIP3     11586    TIP3     H1       HT       0.417000       1.00800           0
     57140 TIP3     11586    TIP3     H2       HT       0.417000       1.00800           0
     57141 TIP3     11587    TIP3     OH2      OT      -0.834000       15.9994           0
     57142 TIP3     11587    TIP3     H1       HT       0.417000       1.00800           0
     57143 TIP3     11587    TIP3     H2       HT       0.417000       1.00800           0
     57144 TIP3     11588    TIP3     OH2      OT      -0.834000       15.9994           0
     57145 TIP3     11588    TIP3     H1       HT       0.417000       1.00800           0
     57146 TIP3     11588    TIP3     H2       HT       0.417000       1.00800           0
     57147 TIP3     11589    TIP3     OH2      OT      -0.834000       15.9994           0
     57148 TIP3     11589    TIP3     H1       HT       0.417000       1.00800           0
     57149 TIP3     11589    TIP3     H2       HT       0.417000       1.00800           0
     57150 TIP3     11590    TIP3     OH2      OT      -0.834000       15.9994           0
     57151 TIP3     11590    TIP3     H1       HT       0.417000       1.00800           0
     57152 TIP3     11590    TIP3     H2       HT       0.417000       1.00800           0
     57153 TIP3     11591    TIP3     OH2      OT      -0.834000       15.9994           0
     57154 TIP3     11591    TIP3     H1       HT       0.417000       1.00800           0
     57155 TIP3     11591    TIP3     H2       HT       0.417000       1.00800           0
     57156 TIP3     11592    TIP3     OH2      OT      -0.834000       15.9994           0
     57157 TIP3     11592    TIP3     H1       HT       0.417000       1.00800           0
     57158 TIP3     11592    TIP3     H2       HT       0.417000       1.00800           0
     57159 TIP3     11593    TIP3     OH2      OT      -0.834000       15.9994           0
     57160 TIP3     11593    TIP3     H1       HT       0.417000       1.00800           0
     57161 TIP3     11593    TIP3     H2       HT       0.417000       1.00800           0
     57162 TIP3     11594    TIP3     OH2      OT      -0.834000       15.9994           0
     57163 TIP3     11594    TIP3     H1       HT       0.417000       1.00800           0
     57164 TIP3     11594    TIP3     H2       HT       0.417000       1.00800           0
     57165 TIP3     11595    TIP3     OH2      OT      -0.834000       15.9994           0
     57166 TIP3     11595    TIP3     H1       HT       0.417000       1.00800           0
     57167 TIP3     11595    TIP3     H2       HT       0.417000       1.00800           0
     57168 TIP3     11596    TIP3     OH2      OT      -0.834000       15.9994           0
     57169 TIP3     11596    TIP3     H1       HT       0.417000       1.00800           0
     57170 TIP3     11596    TIP3     H2       HT       0.417000       1.00800           0
     57171 TIP3     11597    TIP3     OH2      OT      -0.834000       15.9994           0
     57172 TIP3     11597    TIP3     H1       HT       0.417000       1.00800           0
     57173 TIP3     11597    TIP3     H2       HT       0.417000       1.00800           0
     57174 TIP3     11598    TIP3     OH2      OT      -0.834000       15.9994           0
     57175 TIP3     11598    TIP3     H1       HT       0.417000       1.00800           0
     57176 TIP3     11598    TIP3     H2       HT       0.417000       1.00800           0
     57177 TIP3     11599    TIP3     OH2      OT      -0.834000       15.9994           0
     57178 TIP3     11599    TIP3     H1       HT       0.417000       1.00800           0
     57179 TIP3     11599    TIP3     H2       HT       0.417000       1.00800           0
     57180 TIP3     11600    TIP3     OH2      OT      -0.834000       15.9994           0
     57181 TIP3     11600    TIP3     H1       HT       0.417000       1.00800           0
     57182 TIP3     11600    TIP3     H2       HT       0.417000       1.00800           0
     57183 TIP3     11601    TIP3     OH2      OT      -0.834000       15.9994           0
     57184 TIP3     11601    TIP3     H1       HT       0.417000       1.00800           0
     57185 TIP3     11601    TIP3     H2       HT       0.417000       1.00800           0
     57186 TIP3     11602    TIP3     OH2      OT      -0.834000       15.9994           0
     57187 TIP3     11602    TIP3     H1       HT       0.417000       1.00800           0
     57188 TIP3     11602    TIP3     H2       HT       0.417000       1.00800           0
     57189 TIP3     11603    TIP3     OH2      OT      -0.834000       15.9994           0
     57190 TIP3     11603    TIP3     H1       HT       0.417000       1.00800           0
     57191 TIP3     11603    TIP3     H2       HT       0.417000       1.00800           0
     57192 TIP3     11604    TIP3     OH2      OT      -0.834000       15.9994           0
     57193 TIP3     11604    TIP3     H1       HT       0.417000       1.00800           0
     57194 TIP3     11604    TIP3     H2       HT       0.417000       1.00800           0
     57195 TIP3     11605    TIP3     OH2      OT      -0.834000       15.9994           0
     57196 TIP3     11605    TIP3     H1       HT       0.417000       1.00800           0
     57197 TIP3     11605    TIP3     H2       HT       0.417000       1.00800           0
     57198 TIP3     11606    TIP3     OH2      OT      -0.834000       15.9994           0
     57199 TIP3     11606    TIP3     H1       HT       0.417000       1.00800           0
     57200 TIP3     11606    TIP3     H2       HT       0.417000       1.00800           0
     57201 TIP3     11607    TIP3     OH2      OT      -0.834000       15.9994           0
     57202 TIP3     11607    TIP3     H1       HT       0.417000       1.00800           0
     57203 TIP3     11607    TIP3     H2       HT       0.417000       1.00800           0
     57204 TIP3     11608    TIP3     OH2      OT      -0.834000       15.9994           0
     57205 TIP3     11608    TIP3     H1       HT       0.417000       1.00800           0
     57206 TIP3     11608    TIP3     H2       HT       0.417000       1.00800           0
     57207 TIP3     11609    TIP3     OH2      OT      -0.834000       15.9994           0
     57208 TIP3     11609    TIP3     H1       HT       0.417000       1.00800           0
     57209 TIP3     11609    TIP3     H2       HT       0.417000       1.00800           0
     57210 TIP3     11610    TIP3     OH2      OT      -0.834000       15.9994           0
     57211 TIP3     11610    TIP3     H1       HT       0.417000       1.00800           0
     57212 TIP3     11610    TIP3     H2       HT       0.417000       1.00800           0
     57213 TIP3     11611    TIP3     OH2      OT      -0.834000       15.9994           0
     57214 TIP3     11611    TIP3     H1       HT       0.417000       1.00800           0
     57215 TIP3     11611    TIP3     H2       HT       0.417000       1.00800           0
     57216 TIP3     11612    TIP3     OH2      OT      -0.834000       15.9994           0
     57217 TIP3     11612    TIP3     H1       HT       0.417000       1.00800           0
     57218 TIP3     11612    TIP3     H2       HT       0.417000       1.00800           0
     57219 TIP3     11613    TIP3     OH2      OT      -0.834000       15.9994           0
     57220 TIP3     11613    TIP3     H1       HT       0.417000       1.00800           0
     57221 TIP3     11613    TIP3     H2       HT       0.417000       1.00800           0
     57222 TIP3     11614    TIP3     OH2      OT      -0.834000       15.9994           0
     57223 TIP3     11614    TIP3     H1       HT       0.417000       1.00800           0
     57224 TIP3     11614    TIP3     H2       HT       0.417000       1.00800           0
     57225 TIP3     11615    TIP3     OH2      OT      -0.834000       15.9994           0
     57226 TIP3     11615    TIP3     H1       HT       0.417000       1.00800           0
     57227 TIP3     11615    TIP3     H2       HT       0.417000       1.00800           0
     57228 TIP3     11616    TIP3     OH2      OT      -0.834000       15.9994           0
     57229 TIP3     11616    TIP3     H1       HT       0.417000       1.00800           0
     57230 TIP3     11616    TIP3     H2       HT       0.417000       1.00800           0
     57231 TIP3     11617    TIP3     OH2      OT      -0.834000       15.9994           0
     57232 TIP3     11617    TIP3     H1       HT       0.417000       1.00800           0
     57233 TIP3     11617    TIP3     H2       HT       0.417000       1.00800           0
     57234 TIP3     11618    TIP3     OH2      OT      -0.834000       15.9994           0
     57235 TIP3     11618    TIP3     H1       HT       0.417000       1.00800           0
     57236 TIP3     11618    TIP3     H2       HT       0.417000       1.00800           0
     57237 TIP3     11619    TIP3     OH2      OT      -0.834000       15.9994           0
     57238 TIP3     11619    TIP3     H1       HT       0.417000       1.00800           0
     57239 TIP3     11619    TIP3     H2       HT       0.417000       1.00800           0
     57240 TIP3     11620    TIP3     OH2      OT      -0.834000       15.9994           0
     57241 TIP3     11620    TIP3     H1       HT       0.417000       1.00800           0
     57242 TIP3     11620    TIP3     H2       HT       0.417000       1.00800           0
     57243 TIP3     11621    TIP3     OH2      OT      -0.834000       15.9994           0
     57244 TIP3     11621    TIP3     H1       HT       0.417000       1.00800           0
     57245 TIP3     11621    TIP3     H2       HT       0.417000       1.00800           0
     57246 TIP3     11622    TIP3     OH2      OT      -0.834000       15.9994           0
     57247 TIP3     11622    TIP3     H1       HT       0.417000       1.00800           0
     57248 TIP3     11622    TIP3     H2       HT       0.417000       1.00800           0
     57249 TIP3     11623    TIP3     OH2      OT      -0.834000       15.9994           0
     57250 TIP3     11623    TIP3     H1       HT       0.417000       1.00800           0
     57251 TIP3     11623    TIP3     H2       HT       0.417000       1.00800           0
     57252 TIP3     11624    TIP3     OH2      OT      -0.834000       15.9994           0
     57253 TIP3     11624    TIP3     H1       HT       0.417000       1.00800           0
     57254 TIP3     11624    TIP3     H2       HT       0.417000       1.00800           0
     57255 TIP3     11625    TIP3     OH2      OT      -0.834000       15.9994           0
     57256 TIP3     11625    TIP3     H1       HT       0.417000       1.00800           0
     57257 TIP3     11625    TIP3     H2       HT       0.417000       1.00800           0
     57258 TIP3     11626    TIP3     OH2      OT      -0.834000       15.9994           0
     57259 TIP3     11626    TIP3     H1       HT       0.417000       1.00800           0
     57260 TIP3     11626    TIP3     H2       HT       0.417000       1.00800           0
     57261 TIP3     11627    TIP3     OH2      OT      -0.834000       15.9994           0
     57262 TIP3     11627    TIP3     H1       HT       0.417000       1.00800           0
     57263 TIP3     11627    TIP3     H2       HT       0.417000       1.00800           0
     57264 TIP3     11628    TIP3     OH2      OT      -0.834000       15.9994           0
     57265 TIP3     11628    TIP3     H1       HT       0.417000       1.00800           0
     57266 TIP3     11628    TIP3     H2       HT       0.417000       1.00800           0
     57267 TIP3     11629    TIP3     OH2      OT      -0.834000       15.9994           0
     57268 TIP3     11629    TIP3     H1       HT       0.417000       1.00800           0
     57269 TIP3     11629    TIP3     H2       HT       0.417000       1.00800           0
     57270 TIP3     11630    TIP3     OH2      OT      -0.834000       15.9994           0
     57271 TIP3     11630    TIP3     H1       HT       0.417000       1.00800           0
     57272 TIP3     11630    TIP3     H2       HT       0.417000       1.00800           0
     57273 TIP3     11631    TIP3     OH2      OT      -0.834000       15.9994           0
     57274 TIP3     11631    TIP3     H1       HT       0.417000       1.00800           0
     57275 TIP3     11631    TIP3     H2       HT       0.417000       1.00800           0
     57276 TIP3     11632    TIP3     OH2      OT      -0.834000       15.9994           0
     57277 TIP3     11632    TIP3     H1       HT       0.417000       1.00800           0
     57278 TIP3     11632    TIP3     H2       HT       0.417000       1.00800           0
     57279 TIP3     11633    TIP3     OH2      OT      -0.834000       15.9994           0
     57280 TIP3     11633    TIP3     H1       HT       0.417000       1.00800           0
     57281 TIP3     11633    TIP3     H2       HT       0.417000       1.00800           0
     57282 TIP3     11634    TIP3     OH2      OT      -0.834000       15.9994           0
     57283 TIP3     11634    TIP3     H1       HT       0.417000       1.00800           0
     57284 TIP3     11634    TIP3     H2       HT       0.417000       1.00800           0
     57285 TIP3     11635    TIP3     OH2      OT      -0.834000       15.9994           0
     57286 TIP3     11635    TIP3     H1       HT       0.417000       1.00800           0
     57287 TIP3     11635    TIP3     H2       HT       0.417000       1.00800           0
     57288 TIP3     11636    TIP3     OH2      OT      -0.834000       15.9994           0
     57289 TIP3     11636    TIP3     H1       HT       0.417000       1.00800           0
     57290 TIP3     11636    TIP3     H2       HT       0.417000       1.00800           0
     57291 TIP3     11637    TIP3     OH2      OT      -0.834000       15.9994           0
     57292 TIP3     11637    TIP3     H1       HT       0.417000       1.00800           0
     57293 TIP3     11637    TIP3     H2       HT       0.417000       1.00800           0
     57294 TIP3     11638    TIP3     OH2      OT      -0.834000       15.9994           0
     57295 TIP3     11638    TIP3     H1       HT       0.417000       1.00800           0
     57296 TIP3     11638    TIP3     H2       HT       0.417000       1.00800           0
     57297 TIP3     11639    TIP3     OH2      OT      -0.834000       15.9994           0
     57298 TIP3     11639    TIP3     H1       HT       0.417000       1.00800           0
     57299 TIP3     11639    TIP3     H2       HT       0.417000       1.00800           0
     57300 TIP3     11640    TIP3     OH2      OT      -0.834000       15.9994           0
     57301 TIP3     11640    TIP3     H1       HT       0.417000       1.00800           0
     57302 TIP3     11640    TIP3     H2       HT       0.417000       1.00800           0
     57303 TIP3     11641    TIP3     OH2      OT      -0.834000       15.9994           0
     57304 TIP3     11641    TIP3     H1       HT       0.417000       1.00800           0
     57305 TIP3     11641    TIP3     H2       HT       0.417000       1.00800           0
     57306 TIP3     11642    TIP3     OH2      OT      -0.834000       15.9994           0
     57307 TIP3     11642    TIP3     H1       HT       0.417000       1.00800           0
     57308 TIP3     11642    TIP3     H2       HT       0.417000       1.00800           0
     57309 TIP3     11643    TIP3     OH2      OT      -0.834000       15.9994           0
     57310 TIP3     11643    TIP3     H1       HT       0.417000       1.00800           0
     57311 TIP3     11643    TIP3     H2       HT       0.417000       1.00800           0
     57312 TIP3     11644    TIP3     OH2      OT      -0.834000       15.9994           0
     57313 TIP3     11644    TIP3     H1       HT       0.417000       1.00800           0
     57314 TIP3     11644    TIP3     H2       HT       0.417000       1.00800           0
     57315 TIP3     11645    TIP3     OH2      OT      -0.834000       15.9994           0
     57316 TIP3     11645    TIP3     H1       HT       0.417000       1.00800           0
     57317 TIP3     11645    TIP3     H2       HT       0.417000       1.00800           0
     57318 TIP3     11646    TIP3     OH2      OT      -0.834000       15.9994           0
     57319 TIP3     11646    TIP3     H1       HT       0.417000       1.00800           0
     57320 TIP3     11646    TIP3     H2       HT       0.417000       1.00800           0
     57321 TIP3     11647    TIP3     OH2      OT      -0.834000       15.9994           0
     57322 TIP3     11647    TIP3     H1       HT       0.417000       1.00800           0
     57323 TIP3     11647    TIP3     H2       HT       0.417000       1.00800           0
     57324 TIP3     11648    TIP3     OH2      OT      -0.834000       15.9994           0
     57325 TIP3     11648    TIP3     H1       HT       0.417000       1.00800           0
     57326 TIP3     11648    TIP3     H2       HT       0.417000       1.00800           0
     57327 TIP3     11649    TIP3     OH2      OT      -0.834000       15.9994           0
     57328 TIP3     11649    TIP3     H1       HT       0.417000       1.00800           0
     57329 TIP3     11649    TIP3     H2       HT       0.417000       1.00800           0
     57330 TIP3     11650    TIP3     OH2      OT      -0.834000       15.9994           0
     57331 TIP3     11650    TIP3     H1       HT       0.417000       1.00800           0
     57332 TIP3     11650    TIP3     H2       HT       0.417000       1.00800           0
     57333 TIP3     11651    TIP3     OH2      OT      -0.834000       15.9994           0
     57334 TIP3     11651    TIP3     H1       HT       0.417000       1.00800           0
     57335 TIP3     11651    TIP3     H2       HT       0.417000       1.00800           0
     57336 TIP3     11652    TIP3     OH2      OT      -0.834000       15.9994           0
     57337 TIP3     11652    TIP3     H1       HT       0.417000       1.00800           0
     57338 TIP3     11652    TIP3     H2       HT       0.417000       1.00800           0
     57339 TIP3     11653    TIP3     OH2      OT      -0.834000       15.9994           0
     57340 TIP3     11653    TIP3     H1       HT       0.417000       1.00800           0
     57341 TIP3     11653    TIP3     H2       HT       0.417000       1.00800           0
     57342 TIP3     11654    TIP3     OH2      OT      -0.834000       15.9994           0
     57343 TIP3     11654    TIP3     H1       HT       0.417000       1.00800           0
     57344 TIP3     11654    TIP3     H2       HT       0.417000       1.00800           0
     57345 TIP3     11655    TIP3     OH2      OT      -0.834000       15.9994           0
     57346 TIP3     11655    TIP3     H1       HT       0.417000       1.00800           0
     57347 TIP3     11655    TIP3     H2       HT       0.417000       1.00800           0
     57348 TIP3     11656    TIP3     OH2      OT      -0.834000       15.9994           0
     57349 TIP3     11656    TIP3     H1       HT       0.417000       1.00800           0
     57350 TIP3     11656    TIP3     H2       HT       0.417000       1.00800           0
     57351 TIP3     11657    TIP3     OH2      OT      -0.834000       15.9994           0
     57352 TIP3     11657    TIP3     H1       HT       0.417000       1.00800           0
     57353 TIP3     11657    TIP3     H2       HT       0.417000       1.00800           0
     57354 TIP3     11658    TIP3     OH2      OT      -0.834000       15.9994           0
     57355 TIP3     11658    TIP3     H1       HT       0.417000       1.00800           0
     57356 TIP3     11658    TIP3     H2       HT       0.417000       1.00800           0
     57357 TIP3     11659    TIP3     OH2      OT      -0.834000       15.9994           0
     57358 TIP3     11659    TIP3     H1       HT       0.417000       1.00800           0
     57359 TIP3     11659    TIP3     H2       HT       0.417000       1.00800           0
     57360 TIP3     11660    TIP3     OH2      OT      -0.834000       15.9994           0
     57361 TIP3     11660    TIP3     H1       HT       0.417000       1.00800           0
     57362 TIP3     11660    TIP3     H2       HT       0.417000       1.00800           0
     57363 TIP3     11661    TIP3     OH2      OT      -0.834000       15.9994           0
     57364 TIP3     11661    TIP3     H1       HT       0.417000       1.00800           0
     57365 TIP3     11661    TIP3     H2       HT       0.417000       1.00800           0
     57366 TIP3     11662    TIP3     OH2      OT      -0.834000       15.9994           0
     57367 TIP3     11662    TIP3     H1       HT       0.417000       1.00800           0
     57368 TIP3     11662    TIP3     H2       HT       0.417000       1.00800           0
     57369 TIP3     11663    TIP3     OH2      OT      -0.834000       15.9994           0
     57370 TIP3     11663    TIP3     H1       HT       0.417000       1.00800           0
     57371 TIP3     11663    TIP3     H2       HT       0.417000       1.00800           0
     57372 TIP3     11664    TIP3     OH2      OT      -0.834000       15.9994           0
     57373 TIP3     11664    TIP3     H1       HT       0.417000       1.00800           0
     57374 TIP3     11664    TIP3     H2       HT       0.417000       1.00800           0
     57375 TIP3     11665    TIP3     OH2      OT      -0.834000       15.9994           0
     57376 TIP3     11665    TIP3     H1       HT       0.417000       1.00800           0
     57377 TIP3     11665    TIP3     H2       HT       0.417000       1.00800           0
     57378 TIP3     11666    TIP3     OH2      OT      -0.834000       15.9994           0
     57379 TIP3     11666    TIP3     H1       HT       0.417000       1.00800           0
     57380 TIP3     11666    TIP3     H2       HT       0.417000       1.00800           0
     57381 TIP3     11667    TIP3     OH2      OT      -0.834000       15.9994           0
     57382 TIP3     11667    TIP3     H1       HT       0.417000       1.00800           0
     57383 TIP3     11667    TIP3     H2       HT       0.417000       1.00800           0
     57384 TIP3     11668    TIP3     OH2      OT      -0.834000       15.9994           0
     57385 TIP3     11668    TIP3     H1       HT       0.417000       1.00800           0
     57386 TIP3     11668    TIP3     H2       HT       0.417000       1.00800           0
     57387 TIP3     11669    TIP3     OH2      OT      -0.834000       15.9994           0
     57388 TIP3     11669    TIP3     H1       HT       0.417000       1.00800           0
     57389 TIP3     11669    TIP3     H2       HT       0.417000       1.00800           0
     57390 TIP3     11670    TIP3     OH2      OT      -0.834000       15.9994           0
     57391 TIP3     11670    TIP3     H1       HT       0.417000       1.00800           0
     57392 TIP3     11670    TIP3     H2       HT       0.417000       1.00800           0
     57393 TIP3     11671    TIP3     OH2      OT      -0.834000       15.9994           0
     57394 TIP3     11671    TIP3     H1       HT       0.417000       1.00800           0
     57395 TIP3     11671    TIP3     H2       HT       0.417000       1.00800           0
     57396 TIP3     11672    TIP3     OH2      OT      -0.834000       15.9994           0
     57397 TIP3     11672    TIP3     H1       HT       0.417000       1.00800           0
     57398 TIP3     11672    TIP3     H2       HT       0.417000       1.00800           0
     57399 TIP3     11673    TIP3     OH2      OT      -0.834000       15.9994           0
     57400 TIP3     11673    TIP3     H1       HT       0.417000       1.00800           0
     57401 TIP3     11673    TIP3     H2       HT       0.417000       1.00800           0
     57402 TIP3     11674    TIP3     OH2      OT      -0.834000       15.9994           0
     57403 TIP3     11674    TIP3     H1       HT       0.417000       1.00800           0
     57404 TIP3     11674    TIP3     H2       HT       0.417000       1.00800           0
     57405 TIP3     11675    TIP3     OH2      OT      -0.834000       15.9994           0
     57406 TIP3     11675    TIP3     H1       HT       0.417000       1.00800           0
     57407 TIP3     11675    TIP3     H2       HT       0.417000       1.00800           0
     57408 TIP3     11676    TIP3     OH2      OT      -0.834000       15.9994           0
     57409 TIP3     11676    TIP3     H1       HT       0.417000       1.00800           0
     57410 TIP3     11676    TIP3     H2       HT       0.417000       1.00800           0
     57411 TIP3     11677    TIP3     OH2      OT      -0.834000       15.9994           0
     57412 TIP3     11677    TIP3     H1       HT       0.417000       1.00800           0
     57413 TIP3     11677    TIP3     H2       HT       0.417000       1.00800           0
     57414 TIP3     11678    TIP3     OH2      OT      -0.834000       15.9994           0
     57415 TIP3     11678    TIP3     H1       HT       0.417000       1.00800           0
     57416 TIP3     11678    TIP3     H2       HT       0.417000       1.00800           0
     57417 TIP3     11679    TIP3     OH2      OT      -0.834000       15.9994           0
     57418 TIP3     11679    TIP3     H1       HT       0.417000       1.00800           0
     57419 TIP3     11679    TIP3     H2       HT       0.417000       1.00800           0
     57420 TIP3     11680    TIP3     OH2      OT      -0.834000       15.9994           0
     57421 TIP3     11680    TIP3     H1       HT       0.417000       1.00800           0
     57422 TIP3     11680    TIP3     H2       HT       0.417000       1.00800           0
     57423 TIP3     11681    TIP3     OH2      OT      -0.834000       15.9994           0
     57424 TIP3     11681    TIP3     H1       HT       0.417000       1.00800           0
     57425 TIP3     11681    TIP3     H2       HT       0.417000       1.00800           0
     57426 TIP3     11682    TIP3     OH2      OT      -0.834000       15.9994           0
     57427 TIP3     11682    TIP3     H1       HT       0.417000       1.00800           0
     57428 TIP3     11682    TIP3     H2       HT       0.417000       1.00800           0
     57429 TIP3     11683    TIP3     OH2      OT      -0.834000       15.9994           0
     57430 TIP3     11683    TIP3     H1       HT       0.417000       1.00800           0
     57431 TIP3     11683    TIP3     H2       HT       0.417000       1.00800           0
     57432 TIP3     11684    TIP3     OH2      OT      -0.834000       15.9994           0
     57433 TIP3     11684    TIP3     H1       HT       0.417000       1.00800           0
     57434 TIP3     11684    TIP3     H2       HT       0.417000       1.00800           0
     57435 TIP3     11685    TIP3     OH2      OT      -0.834000       15.9994           0
     57436 TIP3     11685    TIP3     H1       HT       0.417000       1.00800           0
     57437 TIP3     11685    TIP3     H2       HT       0.417000       1.00800           0
     57438 TIP3     11686    TIP3     OH2      OT      -0.834000       15.9994           0
     57439 TIP3     11686    TIP3     H1       HT       0.417000       1.00800           0
     57440 TIP3     11686    TIP3     H2       HT       0.417000       1.00800           0
     57441 TIP3     11687    TIP3     OH2      OT      -0.834000       15.9994           0
     57442 TIP3     11687    TIP3     H1       HT       0.417000       1.00800           0
     57443 TIP3     11687    TIP3     H2       HT       0.417000       1.00800           0
     57444 TIP3     11688    TIP3     OH2      OT      -0.834000       15.9994           0
     57445 TIP3     11688    TIP3     H1       HT       0.417000       1.00800           0
     57446 TIP3     11688    TIP3     H2       HT       0.417000       1.00800           0
     57447 TIP3     11689    TIP3     OH2      OT      -0.834000       15.9994           0
     57448 TIP3     11689    TIP3     H1       HT       0.417000       1.00800           0
     57449 TIP3     11689    TIP3     H2       HT       0.417000       1.00800           0
     57450 TIP3     11690    TIP3     OH2      OT      -0.834000       15.9994           0
     57451 TIP3     11690    TIP3     H1       HT       0.417000       1.00800           0
     57452 TIP3     11690    TIP3     H2       HT       0.417000       1.00800           0
     57453 TIP3     11691    TIP3     OH2      OT      -0.834000       15.9994           0
     57454 TIP3     11691    TIP3     H1       HT       0.417000       1.00800           0
     57455 TIP3     11691    TIP3     H2       HT       0.417000       1.00800           0
     57456 TIP3     11692    TIP3     OH2      OT      -0.834000       15.9994           0
     57457 TIP3     11692    TIP3     H1       HT       0.417000       1.00800           0
     57458 TIP3     11692    TIP3     H2       HT       0.417000       1.00800           0
     57459 TIP3     11693    TIP3     OH2      OT      -0.834000       15.9994           0
     57460 TIP3     11693    TIP3     H1       HT       0.417000       1.00800           0
     57461 TIP3     11693    TIP3     H2       HT       0.417000       1.00800           0
     57462 TIP3     11694    TIP3     OH2      OT      -0.834000       15.9994           0
     57463 TIP3     11694    TIP3     H1       HT       0.417000       1.00800           0
     57464 TIP3     11694    TIP3     H2       HT       0.417000       1.00800           0
     57465 TIP3     11695    TIP3     OH2      OT      -0.834000       15.9994           0
     57466 TIP3     11695    TIP3     H1       HT       0.417000       1.00800           0
     57467 TIP3     11695    TIP3     H2       HT       0.417000       1.00800           0
     57468 TIP3     11696    TIP3     OH2      OT      -0.834000       15.9994           0
     57469 TIP3     11696    TIP3     H1       HT       0.417000       1.00800           0
     57470 TIP3     11696    TIP3     H2       HT       0.417000       1.00800           0
     57471 TIP3     11697    TIP3     OH2      OT      -0.834000       15.9994           0
     57472 TIP3     11697    TIP3     H1       HT       0.417000       1.00800           0
     57473 TIP3     11697    TIP3     H2       HT       0.417000       1.00800           0
     57474 TIP3     11698    TIP3     OH2      OT      -0.834000       15.9994           0
     57475 TIP3     11698    TIP3     H1       HT       0.417000       1.00800           0
     57476 TIP3     11698    TIP3     H2       HT       0.417000       1.00800           0
     57477 TIP3     11699    TIP3     OH2      OT      -0.834000       15.9994           0
     57478 TIP3     11699    TIP3     H1       HT       0.417000       1.00800           0
     57479 TIP3     11699    TIP3     H2       HT       0.417000       1.00800           0
     57480 TIP3     11700    TIP3     OH2      OT      -0.834000       15.9994           0
     57481 TIP3     11700    TIP3     H1       HT       0.417000       1.00800           0
     57482 TIP3     11700    TIP3     H2       HT       0.417000       1.00800           0
     57483 TIP3     11701    TIP3     OH2      OT      -0.834000       15.9994           0
     57484 TIP3     11701    TIP3     H1       HT       0.417000       1.00800           0
     57485 TIP3     11701    TIP3     H2       HT       0.417000       1.00800           0
     57486 TIP3     11702    TIP3     OH2      OT      -0.834000       15.9994           0
     57487 TIP3     11702    TIP3     H1       HT       0.417000       1.00800           0
     57488 TIP3     11702    TIP3     H2       HT       0.417000       1.00800           0
     57489 TIP3     11703    TIP3     OH2      OT      -0.834000       15.9994           0
     57490 TIP3     11703    TIP3     H1       HT       0.417000       1.00800           0
     57491 TIP3     11703    TIP3     H2       HT       0.417000       1.00800           0
     57492 TIP3     11704    TIP3     OH2      OT      -0.834000       15.9994           0
     57493 TIP3     11704    TIP3     H1       HT       0.417000       1.00800           0
     57494 TIP3     11704    TIP3     H2       HT       0.417000       1.00800           0
     57495 TIP3     11705    TIP3     OH2      OT      -0.834000       15.9994           0
     57496 TIP3     11705    TIP3     H1       HT       0.417000       1.00800           0
     57497 TIP3     11705    TIP3     H2       HT       0.417000       1.00800           0
     57498 TIP3     11706    TIP3     OH2      OT      -0.834000       15.9994           0
     57499 TIP3     11706    TIP3     H1       HT       0.417000       1.00800           0
     57500 TIP3     11706    TIP3     H2       HT       0.417000       1.00800           0
     57501 TIP3     11707    TIP3     OH2      OT      -0.834000       15.9994           0
     57502 TIP3     11707    TIP3     H1       HT       0.417000       1.00800           0
     57503 TIP3     11707    TIP3     H2       HT       0.417000       1.00800           0
     57504 TIP3     11708    TIP3     OH2      OT      -0.834000       15.9994           0
     57505 TIP3     11708    TIP3     H1       HT       0.417000       1.00800           0
     57506 TIP3     11708    TIP3     H2       HT       0.417000       1.00800           0
     57507 TIP3     11709    TIP3     OH2      OT      -0.834000       15.9994           0
     57508 TIP3     11709    TIP3     H1       HT       0.417000       1.00800           0
     57509 TIP3     11709    TIP3     H2       HT       0.417000       1.00800           0
     57510 TIP3     11710    TIP3     OH2      OT      -0.834000       15.9994           0
     57511 TIP3     11710    TIP3     H1       HT       0.417000       1.00800           0
     57512 TIP3     11710    TIP3     H2       HT       0.417000       1.00800           0
     57513 TIP3     11711    TIP3     OH2      OT      -0.834000       15.9994           0
     57514 TIP3     11711    TIP3     H1       HT       0.417000       1.00800           0
     57515 TIP3     11711    TIP3     H2       HT       0.417000       1.00800           0
     57516 TIP3     11712    TIP3     OH2      OT      -0.834000       15.9994           0
     57517 TIP3     11712    TIP3     H1       HT       0.417000       1.00800           0
     57518 TIP3     11712    TIP3     H2       HT       0.417000       1.00800           0
     57519 TIP3     11713    TIP3     OH2      OT      -0.834000       15.9994           0
     57520 TIP3     11713    TIP3     H1       HT       0.417000       1.00800           0
     57521 TIP3     11713    TIP3     H2       HT       0.417000       1.00800           0
     57522 TIP3     11714    TIP3     OH2      OT      -0.834000       15.9994           0
     57523 TIP3     11714    TIP3     H1       HT       0.417000       1.00800           0
     57524 TIP3     11714    TIP3     H2       HT       0.417000       1.00800           0
     57525 TIP3     11715    TIP3     OH2      OT      -0.834000       15.9994           0
     57526 TIP3     11715    TIP3     H1       HT       0.417000       1.00800           0
     57527 TIP3     11715    TIP3     H2       HT       0.417000       1.00800           0
     57528 TIP3     11716    TIP3     OH2      OT      -0.834000       15.9994           0
     57529 TIP3     11716    TIP3     H1       HT       0.417000       1.00800           0
     57530 TIP3     11716    TIP3     H2       HT       0.417000       1.00800           0
     57531 TIP3     11717    TIP3     OH2      OT      -0.834000       15.9994           0
     57532 TIP3     11717    TIP3     H1       HT       0.417000       1.00800           0
     57533 TIP3     11717    TIP3     H2       HT       0.417000       1.00800           0
     57534 TIP3     11718    TIP3     OH2      OT      -0.834000       15.9994           0
     57535 TIP3     11718    TIP3     H1       HT       0.417000       1.00800           0
     57536 TIP3     11718    TIP3     H2       HT       0.417000       1.00800           0
     57537 TIP3     11719    TIP3     OH2      OT      -0.834000       15.9994           0
     57538 TIP3     11719    TIP3     H1       HT       0.417000       1.00800           0
     57539 TIP3     11719    TIP3     H2       HT       0.417000       1.00800           0
     57540 TIP3     11720    TIP3     OH2      OT      -0.834000       15.9994           0
     57541 TIP3     11720    TIP3     H1       HT       0.417000       1.00800           0
     57542 TIP3     11720    TIP3     H2       HT       0.417000       1.00800           0
     57543 TIP3     11721    TIP3     OH2      OT      -0.834000       15.9994           0
     57544 TIP3     11721    TIP3     H1       HT       0.417000       1.00800           0
     57545 TIP3     11721    TIP3     H2       HT       0.417000       1.00800           0
     57546 TIP3     11722    TIP3     OH2      OT      -0.834000       15.9994           0
     57547 TIP3     11722    TIP3     H1       HT       0.417000       1.00800           0
     57548 TIP3     11722    TIP3     H2       HT       0.417000       1.00800           0
     57549 TIP3     11723    TIP3     OH2      OT      -0.834000       15.9994           0
     57550 TIP3     11723    TIP3     H1       HT       0.417000       1.00800           0
     57551 TIP3     11723    TIP3     H2       HT       0.417000       1.00800           0
     57552 TIP3     11724    TIP3     OH2      OT      -0.834000       15.9994           0
     57553 TIP3     11724    TIP3     H1       HT       0.417000       1.00800           0
     57554 TIP3     11724    TIP3     H2       HT       0.417000       1.00800           0
     57555 TIP3     11725    TIP3     OH2      OT      -0.834000       15.9994           0
     57556 TIP3     11725    TIP3     H1       HT       0.417000       1.00800           0
     57557 TIP3     11725    TIP3     H2       HT       0.417000       1.00800           0
     57558 TIP3     11726    TIP3     OH2      OT      -0.834000       15.9994           0
     57559 TIP3     11726    TIP3     H1       HT       0.417000       1.00800           0
     57560 TIP3     11726    TIP3     H2       HT       0.417000       1.00800           0
     57561 TIP3     11727    TIP3     OH2      OT      -0.834000       15.9994           0
     57562 TIP3     11727    TIP3     H1       HT       0.417000       1.00800           0
     57563 TIP3     11727    TIP3     H2       HT       0.417000       1.00800           0
     57564 TIP3     11728    TIP3     OH2      OT      -0.834000       15.9994           0
     57565 TIP3     11728    TIP3     H1       HT       0.417000       1.00800           0
     57566 TIP3     11728    TIP3     H2       HT       0.417000       1.00800           0
     57567 TIP3     11729    TIP3     OH2      OT      -0.834000       15.9994           0
     57568 TIP3     11729    TIP3     H1       HT       0.417000       1.00800           0
     57569 TIP3     11729    TIP3     H2       HT       0.417000       1.00800           0
     57570 TIP3     11730    TIP3     OH2      OT      -0.834000       15.9994           0
     57571 TIP3     11730    TIP3     H1       HT       0.417000       1.00800           0
     57572 TIP3     11730    TIP3     H2       HT       0.417000       1.00800           0
     57573 TIP3     11731    TIP3     OH2      OT      -0.834000       15.9994           0
     57574 TIP3     11731    TIP3     H1       HT       0.417000       1.00800           0
     57575 TIP3     11731    TIP3     H2       HT       0.417000       1.00800           0
     57576 TIP3     11732    TIP3     OH2      OT      -0.834000       15.9994           0
     57577 TIP3     11732    TIP3     H1       HT       0.417000       1.00800           0
     57578 TIP3     11732    TIP3     H2       HT       0.417000       1.00800           0
     57579 TIP3     11733    TIP3     OH2      OT      -0.834000       15.9994           0
     57580 TIP3     11733    TIP3     H1       HT       0.417000       1.00800           0
     57581 TIP3     11733    TIP3     H2       HT       0.417000       1.00800           0
     57582 TIP3     11734    TIP3     OH2      OT      -0.834000       15.9994           0
     57583 TIP3     11734    TIP3     H1       HT       0.417000       1.00800           0
     57584 TIP3     11734    TIP3     H2       HT       0.417000       1.00800           0
     57585 TIP3     11735    TIP3     OH2      OT      -0.834000       15.9994           0
     57586 TIP3     11735    TIP3     H1       HT       0.417000       1.00800           0
     57587 TIP3     11735    TIP3     H2       HT       0.417000       1.00800           0
     57588 TIP3     11736    TIP3     OH2      OT      -0.834000       15.9994           0
     57589 TIP3     11736    TIP3     H1       HT       0.417000       1.00800           0
     57590 TIP3     11736    TIP3     H2       HT       0.417000       1.00800           0
     57591 TIP3     11737    TIP3     OH2      OT      -0.834000       15.9994           0
     57592 TIP3     11737    TIP3     H1       HT       0.417000       1.00800           0
     57593 TIP3     11737    TIP3     H2       HT       0.417000       1.00800           0
     57594 TIP3     11738    TIP3     OH2      OT      -0.834000       15.9994           0
     57595 TIP3     11738    TIP3     H1       HT       0.417000       1.00800           0
     57596 TIP3     11738    TIP3     H2       HT       0.417000       1.00800           0
     57597 TIP3     11739    TIP3     OH2      OT      -0.834000       15.9994           0
     57598 TIP3     11739    TIP3     H1       HT       0.417000       1.00800           0
     57599 TIP3     11739    TIP3     H2       HT       0.417000       1.00800           0
     57600 TIP3     11740    TIP3     OH2      OT      -0.834000       15.9994           0
     57601 TIP3     11740    TIP3     H1       HT       0.417000       1.00800           0
     57602 TIP3     11740    TIP3     H2       HT       0.417000       1.00800           0
     57603 TIP3     11741    TIP3     OH2      OT      -0.834000       15.9994           0
     57604 TIP3     11741    TIP3     H1       HT       0.417000       1.00800           0
     57605 TIP3     11741    TIP3     H2       HT       0.417000       1.00800           0
     57606 TIP3     11742    TIP3     OH2      OT      -0.834000       15.9994           0
     57607 TIP3     11742    TIP3     H1       HT       0.417000       1.00800           0
     57608 TIP3     11742    TIP3     H2       HT       0.417000       1.00800           0
     57609 TIP3     11743    TIP3     OH2      OT      -0.834000       15.9994           0
     57610 TIP3     11743    TIP3     H1       HT       0.417000       1.00800           0
     57611 TIP3     11743    TIP3     H2       HT       0.417000       1.00800           0
     57612 TIP3     11744    TIP3     OH2      OT      -0.834000       15.9994           0
     57613 TIP3     11744    TIP3     H1       HT       0.417000       1.00800           0
     57614 TIP3     11744    TIP3     H2       HT       0.417000       1.00800           0
     57615 TIP3     11745    TIP3     OH2      OT      -0.834000       15.9994           0
     57616 TIP3     11745    TIP3     H1       HT       0.417000       1.00800           0
     57617 TIP3     11745    TIP3     H2       HT       0.417000       1.00800           0
     57618 TIP3     11746    TIP3     OH2      OT      -0.834000       15.9994           0
     57619 TIP3     11746    TIP3     H1       HT       0.417000       1.00800           0
     57620 TIP3     11746    TIP3     H2       HT       0.417000       1.00800           0
     57621 TIP3     11747    TIP3     OH2      OT      -0.834000       15.9994           0
     57622 TIP3     11747    TIP3     H1       HT       0.417000       1.00800           0
     57623 TIP3     11747    TIP3     H2       HT       0.417000       1.00800           0
     57624 TIP3     11748    TIP3     OH2      OT      -0.834000       15.9994           0
     57625 TIP3     11748    TIP3     H1       HT       0.417000       1.00800           0
     57626 TIP3     11748    TIP3     H2       HT       0.417000       1.00800           0
     57627 TIP3     11749    TIP3     OH2      OT      -0.834000       15.9994           0
     57628 TIP3     11749    TIP3     H1       HT       0.417000       1.00800           0
     57629 TIP3     11749    TIP3     H2       HT       0.417000       1.00800           0
     57630 TIP3     11750    TIP3     OH2      OT      -0.834000       15.9994           0
     57631 TIP3     11750    TIP3     H1       HT       0.417000       1.00800           0
     57632 TIP3     11750    TIP3     H2       HT       0.417000       1.00800           0
     57633 TIP3     11751    TIP3     OH2      OT      -0.834000       15.9994           0
     57634 TIP3     11751    TIP3     H1       HT       0.417000       1.00800           0
     57635 TIP3     11751    TIP3     H2       HT       0.417000       1.00800           0
     57636 TIP3     11752    TIP3     OH2      OT      -0.834000       15.9994           0
     57637 TIP3     11752    TIP3     H1       HT       0.417000       1.00800           0
     57638 TIP3     11752    TIP3     H2       HT       0.417000       1.00800           0
     57639 TIP3     11753    TIP3     OH2      OT      -0.834000       15.9994           0
     57640 TIP3     11753    TIP3     H1       HT       0.417000       1.00800           0
     57641 TIP3     11753    TIP3     H2       HT       0.417000       1.00800           0
     57642 TIP3     11754    TIP3     OH2      OT      -0.834000       15.9994           0
     57643 TIP3     11754    TIP3     H1       HT       0.417000       1.00800           0
     57644 TIP3     11754    TIP3     H2       HT       0.417000       1.00800           0
     57645 TIP3     11755    TIP3     OH2      OT      -0.834000       15.9994           0
     57646 TIP3     11755    TIP3     H1       HT       0.417000       1.00800           0
     57647 TIP3     11755    TIP3     H2       HT       0.417000       1.00800           0
     57648 TIP3     11756    TIP3     OH2      OT      -0.834000       15.9994           0
     57649 TIP3     11756    TIP3     H1       HT       0.417000       1.00800           0
     57650 TIP3     11756    TIP3     H2       HT       0.417000       1.00800           0
     57651 TIP3     11757    TIP3     OH2      OT      -0.834000       15.9994           0
     57652 TIP3     11757    TIP3     H1       HT       0.417000       1.00800           0
     57653 TIP3     11757    TIP3     H2       HT       0.417000       1.00800           0
     57654 TIP3     11758    TIP3     OH2      OT      -0.834000       15.9994           0
     57655 TIP3     11758    TIP3     H1       HT       0.417000       1.00800           0
     57656 TIP3     11758    TIP3     H2       HT       0.417000       1.00800           0
     57657 TIP3     11759    TIP3     OH2      OT      -0.834000       15.9994           0
     57658 TIP3     11759    TIP3     H1       HT       0.417000       1.00800           0
     57659 TIP3     11759    TIP3     H2       HT       0.417000       1.00800           0
     57660 TIP3     11760    TIP3     OH2      OT      -0.834000       15.9994           0
     57661 TIP3     11760    TIP3     H1       HT       0.417000       1.00800           0
     57662 TIP3     11760    TIP3     H2       HT       0.417000       1.00800           0
     57663 TIP3     11761    TIP3     OH2      OT      -0.834000       15.9994           0
     57664 TIP3     11761    TIP3     H1       HT       0.417000       1.00800           0
     57665 TIP3     11761    TIP3     H2       HT       0.417000       1.00800           0
     57666 TIP3     11762    TIP3     OH2      OT      -0.834000       15.9994           0
     57667 TIP3     11762    TIP3     H1       HT       0.417000       1.00800           0
     57668 TIP3     11762    TIP3     H2       HT       0.417000       1.00800           0
     57669 TIP3     11763    TIP3     OH2      OT      -0.834000       15.9994           0
     57670 TIP3     11763    TIP3     H1       HT       0.417000       1.00800           0
     57671 TIP3     11763    TIP3     H2       HT       0.417000       1.00800           0
     57672 TIP3     11764    TIP3     OH2      OT      -0.834000       15.9994           0
     57673 TIP3     11764    TIP3     H1       HT       0.417000       1.00800           0
     57674 TIP3     11764    TIP3     H2       HT       0.417000       1.00800           0
     57675 TIP3     11765    TIP3     OH2      OT      -0.834000       15.9994           0
     57676 TIP3     11765    TIP3     H1       HT       0.417000       1.00800           0
     57677 TIP3     11765    TIP3     H2       HT       0.417000       1.00800           0
     57678 TIP3     11766    TIP3     OH2      OT      -0.834000       15.9994           0
     57679 TIP3     11766    TIP3     H1       HT       0.417000       1.00800           0
     57680 TIP3     11766    TIP3     H2       HT       0.417000       1.00800           0
     57681 TIP3     11767    TIP3     OH2      OT      -0.834000       15.9994           0
     57682 TIP3     11767    TIP3     H1       HT       0.417000       1.00800           0
     57683 TIP3     11767    TIP3     H2       HT       0.417000       1.00800           0
     57684 TIP3     11768    TIP3     OH2      OT      -0.834000       15.9994           0
     57685 TIP3     11768    TIP3     H1       HT       0.417000       1.00800           0
     57686 TIP3     11768    TIP3     H2       HT       0.417000       1.00800           0
     57687 TIP3     11769    TIP3     OH2      OT      -0.834000       15.9994           0
     57688 TIP3     11769    TIP3     H1       HT       0.417000       1.00800           0
     57689 TIP3     11769    TIP3     H2       HT       0.417000       1.00800           0
     57690 TIP3     11770    TIP3     OH2      OT      -0.834000       15.9994           0
     57691 TIP3     11770    TIP3     H1       HT       0.417000       1.00800           0
     57692 TIP3     11770    TIP3     H2       HT       0.417000       1.00800           0
     57693 TIP3     11771    TIP3     OH2      OT      -0.834000       15.9994           0
     57694 TIP3     11771    TIP3     H1       HT       0.417000       1.00800           0
     57695 TIP3     11771    TIP3     H2       HT       0.417000       1.00800           0
     57696 TIP3     11772    TIP3     OH2      OT      -0.834000       15.9994           0
     57697 TIP3     11772    TIP3     H1       HT       0.417000       1.00800           0
     57698 TIP3     11772    TIP3     H2       HT       0.417000       1.00800           0
     57699 TIP3     11773    TIP3     OH2      OT      -0.834000       15.9994           0
     57700 TIP3     11773    TIP3     H1       HT       0.417000       1.00800           0
     57701 TIP3     11773    TIP3     H2       HT       0.417000       1.00800           0
     57702 TIP3     11774    TIP3     OH2      OT      -0.834000       15.9994           0
     57703 TIP3     11774    TIP3     H1       HT       0.417000       1.00800           0
     57704 TIP3     11774    TIP3     H2       HT       0.417000       1.00800           0
     57705 TIP3     11775    TIP3     OH2      OT      -0.834000       15.9994           0
     57706 TIP3     11775    TIP3     H1       HT       0.417000       1.00800           0
     57707 TIP3     11775    TIP3     H2       HT       0.417000       1.00800           0
     57708 TIP3     11776    TIP3     OH2      OT      -0.834000       15.9994           0
     57709 TIP3     11776    TIP3     H1       HT       0.417000       1.00800           0
     57710 TIP3     11776    TIP3     H2       HT       0.417000       1.00800           0
     57711 TIP3     11777    TIP3     OH2      OT      -0.834000       15.9994           0
     57712 TIP3     11777    TIP3     H1       HT       0.417000       1.00800           0
     57713 TIP3     11777    TIP3     H2       HT       0.417000       1.00800           0
     57714 TIP3     11778    TIP3     OH2      OT      -0.834000       15.9994           0
     57715 TIP3     11778    TIP3     H1       HT       0.417000       1.00800           0
     57716 TIP3     11778    TIP3     H2       HT       0.417000       1.00800           0
     57717 TIP3     11779    TIP3     OH2      OT      -0.834000       15.9994           0
     57718 TIP3     11779    TIP3     H1       HT       0.417000       1.00800           0
     57719 TIP3     11779    TIP3     H2       HT       0.417000       1.00800           0
     57720 TIP3     11780    TIP3     OH2      OT      -0.834000       15.9994           0
     57721 TIP3     11780    TIP3     H1       HT       0.417000       1.00800           0
     57722 TIP3     11780    TIP3     H2       HT       0.417000       1.00800           0
     57723 TIP3     11781    TIP3     OH2      OT      -0.834000       15.9994           0
     57724 TIP3     11781    TIP3     H1       HT       0.417000       1.00800           0
     57725 TIP3     11781    TIP3     H2       HT       0.417000       1.00800           0
     57726 TIP3     11782    TIP3     OH2      OT      -0.834000       15.9994           0
     57727 TIP3     11782    TIP3     H1       HT       0.417000       1.00800           0
     57728 TIP3     11782    TIP3     H2       HT       0.417000       1.00800           0
     57729 TIP3     11783    TIP3     OH2      OT      -0.834000       15.9994           0
     57730 TIP3     11783    TIP3     H1       HT       0.417000       1.00800           0
     57731 TIP3     11783    TIP3     H2       HT       0.417000       1.00800           0
     57732 TIP3     11784    TIP3     OH2      OT      -0.834000       15.9994           0
     57733 TIP3     11784    TIP3     H1       HT       0.417000       1.00800           0
     57734 TIP3     11784    TIP3     H2       HT       0.417000       1.00800           0
     57735 TIP3     11785    TIP3     OH2      OT      -0.834000       15.9994           0
     57736 TIP3     11785    TIP3     H1       HT       0.417000       1.00800           0
     57737 TIP3     11785    TIP3     H2       HT       0.417000       1.00800           0
     57738 TIP3     11786    TIP3     OH2      OT      -0.834000       15.9994           0
     57739 TIP3     11786    TIP3     H1       HT       0.417000       1.00800           0
     57740 TIP3     11786    TIP3     H2       HT       0.417000       1.00800           0
     57741 TIP3     11787    TIP3     OH2      OT      -0.834000       15.9994           0
     57742 TIP3     11787    TIP3     H1       HT       0.417000       1.00800           0
     57743 TIP3     11787    TIP3     H2       HT       0.417000       1.00800           0
     57744 TIP3     11788    TIP3     OH2      OT      -0.834000       15.9994           0
     57745 TIP3     11788    TIP3     H1       HT       0.417000       1.00800           0
     57746 TIP3     11788    TIP3     H2       HT       0.417000       1.00800           0
     57747 TIP3     11789    TIP3     OH2      OT      -0.834000       15.9994           0
     57748 TIP3     11789    TIP3     H1       HT       0.417000       1.00800           0
     57749 TIP3     11789    TIP3     H2       HT       0.417000       1.00800           0
     57750 TIP3     11790    TIP3     OH2      OT      -0.834000       15.9994           0
     57751 TIP3     11790    TIP3     H1       HT       0.417000       1.00800           0
     57752 TIP3     11790    TIP3     H2       HT       0.417000       1.00800           0
     57753 TIP3     11791    TIP3     OH2      OT      -0.834000       15.9994           0
     57754 TIP3     11791    TIP3     H1       HT       0.417000       1.00800           0
     57755 TIP3     11791    TIP3     H2       HT       0.417000       1.00800           0
     57756 TIP3     11792    TIP3     OH2      OT      -0.834000       15.9994           0
     57757 TIP3     11792    TIP3     H1       HT       0.417000       1.00800           0
     57758 TIP3     11792    TIP3     H2       HT       0.417000       1.00800           0
     57759 TIP3     11793    TIP3     OH2      OT      -0.834000       15.9994           0
     57760 TIP3     11793    TIP3     H1       HT       0.417000       1.00800           0
     57761 TIP3     11793    TIP3     H2       HT       0.417000       1.00800           0
     57762 TIP3     11794    TIP3     OH2      OT      -0.834000       15.9994           0
     57763 TIP3     11794    TIP3     H1       HT       0.417000       1.00800           0
     57764 TIP3     11794    TIP3     H2       HT       0.417000       1.00800           0
     57765 TIP3     11795    TIP3     OH2      OT      -0.834000       15.9994           0
     57766 TIP3     11795    TIP3     H1       HT       0.417000       1.00800           0
     57767 TIP3     11795    TIP3     H2       HT       0.417000       1.00800           0
     57768 TIP3     11796    TIP3     OH2      OT      -0.834000       15.9994           0
     57769 TIP3     11796    TIP3     H1       HT       0.417000       1.00800           0
     57770 TIP3     11796    TIP3     H2       HT       0.417000       1.00800           0
     57771 TIP3     11797    TIP3     OH2      OT      -0.834000       15.9994           0
     57772 TIP3     11797    TIP3     H1       HT       0.417000       1.00800           0
     57773 TIP3     11797    TIP3     H2       HT       0.417000       1.00800           0
     57774 TIP3     11798    TIP3     OH2      OT      -0.834000       15.9994           0
     57775 TIP3     11798    TIP3     H1       HT       0.417000       1.00800           0
     57776 TIP3     11798    TIP3     H2       HT       0.417000       1.00800           0
     57777 TIP3     11799    TIP3     OH2      OT      -0.834000       15.9994           0
     57778 TIP3     11799    TIP3     H1       HT       0.417000       1.00800           0
     57779 TIP3     11799    TIP3     H2       HT       0.417000       1.00800           0
     57780 TIP3     11800    TIP3     OH2      OT      -0.834000       15.9994           0
     57781 TIP3     11800    TIP3     H1       HT       0.417000       1.00800           0
     57782 TIP3     11800    TIP3     H2       HT       0.417000       1.00800           0
     57783 TIP3     11801    TIP3     OH2      OT      -0.834000       15.9994           0
     57784 TIP3     11801    TIP3     H1       HT       0.417000       1.00800           0
     57785 TIP3     11801    TIP3     H2       HT       0.417000       1.00800           0
     57786 TIP3     11802    TIP3     OH2      OT      -0.834000       15.9994           0
     57787 TIP3     11802    TIP3     H1       HT       0.417000       1.00800           0
     57788 TIP3     11802    TIP3     H2       HT       0.417000       1.00800           0
     57789 TIP3     11803    TIP3     OH2      OT      -0.834000       15.9994           0
     57790 TIP3     11803    TIP3     H1       HT       0.417000       1.00800           0
     57791 TIP3     11803    TIP3     H2       HT       0.417000       1.00800           0
     57792 TIP3     11804    TIP3     OH2      OT      -0.834000       15.9994           0
     57793 TIP3     11804    TIP3     H1       HT       0.417000       1.00800           0
     57794 TIP3     11804    TIP3     H2       HT       0.417000       1.00800           0
     57795 TIP3     11805    TIP3     OH2      OT      -0.834000       15.9994           0
     57796 TIP3     11805    TIP3     H1       HT       0.417000       1.00800           0
     57797 TIP3     11805    TIP3     H2       HT       0.417000       1.00800           0
     57798 TIP3     11806    TIP3     OH2      OT      -0.834000       15.9994           0
     57799 TIP3     11806    TIP3     H1       HT       0.417000       1.00800           0
     57800 TIP3     11806    TIP3     H2       HT       0.417000       1.00800           0
     57801 TIP3     11807    TIP3     OH2      OT      -0.834000       15.9994           0
     57802 TIP3     11807    TIP3     H1       HT       0.417000       1.00800           0
     57803 TIP3     11807    TIP3     H2       HT       0.417000       1.00800           0
     57804 TIP3     11808    TIP3     OH2      OT      -0.834000       15.9994           0
     57805 TIP3     11808    TIP3     H1       HT       0.417000       1.00800           0
     57806 TIP3     11808    TIP3     H2       HT       0.417000       1.00800           0
     57807 TIP3     11809    TIP3     OH2      OT      -0.834000       15.9994           0
     57808 TIP3     11809    TIP3     H1       HT       0.417000       1.00800           0
     57809 TIP3     11809    TIP3     H2       HT       0.417000       1.00800           0
     57810 TIP3     11810    TIP3     OH2      OT      -0.834000       15.9994           0
     57811 TIP3     11810    TIP3     H1       HT       0.417000       1.00800           0
     57812 TIP3     11810    TIP3     H2       HT       0.417000       1.00800           0
     57813 TIP3     11811    TIP3     OH2      OT      -0.834000       15.9994           0
     57814 TIP3     11811    TIP3     H1       HT       0.417000       1.00800           0
     57815 TIP3     11811    TIP3     H2       HT       0.417000       1.00800           0
     57816 TIP3     11812    TIP3     OH2      OT      -0.834000       15.9994           0
     57817 TIP3     11812    TIP3     H1       HT       0.417000       1.00800           0
     57818 TIP3     11812    TIP3     H2       HT       0.417000       1.00800           0
     57819 TIP3     11813    TIP3     OH2      OT      -0.834000       15.9994           0
     57820 TIP3     11813    TIP3     H1       HT       0.417000       1.00800           0
     57821 TIP3     11813    TIP3     H2       HT       0.417000       1.00800           0
     57822 TIP3     11814    TIP3     OH2      OT      -0.834000       15.9994           0
     57823 TIP3     11814    TIP3     H1       HT       0.417000       1.00800           0
     57824 TIP3     11814    TIP3     H2       HT       0.417000       1.00800           0
     57825 TIP3     11815    TIP3     OH2      OT      -0.834000       15.9994           0
     57826 TIP3     11815    TIP3     H1       HT       0.417000       1.00800           0
     57827 TIP3     11815    TIP3     H2       HT       0.417000       1.00800           0
     57828 TIP3     11816    TIP3     OH2      OT      -0.834000       15.9994           0
     57829 TIP3     11816    TIP3     H1       HT       0.417000       1.00800           0
     57830 TIP3     11816    TIP3     H2       HT       0.417000       1.00800           0
     57831 TIP3     11817    TIP3     OH2      OT      -0.834000       15.9994           0
     57832 TIP3     11817    TIP3     H1       HT       0.417000       1.00800           0
     57833 TIP3     11817    TIP3     H2       HT       0.417000       1.00800           0
     57834 TIP3     11818    TIP3     OH2      OT      -0.834000       15.9994           0
     57835 TIP3     11818    TIP3     H1       HT       0.417000       1.00800           0
     57836 TIP3     11818    TIP3     H2       HT       0.417000       1.00800           0
     57837 TIP3     11819    TIP3     OH2      OT      -0.834000       15.9994           0
     57838 TIP3     11819    TIP3     H1       HT       0.417000       1.00800           0
     57839 TIP3     11819    TIP3     H2       HT       0.417000       1.00800           0
     57840 TIP3     11820    TIP3     OH2      OT      -0.834000       15.9994           0
     57841 TIP3     11820    TIP3     H1       HT       0.417000       1.00800           0
     57842 TIP3     11820    TIP3     H2       HT       0.417000       1.00800           0
     57843 TIP3     11821    TIP3     OH2      OT      -0.834000       15.9994           0
     57844 TIP3     11821    TIP3     H1       HT       0.417000       1.00800           0
     57845 TIP3     11821    TIP3     H2       HT       0.417000       1.00800           0
     57846 TIP3     11822    TIP3     OH2      OT      -0.834000       15.9994           0
     57847 TIP3     11822    TIP3     H1       HT       0.417000       1.00800           0
     57848 TIP3     11822    TIP3     H2       HT       0.417000       1.00800           0
     57849 TIP3     11823    TIP3     OH2      OT      -0.834000       15.9994           0
     57850 TIP3     11823    TIP3     H1       HT       0.417000       1.00800           0
     57851 TIP3     11823    TIP3     H2       HT       0.417000       1.00800           0
     57852 TIP3     11824    TIP3     OH2      OT      -0.834000       15.9994           0
     57853 TIP3     11824    TIP3     H1       HT       0.417000       1.00800           0
     57854 TIP3     11824    TIP3     H2       HT       0.417000       1.00800           0
     57855 TIP3     11825    TIP3     OH2      OT      -0.834000       15.9994           0
     57856 TIP3     11825    TIP3     H1       HT       0.417000       1.00800           0
     57857 TIP3     11825    TIP3     H2       HT       0.417000       1.00800           0
     57858 TIP3     11826    TIP3     OH2      OT      -0.834000       15.9994           0
     57859 TIP3     11826    TIP3     H1       HT       0.417000       1.00800           0
     57860 TIP3     11826    TIP3     H2       HT       0.417000       1.00800           0
     57861 TIP3     11827    TIP3     OH2      OT      -0.834000       15.9994           0
     57862 TIP3     11827    TIP3     H1       HT       0.417000       1.00800           0
     57863 TIP3     11827    TIP3     H2       HT       0.417000       1.00800           0
     57864 TIP3     11828    TIP3     OH2      OT      -0.834000       15.9994           0
     57865 TIP3     11828    TIP3     H1       HT       0.417000       1.00800           0
     57866 TIP3     11828    TIP3     H2       HT       0.417000       1.00800           0
     57867 TIP3     11829    TIP3     OH2      OT      -0.834000       15.9994           0
     57868 TIP3     11829    TIP3     H1       HT       0.417000       1.00800           0
     57869 TIP3     11829    TIP3     H2       HT       0.417000       1.00800           0
     57870 TIP3     11830    TIP3     OH2      OT      -0.834000       15.9994           0
     57871 TIP3     11830    TIP3     H1       HT       0.417000       1.00800           0
     57872 TIP3     11830    TIP3     H2       HT       0.417000       1.00800           0
     57873 TIP3     11831    TIP3     OH2      OT      -0.834000       15.9994           0
     57874 TIP3     11831    TIP3     H1       HT       0.417000       1.00800           0
     57875 TIP3     11831    TIP3     H2       HT       0.417000       1.00800           0
     57876 TIP3     11832    TIP3     OH2      OT      -0.834000       15.9994           0
     57877 TIP3     11832    TIP3     H1       HT       0.417000       1.00800           0
     57878 TIP3     11832    TIP3     H2       HT       0.417000       1.00800           0
     57879 TIP3     11833    TIP3     OH2      OT      -0.834000       15.9994           0
     57880 TIP3     11833    TIP3     H1       HT       0.417000       1.00800           0
     57881 TIP3     11833    TIP3     H2       HT       0.417000       1.00800           0
     57882 TIP3     11834    TIP3     OH2      OT      -0.834000       15.9994           0
     57883 TIP3     11834    TIP3     H1       HT       0.417000       1.00800           0
     57884 TIP3     11834    TIP3     H2       HT       0.417000       1.00800           0
     57885 TIP3     11835    TIP3     OH2      OT      -0.834000       15.9994           0
     57886 TIP3     11835    TIP3     H1       HT       0.417000       1.00800           0
     57887 TIP3     11835    TIP3     H2       HT       0.417000       1.00800           0
     57888 TIP3     11836    TIP3     OH2      OT      -0.834000       15.9994           0
     57889 TIP3     11836    TIP3     H1       HT       0.417000       1.00800           0
     57890 TIP3     11836    TIP3     H2       HT       0.417000       1.00800           0
     57891 TIP3     11837    TIP3     OH2      OT      -0.834000       15.9994           0
     57892 TIP3     11837    TIP3     H1       HT       0.417000       1.00800           0
     57893 TIP3     11837    TIP3     H2       HT       0.417000       1.00800           0
     57894 TIP3     11838    TIP3     OH2      OT      -0.834000       15.9994           0
     57895 TIP3     11838    TIP3     H1       HT       0.417000       1.00800           0
     57896 TIP3     11838    TIP3     H2       HT       0.417000       1.00800           0
     57897 TIP3     11839    TIP3     OH2      OT      -0.834000       15.9994           0
     57898 TIP3     11839    TIP3     H1       HT       0.417000       1.00800           0
     57899 TIP3     11839    TIP3     H2       HT       0.417000       1.00800           0
     57900 TIP3     11840    TIP3     OH2      OT      -0.834000       15.9994           0
     57901 TIP3     11840    TIP3     H1       HT       0.417000       1.00800           0
     57902 TIP3     11840    TIP3     H2       HT       0.417000       1.00800           0
     57903 TIP3     11841    TIP3     OH2      OT      -0.834000       15.9994           0
     57904 TIP3     11841    TIP3     H1       HT       0.417000       1.00800           0
     57905 TIP3     11841    TIP3     H2       HT       0.417000       1.00800           0
     57906 TIP3     11842    TIP3     OH2      OT      -0.834000       15.9994           0
     57907 TIP3     11842    TIP3     H1       HT       0.417000       1.00800           0
     57908 TIP3     11842    TIP3     H2       HT       0.417000       1.00800           0
     57909 TIP3     11843    TIP3     OH2      OT      -0.834000       15.9994           0
     57910 TIP3     11843    TIP3     H1       HT       0.417000       1.00800           0
     57911 TIP3     11843    TIP3     H2       HT       0.417000       1.00800           0
     57912 TIP3     11844    TIP3     OH2      OT      -0.834000       15.9994           0
     57913 TIP3     11844    TIP3     H1       HT       0.417000       1.00800           0
     57914 TIP3     11844    TIP3     H2       HT       0.417000       1.00800           0
     57915 TIP3     11845    TIP3     OH2      OT      -0.834000       15.9994           0
     57916 TIP3     11845    TIP3     H1       HT       0.417000       1.00800           0
     57917 TIP3     11845    TIP3     H2       HT       0.417000       1.00800           0
     57918 TIP3     11846    TIP3     OH2      OT      -0.834000       15.9994           0
     57919 TIP3     11846    TIP3     H1       HT       0.417000       1.00800           0
     57920 TIP3     11846    TIP3     H2       HT       0.417000       1.00800           0
     57921 TIP3     11847    TIP3     OH2      OT      -0.834000       15.9994           0
     57922 TIP3     11847    TIP3     H1       HT       0.417000       1.00800           0
     57923 TIP3     11847    TIP3     H2       HT       0.417000       1.00800           0
     57924 TIP3     11848    TIP3     OH2      OT      -0.834000       15.9994           0
     57925 TIP3     11848    TIP3     H1       HT       0.417000       1.00800           0
     57926 TIP3     11848    TIP3     H2       HT       0.417000       1.00800           0
     57927 TIP3     11849    TIP3     OH2      OT      -0.834000       15.9994           0
     57928 TIP3     11849    TIP3     H1       HT       0.417000       1.00800           0
     57929 TIP3     11849    TIP3     H2       HT       0.417000       1.00800           0
     57930 TIP3     11850    TIP3     OH2      OT      -0.834000       15.9994           0
     57931 TIP3     11850    TIP3     H1       HT       0.417000       1.00800           0
     57932 TIP3     11850    TIP3     H2       HT       0.417000       1.00800           0
     57933 TIP3     11851    TIP3     OH2      OT      -0.834000       15.9994           0
     57934 TIP3     11851    TIP3     H1       HT       0.417000       1.00800           0
     57935 TIP3     11851    TIP3     H2       HT       0.417000       1.00800           0
     57936 TIP3     11852    TIP3     OH2      OT      -0.834000       15.9994           0
     57937 TIP3     11852    TIP3     H1       HT       0.417000       1.00800           0
     57938 TIP3     11852    TIP3     H2       HT       0.417000       1.00800           0
     57939 TIP3     11853    TIP3     OH2      OT      -0.834000       15.9994           0
     57940 TIP3     11853    TIP3     H1       HT       0.417000       1.00800           0
     57941 TIP3     11853    TIP3     H2       HT       0.417000       1.00800           0
     57942 TIP3     11854    TIP3     OH2      OT      -0.834000       15.9994           0
     57943 TIP3     11854    TIP3     H1       HT       0.417000       1.00800           0
     57944 TIP3     11854    TIP3     H2       HT       0.417000       1.00800           0
     57945 TIP3     11855    TIP3     OH2      OT      -0.834000       15.9994           0
     57946 TIP3     11855    TIP3     H1       HT       0.417000       1.00800           0
     57947 TIP3     11855    TIP3     H2       HT       0.417000       1.00800           0
     57948 TIP3     11856    TIP3     OH2      OT      -0.834000       15.9994           0
     57949 TIP3     11856    TIP3     H1       HT       0.417000       1.00800           0
     57950 TIP3     11856    TIP3     H2       HT       0.417000       1.00800           0
     57951 TIP3     11857    TIP3     OH2      OT      -0.834000       15.9994           0
     57952 TIP3     11857    TIP3     H1       HT       0.417000       1.00800           0
     57953 TIP3     11857    TIP3     H2       HT       0.417000       1.00800           0
     57954 TIP3     11858    TIP3     OH2      OT      -0.834000       15.9994           0
     57955 TIP3     11858    TIP3     H1       HT       0.417000       1.00800           0
     57956 TIP3     11858    TIP3     H2       HT       0.417000       1.00800           0
     57957 TIP3     11859    TIP3     OH2      OT      -0.834000       15.9994           0
     57958 TIP3     11859    TIP3     H1       HT       0.417000       1.00800           0
     57959 TIP3     11859    TIP3     H2       HT       0.417000       1.00800           0
     57960 TIP3     11860    TIP3     OH2      OT      -0.834000       15.9994           0
     57961 TIP3     11860    TIP3     H1       HT       0.417000       1.00800           0
     57962 TIP3     11860    TIP3     H2       HT       0.417000       1.00800           0
     57963 TIP3     11861    TIP3     OH2      OT      -0.834000       15.9994           0
     57964 TIP3     11861    TIP3     H1       HT       0.417000       1.00800           0
     57965 TIP3     11861    TIP3     H2       HT       0.417000       1.00800           0
     57966 TIP3     11862    TIP3     OH2      OT      -0.834000       15.9994           0
     57967 TIP3     11862    TIP3     H1       HT       0.417000       1.00800           0
     57968 TIP3     11862    TIP3     H2       HT       0.417000       1.00800           0
     57969 TIP3     11863    TIP3     OH2      OT      -0.834000       15.9994           0
     57970 TIP3     11863    TIP3     H1       HT       0.417000       1.00800           0
     57971 TIP3     11863    TIP3     H2       HT       0.417000       1.00800           0
     57972 TIP3     11864    TIP3     OH2      OT      -0.834000       15.9994           0
     57973 TIP3     11864    TIP3     H1       HT       0.417000       1.00800           0
     57974 TIP3     11864    TIP3     H2       HT       0.417000       1.00800           0
     57975 TIP3     11865    TIP3     OH2      OT      -0.834000       15.9994           0
     57976 TIP3     11865    TIP3     H1       HT       0.417000       1.00800           0
     57977 TIP3     11865    TIP3     H2       HT       0.417000       1.00800           0
     57978 TIP3     11866    TIP3     OH2      OT      -0.834000       15.9994           0
     57979 TIP3     11866    TIP3     H1       HT       0.417000       1.00800           0
     57980 TIP3     11866    TIP3     H2       HT       0.417000       1.00800           0
     57981 TIP3     11867    TIP3     OH2      OT      -0.834000       15.9994           0
     57982 TIP3     11867    TIP3     H1       HT       0.417000       1.00800           0
     57983 TIP3     11867    TIP3     H2       HT       0.417000       1.00800           0
     57984 TIP3     11868    TIP3     OH2      OT      -0.834000       15.9994           0
     57985 TIP3     11868    TIP3     H1       HT       0.417000       1.00800           0
     57986 TIP3     11868    TIP3     H2       HT       0.417000       1.00800           0
     57987 TIP3     11869    TIP3     OH2      OT      -0.834000       15.9994           0
     57988 TIP3     11869    TIP3     H1       HT       0.417000       1.00800           0
     57989 TIP3     11869    TIP3     H2       HT       0.417000       1.00800           0
     57990 TIP3     11870    TIP3     OH2      OT      -0.834000       15.9994           0
     57991 TIP3     11870    TIP3     H1       HT       0.417000       1.00800           0
     57992 TIP3     11870    TIP3     H2       HT       0.417000       1.00800           0
     57993 TIP3     11871    TIP3     OH2      OT      -0.834000       15.9994           0
     57994 TIP3     11871    TIP3     H1       HT       0.417000       1.00800           0
     57995 TIP3     11871    TIP3     H2       HT       0.417000       1.00800           0
     57996 TIP3     11872    TIP3     OH2      OT      -0.834000       15.9994           0
     57997 TIP3     11872    TIP3     H1       HT       0.417000       1.00800           0
     57998 TIP3     11872    TIP3     H2       HT       0.417000       1.00800           0
     57999 TIP3     11873    TIP3     OH2      OT      -0.834000       15.9994           0
     58000 TIP3     11873    TIP3     H1       HT       0.417000       1.00800           0
     58001 TIP3     11873    TIP3     H2       HT       0.417000       1.00800           0
     58002 TIP3     11874    TIP3     OH2      OT      -0.834000       15.9994           0
     58003 TIP3     11874    TIP3     H1       HT       0.417000       1.00800           0
     58004 TIP3     11874    TIP3     H2       HT       0.417000       1.00800           0
     58005 TIP3     11875    TIP3     OH2      OT      -0.834000       15.9994           0
     58006 TIP3     11875    TIP3     H1       HT       0.417000       1.00800           0
     58007 TIP3     11875    TIP3     H2       HT       0.417000       1.00800           0
     58008 TIP3     11876    TIP3     OH2      OT      -0.834000       15.9994           0
     58009 TIP3     11876    TIP3     H1       HT       0.417000       1.00800           0
     58010 TIP3     11876    TIP3     H2       HT       0.417000       1.00800           0
     58011 TIP3     11877    TIP3     OH2      OT      -0.834000       15.9994           0
     58012 TIP3     11877    TIP3     H1       HT       0.417000       1.00800           0
     58013 TIP3     11877    TIP3     H2       HT       0.417000       1.00800           0
     58014 TIP3     11878    TIP3     OH2      OT      -0.834000       15.9994           0
     58015 TIP3     11878    TIP3     H1       HT       0.417000       1.00800           0
     58016 TIP3     11878    TIP3     H2       HT       0.417000       1.00800           0
     58017 TIP3     11879    TIP3     OH2      OT      -0.834000       15.9994           0
     58018 TIP3     11879    TIP3     H1       HT       0.417000       1.00800           0
     58019 TIP3     11879    TIP3     H2       HT       0.417000       1.00800           0
     58020 TIP3     11880    TIP3     OH2      OT      -0.834000       15.9994           0
     58021 TIP3     11880    TIP3     H1       HT       0.417000       1.00800           0
     58022 TIP3     11880    TIP3     H2       HT       0.417000       1.00800           0
     58023 TIP3     11881    TIP3     OH2      OT      -0.834000       15.9994           0
     58024 TIP3     11881    TIP3     H1       HT       0.417000       1.00800           0
     58025 TIP3     11881    TIP3     H2       HT       0.417000       1.00800           0
     58026 TIP3     11882    TIP3     OH2      OT      -0.834000       15.9994           0
     58027 TIP3     11882    TIP3     H1       HT       0.417000       1.00800           0
     58028 TIP3     11882    TIP3     H2       HT       0.417000       1.00800           0
     58029 TIP3     11883    TIP3     OH2      OT      -0.834000       15.9994           0
     58030 TIP3     11883    TIP3     H1       HT       0.417000       1.00800           0
     58031 TIP3     11883    TIP3     H2       HT       0.417000       1.00800           0
     58032 TIP3     11884    TIP3     OH2      OT      -0.834000       15.9994           0
     58033 TIP3     11884    TIP3     H1       HT       0.417000       1.00800           0
     58034 TIP3     11884    TIP3     H2       HT       0.417000       1.00800           0
     58035 TIP3     11885    TIP3     OH2      OT      -0.834000       15.9994           0
     58036 TIP3     11885    TIP3     H1       HT       0.417000       1.00800           0
     58037 TIP3     11885    TIP3     H2       HT       0.417000       1.00800           0
     58038 TIP3     11886    TIP3     OH2      OT      -0.834000       15.9994           0
     58039 TIP3     11886    TIP3     H1       HT       0.417000       1.00800           0
     58040 TIP3     11886    TIP3     H2       HT       0.417000       1.00800           0
     58041 TIP3     11887    TIP3     OH2      OT      -0.834000       15.9994           0
     58042 TIP3     11887    TIP3     H1       HT       0.417000       1.00800           0
     58043 TIP3     11887    TIP3     H2       HT       0.417000       1.00800           0
     58044 TIP3     11888    TIP3     OH2      OT      -0.834000       15.9994           0
     58045 TIP3     11888    TIP3     H1       HT       0.417000       1.00800           0
     58046 TIP3     11888    TIP3     H2       HT       0.417000       1.00800           0
     58047 TIP3     11889    TIP3     OH2      OT      -0.834000       15.9994           0
     58048 TIP3     11889    TIP3     H1       HT       0.417000       1.00800           0
     58049 TIP3     11889    TIP3     H2       HT       0.417000       1.00800           0
     58050 TIP3     11890    TIP3     OH2      OT      -0.834000       15.9994           0
     58051 TIP3     11890    TIP3     H1       HT       0.417000       1.00800           0
     58052 TIP3     11890    TIP3     H2       HT       0.417000       1.00800           0
     58053 TIP3     11891    TIP3     OH2      OT      -0.834000       15.9994           0
     58054 TIP3     11891    TIP3     H1       HT       0.417000       1.00800           0
     58055 TIP3     11891    TIP3     H2       HT       0.417000       1.00800           0
     58056 TIP3     11892    TIP3     OH2      OT      -0.834000       15.9994           0
     58057 TIP3     11892    TIP3     H1       HT       0.417000       1.00800           0
     58058 TIP3     11892    TIP3     H2       HT       0.417000       1.00800           0
     58059 TIP3     11893    TIP3     OH2      OT      -0.834000       15.9994           0
     58060 TIP3     11893    TIP3     H1       HT       0.417000       1.00800           0
     58061 TIP3     11893    TIP3     H2       HT       0.417000       1.00800           0
     58062 TIP3     11894    TIP3     OH2      OT      -0.834000       15.9994           0
     58063 TIP3     11894    TIP3     H1       HT       0.417000       1.00800           0
     58064 TIP3     11894    TIP3     H2       HT       0.417000       1.00800           0
     58065 TIP3     11895    TIP3     OH2      OT      -0.834000       15.9994           0
     58066 TIP3     11895    TIP3     H1       HT       0.417000       1.00800           0
     58067 TIP3     11895    TIP3     H2       HT       0.417000       1.00800           0
     58068 TIP3     11896    TIP3     OH2      OT      -0.834000       15.9994           0
     58069 TIP3     11896    TIP3     H1       HT       0.417000       1.00800           0
     58070 TIP3     11896    TIP3     H2       HT       0.417000       1.00800           0
     58071 TIP3     11897    TIP3     OH2      OT      -0.834000       15.9994           0
     58072 TIP3     11897    TIP3     H1       HT       0.417000       1.00800           0
     58073 TIP3     11897    TIP3     H2       HT       0.417000       1.00800           0
     58074 TIP3     11898    TIP3     OH2      OT      -0.834000       15.9994           0
     58075 TIP3     11898    TIP3     H1       HT       0.417000       1.00800           0
     58076 TIP3     11898    TIP3     H2       HT       0.417000       1.00800           0
     58077 TIP3     11899    TIP3     OH2      OT      -0.834000       15.9994           0
     58078 TIP3     11899    TIP3     H1       HT       0.417000       1.00800           0
     58079 TIP3     11899    TIP3     H2       HT       0.417000       1.00800           0
     58080 TIP3     11900    TIP3     OH2      OT      -0.834000       15.9994           0
     58081 TIP3     11900    TIP3     H1       HT       0.417000       1.00800           0
     58082 TIP3     11900    TIP3     H2       HT       0.417000       1.00800           0
     58083 TIP3     11901    TIP3     OH2      OT      -0.834000       15.9994           0
     58084 TIP3     11901    TIP3     H1       HT       0.417000       1.00800           0
     58085 TIP3     11901    TIP3     H2       HT       0.417000       1.00800           0
     58086 TIP3     11902    TIP3     OH2      OT      -0.834000       15.9994           0
     58087 TIP3     11902    TIP3     H1       HT       0.417000       1.00800           0
     58088 TIP3     11902    TIP3     H2       HT       0.417000       1.00800           0
     58089 TIP3     11903    TIP3     OH2      OT      -0.834000       15.9994           0
     58090 TIP3     11903    TIP3     H1       HT       0.417000       1.00800           0
     58091 TIP3     11903    TIP3     H2       HT       0.417000       1.00800           0
     58092 TIP3     11904    TIP3     OH2      OT      -0.834000       15.9994           0
     58093 TIP3     11904    TIP3     H1       HT       0.417000       1.00800           0
     58094 TIP3     11904    TIP3     H2       HT       0.417000       1.00800           0
     58095 TIP3     11905    TIP3     OH2      OT      -0.834000       15.9994           0
     58096 TIP3     11905    TIP3     H1       HT       0.417000       1.00800           0
     58097 TIP3     11905    TIP3     H2       HT       0.417000       1.00800           0
     58098 TIP3     11906    TIP3     OH2      OT      -0.834000       15.9994           0
     58099 TIP3     11906    TIP3     H1       HT       0.417000       1.00800           0
     58100 TIP3     11906    TIP3     H2       HT       0.417000       1.00800           0
     58101 TIP3     11907    TIP3     OH2      OT      -0.834000       15.9994           0
     58102 TIP3     11907    TIP3     H1       HT       0.417000       1.00800           0
     58103 TIP3     11907    TIP3     H2       HT       0.417000       1.00800           0
     58104 TIP3     11908    TIP3     OH2      OT      -0.834000       15.9994           0
     58105 TIP3     11908    TIP3     H1       HT       0.417000       1.00800           0
     58106 TIP3     11908    TIP3     H2       HT       0.417000       1.00800           0
     58107 TIP3     11909    TIP3     OH2      OT      -0.834000       15.9994           0
     58108 TIP3     11909    TIP3     H1       HT       0.417000       1.00800           0
     58109 TIP3     11909    TIP3     H2       HT       0.417000       1.00800           0
     58110 TIP3     11910    TIP3     OH2      OT      -0.834000       15.9994           0
     58111 TIP3     11910    TIP3     H1       HT       0.417000       1.00800           0
     58112 TIP3     11910    TIP3     H2       HT       0.417000       1.00800           0
     58113 TIP3     11911    TIP3     OH2      OT      -0.834000       15.9994           0
     58114 TIP3     11911    TIP3     H1       HT       0.417000       1.00800           0
     58115 TIP3     11911    TIP3     H2       HT       0.417000       1.00800           0
     58116 TIP3     11912    TIP3     OH2      OT      -0.834000       15.9994           0
     58117 TIP3     11912    TIP3     H1       HT       0.417000       1.00800           0
     58118 TIP3     11912    TIP3     H2       HT       0.417000       1.00800           0
     58119 TIP3     11913    TIP3     OH2      OT      -0.834000       15.9994           0
     58120 TIP3     11913    TIP3     H1       HT       0.417000       1.00800           0
     58121 TIP3     11913    TIP3     H2       HT       0.417000       1.00800           0
     58122 TIP3     11914    TIP3     OH2      OT      -0.834000       15.9994           0
     58123 TIP3     11914    TIP3     H1       HT       0.417000       1.00800           0
     58124 TIP3     11914    TIP3     H2       HT       0.417000       1.00800           0
     58125 TIP3     11915    TIP3     OH2      OT      -0.834000       15.9994           0
     58126 TIP3     11915    TIP3     H1       HT       0.417000       1.00800           0
     58127 TIP3     11915    TIP3     H2       HT       0.417000       1.00800           0
     58128 TIP3     11916    TIP3     OH2      OT      -0.834000       15.9994           0
     58129 TIP3     11916    TIP3     H1       HT       0.417000       1.00800           0
     58130 TIP3     11916    TIP3     H2       HT       0.417000       1.00800           0
     58131 TIP3     11917    TIP3     OH2      OT      -0.834000       15.9994           0
     58132 TIP3     11917    TIP3     H1       HT       0.417000       1.00800           0
     58133 TIP3     11917    TIP3     H2       HT       0.417000       1.00800           0
     58134 TIP3     11918    TIP3     OH2      OT      -0.834000       15.9994           0
     58135 TIP3     11918    TIP3     H1       HT       0.417000       1.00800           0
     58136 TIP3     11918    TIP3     H2       HT       0.417000       1.00800           0
     58137 TIP3     11919    TIP3     OH2      OT      -0.834000       15.9994           0
     58138 TIP3     11919    TIP3     H1       HT       0.417000       1.00800           0
     58139 TIP3     11919    TIP3     H2       HT       0.417000       1.00800           0
     58140 TIP3     11920    TIP3     OH2      OT      -0.834000       15.9994           0
     58141 TIP3     11920    TIP3     H1       HT       0.417000       1.00800           0
     58142 TIP3     11920    TIP3     H2       HT       0.417000       1.00800           0
     58143 TIP3     11921    TIP3     OH2      OT      -0.834000       15.9994           0
     58144 TIP3     11921    TIP3     H1       HT       0.417000       1.00800           0
     58145 TIP3     11921    TIP3     H2       HT       0.417000       1.00800           0
     58146 TIP3     11922    TIP3     OH2      OT      -0.834000       15.9994           0
     58147 TIP3     11922    TIP3     H1       HT       0.417000       1.00800           0
     58148 TIP3     11922    TIP3     H2       HT       0.417000       1.00800           0
     58149 TIP3     11923    TIP3     OH2      OT      -0.834000       15.9994           0
     58150 TIP3     11923    TIP3     H1       HT       0.417000       1.00800           0
     58151 TIP3     11923    TIP3     H2       HT       0.417000       1.00800           0
     58152 TIP3     11924    TIP3     OH2      OT      -0.834000       15.9994           0
     58153 TIP3     11924    TIP3     H1       HT       0.417000       1.00800           0
     58154 TIP3     11924    TIP3     H2       HT       0.417000       1.00800           0
     58155 TIP3     11925    TIP3     OH2      OT      -0.834000       15.9994           0
     58156 TIP3     11925    TIP3     H1       HT       0.417000       1.00800           0
     58157 TIP3     11925    TIP3     H2       HT       0.417000       1.00800           0
     58158 TIP3     11926    TIP3     OH2      OT      -0.834000       15.9994           0
     58159 TIP3     11926    TIP3     H1       HT       0.417000       1.00800           0
     58160 TIP3     11926    TIP3     H2       HT       0.417000       1.00800           0
     58161 TIP3     11927    TIP3     OH2      OT      -0.834000       15.9994           0
     58162 TIP3     11927    TIP3     H1       HT       0.417000       1.00800           0
     58163 TIP3     11927    TIP3     H2       HT       0.417000       1.00800           0
     58164 TIP3     11928    TIP3     OH2      OT      -0.834000       15.9994           0
     58165 TIP3     11928    TIP3     H1       HT       0.417000       1.00800           0
     58166 TIP3     11928    TIP3     H2       HT       0.417000       1.00800           0
     58167 TIP3     11929    TIP3     OH2      OT      -0.834000       15.9994           0
     58168 TIP3     11929    TIP3     H1       HT       0.417000       1.00800           0
     58169 TIP3     11929    TIP3     H2       HT       0.417000       1.00800           0
     58170 TIP3     11930    TIP3     OH2      OT      -0.834000       15.9994           0
     58171 TIP3     11930    TIP3     H1       HT       0.417000       1.00800           0
     58172 TIP3     11930    TIP3     H2       HT       0.417000       1.00800           0
     58173 TIP3     11931    TIP3     OH2      OT      -0.834000       15.9994           0
     58174 TIP3     11931    TIP3     H1       HT       0.417000       1.00800           0
     58175 TIP3     11931    TIP3     H2       HT       0.417000       1.00800           0
     58176 TIP3     11932    TIP3     OH2      OT      -0.834000       15.9994           0
     58177 TIP3     11932    TIP3     H1       HT       0.417000       1.00800           0
     58178 TIP3     11932    TIP3     H2       HT       0.417000       1.00800           0
     58179 TIP3     11933    TIP3     OH2      OT      -0.834000       15.9994           0
     58180 TIP3     11933    TIP3     H1       HT       0.417000       1.00800           0
     58181 TIP3     11933    TIP3     H2       HT       0.417000       1.00800           0
     58182 TIP3     11934    TIP3     OH2      OT      -0.834000       15.9994           0
     58183 TIP3     11934    TIP3     H1       HT       0.417000       1.00800           0
     58184 TIP3     11934    TIP3     H2       HT       0.417000       1.00800           0
     58185 TIP3     11935    TIP3     OH2      OT      -0.834000       15.9994           0
     58186 TIP3     11935    TIP3     H1       HT       0.417000       1.00800           0
     58187 TIP3     11935    TIP3     H2       HT       0.417000       1.00800           0
     58188 TIP3     11936    TIP3     OH2      OT      -0.834000       15.9994           0
     58189 TIP3     11936    TIP3     H1       HT       0.417000       1.00800           0
     58190 TIP3     11936    TIP3     H2       HT       0.417000       1.00800           0
     58191 TIP3     11937    TIP3     OH2      OT      -0.834000       15.9994           0
     58192 TIP3     11937    TIP3     H1       HT       0.417000       1.00800           0
     58193 TIP3     11937    TIP3     H2       HT       0.417000       1.00800           0
     58194 TIP3     11938    TIP3     OH2      OT      -0.834000       15.9994           0
     58195 TIP3     11938    TIP3     H1       HT       0.417000       1.00800           0
     58196 TIP3     11938    TIP3     H2       HT       0.417000       1.00800           0
     58197 TIP3     11939    TIP3     OH2      OT      -0.834000       15.9994           0
     58198 TIP3     11939    TIP3     H1       HT       0.417000       1.00800           0
     58199 TIP3     11939    TIP3     H2       HT       0.417000       1.00800           0
     58200 TIP3     11940    TIP3     OH2      OT      -0.834000       15.9994           0
     58201 TIP3     11940    TIP3     H1       HT       0.417000       1.00800           0
     58202 TIP3     11940    TIP3     H2       HT       0.417000       1.00800           0
     58203 TIP3     11941    TIP3     OH2      OT      -0.834000       15.9994           0
     58204 TIP3     11941    TIP3     H1       HT       0.417000       1.00800           0
     58205 TIP3     11941    TIP3     H2       HT       0.417000       1.00800           0
     58206 TIP3     11942    TIP3     OH2      OT      -0.834000       15.9994           0
     58207 TIP3     11942    TIP3     H1       HT       0.417000       1.00800           0
     58208 TIP3     11942    TIP3     H2       HT       0.417000       1.00800           0
     58209 TIP3     11943    TIP3     OH2      OT      -0.834000       15.9994           0
     58210 TIP3     11943    TIP3     H1       HT       0.417000       1.00800           0
     58211 TIP3     11943    TIP3     H2       HT       0.417000       1.00800           0
     58212 TIP3     11944    TIP3     OH2      OT      -0.834000       15.9994           0
     58213 TIP3     11944    TIP3     H1       HT       0.417000       1.00800           0
     58214 TIP3     11944    TIP3     H2       HT       0.417000       1.00800           0
     58215 TIP3     11945    TIP3     OH2      OT      -0.834000       15.9994           0
     58216 TIP3     11945    TIP3     H1       HT       0.417000       1.00800           0
     58217 TIP3     11945    TIP3     H2       HT       0.417000       1.00800           0
     58218 TIP3     11946    TIP3     OH2      OT      -0.834000       15.9994           0
     58219 TIP3     11946    TIP3     H1       HT       0.417000       1.00800           0
     58220 TIP3     11946    TIP3     H2       HT       0.417000       1.00800           0
     58221 TIP3     11947    TIP3     OH2      OT      -0.834000       15.9994           0
     58222 TIP3     11947    TIP3     H1       HT       0.417000       1.00800           0
     58223 TIP3     11947    TIP3     H2       HT       0.417000       1.00800           0
     58224 TIP3     11948    TIP3     OH2      OT      -0.834000       15.9994           0
     58225 TIP3     11948    TIP3     H1       HT       0.417000       1.00800           0
     58226 TIP3     11948    TIP3     H2       HT       0.417000       1.00800           0
     58227 TIP3     11949    TIP3     OH2      OT      -0.834000       15.9994           0
     58228 TIP3     11949    TIP3     H1       HT       0.417000       1.00800           0
     58229 TIP3     11949    TIP3     H2       HT       0.417000       1.00800           0
     58230 TIP3     11950    TIP3     OH2      OT      -0.834000       15.9994           0
     58231 TIP3     11950    TIP3     H1       HT       0.417000       1.00800           0
     58232 TIP3     11950    TIP3     H2       HT       0.417000       1.00800           0
     58233 TIP3     11951    TIP3     OH2      OT      -0.834000       15.9994           0
     58234 TIP3     11951    TIP3     H1       HT       0.417000       1.00800           0
     58235 TIP3     11951    TIP3     H2       HT       0.417000       1.00800           0
     58236 TIP3     11952    TIP3     OH2      OT      -0.834000       15.9994           0
     58237 TIP3     11952    TIP3     H1       HT       0.417000       1.00800           0
     58238 TIP3     11952    TIP3     H2       HT       0.417000       1.00800           0
     58239 TIP3     11953    TIP3     OH2      OT      -0.834000       15.9994           0
     58240 TIP3     11953    TIP3     H1       HT       0.417000       1.00800           0
     58241 TIP3     11953    TIP3     H2       HT       0.417000       1.00800           0
     58242 TIP3     11954    TIP3     OH2      OT      -0.834000       15.9994           0
     58243 TIP3     11954    TIP3     H1       HT       0.417000       1.00800           0
     58244 TIP3     11954    TIP3     H2       HT       0.417000       1.00800           0
     58245 TIP3     11955    TIP3     OH2      OT      -0.834000       15.9994           0
     58246 TIP3     11955    TIP3     H1       HT       0.417000       1.00800           0
     58247 TIP3     11955    TIP3     H2       HT       0.417000       1.00800           0
     58248 TIP3     11956    TIP3     OH2      OT      -0.834000       15.9994           0
     58249 TIP3     11956    TIP3     H1       HT       0.417000       1.00800           0
     58250 TIP3     11956    TIP3     H2       HT       0.417000       1.00800           0
     58251 TIP3     11957    TIP3     OH2      OT      -0.834000       15.9994           0
     58252 TIP3     11957    TIP3     H1       HT       0.417000       1.00800           0
     58253 TIP3     11957    TIP3     H2       HT       0.417000       1.00800           0
     58254 TIP3     11958    TIP3     OH2      OT      -0.834000       15.9994           0
     58255 TIP3     11958    TIP3     H1       HT       0.417000       1.00800           0
     58256 TIP3     11958    TIP3     H2       HT       0.417000       1.00800           0
     58257 TIP3     11959    TIP3     OH2      OT      -0.834000       15.9994           0
     58258 TIP3     11959    TIP3     H1       HT       0.417000       1.00800           0
     58259 TIP3     11959    TIP3     H2       HT       0.417000       1.00800           0
     58260 TIP3     11960    TIP3     OH2      OT      -0.834000       15.9994           0
     58261 TIP3     11960    TIP3     H1       HT       0.417000       1.00800           0
     58262 TIP3     11960    TIP3     H2       HT       0.417000       1.00800           0
     58263 TIP3     11961    TIP3     OH2      OT      -0.834000       15.9994           0
     58264 TIP3     11961    TIP3     H1       HT       0.417000       1.00800           0
     58265 TIP3     11961    TIP3     H2       HT       0.417000       1.00800           0
     58266 TIP3     11962    TIP3     OH2      OT      -0.834000       15.9994           0
     58267 TIP3     11962    TIP3     H1       HT       0.417000       1.00800           0
     58268 TIP3     11962    TIP3     H2       HT       0.417000       1.00800           0
     58269 TIP3     11963    TIP3     OH2      OT      -0.834000       15.9994           0
     58270 TIP3     11963    TIP3     H1       HT       0.417000       1.00800           0
     58271 TIP3     11963    TIP3     H2       HT       0.417000       1.00800           0
     58272 TIP3     11964    TIP3     OH2      OT      -0.834000       15.9994           0
     58273 TIP3     11964    TIP3     H1       HT       0.417000       1.00800           0
     58274 TIP3     11964    TIP3     H2       HT       0.417000       1.00800           0
     58275 TIP3     11965    TIP3     OH2      OT      -0.834000       15.9994           0
     58276 TIP3     11965    TIP3     H1       HT       0.417000       1.00800           0
     58277 TIP3     11965    TIP3     H2       HT       0.417000       1.00800           0
     58278 TIP3     11966    TIP3     OH2      OT      -0.834000       15.9994           0
     58279 TIP3     11966    TIP3     H1       HT       0.417000       1.00800           0
     58280 TIP3     11966    TIP3     H2       HT       0.417000       1.00800           0
     58281 TIP3     11967    TIP3     OH2      OT      -0.834000       15.9994           0
     58282 TIP3     11967    TIP3     H1       HT       0.417000       1.00800           0
     58283 TIP3     11967    TIP3     H2       HT       0.417000       1.00800           0
     58284 TIP3     11968    TIP3     OH2      OT      -0.834000       15.9994           0
     58285 TIP3     11968    TIP3     H1       HT       0.417000       1.00800           0
     58286 TIP3     11968    TIP3     H2       HT       0.417000       1.00800           0
     58287 TIP3     11969    TIP3     OH2      OT      -0.834000       15.9994           0
     58288 TIP3     11969    TIP3     H1       HT       0.417000       1.00800           0
     58289 TIP3     11969    TIP3     H2       HT       0.417000       1.00800           0
     58290 TIP3     11970    TIP3     OH2      OT      -0.834000       15.9994           0
     58291 TIP3     11970    TIP3     H1       HT       0.417000       1.00800           0
     58292 TIP3     11970    TIP3     H2       HT       0.417000       1.00800           0
     58293 TIP3     11971    TIP3     OH2      OT      -0.834000       15.9994           0
     58294 TIP3     11971    TIP3     H1       HT       0.417000       1.00800           0
     58295 TIP3     11971    TIP3     H2       HT       0.417000       1.00800           0
     58296 TIP3     11972    TIP3     OH2      OT      -0.834000       15.9994           0
     58297 TIP3     11972    TIP3     H1       HT       0.417000       1.00800           0
     58298 TIP3     11972    TIP3     H2       HT       0.417000       1.00800           0
     58299 TIP3     11973    TIP3     OH2      OT      -0.834000       15.9994           0
     58300 TIP3     11973    TIP3     H1       HT       0.417000       1.00800           0
     58301 TIP3     11973    TIP3     H2       HT       0.417000       1.00800           0
     58302 TIP3     11974    TIP3     OH2      OT      -0.834000       15.9994           0
     58303 TIP3     11974    TIP3     H1       HT       0.417000       1.00800           0
     58304 TIP3     11974    TIP3     H2       HT       0.417000       1.00800           0
     58305 TIP3     11975    TIP3     OH2      OT      -0.834000       15.9994           0
     58306 TIP3     11975    TIP3     H1       HT       0.417000       1.00800           0
     58307 TIP3     11975    TIP3     H2       HT       0.417000       1.00800           0
     58308 TIP3     11976    TIP3     OH2      OT      -0.834000       15.9994           0
     58309 TIP3     11976    TIP3     H1       HT       0.417000       1.00800           0
     58310 TIP3     11976    TIP3     H2       HT       0.417000       1.00800           0
     58311 TIP3     11977    TIP3     OH2      OT      -0.834000       15.9994           0
     58312 TIP3     11977    TIP3     H1       HT       0.417000       1.00800           0
     58313 TIP3     11977    TIP3     H2       HT       0.417000       1.00800           0
     58314 TIP3     11978    TIP3     OH2      OT      -0.834000       15.9994           0
     58315 TIP3     11978    TIP3     H1       HT       0.417000       1.00800           0
     58316 TIP3     11978    TIP3     H2       HT       0.417000       1.00800           0
     58317 TIP3     11979    TIP3     OH2      OT      -0.834000       15.9994           0
     58318 TIP3     11979    TIP3     H1       HT       0.417000       1.00800           0
     58319 TIP3     11979    TIP3     H2       HT       0.417000       1.00800           0
     58320 TIP3     11980    TIP3     OH2      OT      -0.834000       15.9994           0
     58321 TIP3     11980    TIP3     H1       HT       0.417000       1.00800           0
     58322 TIP3     11980    TIP3     H2       HT       0.417000       1.00800           0
     58323 TIP3     11981    TIP3     OH2      OT      -0.834000       15.9994           0
     58324 TIP3     11981    TIP3     H1       HT       0.417000       1.00800           0
     58325 TIP3     11981    TIP3     H2       HT       0.417000       1.00800           0
     58326 TIP3     11982    TIP3     OH2      OT      -0.834000       15.9994           0
     58327 TIP3     11982    TIP3     H1       HT       0.417000       1.00800           0
     58328 TIP3     11982    TIP3     H2       HT       0.417000       1.00800           0
     58329 TIP3     11983    TIP3     OH2      OT      -0.834000       15.9994           0
     58330 TIP3     11983    TIP3     H1       HT       0.417000       1.00800           0
     58331 TIP3     11983    TIP3     H2       HT       0.417000       1.00800           0
     58332 TIP3     11984    TIP3     OH2      OT      -0.834000       15.9994           0
     58333 TIP3     11984    TIP3     H1       HT       0.417000       1.00800           0
     58334 TIP3     11984    TIP3     H2       HT       0.417000       1.00800           0
     58335 TIP3     11985    TIP3     OH2      OT      -0.834000       15.9994           0
     58336 TIP3     11985    TIP3     H1       HT       0.417000       1.00800           0
     58337 TIP3     11985    TIP3     H2       HT       0.417000       1.00800           0
     58338 TIP3     11986    TIP3     OH2      OT      -0.834000       15.9994           0
     58339 TIP3     11986    TIP3     H1       HT       0.417000       1.00800           0
     58340 TIP3     11986    TIP3     H2       HT       0.417000       1.00800           0
     58341 TIP3     11987    TIP3     OH2      OT      -0.834000       15.9994           0
     58342 TIP3     11987    TIP3     H1       HT       0.417000       1.00800           0
     58343 TIP3     11987    TIP3     H2       HT       0.417000       1.00800           0
     58344 TIP3     11988    TIP3     OH2      OT      -0.834000       15.9994           0
     58345 TIP3     11988    TIP3     H1       HT       0.417000       1.00800           0
     58346 TIP3     11988    TIP3     H2       HT       0.417000       1.00800           0
     58347 TIP3     11989    TIP3     OH2      OT      -0.834000       15.9994           0
     58348 TIP3     11989    TIP3     H1       HT       0.417000       1.00800           0
     58349 TIP3     11989    TIP3     H2       HT       0.417000       1.00800           0
     58350 TIP3     11990    TIP3     OH2      OT      -0.834000       15.9994           0
     58351 TIP3     11990    TIP3     H1       HT       0.417000       1.00800           0
     58352 TIP3     11990    TIP3     H2       HT       0.417000       1.00800           0
     58353 TIP3     11991    TIP3     OH2      OT      -0.834000       15.9994           0
     58354 TIP3     11991    TIP3     H1       HT       0.417000       1.00800           0
     58355 TIP3     11991    TIP3     H2       HT       0.417000       1.00800           0
     58356 TIP3     11992    TIP3     OH2      OT      -0.834000       15.9994           0
     58357 TIP3     11992    TIP3     H1       HT       0.417000       1.00800           0
     58358 TIP3     11992    TIP3     H2       HT       0.417000       1.00800           0
     58359 TIP3     11993    TIP3     OH2      OT      -0.834000       15.9994           0
     58360 TIP3     11993    TIP3     H1       HT       0.417000       1.00800           0
     58361 TIP3     11993    TIP3     H2       HT       0.417000       1.00800           0
     58362 TIP3     11994    TIP3     OH2      OT      -0.834000       15.9994           0
     58363 TIP3     11994    TIP3     H1       HT       0.417000       1.00800           0
     58364 TIP3     11994    TIP3     H2       HT       0.417000       1.00800           0
     58365 TIP3     11995    TIP3     OH2      OT      -0.834000       15.9994           0
     58366 TIP3     11995    TIP3     H1       HT       0.417000       1.00800           0
     58367 TIP3     11995    TIP3     H2       HT       0.417000       1.00800           0
     58368 TIP3     11996    TIP3     OH2      OT      -0.834000       15.9994           0
     58369 TIP3     11996    TIP3     H1       HT       0.417000       1.00800           0
     58370 TIP3     11996    TIP3     H2       HT       0.417000       1.00800           0
     58371 TIP3     11997    TIP3     OH2      OT      -0.834000       15.9994           0
     58372 TIP3     11997    TIP3     H1       HT       0.417000       1.00800           0
     58373 TIP3     11997    TIP3     H2       HT       0.417000       1.00800           0
     58374 TIP3     11998    TIP3     OH2      OT      -0.834000       15.9994           0
     58375 TIP3     11998    TIP3     H1       HT       0.417000       1.00800           0
     58376 TIP3     11998    TIP3     H2       HT       0.417000       1.00800           0
     58377 TIP3     11999    TIP3     OH2      OT      -0.834000       15.9994           0
     58378 TIP3     11999    TIP3     H1       HT       0.417000       1.00800           0
     58379 TIP3     11999    TIP3     H2       HT       0.417000       1.00800           0
     58380 TIP3     12000    TIP3     OH2      OT      -0.834000       15.9994           0
     58381 TIP3     12000    TIP3     H1       HT       0.417000       1.00800           0
     58382 TIP3     12000    TIP3     H2       HT       0.417000       1.00800           0
     58383 TIP3     12001    TIP3     OH2      OT      -0.834000       15.9994           0
     58384 TIP3     12001    TIP3     H1       HT       0.417000       1.00800           0
     58385 TIP3     12001    TIP3     H2       HT       0.417000       1.00800           0
     58386 TIP3     12002    TIP3     OH2      OT      -0.834000       15.9994           0
     58387 TIP3     12002    TIP3     H1       HT       0.417000       1.00800           0
     58388 TIP3     12002    TIP3     H2       HT       0.417000       1.00800           0
     58389 TIP3     12003    TIP3     OH2      OT      -0.834000       15.9994           0
     58390 TIP3     12003    TIP3     H1       HT       0.417000       1.00800           0
     58391 TIP3     12003    TIP3     H2       HT       0.417000       1.00800           0
     58392 TIP3     12004    TIP3     OH2      OT      -0.834000       15.9994           0
     58393 TIP3     12004    TIP3     H1       HT       0.417000       1.00800           0
     58394 TIP3     12004    TIP3     H2       HT       0.417000       1.00800           0
     58395 TIP3     12005    TIP3     OH2      OT      -0.834000       15.9994           0
     58396 TIP3     12005    TIP3     H1       HT       0.417000       1.00800           0
     58397 TIP3     12005    TIP3     H2       HT       0.417000       1.00800           0
     58398 TIP3     12006    TIP3     OH2      OT      -0.834000       15.9994           0
     58399 TIP3     12006    TIP3     H1       HT       0.417000       1.00800           0
     58400 TIP3     12006    TIP3     H2       HT       0.417000       1.00800           0
     58401 TIP3     12007    TIP3     OH2      OT      -0.834000       15.9994           0
     58402 TIP3     12007    TIP3     H1       HT       0.417000       1.00800           0
     58403 TIP3     12007    TIP3     H2       HT       0.417000       1.00800           0
     58404 TIP3     12008    TIP3     OH2      OT      -0.834000       15.9994           0
     58405 TIP3     12008    TIP3     H1       HT       0.417000       1.00800           0
     58406 TIP3     12008    TIP3     H2       HT       0.417000       1.00800           0
     58407 TIP3     12009    TIP3     OH2      OT      -0.834000       15.9994           0
     58408 TIP3     12009    TIP3     H1       HT       0.417000       1.00800           0
     58409 TIP3     12009    TIP3     H2       HT       0.417000       1.00800           0
     58410 TIP3     12010    TIP3     OH2      OT      -0.834000       15.9994           0
     58411 TIP3     12010    TIP3     H1       HT       0.417000       1.00800           0
     58412 TIP3     12010    TIP3     H2       HT       0.417000       1.00800           0
     58413 TIP3     12011    TIP3     OH2      OT      -0.834000       15.9994           0
     58414 TIP3     12011    TIP3     H1       HT       0.417000       1.00800           0
     58415 TIP3     12011    TIP3     H2       HT       0.417000       1.00800           0
     58416 TIP3     12012    TIP3     OH2      OT      -0.834000       15.9994           0
     58417 TIP3     12012    TIP3     H1       HT       0.417000       1.00800           0
     58418 TIP3     12012    TIP3     H2       HT       0.417000       1.00800           0
     58419 TIP3     12013    TIP3     OH2      OT      -0.834000       15.9994           0
     58420 TIP3     12013    TIP3     H1       HT       0.417000       1.00800           0
     58421 TIP3     12013    TIP3     H2       HT       0.417000       1.00800           0
     58422 TIP3     12014    TIP3     OH2      OT      -0.834000       15.9994           0
     58423 TIP3     12014    TIP3     H1       HT       0.417000       1.00800           0
     58424 TIP3     12014    TIP3     H2       HT       0.417000       1.00800           0
     58425 TIP3     12015    TIP3     OH2      OT      -0.834000       15.9994           0
     58426 TIP3     12015    TIP3     H1       HT       0.417000       1.00800           0
     58427 TIP3     12015    TIP3     H2       HT       0.417000       1.00800           0
     58428 TIP3     12016    TIP3     OH2      OT      -0.834000       15.9994           0
     58429 TIP3     12016    TIP3     H1       HT       0.417000       1.00800           0
     58430 TIP3     12016    TIP3     H2       HT       0.417000       1.00800           0
     58431 TIP3     12017    TIP3     OH2      OT      -0.834000       15.9994           0
     58432 TIP3     12017    TIP3     H1       HT       0.417000       1.00800           0
     58433 TIP3     12017    TIP3     H2       HT       0.417000       1.00800           0
     58434 TIP3     12018    TIP3     OH2      OT      -0.834000       15.9994           0
     58435 TIP3     12018    TIP3     H1       HT       0.417000       1.00800           0
     58436 TIP3     12018    TIP3     H2       HT       0.417000       1.00800           0
     58437 TIP3     12019    TIP3     OH2      OT      -0.834000       15.9994           0
     58438 TIP3     12019    TIP3     H1       HT       0.417000       1.00800           0
     58439 TIP3     12019    TIP3     H2       HT       0.417000       1.00800           0
     58440 TIP3     12020    TIP3     OH2      OT      -0.834000       15.9994           0
     58441 TIP3     12020    TIP3     H1       HT       0.417000       1.00800           0
     58442 TIP3     12020    TIP3     H2       HT       0.417000       1.00800           0
     58443 TIP3     12021    TIP3     OH2      OT      -0.834000       15.9994           0
     58444 TIP3     12021    TIP3     H1       HT       0.417000       1.00800           0
     58445 TIP3     12021    TIP3     H2       HT       0.417000       1.00800           0
     58446 TIP3     12022    TIP3     OH2      OT      -0.834000       15.9994           0
     58447 TIP3     12022    TIP3     H1       HT       0.417000       1.00800           0
     58448 TIP3     12022    TIP3     H2       HT       0.417000       1.00800           0
     58449 TIP3     12023    TIP3     OH2      OT      -0.834000       15.9994           0
     58450 TIP3     12023    TIP3     H1       HT       0.417000       1.00800           0
     58451 TIP3     12023    TIP3     H2       HT       0.417000       1.00800           0
     58452 TIP3     12024    TIP3     OH2      OT      -0.834000       15.9994           0
     58453 TIP3     12024    TIP3     H1       HT       0.417000       1.00800           0
     58454 TIP3     12024    TIP3     H2       HT       0.417000       1.00800           0
     58455 TIP3     12025    TIP3     OH2      OT      -0.834000       15.9994           0
     58456 TIP3     12025    TIP3     H1       HT       0.417000       1.00800           0
     58457 TIP3     12025    TIP3     H2       HT       0.417000       1.00800           0
     58458 TIP3     12026    TIP3     OH2      OT      -0.834000       15.9994           0
     58459 TIP3     12026    TIP3     H1       HT       0.417000       1.00800           0
     58460 TIP3     12026    TIP3     H2       HT       0.417000       1.00800           0
     58461 TIP3     12027    TIP3     OH2      OT      -0.834000       15.9994           0
     58462 TIP3     12027    TIP3     H1       HT       0.417000       1.00800           0
     58463 TIP3     12027    TIP3     H2       HT       0.417000       1.00800           0
     58464 TIP3     12028    TIP3     OH2      OT      -0.834000       15.9994           0
     58465 TIP3     12028    TIP3     H1       HT       0.417000       1.00800           0
     58466 TIP3     12028    TIP3     H2       HT       0.417000       1.00800           0
     58467 TIP3     12029    TIP3     OH2      OT      -0.834000       15.9994           0
     58468 TIP3     12029    TIP3     H1       HT       0.417000       1.00800           0
     58469 TIP3     12029    TIP3     H2       HT       0.417000       1.00800           0
     58470 TIP3     12030    TIP3     OH2      OT      -0.834000       15.9994           0
     58471 TIP3     12030    TIP3     H1       HT       0.417000       1.00800           0
     58472 TIP3     12030    TIP3     H2       HT       0.417000       1.00800           0
     58473 TIP3     12031    TIP3     OH2      OT      -0.834000       15.9994           0
     58474 TIP3     12031    TIP3     H1       HT       0.417000       1.00800           0
     58475 TIP3     12031    TIP3     H2       HT       0.417000       1.00800           0
     58476 TIP3     12032    TIP3     OH2      OT      -0.834000       15.9994           0
     58477 TIP3     12032    TIP3     H1       HT       0.417000       1.00800           0
     58478 TIP3     12032    TIP3     H2       HT       0.417000       1.00800           0
     58479 TIP3     12033    TIP3     OH2      OT      -0.834000       15.9994           0
     58480 TIP3     12033    TIP3     H1       HT       0.417000       1.00800           0
     58481 TIP3     12033    TIP3     H2       HT       0.417000       1.00800           0
     58482 TIP3     12034    TIP3     OH2      OT      -0.834000       15.9994           0
     58483 TIP3     12034    TIP3     H1       HT       0.417000       1.00800           0
     58484 TIP3     12034    TIP3     H2       HT       0.417000       1.00800           0
     58485 TIP3     12035    TIP3     OH2      OT      -0.834000       15.9994           0
     58486 TIP3     12035    TIP3     H1       HT       0.417000       1.00800           0
     58487 TIP3     12035    TIP3     H2       HT       0.417000       1.00800           0
     58488 TIP3     12036    TIP3     OH2      OT      -0.834000       15.9994           0
     58489 TIP3     12036    TIP3     H1       HT       0.417000       1.00800           0
     58490 TIP3     12036    TIP3     H2       HT       0.417000       1.00800           0
     58491 TIP3     12037    TIP3     OH2      OT      -0.834000       15.9994           0
     58492 TIP3     12037    TIP3     H1       HT       0.417000       1.00800           0
     58493 TIP3     12037    TIP3     H2       HT       0.417000       1.00800           0
     58494 TIP3     12038    TIP3     OH2      OT      -0.834000       15.9994           0
     58495 TIP3     12038    TIP3     H1       HT       0.417000       1.00800           0
     58496 TIP3     12038    TIP3     H2       HT       0.417000       1.00800           0
     58497 TIP3     12039    TIP3     OH2      OT      -0.834000       15.9994           0
     58498 TIP3     12039    TIP3     H1       HT       0.417000       1.00800           0
     58499 TIP3     12039    TIP3     H2       HT       0.417000       1.00800           0
     58500 TIP3     12040    TIP3     OH2      OT      -0.834000       15.9994           0
     58501 TIP3     12040    TIP3     H1       HT       0.417000       1.00800           0
     58502 TIP3     12040    TIP3     H2       HT       0.417000       1.00800           0
     58503 TIP3     12041    TIP3     OH2      OT      -0.834000       15.9994           0
     58504 TIP3     12041    TIP3     H1       HT       0.417000       1.00800           0
     58505 TIP3     12041    TIP3     H2       HT       0.417000       1.00800           0
     58506 TIP3     12042    TIP3     OH2      OT      -0.834000       15.9994           0
     58507 TIP3     12042    TIP3     H1       HT       0.417000       1.00800           0
     58508 TIP3     12042    TIP3     H2       HT       0.417000       1.00800           0
     58509 TIP3     12043    TIP3     OH2      OT      -0.834000       15.9994           0
     58510 TIP3     12043    TIP3     H1       HT       0.417000       1.00800           0
     58511 TIP3     12043    TIP3     H2       HT       0.417000       1.00800           0
     58512 TIP3     12044    TIP3     OH2      OT      -0.834000       15.9994           0
     58513 TIP3     12044    TIP3     H1       HT       0.417000       1.00800           0
     58514 TIP3     12044    TIP3     H2       HT       0.417000       1.00800           0
     58515 TIP3     12045    TIP3     OH2      OT      -0.834000       15.9994           0
     58516 TIP3     12045    TIP3     H1       HT       0.417000       1.00800           0
     58517 TIP3     12045    TIP3     H2       HT       0.417000       1.00800           0
     58518 TIP3     12046    TIP3     OH2      OT      -0.834000       15.9994           0
     58519 TIP3     12046    TIP3     H1       HT       0.417000       1.00800           0
     58520 TIP3     12046    TIP3     H2       HT       0.417000       1.00800           0
     58521 TIP3     12047    TIP3     OH2      OT      -0.834000       15.9994           0
     58522 TIP3     12047    TIP3     H1       HT       0.417000       1.00800           0
     58523 TIP3     12047    TIP3     H2       HT       0.417000       1.00800           0
     58524 TIP3     12048    TIP3     OH2      OT      -0.834000       15.9994           0
     58525 TIP3     12048    TIP3     H1       HT       0.417000       1.00800           0
     58526 TIP3     12048    TIP3     H2       HT       0.417000       1.00800           0
     58527 TIP3     12049    TIP3     OH2      OT      -0.834000       15.9994           0
     58528 TIP3     12049    TIP3     H1       HT       0.417000       1.00800           0
     58529 TIP3     12049    TIP3     H2       HT       0.417000       1.00800           0
     58530 TIP3     12050    TIP3     OH2      OT      -0.834000       15.9994           0
     58531 TIP3     12050    TIP3     H1       HT       0.417000       1.00800           0
     58532 TIP3     12050    TIP3     H2       HT       0.417000       1.00800           0
     58533 TIP3     12051    TIP3     OH2      OT      -0.834000       15.9994           0
     58534 TIP3     12051    TIP3     H1       HT       0.417000       1.00800           0
     58535 TIP3     12051    TIP3     H2       HT       0.417000       1.00800           0
     58536 TIP3     12052    TIP3     OH2      OT      -0.834000       15.9994           0
     58537 TIP3     12052    TIP3     H1       HT       0.417000       1.00800           0
     58538 TIP3     12052    TIP3     H2       HT       0.417000       1.00800           0
     58539 TIP3     12053    TIP3     OH2      OT      -0.834000       15.9994           0
     58540 TIP3     12053    TIP3     H1       HT       0.417000       1.00800           0
     58541 TIP3     12053    TIP3     H2       HT       0.417000       1.00800           0
     58542 TIP3     12054    TIP3     OH2      OT      -0.834000       15.9994           0
     58543 TIP3     12054    TIP3     H1       HT       0.417000       1.00800           0
     58544 TIP3     12054    TIP3     H2       HT       0.417000       1.00800           0
     58545 TIP3     12055    TIP3     OH2      OT      -0.834000       15.9994           0
     58546 TIP3     12055    TIP3     H1       HT       0.417000       1.00800           0
     58547 TIP3     12055    TIP3     H2       HT       0.417000       1.00800           0
     58548 TIP3     12056    TIP3     OH2      OT      -0.834000       15.9994           0
     58549 TIP3     12056    TIP3     H1       HT       0.417000       1.00800           0
     58550 TIP3     12056    TIP3     H2       HT       0.417000       1.00800           0
     58551 TIP3     12057    TIP3     OH2      OT      -0.834000       15.9994           0
     58552 TIP3     12057    TIP3     H1       HT       0.417000       1.00800           0
     58553 TIP3     12057    TIP3     H2       HT       0.417000       1.00800           0
     58554 TIP3     12058    TIP3     OH2      OT      -0.834000       15.9994           0
     58555 TIP3     12058    TIP3     H1       HT       0.417000       1.00800           0
     58556 TIP3     12058    TIP3     H2       HT       0.417000       1.00800           0
     58557 TIP3     12059    TIP3     OH2      OT      -0.834000       15.9994           0
     58558 TIP3     12059    TIP3     H1       HT       0.417000       1.00800           0
     58559 TIP3     12059    TIP3     H2       HT       0.417000       1.00800           0
     58560 TIP3     12060    TIP3     OH2      OT      -0.834000       15.9994           0
     58561 TIP3     12060    TIP3     H1       HT       0.417000       1.00800           0
     58562 TIP3     12060    TIP3     H2       HT       0.417000       1.00800           0
     58563 TIP3     12061    TIP3     OH2      OT      -0.834000       15.9994           0
     58564 TIP3     12061    TIP3     H1       HT       0.417000       1.00800           0
     58565 TIP3     12061    TIP3     H2       HT       0.417000       1.00800           0
     58566 TIP3     12062    TIP3     OH2      OT      -0.834000       15.9994           0
     58567 TIP3     12062    TIP3     H1       HT       0.417000       1.00800           0
     58568 TIP3     12062    TIP3     H2       HT       0.417000       1.00800           0
     58569 TIP3     12063    TIP3     OH2      OT      -0.834000       15.9994           0
     58570 TIP3     12063    TIP3     H1       HT       0.417000       1.00800           0
     58571 TIP3     12063    TIP3     H2       HT       0.417000       1.00800           0
     58572 TIP3     12064    TIP3     OH2      OT      -0.834000       15.9994           0
     58573 TIP3     12064    TIP3     H1       HT       0.417000       1.00800           0
     58574 TIP3     12064    TIP3     H2       HT       0.417000       1.00800           0
     58575 TIP3     12065    TIP3     OH2      OT      -0.834000       15.9994           0
     58576 TIP3     12065    TIP3     H1       HT       0.417000       1.00800           0
     58577 TIP3     12065    TIP3     H2       HT       0.417000       1.00800           0
     58578 TIP3     12066    TIP3     OH2      OT      -0.834000       15.9994           0
     58579 TIP3     12066    TIP3     H1       HT       0.417000       1.00800           0
     58580 TIP3     12066    TIP3     H2       HT       0.417000       1.00800           0
     58581 TIP3     12067    TIP3     OH2      OT      -0.834000       15.9994           0
     58582 TIP3     12067    TIP3     H1       HT       0.417000       1.00800           0
     58583 TIP3     12067    TIP3     H2       HT       0.417000       1.00800           0
     58584 TIP3     12068    TIP3     OH2      OT      -0.834000       15.9994           0
     58585 TIP3     12068    TIP3     H1       HT       0.417000       1.00800           0
     58586 TIP3     12068    TIP3     H2       HT       0.417000       1.00800           0
     58587 TIP3     12069    TIP3     OH2      OT      -0.834000       15.9994           0
     58588 TIP3     12069    TIP3     H1       HT       0.417000       1.00800           0
     58589 TIP3     12069    TIP3     H2       HT       0.417000       1.00800           0
     58590 TIP3     12070    TIP3     OH2      OT      -0.834000       15.9994           0
     58591 TIP3     12070    TIP3     H1       HT       0.417000       1.00800           0
     58592 TIP3     12070    TIP3     H2       HT       0.417000       1.00800           0
     58593 TIP3     12071    TIP3     OH2      OT      -0.834000       15.9994           0
     58594 TIP3     12071    TIP3     H1       HT       0.417000       1.00800           0
     58595 TIP3     12071    TIP3     H2       HT       0.417000       1.00800           0
     58596 TIP3     12072    TIP3     OH2      OT      -0.834000       15.9994           0
     58597 TIP3     12072    TIP3     H1       HT       0.417000       1.00800           0
     58598 TIP3     12072    TIP3     H2       HT       0.417000       1.00800           0
     58599 TIP3     12073    TIP3     OH2      OT      -0.834000       15.9994           0
     58600 TIP3     12073    TIP3     H1       HT       0.417000       1.00800           0
     58601 TIP3     12073    TIP3     H2       HT       0.417000       1.00800           0
     58602 TIP3     12074    TIP3     OH2      OT      -0.834000       15.9994           0
     58603 TIP3     12074    TIP3     H1       HT       0.417000       1.00800           0
     58604 TIP3     12074    TIP3     H2       HT       0.417000       1.00800           0
     58605 TIP3     12075    TIP3     OH2      OT      -0.834000       15.9994           0
     58606 TIP3     12075    TIP3     H1       HT       0.417000       1.00800           0
     58607 TIP3     12075    TIP3     H2       HT       0.417000       1.00800           0
     58608 TIP3     12076    TIP3     OH2      OT      -0.834000       15.9994           0
     58609 TIP3     12076    TIP3     H1       HT       0.417000       1.00800           0
     58610 TIP3     12076    TIP3     H2       HT       0.417000       1.00800           0
     58611 TIP3     12077    TIP3     OH2      OT      -0.834000       15.9994           0
     58612 TIP3     12077    TIP3     H1       HT       0.417000       1.00800           0
     58613 TIP3     12077    TIP3     H2       HT       0.417000       1.00800           0
     58614 TIP3     12078    TIP3     OH2      OT      -0.834000       15.9994           0
     58615 TIP3     12078    TIP3     H1       HT       0.417000       1.00800           0
     58616 TIP3     12078    TIP3     H2       HT       0.417000       1.00800           0
     58617 TIP3     12079    TIP3     OH2      OT      -0.834000       15.9994           0
     58618 TIP3     12079    TIP3     H1       HT       0.417000       1.00800           0
     58619 TIP3     12079    TIP3     H2       HT       0.417000       1.00800           0
     58620 TIP3     12080    TIP3     OH2      OT      -0.834000       15.9994           0
     58621 TIP3     12080    TIP3     H1       HT       0.417000       1.00800           0
     58622 TIP3     12080    TIP3     H2       HT       0.417000       1.00800           0
     58623 TIP3     12081    TIP3     OH2      OT      -0.834000       15.9994           0
     58624 TIP3     12081    TIP3     H1       HT       0.417000       1.00800           0
     58625 TIP3     12081    TIP3     H2       HT       0.417000       1.00800           0
     58626 TIP3     12082    TIP3     OH2      OT      -0.834000       15.9994           0
     58627 TIP3     12082    TIP3     H1       HT       0.417000       1.00800           0
     58628 TIP3     12082    TIP3     H2       HT       0.417000       1.00800           0
     58629 TIP3     12083    TIP3     OH2      OT      -0.834000       15.9994           0
     58630 TIP3     12083    TIP3     H1       HT       0.417000       1.00800           0
     58631 TIP3     12083    TIP3     H2       HT       0.417000       1.00800           0
     58632 TIP3     12084    TIP3     OH2      OT      -0.834000       15.9994           0
     58633 TIP3     12084    TIP3     H1       HT       0.417000       1.00800           0
     58634 TIP3     12084    TIP3     H2       HT       0.417000       1.00800           0
     58635 TIP3     12085    TIP3     OH2      OT      -0.834000       15.9994           0
     58636 TIP3     12085    TIP3     H1       HT       0.417000       1.00800           0
     58637 TIP3     12085    TIP3     H2       HT       0.417000       1.00800           0
     58638 TIP3     12086    TIP3     OH2      OT      -0.834000       15.9994           0
     58639 TIP3     12086    TIP3     H1       HT       0.417000       1.00800           0
     58640 TIP3     12086    TIP3     H2       HT       0.417000       1.00800           0
     58641 TIP3     12087    TIP3     OH2      OT      -0.834000       15.9994           0
     58642 TIP3     12087    TIP3     H1       HT       0.417000       1.00800           0
     58643 TIP3     12087    TIP3     H2       HT       0.417000       1.00800           0
     58644 TIP3     12088    TIP3     OH2      OT      -0.834000       15.9994           0
     58645 TIP3     12088    TIP3     H1       HT       0.417000       1.00800           0
     58646 TIP3     12088    TIP3     H2       HT       0.417000       1.00800           0
     58647 TIP3     12089    TIP3     OH2      OT      -0.834000       15.9994           0
     58648 TIP3     12089    TIP3     H1       HT       0.417000       1.00800           0
     58649 TIP3     12089    TIP3     H2       HT       0.417000       1.00800           0
     58650 TIP3     12090    TIP3     OH2      OT      -0.834000       15.9994           0
     58651 TIP3     12090    TIP3     H1       HT       0.417000       1.00800           0
     58652 TIP3     12090    TIP3     H2       HT       0.417000       1.00800           0
     58653 TIP3     12091    TIP3     OH2      OT      -0.834000       15.9994           0
     58654 TIP3     12091    TIP3     H1       HT       0.417000       1.00800           0
     58655 TIP3     12091    TIP3     H2       HT       0.417000       1.00800           0
     58656 TIP3     12092    TIP3     OH2      OT      -0.834000       15.9994           0
     58657 TIP3     12092    TIP3     H1       HT       0.417000       1.00800           0
     58658 TIP3     12092    TIP3     H2       HT       0.417000       1.00800           0
     58659 TIP3     12093    TIP3     OH2      OT      -0.834000       15.9994           0
     58660 TIP3     12093    TIP3     H1       HT       0.417000       1.00800           0
     58661 TIP3     12093    TIP3     H2       HT       0.417000       1.00800           0
     58662 TIP3     12094    TIP3     OH2      OT      -0.834000       15.9994           0
     58663 TIP3     12094    TIP3     H1       HT       0.417000       1.00800           0
     58664 TIP3     12094    TIP3     H2       HT       0.417000       1.00800           0
     58665 TIP3     12095    TIP3     OH2      OT      -0.834000       15.9994           0
     58666 TIP3     12095    TIP3     H1       HT       0.417000       1.00800           0
     58667 TIP3     12095    TIP3     H2       HT       0.417000       1.00800           0
     58668 TIP3     12096    TIP3     OH2      OT      -0.834000       15.9994           0
     58669 TIP3     12096    TIP3     H1       HT       0.417000       1.00800           0
     58670 TIP3     12096    TIP3     H2       HT       0.417000       1.00800           0
     58671 TIP3     12097    TIP3     OH2      OT      -0.834000       15.9994           0
     58672 TIP3     12097    TIP3     H1       HT       0.417000       1.00800           0
     58673 TIP3     12097    TIP3     H2       HT       0.417000       1.00800           0
     58674 TIP3     12098    TIP3     OH2      OT      -0.834000       15.9994           0
     58675 TIP3     12098    TIP3     H1       HT       0.417000       1.00800           0
     58676 TIP3     12098    TIP3     H2       HT       0.417000       1.00800           0
     58677 TIP3     12099    TIP3     OH2      OT      -0.834000       15.9994           0
     58678 TIP3     12099    TIP3     H1       HT       0.417000       1.00800           0
     58679 TIP3     12099    TIP3     H2       HT       0.417000       1.00800           0
     58680 TIP3     12100    TIP3     OH2      OT      -0.834000       15.9994           0
     58681 TIP3     12100    TIP3     H1       HT       0.417000       1.00800           0
     58682 TIP3     12100    TIP3     H2       HT       0.417000       1.00800           0
     58683 TIP3     12101    TIP3     OH2      OT      -0.834000       15.9994           0
     58684 TIP3     12101    TIP3     H1       HT       0.417000       1.00800           0
     58685 TIP3     12101    TIP3     H2       HT       0.417000       1.00800           0
     58686 TIP3     12102    TIP3     OH2      OT      -0.834000       15.9994           0
     58687 TIP3     12102    TIP3     H1       HT       0.417000       1.00800           0
     58688 TIP3     12102    TIP3     H2       HT       0.417000       1.00800           0
     58689 TIP3     12103    TIP3     OH2      OT      -0.834000       15.9994           0
     58690 TIP3     12103    TIP3     H1       HT       0.417000       1.00800           0
     58691 TIP3     12103    TIP3     H2       HT       0.417000       1.00800           0
     58692 TIP3     12104    TIP3     OH2      OT      -0.834000       15.9994           0
     58693 TIP3     12104    TIP3     H1       HT       0.417000       1.00800           0
     58694 TIP3     12104    TIP3     H2       HT       0.417000       1.00800           0
     58695 TIP3     12105    TIP3     OH2      OT      -0.834000       15.9994           0
     58696 TIP3     12105    TIP3     H1       HT       0.417000       1.00800           0
     58697 TIP3     12105    TIP3     H2       HT       0.417000       1.00800           0
     58698 TIP3     12106    TIP3     OH2      OT      -0.834000       15.9994           0
     58699 TIP3     12106    TIP3     H1       HT       0.417000       1.00800           0
     58700 TIP3     12106    TIP3     H2       HT       0.417000       1.00800           0
     58701 TIP3     12107    TIP3     OH2      OT      -0.834000       15.9994           0
     58702 TIP3     12107    TIP3     H1       HT       0.417000       1.00800           0
     58703 TIP3     12107    TIP3     H2       HT       0.417000       1.00800           0
     58704 TIP3     12108    TIP3     OH2      OT      -0.834000       15.9994           0
     58705 TIP3     12108    TIP3     H1       HT       0.417000       1.00800           0
     58706 TIP3     12108    TIP3     H2       HT       0.417000       1.00800           0
     58707 TIP3     12109    TIP3     OH2      OT      -0.834000       15.9994           0
     58708 TIP3     12109    TIP3     H1       HT       0.417000       1.00800           0
     58709 TIP3     12109    TIP3     H2       HT       0.417000       1.00800           0
     58710 TIP3     12110    TIP3     OH2      OT      -0.834000       15.9994           0
     58711 TIP3     12110    TIP3     H1       HT       0.417000       1.00800           0
     58712 TIP3     12110    TIP3     H2       HT       0.417000       1.00800           0
     58713 TIP3     12111    TIP3     OH2      OT      -0.834000       15.9994           0
     58714 TIP3     12111    TIP3     H1       HT       0.417000       1.00800           0
     58715 TIP3     12111    TIP3     H2       HT       0.417000       1.00800           0
     58716 TIP3     12112    TIP3     OH2      OT      -0.834000       15.9994           0
     58717 TIP3     12112    TIP3     H1       HT       0.417000       1.00800           0
     58718 TIP3     12112    TIP3     H2       HT       0.417000       1.00800           0
     58719 TIP3     12113    TIP3     OH2      OT      -0.834000       15.9994           0
     58720 TIP3     12113    TIP3     H1       HT       0.417000       1.00800           0
     58721 TIP3     12113    TIP3     H2       HT       0.417000       1.00800           0
     58722 TIP3     12114    TIP3     OH2      OT      -0.834000       15.9994           0
     58723 TIP3     12114    TIP3     H1       HT       0.417000       1.00800           0
     58724 TIP3     12114    TIP3     H2       HT       0.417000       1.00800           0
     58725 TIP3     12115    TIP3     OH2      OT      -0.834000       15.9994           0
     58726 TIP3     12115    TIP3     H1       HT       0.417000       1.00800           0
     58727 TIP3     12115    TIP3     H2       HT       0.417000       1.00800           0
     58728 TIP3     12116    TIP3     OH2      OT      -0.834000       15.9994           0
     58729 TIP3     12116    TIP3     H1       HT       0.417000       1.00800           0
     58730 TIP3     12116    TIP3     H2       HT       0.417000       1.00800           0
     58731 TIP3     12117    TIP3     OH2      OT      -0.834000       15.9994           0
     58732 TIP3     12117    TIP3     H1       HT       0.417000       1.00800           0
     58733 TIP3     12117    TIP3     H2       HT       0.417000       1.00800           0
     58734 TIP3     12118    TIP3     OH2      OT      -0.834000       15.9994           0
     58735 TIP3     12118    TIP3     H1       HT       0.417000       1.00800           0
     58736 TIP3     12118    TIP3     H2       HT       0.417000       1.00800           0
     58737 TIP3     12119    TIP3     OH2      OT      -0.834000       15.9994           0
     58738 TIP3     12119    TIP3     H1       HT       0.417000       1.00800           0
     58739 TIP3     12119    TIP3     H2       HT       0.417000       1.00800           0
     58740 TIP3     12120    TIP3     OH2      OT      -0.834000       15.9994           0
     58741 TIP3     12120    TIP3     H1       HT       0.417000       1.00800           0
     58742 TIP3     12120    TIP3     H2       HT       0.417000       1.00800           0
     58743 TIP3     12121    TIP3     OH2      OT      -0.834000       15.9994           0
     58744 TIP3     12121    TIP3     H1       HT       0.417000       1.00800           0
     58745 TIP3     12121    TIP3     H2       HT       0.417000       1.00800           0
     58746 TIP3     12122    TIP3     OH2      OT      -0.834000       15.9994           0
     58747 TIP3     12122    TIP3     H1       HT       0.417000       1.00800           0
     58748 TIP3     12122    TIP3     H2       HT       0.417000       1.00800           0
     58749 TIP3     12123    TIP3     OH2      OT      -0.834000       15.9994           0
     58750 TIP3     12123    TIP3     H1       HT       0.417000       1.00800           0
     58751 TIP3     12123    TIP3     H2       HT       0.417000       1.00800           0
     58752 TIP3     12124    TIP3     OH2      OT      -0.834000       15.9994           0
     58753 TIP3     12124    TIP3     H1       HT       0.417000       1.00800           0
     58754 TIP3     12124    TIP3     H2       HT       0.417000       1.00800           0
     58755 TIP3     12125    TIP3     OH2      OT      -0.834000       15.9994           0
     58756 TIP3     12125    TIP3     H1       HT       0.417000       1.00800           0
     58757 TIP3     12125    TIP3     H2       HT       0.417000       1.00800           0
     58758 TIP3     12126    TIP3     OH2      OT      -0.834000       15.9994           0
     58759 TIP3     12126    TIP3     H1       HT       0.417000       1.00800           0
     58760 TIP3     12126    TIP3     H2       HT       0.417000       1.00800           0
     58761 TIP3     12127    TIP3     OH2      OT      -0.834000       15.9994           0
     58762 TIP3     12127    TIP3     H1       HT       0.417000       1.00800           0
     58763 TIP3     12127    TIP3     H2       HT       0.417000       1.00800           0
     58764 TIP3     12128    TIP3     OH2      OT      -0.834000       15.9994           0
     58765 TIP3     12128    TIP3     H1       HT       0.417000       1.00800           0
     58766 TIP3     12128    TIP3     H2       HT       0.417000       1.00800           0
     58767 TIP3     12129    TIP3     OH2      OT      -0.834000       15.9994           0
     58768 TIP3     12129    TIP3     H1       HT       0.417000       1.00800           0
     58769 TIP3     12129    TIP3     H2       HT       0.417000       1.00800           0
     58770 TIP3     12130    TIP3     OH2      OT      -0.834000       15.9994           0
     58771 TIP3     12130    TIP3     H1       HT       0.417000       1.00800           0
     58772 TIP3     12130    TIP3     H2       HT       0.417000       1.00800           0
     58773 TIP3     12131    TIP3     OH2      OT      -0.834000       15.9994           0
     58774 TIP3     12131    TIP3     H1       HT       0.417000       1.00800           0
     58775 TIP3     12131    TIP3     H2       HT       0.417000       1.00800           0
     58776 TIP3     12132    TIP3     OH2      OT      -0.834000       15.9994           0
     58777 TIP3     12132    TIP3     H1       HT       0.417000       1.00800           0
     58778 TIP3     12132    TIP3     H2       HT       0.417000       1.00800           0
     58779 TIP3     12133    TIP3     OH2      OT      -0.834000       15.9994           0
     58780 TIP3     12133    TIP3     H1       HT       0.417000       1.00800           0
     58781 TIP3     12133    TIP3     H2       HT       0.417000       1.00800           0
     58782 TIP3     12134    TIP3     OH2      OT      -0.834000       15.9994           0
     58783 TIP3     12134    TIP3     H1       HT       0.417000       1.00800           0
     58784 TIP3     12134    TIP3     H2       HT       0.417000       1.00800           0
     58785 TIP3     12135    TIP3     OH2      OT      -0.834000       15.9994           0
     58786 TIP3     12135    TIP3     H1       HT       0.417000       1.00800           0
     58787 TIP3     12135    TIP3     H2       HT       0.417000       1.00800           0
     58788 TIP3     12136    TIP3     OH2      OT      -0.834000       15.9994           0
     58789 TIP3     12136    TIP3     H1       HT       0.417000       1.00800           0
     58790 TIP3     12136    TIP3     H2       HT       0.417000       1.00800           0
     58791 TIP3     12137    TIP3     OH2      OT      -0.834000       15.9994           0
     58792 TIP3     12137    TIP3     H1       HT       0.417000       1.00800           0
     58793 TIP3     12137    TIP3     H2       HT       0.417000       1.00800           0
     58794 TIP3     12138    TIP3     OH2      OT      -0.834000       15.9994           0
     58795 TIP3     12138    TIP3     H1       HT       0.417000       1.00800           0
     58796 TIP3     12138    TIP3     H2       HT       0.417000       1.00800           0
     58797 TIP3     12139    TIP3     OH2      OT      -0.834000       15.9994           0
     58798 TIP3     12139    TIP3     H1       HT       0.417000       1.00800           0
     58799 TIP3     12139    TIP3     H2       HT       0.417000       1.00800           0
     58800 TIP3     12140    TIP3     OH2      OT      -0.834000       15.9994           0
     58801 TIP3     12140    TIP3     H1       HT       0.417000       1.00800           0
     58802 TIP3     12140    TIP3     H2       HT       0.417000       1.00800           0
     58803 TIP3     12141    TIP3     OH2      OT      -0.834000       15.9994           0
     58804 TIP3     12141    TIP3     H1       HT       0.417000       1.00800           0
     58805 TIP3     12141    TIP3     H2       HT       0.417000       1.00800           0
     58806 TIP3     12142    TIP3     OH2      OT      -0.834000       15.9994           0
     58807 TIP3     12142    TIP3     H1       HT       0.417000       1.00800           0
     58808 TIP3     12142    TIP3     H2       HT       0.417000       1.00800           0
     58809 TIP3     12143    TIP3     OH2      OT      -0.834000       15.9994           0
     58810 TIP3     12143    TIP3     H1       HT       0.417000       1.00800           0
     58811 TIP3     12143    TIP3     H2       HT       0.417000       1.00800           0
     58812 TIP3     12144    TIP3     OH2      OT      -0.834000       15.9994           0
     58813 TIP3     12144    TIP3     H1       HT       0.417000       1.00800           0
     58814 TIP3     12144    TIP3     H2       HT       0.417000       1.00800           0
     58815 TIP3     12145    TIP3     OH2      OT      -0.834000       15.9994           0
     58816 TIP3     12145    TIP3     H1       HT       0.417000       1.00800           0
     58817 TIP3     12145    TIP3     H2       HT       0.417000       1.00800           0
     58818 TIP3     12146    TIP3     OH2      OT      -0.834000       15.9994           0
     58819 TIP3     12146    TIP3     H1       HT       0.417000       1.00800           0
     58820 TIP3     12146    TIP3     H2       HT       0.417000       1.00800           0
     58821 TIP3     12147    TIP3     OH2      OT      -0.834000       15.9994           0
     58822 TIP3     12147    TIP3     H1       HT       0.417000       1.00800           0
     58823 TIP3     12147    TIP3     H2       HT       0.417000       1.00800           0
     58824 TIP3     12148    TIP3     OH2      OT      -0.834000       15.9994           0
     58825 TIP3     12148    TIP3     H1       HT       0.417000       1.00800           0
     58826 TIP3     12148    TIP3     H2       HT       0.417000       1.00800           0
     58827 TIP3     12149    TIP3     OH2      OT      -0.834000       15.9994           0
     58828 TIP3     12149    TIP3     H1       HT       0.417000       1.00800           0
     58829 TIP3     12149    TIP3     H2       HT       0.417000       1.00800           0
     58830 TIP3     12150    TIP3     OH2      OT      -0.834000       15.9994           0
     58831 TIP3     12150    TIP3     H1       HT       0.417000       1.00800           0
     58832 TIP3     12150    TIP3     H2       HT       0.417000       1.00800           0
     58833 TIP3     12151    TIP3     OH2      OT      -0.834000       15.9994           0
     58834 TIP3     12151    TIP3     H1       HT       0.417000       1.00800           0
     58835 TIP3     12151    TIP3     H2       HT       0.417000       1.00800           0
     58836 TIP3     12152    TIP3     OH2      OT      -0.834000       15.9994           0
     58837 TIP3     12152    TIP3     H1       HT       0.417000       1.00800           0
     58838 TIP3     12152    TIP3     H2       HT       0.417000       1.00800           0
     58839 TIP3     12153    TIP3     OH2      OT      -0.834000       15.9994           0
     58840 TIP3     12153    TIP3     H1       HT       0.417000       1.00800           0
     58841 TIP3     12153    TIP3     H2       HT       0.417000       1.00800           0
     58842 TIP3     12154    TIP3     OH2      OT      -0.834000       15.9994           0
     58843 TIP3     12154    TIP3     H1       HT       0.417000       1.00800           0
     58844 TIP3     12154    TIP3     H2       HT       0.417000       1.00800           0
     58845 TIP3     12155    TIP3     OH2      OT      -0.834000       15.9994           0
     58846 TIP3     12155    TIP3     H1       HT       0.417000       1.00800           0
     58847 TIP3     12155    TIP3     H2       HT       0.417000       1.00800           0
     58848 TIP3     12156    TIP3     OH2      OT      -0.834000       15.9994           0
     58849 TIP3     12156    TIP3     H1       HT       0.417000       1.00800           0
     58850 TIP3     12156    TIP3     H2       HT       0.417000       1.00800           0
     58851 TIP3     12157    TIP3     OH2      OT      -0.834000       15.9994           0
     58852 TIP3     12157    TIP3     H1       HT       0.417000       1.00800           0
     58853 TIP3     12157    TIP3     H2       HT       0.417000       1.00800           0
     58854 TIP3     12158    TIP3     OH2      OT      -0.834000       15.9994           0
     58855 TIP3     12158    TIP3     H1       HT       0.417000       1.00800           0
     58856 TIP3     12158    TIP3     H2       HT       0.417000       1.00800           0
     58857 TIP3     12159    TIP3     OH2      OT      -0.834000       15.9994           0
     58858 TIP3     12159    TIP3     H1       HT       0.417000       1.00800           0
     58859 TIP3     12159    TIP3     H2       HT       0.417000       1.00800           0
     58860 TIP3     12160    TIP3     OH2      OT      -0.834000       15.9994           0
     58861 TIP3     12160    TIP3     H1       HT       0.417000       1.00800           0
     58862 TIP3     12160    TIP3     H2       HT       0.417000       1.00800           0
     58863 TIP3     12161    TIP3     OH2      OT      -0.834000       15.9994           0
     58864 TIP3     12161    TIP3     H1       HT       0.417000       1.00800           0
     58865 TIP3     12161    TIP3     H2       HT       0.417000       1.00800           0
     58866 TIP3     12162    TIP3     OH2      OT      -0.834000       15.9994           0
     58867 TIP3     12162    TIP3     H1       HT       0.417000       1.00800           0
     58868 TIP3     12162    TIP3     H2       HT       0.417000       1.00800           0
     58869 TIP3     12163    TIP3     OH2      OT      -0.834000       15.9994           0
     58870 TIP3     12163    TIP3     H1       HT       0.417000       1.00800           0
     58871 TIP3     12163    TIP3     H2       HT       0.417000       1.00800           0
     58872 TIP3     12164    TIP3     OH2      OT      -0.834000       15.9994           0
     58873 TIP3     12164    TIP3     H1       HT       0.417000       1.00800           0
     58874 TIP3     12164    TIP3     H2       HT       0.417000       1.00800           0
     58875 TIP3     12165    TIP3     OH2      OT      -0.834000       15.9994           0
     58876 TIP3     12165    TIP3     H1       HT       0.417000       1.00800           0
     58877 TIP3     12165    TIP3     H2       HT       0.417000       1.00800           0
     58878 TIP3     12166    TIP3     OH2      OT      -0.834000       15.9994           0
     58879 TIP3     12166    TIP3     H1       HT       0.417000       1.00800           0
     58880 TIP3     12166    TIP3     H2       HT       0.417000       1.00800           0
     58881 TIP3     12167    TIP3     OH2      OT      -0.834000       15.9994           0
     58882 TIP3     12167    TIP3     H1       HT       0.417000       1.00800           0
     58883 TIP3     12167    TIP3     H2       HT       0.417000       1.00800           0
     58884 TIP3     12168    TIP3     OH2      OT      -0.834000       15.9994           0
     58885 TIP3     12168    TIP3     H1       HT       0.417000       1.00800           0
     58886 TIP3     12168    TIP3     H2       HT       0.417000       1.00800           0
     58887 TIP3     12169    TIP3     OH2      OT      -0.834000       15.9994           0
     58888 TIP3     12169    TIP3     H1       HT       0.417000       1.00800           0
     58889 TIP3     12169    TIP3     H2       HT       0.417000       1.00800           0
     58890 TIP3     12170    TIP3     OH2      OT      -0.834000       15.9994           0
     58891 TIP3     12170    TIP3     H1       HT       0.417000       1.00800           0
     58892 TIP3     12170    TIP3     H2       HT       0.417000       1.00800           0
     58893 TIP3     12171    TIP3     OH2      OT      -0.834000       15.9994           0
     58894 TIP3     12171    TIP3     H1       HT       0.417000       1.00800           0
     58895 TIP3     12171    TIP3     H2       HT       0.417000       1.00800           0
     58896 TIP3     12172    TIP3     OH2      OT      -0.834000       15.9994           0
     58897 TIP3     12172    TIP3     H1       HT       0.417000       1.00800           0
     58898 TIP3     12172    TIP3     H2       HT       0.417000       1.00800           0
     58899 TIP3     12173    TIP3     OH2      OT      -0.834000       15.9994           0
     58900 TIP3     12173    TIP3     H1       HT       0.417000       1.00800           0
     58901 TIP3     12173    TIP3     H2       HT       0.417000       1.00800           0
     58902 TIP3     12174    TIP3     OH2      OT      -0.834000       15.9994           0
     58903 TIP3     12174    TIP3     H1       HT       0.417000       1.00800           0
     58904 TIP3     12174    TIP3     H2       HT       0.417000       1.00800           0
     58905 TIP3     12175    TIP3     OH2      OT      -0.834000       15.9994           0
     58906 TIP3     12175    TIP3     H1       HT       0.417000       1.00800           0
     58907 TIP3     12175    TIP3     H2       HT       0.417000       1.00800           0
     58908 TIP3     12176    TIP3     OH2      OT      -0.834000       15.9994           0
     58909 TIP3     12176    TIP3     H1       HT       0.417000       1.00800           0
     58910 TIP3     12176    TIP3     H2       HT       0.417000       1.00800           0
     58911 TIP3     12177    TIP3     OH2      OT      -0.834000       15.9994           0
     58912 TIP3     12177    TIP3     H1       HT       0.417000       1.00800           0
     58913 TIP3     12177    TIP3     H2       HT       0.417000       1.00800           0
     58914 TIP3     12178    TIP3     OH2      OT      -0.834000       15.9994           0
     58915 TIP3     12178    TIP3     H1       HT       0.417000       1.00800           0
     58916 TIP3     12178    TIP3     H2       HT       0.417000       1.00800           0
     58917 TIP3     12179    TIP3     OH2      OT      -0.834000       15.9994           0
     58918 TIP3     12179    TIP3     H1       HT       0.417000       1.00800           0
     58919 TIP3     12179    TIP3     H2       HT       0.417000       1.00800           0
     58920 TIP3     12180    TIP3     OH2      OT      -0.834000       15.9994           0
     58921 TIP3     12180    TIP3     H1       HT       0.417000       1.00800           0
     58922 TIP3     12180    TIP3     H2       HT       0.417000       1.00800           0
     58923 TIP3     12181    TIP3     OH2      OT      -0.834000       15.9994           0
     58924 TIP3     12181    TIP3     H1       HT       0.417000       1.00800           0
     58925 TIP3     12181    TIP3     H2       HT       0.417000       1.00800           0
     58926 TIP3     12182    TIP3     OH2      OT      -0.834000       15.9994           0
     58927 TIP3     12182    TIP3     H1       HT       0.417000       1.00800           0
     58928 TIP3     12182    TIP3     H2       HT       0.417000       1.00800           0
     58929 TIP3     12183    TIP3     OH2      OT      -0.834000       15.9994           0
     58930 TIP3     12183    TIP3     H1       HT       0.417000       1.00800           0
     58931 TIP3     12183    TIP3     H2       HT       0.417000       1.00800           0
     58932 TIP3     12184    TIP3     OH2      OT      -0.834000       15.9994           0
     58933 TIP3     12184    TIP3     H1       HT       0.417000       1.00800           0
     58934 TIP3     12184    TIP3     H2       HT       0.417000       1.00800           0
     58935 TIP3     12185    TIP3     OH2      OT      -0.834000       15.9994           0
     58936 TIP3     12185    TIP3     H1       HT       0.417000       1.00800           0
     58937 TIP3     12185    TIP3     H2       HT       0.417000       1.00800           0
     58938 TIP3     12186    TIP3     OH2      OT      -0.834000       15.9994           0
     58939 TIP3     12186    TIP3     H1       HT       0.417000       1.00800           0
     58940 TIP3     12186    TIP3     H2       HT       0.417000       1.00800           0
     58941 TIP3     12187    TIP3     OH2      OT      -0.834000       15.9994           0
     58942 TIP3     12187    TIP3     H1       HT       0.417000       1.00800           0
     58943 TIP3     12187    TIP3     H2       HT       0.417000       1.00800           0
     58944 TIP3     12188    TIP3     OH2      OT      -0.834000       15.9994           0
     58945 TIP3     12188    TIP3     H1       HT       0.417000       1.00800           0
     58946 TIP3     12188    TIP3     H2       HT       0.417000       1.00800           0
     58947 TIP3     12189    TIP3     OH2      OT      -0.834000       15.9994           0
     58948 TIP3     12189    TIP3     H1       HT       0.417000       1.00800           0
     58949 TIP3     12189    TIP3     H2       HT       0.417000       1.00800           0
     58950 TIP3     12190    TIP3     OH2      OT      -0.834000       15.9994           0
     58951 TIP3     12190    TIP3     H1       HT       0.417000       1.00800           0
     58952 TIP3     12190    TIP3     H2       HT       0.417000       1.00800           0
     58953 TIP3     12191    TIP3     OH2      OT      -0.834000       15.9994           0
     58954 TIP3     12191    TIP3     H1       HT       0.417000       1.00800           0
     58955 TIP3     12191    TIP3     H2       HT       0.417000       1.00800           0
     58956 TIP3     12192    TIP3     OH2      OT      -0.834000       15.9994           0
     58957 TIP3     12192    TIP3     H1       HT       0.417000       1.00800           0
     58958 TIP3     12192    TIP3     H2       HT       0.417000       1.00800           0
     58959 TIP3     12193    TIP3     OH2      OT      -0.834000       15.9994           0
     58960 TIP3     12193    TIP3     H1       HT       0.417000       1.00800           0
     58961 TIP3     12193    TIP3     H2       HT       0.417000       1.00800           0
     58962 TIP3     12194    TIP3     OH2      OT      -0.834000       15.9994           0
     58963 TIP3     12194    TIP3     H1       HT       0.417000       1.00800           0
     58964 TIP3     12194    TIP3     H2       HT       0.417000       1.00800           0
     58965 TIP3     12195    TIP3     OH2      OT      -0.834000       15.9994           0
     58966 TIP3     12195    TIP3     H1       HT       0.417000       1.00800           0
     58967 TIP3     12195    TIP3     H2       HT       0.417000       1.00800           0
     58968 TIP3     12196    TIP3     OH2      OT      -0.834000       15.9994           0
     58969 TIP3     12196    TIP3     H1       HT       0.417000       1.00800           0
     58970 TIP3     12196    TIP3     H2       HT       0.417000       1.00800           0
     58971 TIP3     12197    TIP3     OH2      OT      -0.834000       15.9994           0
     58972 TIP3     12197    TIP3     H1       HT       0.417000       1.00800           0
     58973 TIP3     12197    TIP3     H2       HT       0.417000       1.00800           0
     58974 TIP3     12198    TIP3     OH2      OT      -0.834000       15.9994           0
     58975 TIP3     12198    TIP3     H1       HT       0.417000       1.00800           0
     58976 TIP3     12198    TIP3     H2       HT       0.417000       1.00800           0
     58977 TIP3     12199    TIP3     OH2      OT      -0.834000       15.9994           0
     58978 TIP3     12199    TIP3     H1       HT       0.417000       1.00800           0
     58979 TIP3     12199    TIP3     H2       HT       0.417000       1.00800           0
     58980 TIP3     12200    TIP3     OH2      OT      -0.834000       15.9994           0
     58981 TIP3     12200    TIP3     H1       HT       0.417000       1.00800           0
     58982 TIP3     12200    TIP3     H2       HT       0.417000       1.00800           0
     58983 TIP3     12201    TIP3     OH2      OT      -0.834000       15.9994           0
     58984 TIP3     12201    TIP3     H1       HT       0.417000       1.00800           0
     58985 TIP3     12201    TIP3     H2       HT       0.417000       1.00800           0
     58986 TIP3     12202    TIP3     OH2      OT      -0.834000       15.9994           0
     58987 TIP3     12202    TIP3     H1       HT       0.417000       1.00800           0
     58988 TIP3     12202    TIP3     H2       HT       0.417000       1.00800           0
     58989 TIP3     12203    TIP3     OH2      OT      -0.834000       15.9994           0
     58990 TIP3     12203    TIP3     H1       HT       0.417000       1.00800           0
     58991 TIP3     12203    TIP3     H2       HT       0.417000       1.00800           0
     58992 TIP3     12204    TIP3     OH2      OT      -0.834000       15.9994           0
     58993 TIP3     12204    TIP3     H1       HT       0.417000       1.00800           0
     58994 TIP3     12204    TIP3     H2       HT       0.417000       1.00800           0
     58995 TIP3     12205    TIP3     OH2      OT      -0.834000       15.9994           0
     58996 TIP3     12205    TIP3     H1       HT       0.417000       1.00800           0
     58997 TIP3     12205    TIP3     H2       HT       0.417000       1.00800           0
     58998 TIP3     12206    TIP3     OH2      OT      -0.834000       15.9994           0
     58999 TIP3     12206    TIP3     H1       HT       0.417000       1.00800           0
     59000 TIP3     12206    TIP3     H2       HT       0.417000       1.00800           0
     59001 TIP3     12207    TIP3     OH2      OT      -0.834000       15.9994           0
     59002 TIP3     12207    TIP3     H1       HT       0.417000       1.00800           0
     59003 TIP3     12207    TIP3     H2       HT       0.417000       1.00800           0
     59004 TIP3     12208    TIP3     OH2      OT      -0.834000       15.9994           0
     59005 TIP3     12208    TIP3     H1       HT       0.417000       1.00800           0
     59006 TIP3     12208    TIP3     H2       HT       0.417000       1.00800           0
     59007 TIP3     12209    TIP3     OH2      OT      -0.834000       15.9994           0
     59008 TIP3     12209    TIP3     H1       HT       0.417000       1.00800           0
     59009 TIP3     12209    TIP3     H2       HT       0.417000       1.00800           0
     59010 TIP3     12210    TIP3     OH2      OT      -0.834000       15.9994           0
     59011 TIP3     12210    TIP3     H1       HT       0.417000       1.00800           0
     59012 TIP3     12210    TIP3     H2       HT       0.417000       1.00800           0
     59013 TIP3     12211    TIP3     OH2      OT      -0.834000       15.9994           0
     59014 TIP3     12211    TIP3     H1       HT       0.417000       1.00800           0
     59015 TIP3     12211    TIP3     H2       HT       0.417000       1.00800           0
     59016 TIP3     12212    TIP3     OH2      OT      -0.834000       15.9994           0
     59017 TIP3     12212    TIP3     H1       HT       0.417000       1.00800           0
     59018 TIP3     12212    TIP3     H2       HT       0.417000       1.00800           0
     59019 TIP3     12213    TIP3     OH2      OT      -0.834000       15.9994           0
     59020 TIP3     12213    TIP3     H1       HT       0.417000       1.00800           0
     59021 TIP3     12213    TIP3     H2       HT       0.417000       1.00800           0
     59022 TIP3     12214    TIP3     OH2      OT      -0.834000       15.9994           0
     59023 TIP3     12214    TIP3     H1       HT       0.417000       1.00800           0
     59024 TIP3     12214    TIP3     H2       HT       0.417000       1.00800           0
     59025 TIP3     12215    TIP3     OH2      OT      -0.834000       15.9994           0
     59026 TIP3     12215    TIP3     H1       HT       0.417000       1.00800           0
     59027 TIP3     12215    TIP3     H2       HT       0.417000       1.00800           0
     59028 TIP3     12216    TIP3     OH2      OT      -0.834000       15.9994           0
     59029 TIP3     12216    TIP3     H1       HT       0.417000       1.00800           0
     59030 TIP3     12216    TIP3     H2       HT       0.417000       1.00800           0
     59031 TIP3     12217    TIP3     OH2      OT      -0.834000       15.9994           0
     59032 TIP3     12217    TIP3     H1       HT       0.417000       1.00800           0
     59033 TIP3     12217    TIP3     H2       HT       0.417000       1.00800           0
     59034 TIP3     12218    TIP3     OH2      OT      -0.834000       15.9994           0
     59035 TIP3     12218    TIP3     H1       HT       0.417000       1.00800           0
     59036 TIP3     12218    TIP3     H2       HT       0.417000       1.00800           0
     59037 TIP3     12219    TIP3     OH2      OT      -0.834000       15.9994           0
     59038 TIP3     12219    TIP3     H1       HT       0.417000       1.00800           0
     59039 TIP3     12219    TIP3     H2       HT       0.417000       1.00800           0
     59040 TIP3     12220    TIP3     OH2      OT      -0.834000       15.9994           0
     59041 TIP3     12220    TIP3     H1       HT       0.417000       1.00800           0
     59042 TIP3     12220    TIP3     H2       HT       0.417000       1.00800           0
     59043 TIP3     12221    TIP3     OH2      OT      -0.834000       15.9994           0
     59044 TIP3     12221    TIP3     H1       HT       0.417000       1.00800           0
     59045 TIP3     12221    TIP3     H2       HT       0.417000       1.00800           0
     59046 TIP3     12222    TIP3     OH2      OT      -0.834000       15.9994           0
     59047 TIP3     12222    TIP3     H1       HT       0.417000       1.00800           0
     59048 TIP3     12222    TIP3     H2       HT       0.417000       1.00800           0
     59049 TIP3     12223    TIP3     OH2      OT      -0.834000       15.9994           0
     59050 TIP3     12223    TIP3     H1       HT       0.417000       1.00800           0
     59051 TIP3     12223    TIP3     H2       HT       0.417000       1.00800           0
     59052 TIP3     12224    TIP3     OH2      OT      -0.834000       15.9994           0
     59053 TIP3     12224    TIP3     H1       HT       0.417000       1.00800           0
     59054 TIP3     12224    TIP3     H2       HT       0.417000       1.00800           0
     59055 TIP3     12225    TIP3     OH2      OT      -0.834000       15.9994           0
     59056 TIP3     12225    TIP3     H1       HT       0.417000       1.00800           0
     59057 TIP3     12225    TIP3     H2       HT       0.417000       1.00800           0
     59058 TIP3     12226    TIP3     OH2      OT      -0.834000       15.9994           0
     59059 TIP3     12226    TIP3     H1       HT       0.417000       1.00800           0
     59060 TIP3     12226    TIP3     H2       HT       0.417000       1.00800           0
     59061 TIP3     12227    TIP3     OH2      OT      -0.834000       15.9994           0
     59062 TIP3     12227    TIP3     H1       HT       0.417000       1.00800           0
     59063 TIP3     12227    TIP3     H2       HT       0.417000       1.00800           0
     59064 TIP3     12228    TIP3     OH2      OT      -0.834000       15.9994           0
     59065 TIP3     12228    TIP3     H1       HT       0.417000       1.00800           0
     59066 TIP3     12228    TIP3     H2       HT       0.417000       1.00800           0
     59067 TIP3     12229    TIP3     OH2      OT      -0.834000       15.9994           0
     59068 TIP3     12229    TIP3     H1       HT       0.417000       1.00800           0
     59069 TIP3     12229    TIP3     H2       HT       0.417000       1.00800           0
     59070 TIP3     12230    TIP3     OH2      OT      -0.834000       15.9994           0
     59071 TIP3     12230    TIP3     H1       HT       0.417000       1.00800           0
     59072 TIP3     12230    TIP3     H2       HT       0.417000       1.00800           0
     59073 TIP3     12231    TIP3     OH2      OT      -0.834000       15.9994           0
     59074 TIP3     12231    TIP3     H1       HT       0.417000       1.00800           0
     59075 TIP3     12231    TIP3     H2       HT       0.417000       1.00800           0
     59076 TIP3     12232    TIP3     OH2      OT      -0.834000       15.9994           0
     59077 TIP3     12232    TIP3     H1       HT       0.417000       1.00800           0
     59078 TIP3     12232    TIP3     H2       HT       0.417000       1.00800           0
     59079 TIP3     12233    TIP3     OH2      OT      -0.834000       15.9994           0
     59080 TIP3     12233    TIP3     H1       HT       0.417000       1.00800           0
     59081 TIP3     12233    TIP3     H2       HT       0.417000       1.00800           0
     59082 TIP3     12234    TIP3     OH2      OT      -0.834000       15.9994           0
     59083 TIP3     12234    TIP3     H1       HT       0.417000       1.00800           0
     59084 TIP3     12234    TIP3     H2       HT       0.417000       1.00800           0
     59085 TIP3     12235    TIP3     OH2      OT      -0.834000       15.9994           0
     59086 TIP3     12235    TIP3     H1       HT       0.417000       1.00800           0
     59087 TIP3     12235    TIP3     H2       HT       0.417000       1.00800           0
     59088 TIP3     12236    TIP3     OH2      OT      -0.834000       15.9994           0
     59089 TIP3     12236    TIP3     H1       HT       0.417000       1.00800           0
     59090 TIP3     12236    TIP3     H2       HT       0.417000       1.00800           0
     59091 TIP3     12237    TIP3     OH2      OT      -0.834000       15.9994           0
     59092 TIP3     12237    TIP3     H1       HT       0.417000       1.00800           0
     59093 TIP3     12237    TIP3     H2       HT       0.417000       1.00800           0
     59094 TIP3     12238    TIP3     OH2      OT      -0.834000       15.9994           0
     59095 TIP3     12238    TIP3     H1       HT       0.417000       1.00800           0
     59096 TIP3     12238    TIP3     H2       HT       0.417000       1.00800           0
     59097 TIP3     12239    TIP3     OH2      OT      -0.834000       15.9994           0
     59098 TIP3     12239    TIP3     H1       HT       0.417000       1.00800           0
     59099 TIP3     12239    TIP3     H2       HT       0.417000       1.00800           0
     59100 TIP3     12240    TIP3     OH2      OT      -0.834000       15.9994           0
     59101 TIP3     12240    TIP3     H1       HT       0.417000       1.00800           0
     59102 TIP3     12240    TIP3     H2       HT       0.417000       1.00800           0
     59103 TIP3     12241    TIP3     OH2      OT      -0.834000       15.9994           0
     59104 TIP3     12241    TIP3     H1       HT       0.417000       1.00800           0
     59105 TIP3     12241    TIP3     H2       HT       0.417000       1.00800           0
     59106 TIP3     12242    TIP3     OH2      OT      -0.834000       15.9994           0
     59107 TIP3     12242    TIP3     H1       HT       0.417000       1.00800           0
     59108 TIP3     12242    TIP3     H2       HT       0.417000       1.00800           0
     59109 TIP3     12243    TIP3     OH2      OT      -0.834000       15.9994           0
     59110 TIP3     12243    TIP3     H1       HT       0.417000       1.00800           0
     59111 TIP3     12243    TIP3     H2       HT       0.417000       1.00800           0
     59112 TIP3     12244    TIP3     OH2      OT      -0.834000       15.9994           0
     59113 TIP3     12244    TIP3     H1       HT       0.417000       1.00800           0
     59114 TIP3     12244    TIP3     H2       HT       0.417000       1.00800           0
     59115 TIP3     12245    TIP3     OH2      OT      -0.834000       15.9994           0
     59116 TIP3     12245    TIP3     H1       HT       0.417000       1.00800           0
     59117 TIP3     12245    TIP3     H2       HT       0.417000       1.00800           0
     59118 TIP3     12246    TIP3     OH2      OT      -0.834000       15.9994           0
     59119 TIP3     12246    TIP3     H1       HT       0.417000       1.00800           0
     59120 TIP3     12246    TIP3     H2       HT       0.417000       1.00800           0
     59121 TIP3     12247    TIP3     OH2      OT      -0.834000       15.9994           0
     59122 TIP3     12247    TIP3     H1       HT       0.417000       1.00800           0
     59123 TIP3     12247    TIP3     H2       HT       0.417000       1.00800           0
     59124 TIP3     12248    TIP3     OH2      OT      -0.834000       15.9994           0
     59125 TIP3     12248    TIP3     H1       HT       0.417000       1.00800           0
     59126 TIP3     12248    TIP3     H2       HT       0.417000       1.00800           0
     59127 TIP3     12249    TIP3     OH2      OT      -0.834000       15.9994           0
     59128 TIP3     12249    TIP3     H1       HT       0.417000       1.00800           0
     59129 TIP3     12249    TIP3     H2       HT       0.417000       1.00800           0
     59130 TIP3     12250    TIP3     OH2      OT      -0.834000       15.9994           0
     59131 TIP3     12250    TIP3     H1       HT       0.417000       1.00800           0
     59132 TIP3     12250    TIP3     H2       HT       0.417000       1.00800           0
     59133 TIP3     12251    TIP3     OH2      OT      -0.834000       15.9994           0
     59134 TIP3     12251    TIP3     H1       HT       0.417000       1.00800           0
     59135 TIP3     12251    TIP3     H2       HT       0.417000       1.00800           0
     59136 TIP3     12252    TIP3     OH2      OT      -0.834000       15.9994           0
     59137 TIP3     12252    TIP3     H1       HT       0.417000       1.00800           0
     59138 TIP3     12252    TIP3     H2       HT       0.417000       1.00800           0
     59139 TIP3     12253    TIP3     OH2      OT      -0.834000       15.9994           0
     59140 TIP3     12253    TIP3     H1       HT       0.417000       1.00800           0
     59141 TIP3     12253    TIP3     H2       HT       0.417000       1.00800           0
     59142 TIP3     12254    TIP3     OH2      OT      -0.834000       15.9994           0
     59143 TIP3     12254    TIP3     H1       HT       0.417000       1.00800           0
     59144 TIP3     12254    TIP3     H2       HT       0.417000       1.00800           0
     59145 TIP3     12255    TIP3     OH2      OT      -0.834000       15.9994           0
     59146 TIP3     12255    TIP3     H1       HT       0.417000       1.00800           0
     59147 TIP3     12255    TIP3     H2       HT       0.417000       1.00800           0
     59148 TIP3     12256    TIP3     OH2      OT      -0.834000       15.9994           0
     59149 TIP3     12256    TIP3     H1       HT       0.417000       1.00800           0
     59150 TIP3     12256    TIP3     H2       HT       0.417000       1.00800           0
     59151 TIP3     12257    TIP3     OH2      OT      -0.834000       15.9994           0
     59152 TIP3     12257    TIP3     H1       HT       0.417000       1.00800           0
     59153 TIP3     12257    TIP3     H2       HT       0.417000       1.00800           0
     59154 TIP3     12258    TIP3     OH2      OT      -0.834000       15.9994           0
     59155 TIP3     12258    TIP3     H1       HT       0.417000       1.00800           0
     59156 TIP3     12258    TIP3     H2       HT       0.417000       1.00800           0
     59157 TIP3     12259    TIP3     OH2      OT      -0.834000       15.9994           0
     59158 TIP3     12259    TIP3     H1       HT       0.417000       1.00800           0
     59159 TIP3     12259    TIP3     H2       HT       0.417000       1.00800           0
     59160 TIP3     12260    TIP3     OH2      OT      -0.834000       15.9994           0
     59161 TIP3     12260    TIP3     H1       HT       0.417000       1.00800           0
     59162 TIP3     12260    TIP3     H2       HT       0.417000       1.00800           0
     59163 TIP3     12261    TIP3     OH2      OT      -0.834000       15.9994           0
     59164 TIP3     12261    TIP3     H1       HT       0.417000       1.00800           0
     59165 TIP3     12261    TIP3     H2       HT       0.417000       1.00800           0
     59166 TIP3     12262    TIP3     OH2      OT      -0.834000       15.9994           0
     59167 TIP3     12262    TIP3     H1       HT       0.417000       1.00800           0
     59168 TIP3     12262    TIP3     H2       HT       0.417000       1.00800           0
     59169 TIP3     12263    TIP3     OH2      OT      -0.834000       15.9994           0
     59170 TIP3     12263    TIP3     H1       HT       0.417000       1.00800           0
     59171 TIP3     12263    TIP3     H2       HT       0.417000       1.00800           0
     59172 TIP3     12264    TIP3     OH2      OT      -0.834000       15.9994           0
     59173 TIP3     12264    TIP3     H1       HT       0.417000       1.00800           0
     59174 TIP3     12264    TIP3     H2       HT       0.417000       1.00800           0
     59175 TIP3     12265    TIP3     OH2      OT      -0.834000       15.9994           0
     59176 TIP3     12265    TIP3     H1       HT       0.417000       1.00800           0
     59177 TIP3     12265    TIP3     H2       HT       0.417000       1.00800           0
     59178 TIP3     12266    TIP3     OH2      OT      -0.834000       15.9994           0
     59179 TIP3     12266    TIP3     H1       HT       0.417000       1.00800           0
     59180 TIP3     12266    TIP3     H2       HT       0.417000       1.00800           0
     59181 TIP3     12267    TIP3     OH2      OT      -0.834000       15.9994           0
     59182 TIP3     12267    TIP3     H1       HT       0.417000       1.00800           0
     59183 TIP3     12267    TIP3     H2       HT       0.417000       1.00800           0
     59184 TIP3     12268    TIP3     OH2      OT      -0.834000       15.9994           0
     59185 TIP3     12268    TIP3     H1       HT       0.417000       1.00800           0
     59186 TIP3     12268    TIP3     H2       HT       0.417000       1.00800           0
     59187 TIP3     12269    TIP3     OH2      OT      -0.834000       15.9994           0
     59188 TIP3     12269    TIP3     H1       HT       0.417000       1.00800           0
     59189 TIP3     12269    TIP3     H2       HT       0.417000       1.00800           0
     59190 TIP3     12270    TIP3     OH2      OT      -0.834000       15.9994           0
     59191 TIP3     12270    TIP3     H1       HT       0.417000       1.00800           0
     59192 TIP3     12270    TIP3     H2       HT       0.417000       1.00800           0
     59193 TIP3     12271    TIP3     OH2      OT      -0.834000       15.9994           0
     59194 TIP3     12271    TIP3     H1       HT       0.417000       1.00800           0
     59195 TIP3     12271    TIP3     H2       HT       0.417000       1.00800           0
     59196 TIP3     12272    TIP3     OH2      OT      -0.834000       15.9994           0
     59197 TIP3     12272    TIP3     H1       HT       0.417000       1.00800           0
     59198 TIP3     12272    TIP3     H2       HT       0.417000       1.00800           0
     59199 TIP3     12273    TIP3     OH2      OT      -0.834000       15.9994           0
     59200 TIP3     12273    TIP3     H1       HT       0.417000       1.00800           0
     59201 TIP3     12273    TIP3     H2       HT       0.417000       1.00800           0
     59202 TIP3     12274    TIP3     OH2      OT      -0.834000       15.9994           0
     59203 TIP3     12274    TIP3     H1       HT       0.417000       1.00800           0
     59204 TIP3     12274    TIP3     H2       HT       0.417000       1.00800           0
     59205 TIP3     12275    TIP3     OH2      OT      -0.834000       15.9994           0
     59206 TIP3     12275    TIP3     H1       HT       0.417000       1.00800           0
     59207 TIP3     12275    TIP3     H2       HT       0.417000       1.00800           0
     59208 TIP3     12276    TIP3     OH2      OT      -0.834000       15.9994           0
     59209 TIP3     12276    TIP3     H1       HT       0.417000       1.00800           0
     59210 TIP3     12276    TIP3     H2       HT       0.417000       1.00800           0
     59211 TIP3     12277    TIP3     OH2      OT      -0.834000       15.9994           0
     59212 TIP3     12277    TIP3     H1       HT       0.417000       1.00800           0
     59213 TIP3     12277    TIP3     H2       HT       0.417000       1.00800           0
     59214 TIP3     12278    TIP3     OH2      OT      -0.834000       15.9994           0
     59215 TIP3     12278    TIP3     H1       HT       0.417000       1.00800           0
     59216 TIP3     12278    TIP3     H2       HT       0.417000       1.00800           0
     59217 TIP3     12279    TIP3     OH2      OT      -0.834000       15.9994           0
     59218 TIP3     12279    TIP3     H1       HT       0.417000       1.00800           0
     59219 TIP3     12279    TIP3     H2       HT       0.417000       1.00800           0
     59220 TIP3     12280    TIP3     OH2      OT      -0.834000       15.9994           0
     59221 TIP3     12280    TIP3     H1       HT       0.417000       1.00800           0
     59222 TIP3     12280    TIP3     H2       HT       0.417000       1.00800           0
     59223 TIP3     12281    TIP3     OH2      OT      -0.834000       15.9994           0
     59224 TIP3     12281    TIP3     H1       HT       0.417000       1.00800           0
     59225 TIP3     12281    TIP3     H2       HT       0.417000       1.00800           0
     59226 TIP3     12282    TIP3     OH2      OT      -0.834000       15.9994           0
     59227 TIP3     12282    TIP3     H1       HT       0.417000       1.00800           0
     59228 TIP3     12282    TIP3     H2       HT       0.417000       1.00800           0
     59229 TIP3     12283    TIP3     OH2      OT      -0.834000       15.9994           0
     59230 TIP3     12283    TIP3     H1       HT       0.417000       1.00800           0
     59231 TIP3     12283    TIP3     H2       HT       0.417000       1.00800           0
     59232 TIP3     12284    TIP3     OH2      OT      -0.834000       15.9994           0
     59233 TIP3     12284    TIP3     H1       HT       0.417000       1.00800           0
     59234 TIP3     12284    TIP3     H2       HT       0.417000       1.00800           0
     59235 TIP3     12285    TIP3     OH2      OT      -0.834000       15.9994           0
     59236 TIP3     12285    TIP3     H1       HT       0.417000       1.00800           0
     59237 TIP3     12285    TIP3     H2       HT       0.417000       1.00800           0
     59238 TIP3     12286    TIP3     OH2      OT      -0.834000       15.9994           0
     59239 TIP3     12286    TIP3     H1       HT       0.417000       1.00800           0
     59240 TIP3     12286    TIP3     H2       HT       0.417000       1.00800           0
     59241 TIP3     12287    TIP3     OH2      OT      -0.834000       15.9994           0
     59242 TIP3     12287    TIP3     H1       HT       0.417000       1.00800           0
     59243 TIP3     12287    TIP3     H2       HT       0.417000       1.00800           0
     59244 TIP3     12288    TIP3     OH2      OT      -0.834000       15.9994           0
     59245 TIP3     12288    TIP3     H1       HT       0.417000       1.00800           0
     59246 TIP3     12288    TIP3     H2       HT       0.417000       1.00800           0
     59247 TIP3     12289    TIP3     OH2      OT      -0.834000       15.9994           0
     59248 TIP3     12289    TIP3     H1       HT       0.417000       1.00800           0
     59249 TIP3     12289    TIP3     H2       HT       0.417000       1.00800           0
     59250 TIP3     12290    TIP3     OH2      OT      -0.834000       15.9994           0
     59251 TIP3     12290    TIP3     H1       HT       0.417000       1.00800           0
     59252 TIP3     12290    TIP3     H2       HT       0.417000       1.00800           0
     59253 TIP3     12291    TIP3     OH2      OT      -0.834000       15.9994           0
     59254 TIP3     12291    TIP3     H1       HT       0.417000       1.00800           0
     59255 TIP3     12291    TIP3     H2       HT       0.417000       1.00800           0
     59256 TIP3     12292    TIP3     OH2      OT      -0.834000       15.9994           0
     59257 TIP3     12292    TIP3     H1       HT       0.417000       1.00800           0
     59258 TIP3     12292    TIP3     H2       HT       0.417000       1.00800           0
     59259 TIP3     12293    TIP3     OH2      OT      -0.834000       15.9994           0
     59260 TIP3     12293    TIP3     H1       HT       0.417000       1.00800           0
     59261 TIP3     12293    TIP3     H2       HT       0.417000       1.00800           0
     59262 TIP3     12294    TIP3     OH2      OT      -0.834000       15.9994           0
     59263 TIP3     12294    TIP3     H1       HT       0.417000       1.00800           0
     59264 TIP3     12294    TIP3     H2       HT       0.417000       1.00800           0
     59265 TIP3     12295    TIP3     OH2      OT      -0.834000       15.9994           0
     59266 TIP3     12295    TIP3     H1       HT       0.417000       1.00800           0
     59267 TIP3     12295    TIP3     H2       HT       0.417000       1.00800           0
     59268 TIP3     12296    TIP3     OH2      OT      -0.834000       15.9994           0
     59269 TIP3     12296    TIP3     H1       HT       0.417000       1.00800           0
     59270 TIP3     12296    TIP3     H2       HT       0.417000       1.00800           0
     59271 TIP3     12297    TIP3     OH2      OT      -0.834000       15.9994           0
     59272 TIP3     12297    TIP3     H1       HT       0.417000       1.00800           0
     59273 TIP3     12297    TIP3     H2       HT       0.417000       1.00800           0
     59274 TIP3     12298    TIP3     OH2      OT      -0.834000       15.9994           0
     59275 TIP3     12298    TIP3     H1       HT       0.417000       1.00800           0
     59276 TIP3     12298    TIP3     H2       HT       0.417000       1.00800           0
     59277 TIP3     12299    TIP3     OH2      OT      -0.834000       15.9994           0
     59278 TIP3     12299    TIP3     H1       HT       0.417000       1.00800           0
     59279 TIP3     12299    TIP3     H2       HT       0.417000       1.00800           0
     59280 TIP3     12300    TIP3     OH2      OT      -0.834000       15.9994           0
     59281 TIP3     12300    TIP3     H1       HT       0.417000       1.00800           0
     59282 TIP3     12300    TIP3     H2       HT       0.417000       1.00800           0
     59283 TIP3     12301    TIP3     OH2      OT      -0.834000       15.9994           0
     59284 TIP3     12301    TIP3     H1       HT       0.417000       1.00800           0
     59285 TIP3     12301    TIP3     H2       HT       0.417000       1.00800           0
     59286 TIP3     12302    TIP3     OH2      OT      -0.834000       15.9994           0
     59287 TIP3     12302    TIP3     H1       HT       0.417000       1.00800           0
     59288 TIP3     12302    TIP3     H2       HT       0.417000       1.00800           0
     59289 TIP3     12303    TIP3     OH2      OT      -0.834000       15.9994           0
     59290 TIP3     12303    TIP3     H1       HT       0.417000       1.00800           0
     59291 TIP3     12303    TIP3     H2       HT       0.417000       1.00800           0
     59292 TIP3     12304    TIP3     OH2      OT      -0.834000       15.9994           0
     59293 TIP3     12304    TIP3     H1       HT       0.417000       1.00800           0
     59294 TIP3     12304    TIP3     H2       HT       0.417000       1.00800           0
     59295 TIP3     12305    TIP3     OH2      OT      -0.834000       15.9994           0
     59296 TIP3     12305    TIP3     H1       HT       0.417000       1.00800           0
     59297 TIP3     12305    TIP3     H2       HT       0.417000       1.00800           0
     59298 TIP3     12306    TIP3     OH2      OT      -0.834000       15.9994           0
     59299 TIP3     12306    TIP3     H1       HT       0.417000       1.00800           0
     59300 TIP3     12306    TIP3     H2       HT       0.417000       1.00800           0
     59301 TIP3     12307    TIP3     OH2      OT      -0.834000       15.9994           0
     59302 TIP3     12307    TIP3     H1       HT       0.417000       1.00800           0
     59303 TIP3     12307    TIP3     H2       HT       0.417000       1.00800           0
     59304 TIP3     12308    TIP3     OH2      OT      -0.834000       15.9994           0
     59305 TIP3     12308    TIP3     H1       HT       0.417000       1.00800           0
     59306 TIP3     12308    TIP3     H2       HT       0.417000       1.00800           0
     59307 TIP3     12309    TIP3     OH2      OT      -0.834000       15.9994           0
     59308 TIP3     12309    TIP3     H1       HT       0.417000       1.00800           0
     59309 TIP3     12309    TIP3     H2       HT       0.417000       1.00800           0
     59310 TIP3     12310    TIP3     OH2      OT      -0.834000       15.9994           0
     59311 TIP3     12310    TIP3     H1       HT       0.417000       1.00800           0
     59312 TIP3     12310    TIP3     H2       HT       0.417000       1.00800           0
     59313 TIP3     12311    TIP3     OH2      OT      -0.834000       15.9994           0
     59314 TIP3     12311    TIP3     H1       HT       0.417000       1.00800           0
     59315 TIP3     12311    TIP3     H2       HT       0.417000       1.00800           0
     59316 TIP3     12312    TIP3     OH2      OT      -0.834000       15.9994           0
     59317 TIP3     12312    TIP3     H1       HT       0.417000       1.00800           0
     59318 TIP3     12312    TIP3     H2       HT       0.417000       1.00800           0
     59319 TIP3     12313    TIP3     OH2      OT      -0.834000       15.9994           0
     59320 TIP3     12313    TIP3     H1       HT       0.417000       1.00800           0
     59321 TIP3     12313    TIP3     H2       HT       0.417000       1.00800           0
     59322 TIP3     12314    TIP3     OH2      OT      -0.834000       15.9994           0
     59323 TIP3     12314    TIP3     H1       HT       0.417000       1.00800           0
     59324 TIP3     12314    TIP3     H2       HT       0.417000       1.00800           0
     59325 TIP3     12315    TIP3     OH2      OT      -0.834000       15.9994           0
     59326 TIP3     12315    TIP3     H1       HT       0.417000       1.00800           0
     59327 TIP3     12315    TIP3     H2       HT       0.417000       1.00800           0
     59328 TIP3     12316    TIP3     OH2      OT      -0.834000       15.9994           0
     59329 TIP3     12316    TIP3     H1       HT       0.417000       1.00800           0
     59330 TIP3     12316    TIP3     H2       HT       0.417000       1.00800           0
     59331 TIP3     12317    TIP3     OH2      OT      -0.834000       15.9994           0
     59332 TIP3     12317    TIP3     H1       HT       0.417000       1.00800           0
     59333 TIP3     12317    TIP3     H2       HT       0.417000       1.00800           0
     59334 TIP3     12318    TIP3     OH2      OT      -0.834000       15.9994           0
     59335 TIP3     12318    TIP3     H1       HT       0.417000       1.00800           0
     59336 TIP3     12318    TIP3     H2       HT       0.417000       1.00800           0
     59337 TIP3     12319    TIP3     OH2      OT      -0.834000       15.9994           0
     59338 TIP3     12319    TIP3     H1       HT       0.417000       1.00800           0
     59339 TIP3     12319    TIP3     H2       HT       0.417000       1.00800           0
     59340 TIP3     12320    TIP3     OH2      OT      -0.834000       15.9994           0
     59341 TIP3     12320    TIP3     H1       HT       0.417000       1.00800           0
     59342 TIP3     12320    TIP3     H2       HT       0.417000       1.00800           0
     59343 TIP3     12321    TIP3     OH2      OT      -0.834000       15.9994           0
     59344 TIP3     12321    TIP3     H1       HT       0.417000       1.00800           0
     59345 TIP3     12321    TIP3     H2       HT       0.417000       1.00800           0
     59346 TIP3     12322    TIP3     OH2      OT      -0.834000       15.9994           0
     59347 TIP3     12322    TIP3     H1       HT       0.417000       1.00800           0
     59348 TIP3     12322    TIP3     H2       HT       0.417000       1.00800           0
     59349 TIP3     12323    TIP3     OH2      OT      -0.834000       15.9994           0
     59350 TIP3     12323    TIP3     H1       HT       0.417000       1.00800           0
     59351 TIP3     12323    TIP3     H2       HT       0.417000       1.00800           0
     59352 TIP3     12324    TIP3     OH2      OT      -0.834000       15.9994           0
     59353 TIP3     12324    TIP3     H1       HT       0.417000       1.00800           0
     59354 TIP3     12324    TIP3     H2       HT       0.417000       1.00800           0
     59355 TIP3     12325    TIP3     OH2      OT      -0.834000       15.9994           0
     59356 TIP3     12325    TIP3     H1       HT       0.417000       1.00800           0
     59357 TIP3     12325    TIP3     H2       HT       0.417000       1.00800           0
     59358 TIP3     12326    TIP3     OH2      OT      -0.834000       15.9994           0
     59359 TIP3     12326    TIP3     H1       HT       0.417000       1.00800           0
     59360 TIP3     12326    TIP3     H2       HT       0.417000       1.00800           0
     59361 TIP3     12327    TIP3     OH2      OT      -0.834000       15.9994           0
     59362 TIP3     12327    TIP3     H1       HT       0.417000       1.00800           0
     59363 TIP3     12327    TIP3     H2       HT       0.417000       1.00800           0
     59364 TIP3     12328    TIP3     OH2      OT      -0.834000       15.9994           0
     59365 TIP3     12328    TIP3     H1       HT       0.417000       1.00800           0
     59366 TIP3     12328    TIP3     H2       HT       0.417000       1.00800           0
     59367 TIP3     12329    TIP3     OH2      OT      -0.834000       15.9994           0
     59368 TIP3     12329    TIP3     H1       HT       0.417000       1.00800           0
     59369 TIP3     12329    TIP3     H2       HT       0.417000       1.00800           0
     59370 TIP3     12330    TIP3     OH2      OT      -0.834000       15.9994           0
     59371 TIP3     12330    TIP3     H1       HT       0.417000       1.00800           0
     59372 TIP3     12330    TIP3     H2       HT       0.417000       1.00800           0
     59373 TIP3     12331    TIP3     OH2      OT      -0.834000       15.9994           0
     59374 TIP3     12331    TIP3     H1       HT       0.417000       1.00800           0
     59375 TIP3     12331    TIP3     H2       HT       0.417000       1.00800           0
     59376 TIP3     12332    TIP3     OH2      OT      -0.834000       15.9994           0
     59377 TIP3     12332    TIP3     H1       HT       0.417000       1.00800           0
     59378 TIP3     12332    TIP3     H2       HT       0.417000       1.00800           0
     59379 TIP3     12333    TIP3     OH2      OT      -0.834000       15.9994           0
     59380 TIP3     12333    TIP3     H1       HT       0.417000       1.00800           0
     59381 TIP3     12333    TIP3     H2       HT       0.417000       1.00800           0
     59382 TIP3     12334    TIP3     OH2      OT      -0.834000       15.9994           0
     59383 TIP3     12334    TIP3     H1       HT       0.417000       1.00800           0
     59384 TIP3     12334    TIP3     H2       HT       0.417000       1.00800           0
     59385 TIP3     12335    TIP3     OH2      OT      -0.834000       15.9994           0
     59386 TIP3     12335    TIP3     H1       HT       0.417000       1.00800           0
     59387 TIP3     12335    TIP3     H2       HT       0.417000       1.00800           0
     59388 TIP3     12336    TIP3     OH2      OT      -0.834000       15.9994           0
     59389 TIP3     12336    TIP3     H1       HT       0.417000       1.00800           0
     59390 TIP3     12336    TIP3     H2       HT       0.417000       1.00800           0
     59391 TIP3     12337    TIP3     OH2      OT      -0.834000       15.9994           0
     59392 TIP3     12337    TIP3     H1       HT       0.417000       1.00800           0
     59393 TIP3     12337    TIP3     H2       HT       0.417000       1.00800           0
     59394 TIP3     12338    TIP3     OH2      OT      -0.834000       15.9994           0
     59395 TIP3     12338    TIP3     H1       HT       0.417000       1.00800           0
     59396 TIP3     12338    TIP3     H2       HT       0.417000       1.00800           0
     59397 TIP3     12339    TIP3     OH2      OT      -0.834000       15.9994           0
     59398 TIP3     12339    TIP3     H1       HT       0.417000       1.00800           0
     59399 TIP3     12339    TIP3     H2       HT       0.417000       1.00800           0
     59400 TIP3     12340    TIP3     OH2      OT      -0.834000       15.9994           0
     59401 TIP3     12340    TIP3     H1       HT       0.417000       1.00800           0
     59402 TIP3     12340    TIP3     H2       HT       0.417000       1.00800           0
     59403 TIP3     12341    TIP3     OH2      OT      -0.834000       15.9994           0
     59404 TIP3     12341    TIP3     H1       HT       0.417000       1.00800           0
     59405 TIP3     12341    TIP3     H2       HT       0.417000       1.00800           0
     59406 TIP3     12342    TIP3     OH2      OT      -0.834000       15.9994           0
     59407 TIP3     12342    TIP3     H1       HT       0.417000       1.00800           0
     59408 TIP3     12342    TIP3     H2       HT       0.417000       1.00800           0
     59409 TIP3     12343    TIP3     OH2      OT      -0.834000       15.9994           0
     59410 TIP3     12343    TIP3     H1       HT       0.417000       1.00800           0
     59411 TIP3     12343    TIP3     H2       HT       0.417000       1.00800           0
     59412 TIP3     12344    TIP3     OH2      OT      -0.834000       15.9994           0
     59413 TIP3     12344    TIP3     H1       HT       0.417000       1.00800           0
     59414 TIP3     12344    TIP3     H2       HT       0.417000       1.00800           0
     59415 TIP3     12345    TIP3     OH2      OT      -0.834000       15.9994           0
     59416 TIP3     12345    TIP3     H1       HT       0.417000       1.00800           0
     59417 TIP3     12345    TIP3     H2       HT       0.417000       1.00800           0
     59418 TIP3     12346    TIP3     OH2      OT      -0.834000       15.9994           0
     59419 TIP3     12346    TIP3     H1       HT       0.417000       1.00800           0
     59420 TIP3     12346    TIP3     H2       HT       0.417000       1.00800           0
     59421 TIP3     12347    TIP3     OH2      OT      -0.834000       15.9994           0
     59422 TIP3     12347    TIP3     H1       HT       0.417000       1.00800           0
     59423 TIP3     12347    TIP3     H2       HT       0.417000       1.00800           0
     59424 TIP3     12348    TIP3     OH2      OT      -0.834000       15.9994           0
     59425 TIP3     12348    TIP3     H1       HT       0.417000       1.00800           0
     59426 TIP3     12348    TIP3     H2       HT       0.417000       1.00800           0
     59427 TIP3     12349    TIP3     OH2      OT      -0.834000       15.9994           0
     59428 TIP3     12349    TIP3     H1       HT       0.417000       1.00800           0
     59429 TIP3     12349    TIP3     H2       HT       0.417000       1.00800           0
     59430 TIP3     12350    TIP3     OH2      OT      -0.834000       15.9994           0
     59431 TIP3     12350    TIP3     H1       HT       0.417000       1.00800           0
     59432 TIP3     12350    TIP3     H2       HT       0.417000       1.00800           0
     59433 TIP3     12351    TIP3     OH2      OT      -0.834000       15.9994           0
     59434 TIP3     12351    TIP3     H1       HT       0.417000       1.00800           0
     59435 TIP3     12351    TIP3     H2       HT       0.417000       1.00800           0
     59436 TIP3     12352    TIP3     OH2      OT      -0.834000       15.9994           0
     59437 TIP3     12352    TIP3     H1       HT       0.417000       1.00800           0
     59438 TIP3     12352    TIP3     H2       HT       0.417000       1.00800           0
     59439 TIP3     12353    TIP3     OH2      OT      -0.834000       15.9994           0
     59440 TIP3     12353    TIP3     H1       HT       0.417000       1.00800           0
     59441 TIP3     12353    TIP3     H2       HT       0.417000       1.00800           0
     59442 TIP3     12354    TIP3     OH2      OT      -0.834000       15.9994           0
     59443 TIP3     12354    TIP3     H1       HT       0.417000       1.00800           0
     59444 TIP3     12354    TIP3     H2       HT       0.417000       1.00800           0
     59445 TIP3     12355    TIP3     OH2      OT      -0.834000       15.9994           0
     59446 TIP3     12355    TIP3     H1       HT       0.417000       1.00800           0
     59447 TIP3     12355    TIP3     H2       HT       0.417000       1.00800           0
     59448 TIP3     12356    TIP3     OH2      OT      -0.834000       15.9994           0
     59449 TIP3     12356    TIP3     H1       HT       0.417000       1.00800           0
     59450 TIP3     12356    TIP3     H2       HT       0.417000       1.00800           0
     59451 TIP3     12357    TIP3     OH2      OT      -0.834000       15.9994           0
     59452 TIP3     12357    TIP3     H1       HT       0.417000       1.00800           0
     59453 TIP3     12357    TIP3     H2       HT       0.417000       1.00800           0
     59454 TIP3     12358    TIP3     OH2      OT      -0.834000       15.9994           0
     59455 TIP3     12358    TIP3     H1       HT       0.417000       1.00800           0
     59456 TIP3     12358    TIP3     H2       HT       0.417000       1.00800           0
     59457 TIP3     12359    TIP3     OH2      OT      -0.834000       15.9994           0
     59458 TIP3     12359    TIP3     H1       HT       0.417000       1.00800           0
     59459 TIP3     12359    TIP3     H2       HT       0.417000       1.00800           0
     59460 TIP3     12360    TIP3     OH2      OT      -0.834000       15.9994           0
     59461 TIP3     12360    TIP3     H1       HT       0.417000       1.00800           0
     59462 TIP3     12360    TIP3     H2       HT       0.417000       1.00800           0
     59463 TIP3     12361    TIP3     OH2      OT      -0.834000       15.9994           0
     59464 TIP3     12361    TIP3     H1       HT       0.417000       1.00800           0
     59465 TIP3     12361    TIP3     H2       HT       0.417000       1.00800           0
     59466 TIP3     12362    TIP3     OH2      OT      -0.834000       15.9994           0
     59467 TIP3     12362    TIP3     H1       HT       0.417000       1.00800           0
     59468 TIP3     12362    TIP3     H2       HT       0.417000       1.00800           0
     59469 TIP3     12363    TIP3     OH2      OT      -0.834000       15.9994           0
     59470 TIP3     12363    TIP3     H1       HT       0.417000       1.00800           0
     59471 TIP3     12363    TIP3     H2       HT       0.417000       1.00800           0
     59472 TIP3     12364    TIP3     OH2      OT      -0.834000       15.9994           0
     59473 TIP3     12364    TIP3     H1       HT       0.417000       1.00800           0
     59474 TIP3     12364    TIP3     H2       HT       0.417000       1.00800           0
     59475 TIP3     12365    TIP3     OH2      OT      -0.834000       15.9994           0
     59476 TIP3     12365    TIP3     H1       HT       0.417000       1.00800           0
     59477 TIP3     12365    TIP3     H2       HT       0.417000       1.00800           0
     59478 TIP3     12366    TIP3     OH2      OT      -0.834000       15.9994           0
     59479 TIP3     12366    TIP3     H1       HT       0.417000       1.00800           0
     59480 TIP3     12366    TIP3     H2       HT       0.417000       1.00800           0
     59481 TIP3     12367    TIP3     OH2      OT      -0.834000       15.9994           0
     59482 TIP3     12367    TIP3     H1       HT       0.417000       1.00800           0
     59483 TIP3     12367    TIP3     H2       HT       0.417000       1.00800           0
     59484 TIP3     12368    TIP3     OH2      OT      -0.834000       15.9994           0
     59485 TIP3     12368    TIP3     H1       HT       0.417000       1.00800           0
     59486 TIP3     12368    TIP3     H2       HT       0.417000       1.00800           0
     59487 TIP3     12369    TIP3     OH2      OT      -0.834000       15.9994           0
     59488 TIP3     12369    TIP3     H1       HT       0.417000       1.00800           0
     59489 TIP3     12369    TIP3     H2       HT       0.417000       1.00800           0
     59490 TIP3     12370    TIP3     OH2      OT      -0.834000       15.9994           0
     59491 TIP3     12370    TIP3     H1       HT       0.417000       1.00800           0
     59492 TIP3     12370    TIP3     H2       HT       0.417000       1.00800           0
     59493 TIP3     12371    TIP3     OH2      OT      -0.834000       15.9994           0
     59494 TIP3     12371    TIP3     H1       HT       0.417000       1.00800           0
     59495 TIP3     12371    TIP3     H2       HT       0.417000       1.00800           0
     59496 TIP3     12372    TIP3     OH2      OT      -0.834000       15.9994           0
     59497 TIP3     12372    TIP3     H1       HT       0.417000       1.00800           0
     59498 TIP3     12372    TIP3     H2       HT       0.417000       1.00800           0
     59499 TIP3     12373    TIP3     OH2      OT      -0.834000       15.9994           0
     59500 TIP3     12373    TIP3     H1       HT       0.417000       1.00800           0
     59501 TIP3     12373    TIP3     H2       HT       0.417000       1.00800           0
     59502 TIP3     12374    TIP3     OH2      OT      -0.834000       15.9994           0
     59503 TIP3     12374    TIP3     H1       HT       0.417000       1.00800           0
     59504 TIP3     12374    TIP3     H2       HT       0.417000       1.00800           0
     59505 TIP3     12375    TIP3     OH2      OT      -0.834000       15.9994           0
     59506 TIP3     12375    TIP3     H1       HT       0.417000       1.00800           0
     59507 TIP3     12375    TIP3     H2       HT       0.417000       1.00800           0
     59508 TIP3     12376    TIP3     OH2      OT      -0.834000       15.9994           0
     59509 TIP3     12376    TIP3     H1       HT       0.417000       1.00800           0
     59510 TIP3     12376    TIP3     H2       HT       0.417000       1.00800           0
     59511 TIP3     12377    TIP3     OH2      OT      -0.834000       15.9994           0
     59512 TIP3     12377    TIP3     H1       HT       0.417000       1.00800           0
     59513 TIP3     12377    TIP3     H2       HT       0.417000       1.00800           0
     59514 TIP3     12378    TIP3     OH2      OT      -0.834000       15.9994           0
     59515 TIP3     12378    TIP3     H1       HT       0.417000       1.00800           0
     59516 TIP3     12378    TIP3     H2       HT       0.417000       1.00800           0
     59517 TIP3     12379    TIP3     OH2      OT      -0.834000       15.9994           0
     59518 TIP3     12379    TIP3     H1       HT       0.417000       1.00800           0
     59519 TIP3     12379    TIP3     H2       HT       0.417000       1.00800           0
     59520 TIP3     12380    TIP3     OH2      OT      -0.834000       15.9994           0
     59521 TIP3     12380    TIP3     H1       HT       0.417000       1.00800           0
     59522 TIP3     12380    TIP3     H2       HT       0.417000       1.00800           0
     59523 TIP3     12381    TIP3     OH2      OT      -0.834000       15.9994           0
     59524 TIP3     12381    TIP3     H1       HT       0.417000       1.00800           0
     59525 TIP3     12381    TIP3     H2       HT       0.417000       1.00800           0
     59526 TIP3     12382    TIP3     OH2      OT      -0.834000       15.9994           0
     59527 TIP3     12382    TIP3     H1       HT       0.417000       1.00800           0
     59528 TIP3     12382    TIP3     H2       HT       0.417000       1.00800           0
     59529 TIP3     12383    TIP3     OH2      OT      -0.834000       15.9994           0
     59530 TIP3     12383    TIP3     H1       HT       0.417000       1.00800           0
     59531 TIP3     12383    TIP3     H2       HT       0.417000       1.00800           0
     59532 TIP3     12384    TIP3     OH2      OT      -0.834000       15.9994           0
     59533 TIP3     12384    TIP3     H1       HT       0.417000       1.00800           0
     59534 TIP3     12384    TIP3     H2       HT       0.417000       1.00800           0
     59535 TIP3     12385    TIP3     OH2      OT      -0.834000       15.9994           0
     59536 TIP3     12385    TIP3     H1       HT       0.417000       1.00800           0
     59537 TIP3     12385    TIP3     H2       HT       0.417000       1.00800           0
     59538 TIP3     12386    TIP3     OH2      OT      -0.834000       15.9994           0
     59539 TIP3     12386    TIP3     H1       HT       0.417000       1.00800           0
     59540 TIP3     12386    TIP3     H2       HT       0.417000       1.00800           0
     59541 TIP3     12387    TIP3     OH2      OT      -0.834000       15.9994           0
     59542 TIP3     12387    TIP3     H1       HT       0.417000       1.00800           0
     59543 TIP3     12387    TIP3     H2       HT       0.417000       1.00800           0
     59544 TIP3     12388    TIP3     OH2      OT      -0.834000       15.9994           0
     59545 TIP3     12388    TIP3     H1       HT       0.417000       1.00800           0
     59546 TIP3     12388    TIP3     H2       HT       0.417000       1.00800           0
     59547 TIP3     12389    TIP3     OH2      OT      -0.834000       15.9994           0
     59548 TIP3     12389    TIP3     H1       HT       0.417000       1.00800           0
     59549 TIP3     12389    TIP3     H2       HT       0.417000       1.00800           0
     59550 TIP3     12390    TIP3     OH2      OT      -0.834000       15.9994           0
     59551 TIP3     12390    TIP3     H1       HT       0.417000       1.00800           0
     59552 TIP3     12390    TIP3     H2       HT       0.417000       1.00800           0
     59553 TIP3     12391    TIP3     OH2      OT      -0.834000       15.9994           0
     59554 TIP3     12391    TIP3     H1       HT       0.417000       1.00800           0
     59555 TIP3     12391    TIP3     H2       HT       0.417000       1.00800           0
     59556 TIP3     12392    TIP3     OH2      OT      -0.834000       15.9994           0
     59557 TIP3     12392    TIP3     H1       HT       0.417000       1.00800           0
     59558 TIP3     12392    TIP3     H2       HT       0.417000       1.00800           0
     59559 TIP3     12393    TIP3     OH2      OT      -0.834000       15.9994           0
     59560 TIP3     12393    TIP3     H1       HT       0.417000       1.00800           0
     59561 TIP3     12393    TIP3     H2       HT       0.417000       1.00800           0
     59562 TIP3     12394    TIP3     OH2      OT      -0.834000       15.9994           0
     59563 TIP3     12394    TIP3     H1       HT       0.417000       1.00800           0
     59564 TIP3     12394    TIP3     H2       HT       0.417000       1.00800           0
     59565 TIP3     12395    TIP3     OH2      OT      -0.834000       15.9994           0
     59566 TIP3     12395    TIP3     H1       HT       0.417000       1.00800           0
     59567 TIP3     12395    TIP3     H2       HT       0.417000       1.00800           0
     59568 TIP3     12396    TIP3     OH2      OT      -0.834000       15.9994           0
     59569 TIP3     12396    TIP3     H1       HT       0.417000       1.00800           0
     59570 TIP3     12396    TIP3     H2       HT       0.417000       1.00800           0
     59571 TIP3     12397    TIP3     OH2      OT      -0.834000       15.9994           0
     59572 TIP3     12397    TIP3     H1       HT       0.417000       1.00800           0
     59573 TIP3     12397    TIP3     H2       HT       0.417000       1.00800           0
     59574 TIP3     12398    TIP3     OH2      OT      -0.834000       15.9994           0
     59575 TIP3     12398    TIP3     H1       HT       0.417000       1.00800           0
     59576 TIP3     12398    TIP3     H2       HT       0.417000       1.00800           0
     59577 TIP3     12399    TIP3     OH2      OT      -0.834000       15.9994           0
     59578 TIP3     12399    TIP3     H1       HT       0.417000       1.00800           0
     59579 TIP3     12399    TIP3     H2       HT       0.417000       1.00800           0
     59580 TIP3     12400    TIP3     OH2      OT      -0.834000       15.9994           0
     59581 TIP3     12400    TIP3     H1       HT       0.417000       1.00800           0
     59582 TIP3     12400    TIP3     H2       HT       0.417000       1.00800           0
     59583 TIP3     12401    TIP3     OH2      OT      -0.834000       15.9994           0
     59584 TIP3     12401    TIP3     H1       HT       0.417000       1.00800           0
     59585 TIP3     12401    TIP3     H2       HT       0.417000       1.00800           0
     59586 TIP3     12402    TIP3     OH2      OT      -0.834000       15.9994           0
     59587 TIP3     12402    TIP3     H1       HT       0.417000       1.00800           0
     59588 TIP3     12402    TIP3     H2       HT       0.417000       1.00800           0
     59589 TIP3     12403    TIP3     OH2      OT      -0.834000       15.9994           0
     59590 TIP3     12403    TIP3     H1       HT       0.417000       1.00800           0
     59591 TIP3     12403    TIP3     H2       HT       0.417000       1.00800           0
     59592 TIP3     12404    TIP3     OH2      OT      -0.834000       15.9994           0
     59593 TIP3     12404    TIP3     H1       HT       0.417000       1.00800           0
     59594 TIP3     12404    TIP3     H2       HT       0.417000       1.00800           0
     59595 TIP3     12405    TIP3     OH2      OT      -0.834000       15.9994           0
     59596 TIP3     12405    TIP3     H1       HT       0.417000       1.00800           0
     59597 TIP3     12405    TIP3     H2       HT       0.417000       1.00800           0
     59598 TIP3     12406    TIP3     OH2      OT      -0.834000       15.9994           0
     59599 TIP3     12406    TIP3     H1       HT       0.417000       1.00800           0
     59600 TIP3     12406    TIP3     H2       HT       0.417000       1.00800           0
     59601 TIP3     12407    TIP3     OH2      OT      -0.834000       15.9994           0
     59602 TIP3     12407    TIP3     H1       HT       0.417000       1.00800           0
     59603 TIP3     12407    TIP3     H2       HT       0.417000       1.00800           0
     59604 TIP3     12408    TIP3     OH2      OT      -0.834000       15.9994           0
     59605 TIP3     12408    TIP3     H1       HT       0.417000       1.00800           0
     59606 TIP3     12408    TIP3     H2       HT       0.417000       1.00800           0
     59607 TIP3     12409    TIP3     OH2      OT      -0.834000       15.9994           0
     59608 TIP3     12409    TIP3     H1       HT       0.417000       1.00800           0
     59609 TIP3     12409    TIP3     H2       HT       0.417000       1.00800           0
     59610 TIP3     12410    TIP3     OH2      OT      -0.834000       15.9994           0
     59611 TIP3     12410    TIP3     H1       HT       0.417000       1.00800           0
     59612 TIP3     12410    TIP3     H2       HT       0.417000       1.00800           0
     59613 TIP3     12411    TIP3     OH2      OT      -0.834000       15.9994           0
     59614 TIP3     12411    TIP3     H1       HT       0.417000       1.00800           0
     59615 TIP3     12411    TIP3     H2       HT       0.417000       1.00800           0
     59616 TIP3     12412    TIP3     OH2      OT      -0.834000       15.9994           0
     59617 TIP3     12412    TIP3     H1       HT       0.417000       1.00800           0
     59618 TIP3     12412    TIP3     H2       HT       0.417000       1.00800           0
     59619 TIP3     12413    TIP3     OH2      OT      -0.834000       15.9994           0
     59620 TIP3     12413    TIP3     H1       HT       0.417000       1.00800           0
     59621 TIP3     12413    TIP3     H2       HT       0.417000       1.00800           0
     59622 TIP3     12414    TIP3     OH2      OT      -0.834000       15.9994           0
     59623 TIP3     12414    TIP3     H1       HT       0.417000       1.00800           0
     59624 TIP3     12414    TIP3     H2       HT       0.417000       1.00800           0
     59625 TIP3     12415    TIP3     OH2      OT      -0.834000       15.9994           0
     59626 TIP3     12415    TIP3     H1       HT       0.417000       1.00800           0
     59627 TIP3     12415    TIP3     H2       HT       0.417000       1.00800           0
     59628 TIP3     12416    TIP3     OH2      OT      -0.834000       15.9994           0
     59629 TIP3     12416    TIP3     H1       HT       0.417000       1.00800           0
     59630 TIP3     12416    TIP3     H2       HT       0.417000       1.00800           0
     59631 TIP3     12417    TIP3     OH2      OT      -0.834000       15.9994           0
     59632 TIP3     12417    TIP3     H1       HT       0.417000       1.00800           0
     59633 TIP3     12417    TIP3     H2       HT       0.417000       1.00800           0
     59634 TIP3     12418    TIP3     OH2      OT      -0.834000       15.9994           0
     59635 TIP3     12418    TIP3     H1       HT       0.417000       1.00800           0
     59636 TIP3     12418    TIP3     H2       HT       0.417000       1.00800           0
     59637 TIP3     12419    TIP3     OH2      OT      -0.834000       15.9994           0
     59638 TIP3     12419    TIP3     H1       HT       0.417000       1.00800           0
     59639 TIP3     12419    TIP3     H2       HT       0.417000       1.00800           0
     59640 TIP3     12420    TIP3     OH2      OT      -0.834000       15.9994           0
     59641 TIP3     12420    TIP3     H1       HT       0.417000       1.00800           0
     59642 TIP3     12420    TIP3     H2       HT       0.417000       1.00800           0
     59643 TIP3     12421    TIP3     OH2      OT      -0.834000       15.9994           0
     59644 TIP3     12421    TIP3     H1       HT       0.417000       1.00800           0
     59645 TIP3     12421    TIP3     H2       HT       0.417000       1.00800           0
     59646 TIP3     12422    TIP3     OH2      OT      -0.834000       15.9994           0
     59647 TIP3     12422    TIP3     H1       HT       0.417000       1.00800           0
     59648 TIP3     12422    TIP3     H2       HT       0.417000       1.00800           0
     59649 TIP3     12423    TIP3     OH2      OT      -0.834000       15.9994           0
     59650 TIP3     12423    TIP3     H1       HT       0.417000       1.00800           0
     59651 TIP3     12423    TIP3     H2       HT       0.417000       1.00800           0
     59652 TIP3     12424    TIP3     OH2      OT      -0.834000       15.9994           0
     59653 TIP3     12424    TIP3     H1       HT       0.417000       1.00800           0
     59654 TIP3     12424    TIP3     H2       HT       0.417000       1.00800           0
     59655 TIP3     12425    TIP3     OH2      OT      -0.834000       15.9994           0
     59656 TIP3     12425    TIP3     H1       HT       0.417000       1.00800           0
     59657 TIP3     12425    TIP3     H2       HT       0.417000       1.00800           0
     59658 TIP3     12426    TIP3     OH2      OT      -0.834000       15.9994           0
     59659 TIP3     12426    TIP3     H1       HT       0.417000       1.00800           0
     59660 TIP3     12426    TIP3     H2       HT       0.417000       1.00800           0
     59661 TIP3     12427    TIP3     OH2      OT      -0.834000       15.9994           0
     59662 TIP3     12427    TIP3     H1       HT       0.417000       1.00800           0
     59663 TIP3     12427    TIP3     H2       HT       0.417000       1.00800           0
     59664 TIP3     12428    TIP3     OH2      OT      -0.834000       15.9994           0
     59665 TIP3     12428    TIP3     H1       HT       0.417000       1.00800           0
     59666 TIP3     12428    TIP3     H2       HT       0.417000       1.00800           0
     59667 TIP3     12429    TIP3     OH2      OT      -0.834000       15.9994           0
     59668 TIP3     12429    TIP3     H1       HT       0.417000       1.00800           0
     59669 TIP3     12429    TIP3     H2       HT       0.417000       1.00800           0
     59670 TIP3     12430    TIP3     OH2      OT      -0.834000       15.9994           0
     59671 TIP3     12430    TIP3     H1       HT       0.417000       1.00800           0
     59672 TIP3     12430    TIP3     H2       HT       0.417000       1.00800           0
     59673 TIP3     12431    TIP3     OH2      OT      -0.834000       15.9994           0
     59674 TIP3     12431    TIP3     H1       HT       0.417000       1.00800           0
     59675 TIP3     12431    TIP3     H2       HT       0.417000       1.00800           0
     59676 TIP3     12432    TIP3     OH2      OT      -0.834000       15.9994           0
     59677 TIP3     12432    TIP3     H1       HT       0.417000       1.00800           0
     59678 TIP3     12432    TIP3     H2       HT       0.417000       1.00800           0
     59679 TIP3     12433    TIP3     OH2      OT      -0.834000       15.9994           0
     59680 TIP3     12433    TIP3     H1       HT       0.417000       1.00800           0
     59681 TIP3     12433    TIP3     H2       HT       0.417000       1.00800           0
     59682 TIP3     12434    TIP3     OH2      OT      -0.834000       15.9994           0
     59683 TIP3     12434    TIP3     H1       HT       0.417000       1.00800           0
     59684 TIP3     12434    TIP3     H2       HT       0.417000       1.00800           0
     59685 TIP3     12435    TIP3     OH2      OT      -0.834000       15.9994           0
     59686 TIP3     12435    TIP3     H1       HT       0.417000       1.00800           0
     59687 TIP3     12435    TIP3     H2       HT       0.417000       1.00800           0
     59688 TIP3     12436    TIP3     OH2      OT      -0.834000       15.9994           0
     59689 TIP3     12436    TIP3     H1       HT       0.417000       1.00800           0
     59690 TIP3     12436    TIP3     H2       HT       0.417000       1.00800           0
     59691 TIP3     12437    TIP3     OH2      OT      -0.834000       15.9994           0
     59692 TIP3     12437    TIP3     H1       HT       0.417000       1.00800           0
     59693 TIP3     12437    TIP3     H2       HT       0.417000       1.00800           0
     59694 TIP3     12438    TIP3     OH2      OT      -0.834000       15.9994           0
     59695 TIP3     12438    TIP3     H1       HT       0.417000       1.00800           0
     59696 TIP3     12438    TIP3     H2       HT       0.417000       1.00800           0
     59697 TIP3     12439    TIP3     OH2      OT      -0.834000       15.9994           0
     59698 TIP3     12439    TIP3     H1       HT       0.417000       1.00800           0
     59699 TIP3     12439    TIP3     H2       HT       0.417000       1.00800           0
     59700 TIP3     12440    TIP3     OH2      OT      -0.834000       15.9994           0
     59701 TIP3     12440    TIP3     H1       HT       0.417000       1.00800           0
     59702 TIP3     12440    TIP3     H2       HT       0.417000       1.00800           0
     59703 TIP3     12441    TIP3     OH2      OT      -0.834000       15.9994           0
     59704 TIP3     12441    TIP3     H1       HT       0.417000       1.00800           0
     59705 TIP3     12441    TIP3     H2       HT       0.417000       1.00800           0
     59706 TIP3     12442    TIP3     OH2      OT      -0.834000       15.9994           0
     59707 TIP3     12442    TIP3     H1       HT       0.417000       1.00800           0
     59708 TIP3     12442    TIP3     H2       HT       0.417000       1.00800           0
     59709 TIP3     12443    TIP3     OH2      OT      -0.834000       15.9994           0
     59710 TIP3     12443    TIP3     H1       HT       0.417000       1.00800           0
     59711 TIP3     12443    TIP3     H2       HT       0.417000       1.00800           0
     59712 TIP3     12444    TIP3     OH2      OT      -0.834000       15.9994           0
     59713 TIP3     12444    TIP3     H1       HT       0.417000       1.00800           0
     59714 TIP3     12444    TIP3     H2       HT       0.417000       1.00800           0
     59715 TIP3     12445    TIP3     OH2      OT      -0.834000       15.9994           0
     59716 TIP3     12445    TIP3     H1       HT       0.417000       1.00800           0
     59717 TIP3     12445    TIP3     H2       HT       0.417000       1.00800           0
     59718 TIP3     12446    TIP3     OH2      OT      -0.834000       15.9994           0
     59719 TIP3     12446    TIP3     H1       HT       0.417000       1.00800           0
     59720 TIP3     12446    TIP3     H2       HT       0.417000       1.00800           0
     59721 TIP3     12447    TIP3     OH2      OT      -0.834000       15.9994           0
     59722 TIP3     12447    TIP3     H1       HT       0.417000       1.00800           0
     59723 TIP3     12447    TIP3     H2       HT       0.417000       1.00800           0
     59724 TIP3     12448    TIP3     OH2      OT      -0.834000       15.9994           0
     59725 TIP3     12448    TIP3     H1       HT       0.417000       1.00800           0
     59726 TIP3     12448    TIP3     H2       HT       0.417000       1.00800           0
     59727 TIP3     12449    TIP3     OH2      OT      -0.834000       15.9994           0
     59728 TIP3     12449    TIP3     H1       HT       0.417000       1.00800           0
     59729 TIP3     12449    TIP3     H2       HT       0.417000       1.00800           0
     59730 TIP3     12450    TIP3     OH2      OT      -0.834000       15.9994           0
     59731 TIP3     12450    TIP3     H1       HT       0.417000       1.00800           0
     59732 TIP3     12450    TIP3     H2       HT       0.417000       1.00800           0
     59733 TIP3     12451    TIP3     OH2      OT      -0.834000       15.9994           0
     59734 TIP3     12451    TIP3     H1       HT       0.417000       1.00800           0
     59735 TIP3     12451    TIP3     H2       HT       0.417000       1.00800           0
     59736 TIP3     12452    TIP3     OH2      OT      -0.834000       15.9994           0
     59737 TIP3     12452    TIP3     H1       HT       0.417000       1.00800           0
     59738 TIP3     12452    TIP3     H2       HT       0.417000       1.00800           0
     59739 TIP3     12453    TIP3     OH2      OT      -0.834000       15.9994           0
     59740 TIP3     12453    TIP3     H1       HT       0.417000       1.00800           0
     59741 TIP3     12453    TIP3     H2       HT       0.417000       1.00800           0
     59742 TIP3     12454    TIP3     OH2      OT      -0.834000       15.9994           0
     59743 TIP3     12454    TIP3     H1       HT       0.417000       1.00800           0
     59744 TIP3     12454    TIP3     H2       HT       0.417000       1.00800           0
     59745 TIP3     12455    TIP3     OH2      OT      -0.834000       15.9994           0
     59746 TIP3     12455    TIP3     H1       HT       0.417000       1.00800           0
     59747 TIP3     12455    TIP3     H2       HT       0.417000       1.00800           0
     59748 TIP3     12456    TIP3     OH2      OT      -0.834000       15.9994           0
     59749 TIP3     12456    TIP3     H1       HT       0.417000       1.00800           0
     59750 TIP3     12456    TIP3     H2       HT       0.417000       1.00800           0
     59751 TIP3     12457    TIP3     OH2      OT      -0.834000       15.9994           0
     59752 TIP3     12457    TIP3     H1       HT       0.417000       1.00800           0
     59753 TIP3     12457    TIP3     H2       HT       0.417000       1.00800           0
     59754 TIP3     12458    TIP3     OH2      OT      -0.834000       15.9994           0
     59755 TIP3     12458    TIP3     H1       HT       0.417000       1.00800           0
     59756 TIP3     12458    TIP3     H2       HT       0.417000       1.00800           0
     59757 TIP3     12459    TIP3     OH2      OT      -0.834000       15.9994           0
     59758 TIP3     12459    TIP3     H1       HT       0.417000       1.00800           0
     59759 TIP3     12459    TIP3     H2       HT       0.417000       1.00800           0
     59760 TIP3     12460    TIP3     OH2      OT      -0.834000       15.9994           0
     59761 TIP3     12460    TIP3     H1       HT       0.417000       1.00800           0
     59762 TIP3     12460    TIP3     H2       HT       0.417000       1.00800           0
     59763 TIP3     12461    TIP3     OH2      OT      -0.834000       15.9994           0
     59764 TIP3     12461    TIP3     H1       HT       0.417000       1.00800           0
     59765 TIP3     12461    TIP3     H2       HT       0.417000       1.00800           0
     59766 TIP3     12462    TIP3     OH2      OT      -0.834000       15.9994           0
     59767 TIP3     12462    TIP3     H1       HT       0.417000       1.00800           0
     59768 TIP3     12462    TIP3     H2       HT       0.417000       1.00800           0
     59769 TIP3     12463    TIP3     OH2      OT      -0.834000       15.9994           0
     59770 TIP3     12463    TIP3     H1       HT       0.417000       1.00800           0
     59771 TIP3     12463    TIP3     H2       HT       0.417000       1.00800           0
     59772 TIP3     12464    TIP3     OH2      OT      -0.834000       15.9994           0
     59773 TIP3     12464    TIP3     H1       HT       0.417000       1.00800           0
     59774 TIP3     12464    TIP3     H2       HT       0.417000       1.00800           0
     59775 TIP3     12465    TIP3     OH2      OT      -0.834000       15.9994           0
     59776 TIP3     12465    TIP3     H1       HT       0.417000       1.00800           0
     59777 TIP3     12465    TIP3     H2       HT       0.417000       1.00800           0
     59778 TIP3     12466    TIP3     OH2      OT      -0.834000       15.9994           0
     59779 TIP3     12466    TIP3     H1       HT       0.417000       1.00800           0
     59780 TIP3     12466    TIP3     H2       HT       0.417000       1.00800           0
     59781 TIP3     12467    TIP3     OH2      OT      -0.834000       15.9994           0
     59782 TIP3     12467    TIP3     H1       HT       0.417000       1.00800           0
     59783 TIP3     12467    TIP3     H2       HT       0.417000       1.00800           0
     59784 TIP3     12468    TIP3     OH2      OT      -0.834000       15.9994           0
     59785 TIP3     12468    TIP3     H1       HT       0.417000       1.00800           0
     59786 TIP3     12468    TIP3     H2       HT       0.417000       1.00800           0
     59787 TIP3     12469    TIP3     OH2      OT      -0.834000       15.9994           0
     59788 TIP3     12469    TIP3     H1       HT       0.417000       1.00800           0
     59789 TIP3     12469    TIP3     H2       HT       0.417000       1.00800           0
     59790 TIP3     12470    TIP3     OH2      OT      -0.834000       15.9994           0
     59791 TIP3     12470    TIP3     H1       HT       0.417000       1.00800           0
     59792 TIP3     12470    TIP3     H2       HT       0.417000       1.00800           0
     59793 TIP3     12471    TIP3     OH2      OT      -0.834000       15.9994           0
     59794 TIP3     12471    TIP3     H1       HT       0.417000       1.00800           0
     59795 TIP3     12471    TIP3     H2       HT       0.417000       1.00800           0
     59796 TIP3     12472    TIP3     OH2      OT      -0.834000       15.9994           0
     59797 TIP3     12472    TIP3     H1       HT       0.417000       1.00800           0
     59798 TIP3     12472    TIP3     H2       HT       0.417000       1.00800           0
     59799 TIP3     12473    TIP3     OH2      OT      -0.834000       15.9994           0
     59800 TIP3     12473    TIP3     H1       HT       0.417000       1.00800           0
     59801 TIP3     12473    TIP3     H2       HT       0.417000       1.00800           0
     59802 TIP3     12474    TIP3     OH2      OT      -0.834000       15.9994           0
     59803 TIP3     12474    TIP3     H1       HT       0.417000       1.00800           0
     59804 TIP3     12474    TIP3     H2       HT       0.417000       1.00800           0
     59805 TIP3     12475    TIP3     OH2      OT      -0.834000       15.9994           0
     59806 TIP3     12475    TIP3     H1       HT       0.417000       1.00800           0
     59807 TIP3     12475    TIP3     H2       HT       0.417000       1.00800           0
     59808 TIP3     12476    TIP3     OH2      OT      -0.834000       15.9994           0
     59809 TIP3     12476    TIP3     H1       HT       0.417000       1.00800           0
     59810 TIP3     12476    TIP3     H2       HT       0.417000       1.00800           0
     59811 TIP3     12477    TIP3     OH2      OT      -0.834000       15.9994           0
     59812 TIP3     12477    TIP3     H1       HT       0.417000       1.00800           0
     59813 TIP3     12477    TIP3     H2       HT       0.417000       1.00800           0
     59814 TIP3     12478    TIP3     OH2      OT      -0.834000       15.9994           0
     59815 TIP3     12478    TIP3     H1       HT       0.417000       1.00800           0
     59816 TIP3     12478    TIP3     H2       HT       0.417000       1.00800           0
     59817 TIP3     12479    TIP3     OH2      OT      -0.834000       15.9994           0
     59818 TIP3     12479    TIP3     H1       HT       0.417000       1.00800           0
     59819 TIP3     12479    TIP3     H2       HT       0.417000       1.00800           0
     59820 TIP3     12480    TIP3     OH2      OT      -0.834000       15.9994           0
     59821 TIP3     12480    TIP3     H1       HT       0.417000       1.00800           0
     59822 TIP3     12480    TIP3     H2       HT       0.417000       1.00800           0
     59823 TIP3     12481    TIP3     OH2      OT      -0.834000       15.9994           0
     59824 TIP3     12481    TIP3     H1       HT       0.417000       1.00800           0
     59825 TIP3     12481    TIP3     H2       HT       0.417000       1.00800           0
     59826 TIP3     12482    TIP3     OH2      OT      -0.834000       15.9994           0
     59827 TIP3     12482    TIP3     H1       HT       0.417000       1.00800           0
     59828 TIP3     12482    TIP3     H2       HT       0.417000       1.00800           0
     59829 TIP3     12483    TIP3     OH2      OT      -0.834000       15.9994           0
     59830 TIP3     12483    TIP3     H1       HT       0.417000       1.00800           0
     59831 TIP3     12483    TIP3     H2       HT       0.417000       1.00800           0
     59832 TIP3     12484    TIP3     OH2      OT      -0.834000       15.9994           0
     59833 TIP3     12484    TIP3     H1       HT       0.417000       1.00800           0
     59834 TIP3     12484    TIP3     H2       HT       0.417000       1.00800           0
     59835 TIP3     12485    TIP3     OH2      OT      -0.834000       15.9994           0
     59836 TIP3     12485    TIP3     H1       HT       0.417000       1.00800           0
     59837 TIP3     12485    TIP3     H2       HT       0.417000       1.00800           0
     59838 TIP3     12486    TIP3     OH2      OT      -0.834000       15.9994           0
     59839 TIP3     12486    TIP3     H1       HT       0.417000       1.00800           0
     59840 TIP3     12486    TIP3     H2       HT       0.417000       1.00800           0
     59841 TIP3     12487    TIP3     OH2      OT      -0.834000       15.9994           0
     59842 TIP3     12487    TIP3     H1       HT       0.417000       1.00800           0
     59843 TIP3     12487    TIP3     H2       HT       0.417000       1.00800           0
     59844 TIP3     12488    TIP3     OH2      OT      -0.834000       15.9994           0
     59845 TIP3     12488    TIP3     H1       HT       0.417000       1.00800           0
     59846 TIP3     12488    TIP3     H2       HT       0.417000       1.00800           0
     59847 TIP3     12489    TIP3     OH2      OT      -0.834000       15.9994           0
     59848 TIP3     12489    TIP3     H1       HT       0.417000       1.00800           0
     59849 TIP3     12489    TIP3     H2       HT       0.417000       1.00800           0
     59850 TIP3     12490    TIP3     OH2      OT      -0.834000       15.9994           0
     59851 TIP3     12490    TIP3     H1       HT       0.417000       1.00800           0
     59852 TIP3     12490    TIP3     H2       HT       0.417000       1.00800           0
     59853 TIP3     12491    TIP3     OH2      OT      -0.834000       15.9994           0
     59854 TIP3     12491    TIP3     H1       HT       0.417000       1.00800           0
     59855 TIP3     12491    TIP3     H2       HT       0.417000       1.00800           0
     59856 TIP3     12492    TIP3     OH2      OT      -0.834000       15.9994           0
     59857 TIP3     12492    TIP3     H1       HT       0.417000       1.00800           0
     59858 TIP3     12492    TIP3     H2       HT       0.417000       1.00800           0
     59859 TIP3     12493    TIP3     OH2      OT      -0.834000       15.9994           0
     59860 TIP3     12493    TIP3     H1       HT       0.417000       1.00800           0
     59861 TIP3     12493    TIP3     H2       HT       0.417000       1.00800           0
     59862 TIP3     12494    TIP3     OH2      OT      -0.834000       15.9994           0
     59863 TIP3     12494    TIP3     H1       HT       0.417000       1.00800           0
     59864 TIP3     12494    TIP3     H2       HT       0.417000       1.00800           0
     59865 TIP3     12495    TIP3     OH2      OT      -0.834000       15.9994           0
     59866 TIP3     12495    TIP3     H1       HT       0.417000       1.00800           0
     59867 TIP3     12495    TIP3     H2       HT       0.417000       1.00800           0
     59868 TIP3     12496    TIP3     OH2      OT      -0.834000       15.9994           0
     59869 TIP3     12496    TIP3     H1       HT       0.417000       1.00800           0
     59870 TIP3     12496    TIP3     H2       HT       0.417000       1.00800           0
     59871 TIP3     12497    TIP3     OH2      OT      -0.834000       15.9994           0
     59872 TIP3     12497    TIP3     H1       HT       0.417000       1.00800           0
     59873 TIP3     12497    TIP3     H2       HT       0.417000       1.00800           0
     59874 TIP3     12498    TIP3     OH2      OT      -0.834000       15.9994           0
     59875 TIP3     12498    TIP3     H1       HT       0.417000       1.00800           0
     59876 TIP3     12498    TIP3     H2       HT       0.417000       1.00800           0
     59877 TIP3     12499    TIP3     OH2      OT      -0.834000       15.9994           0
     59878 TIP3     12499    TIP3     H1       HT       0.417000       1.00800           0
     59879 TIP3     12499    TIP3     H2       HT       0.417000       1.00800           0
     59880 TIP3     12500    TIP3     OH2      OT      -0.834000       15.9994           0
     59881 TIP3     12500    TIP3     H1       HT       0.417000       1.00800           0
     59882 TIP3     12500    TIP3     H2       HT       0.417000       1.00800           0
     59883 TIP3     12501    TIP3     OH2      OT      -0.834000       15.9994           0
     59884 TIP3     12501    TIP3     H1       HT       0.417000       1.00800           0
     59885 TIP3     12501    TIP3     H2       HT       0.417000       1.00800           0
     59886 TIP3     12502    TIP3     OH2      OT      -0.834000       15.9994           0
     59887 TIP3     12502    TIP3     H1       HT       0.417000       1.00800           0
     59888 TIP3     12502    TIP3     H2       HT       0.417000       1.00800           0
     59889 TIP3     12503    TIP3     OH2      OT      -0.834000       15.9994           0
     59890 TIP3     12503    TIP3     H1       HT       0.417000       1.00800           0
     59891 TIP3     12503    TIP3     H2       HT       0.417000       1.00800           0
     59892 TIP3     12504    TIP3     OH2      OT      -0.834000       15.9994           0
     59893 TIP3     12504    TIP3     H1       HT       0.417000       1.00800           0
     59894 TIP3     12504    TIP3     H2       HT       0.417000       1.00800           0
     59895 TIP3     12505    TIP3     OH2      OT      -0.834000       15.9994           0
     59896 TIP3     12505    TIP3     H1       HT       0.417000       1.00800           0
     59897 TIP3     12505    TIP3     H2       HT       0.417000       1.00800           0
     59898 TIP3     12506    TIP3     OH2      OT      -0.834000       15.9994           0
     59899 TIP3     12506    TIP3     H1       HT       0.417000       1.00800           0
     59900 TIP3     12506    TIP3     H2       HT       0.417000       1.00800           0
     59901 TIP3     12507    TIP3     OH2      OT      -0.834000       15.9994           0
     59902 TIP3     12507    TIP3     H1       HT       0.417000       1.00800           0
     59903 TIP3     12507    TIP3     H2       HT       0.417000       1.00800           0
     59904 TIP3     12508    TIP3     OH2      OT      -0.834000       15.9994           0
     59905 TIP3     12508    TIP3     H1       HT       0.417000       1.00800           0
     59906 TIP3     12508    TIP3     H2       HT       0.417000       1.00800           0
     59907 TIP3     12509    TIP3     OH2      OT      -0.834000       15.9994           0
     59908 TIP3     12509    TIP3     H1       HT       0.417000       1.00800           0
     59909 TIP3     12509    TIP3     H2       HT       0.417000       1.00800           0
     59910 TIP3     12510    TIP3     OH2      OT      -0.834000       15.9994           0
     59911 TIP3     12510    TIP3     H1       HT       0.417000       1.00800           0
     59912 TIP3     12510    TIP3     H2       HT       0.417000       1.00800           0
     59913 TIP3     12511    TIP3     OH2      OT      -0.834000       15.9994           0
     59914 TIP3     12511    TIP3     H1       HT       0.417000       1.00800           0
     59915 TIP3     12511    TIP3     H2       HT       0.417000       1.00800           0
     59916 TIP3     12512    TIP3     OH2      OT      -0.834000       15.9994           0
     59917 TIP3     12512    TIP3     H1       HT       0.417000       1.00800           0
     59918 TIP3     12512    TIP3     H2       HT       0.417000       1.00800           0
     59919 TIP3     12513    TIP3     OH2      OT      -0.834000       15.9994           0
     59920 TIP3     12513    TIP3     H1       HT       0.417000       1.00800           0
     59921 TIP3     12513    TIP3     H2       HT       0.417000       1.00800           0
     59922 TIP3     12514    TIP3     OH2      OT      -0.834000       15.9994           0
     59923 TIP3     12514    TIP3     H1       HT       0.417000       1.00800           0
     59924 TIP3     12514    TIP3     H2       HT       0.417000       1.00800           0
     59925 TIP3     12515    TIP3     OH2      OT      -0.834000       15.9994           0
     59926 TIP3     12515    TIP3     H1       HT       0.417000       1.00800           0
     59927 TIP3     12515    TIP3     H2       HT       0.417000       1.00800           0
     59928 TIP3     12516    TIP3     OH2      OT      -0.834000       15.9994           0
     59929 TIP3     12516    TIP3     H1       HT       0.417000       1.00800           0
     59930 TIP3     12516    TIP3     H2       HT       0.417000       1.00800           0
     59931 TIP3     12517    TIP3     OH2      OT      -0.834000       15.9994           0
     59932 TIP3     12517    TIP3     H1       HT       0.417000       1.00800           0
     59933 TIP3     12517    TIP3     H2       HT       0.417000       1.00800           0
     59934 TIP3     12518    TIP3     OH2      OT      -0.834000       15.9994           0
     59935 TIP3     12518    TIP3     H1       HT       0.417000       1.00800           0
     59936 TIP3     12518    TIP3     H2       HT       0.417000       1.00800           0
     59937 TIP3     12519    TIP3     OH2      OT      -0.834000       15.9994           0
     59938 TIP3     12519    TIP3     H1       HT       0.417000       1.00800           0
     59939 TIP3     12519    TIP3     H2       HT       0.417000       1.00800           0
     59940 TIP3     12520    TIP3     OH2      OT      -0.834000       15.9994           0
     59941 TIP3     12520    TIP3     H1       HT       0.417000       1.00800           0
     59942 TIP3     12520    TIP3     H2       HT       0.417000       1.00800           0
     59943 TIP3     12521    TIP3     OH2      OT      -0.834000       15.9994           0
     59944 TIP3     12521    TIP3     H1       HT       0.417000       1.00800           0
     59945 TIP3     12521    TIP3     H2       HT       0.417000       1.00800           0
     59946 TIP3     12522    TIP3     OH2      OT      -0.834000       15.9994           0
     59947 TIP3     12522    TIP3     H1       HT       0.417000       1.00800           0
     59948 TIP3     12522    TIP3     H2       HT       0.417000       1.00800           0
     59949 TIP3     12523    TIP3     OH2      OT      -0.834000       15.9994           0
     59950 TIP3     12523    TIP3     H1       HT       0.417000       1.00800           0
     59951 TIP3     12523    TIP3     H2       HT       0.417000       1.00800           0
     59952 TIP3     12524    TIP3     OH2      OT      -0.834000       15.9994           0
     59953 TIP3     12524    TIP3     H1       HT       0.417000       1.00800           0
     59954 TIP3     12524    TIP3     H2       HT       0.417000       1.00800           0
     59955 TIP3     12525    TIP3     OH2      OT      -0.834000       15.9994           0
     59956 TIP3     12525    TIP3     H1       HT       0.417000       1.00800           0
     59957 TIP3     12525    TIP3     H2       HT       0.417000       1.00800           0
     59958 TIP3     12526    TIP3     OH2      OT      -0.834000       15.9994           0
     59959 TIP3     12526    TIP3     H1       HT       0.417000       1.00800           0
     59960 TIP3     12526    TIP3     H2       HT       0.417000       1.00800           0
     59961 TIP3     12527    TIP3     OH2      OT      -0.834000       15.9994           0
     59962 TIP3     12527    TIP3     H1       HT       0.417000       1.00800           0
     59963 TIP3     12527    TIP3     H2       HT       0.417000       1.00800           0
     59964 TIP3     12528    TIP3     OH2      OT      -0.834000       15.9994           0
     59965 TIP3     12528    TIP3     H1       HT       0.417000       1.00800           0
     59966 TIP3     12528    TIP3     H2       HT       0.417000       1.00800           0
     59967 TIP3     12529    TIP3     OH2      OT      -0.834000       15.9994           0
     59968 TIP3     12529    TIP3     H1       HT       0.417000       1.00800           0
     59969 TIP3     12529    TIP3     H2       HT       0.417000       1.00800           0
     59970 TIP3     12530    TIP3     OH2      OT      -0.834000       15.9994           0
     59971 TIP3     12530    TIP3     H1       HT       0.417000       1.00800           0
     59972 TIP3     12530    TIP3     H2       HT       0.417000       1.00800           0
     59973 TIP3     12531    TIP3     OH2      OT      -0.834000       15.9994           0
     59974 TIP3     12531    TIP3     H1       HT       0.417000       1.00800           0
     59975 TIP3     12531    TIP3     H2       HT       0.417000       1.00800           0
     59976 TIP3     12532    TIP3     OH2      OT      -0.834000       15.9994           0
     59977 TIP3     12532    TIP3     H1       HT       0.417000       1.00800           0
     59978 TIP3     12532    TIP3     H2       HT       0.417000       1.00800           0
     59979 TIP3     12533    TIP3     OH2      OT      -0.834000       15.9994           0
     59980 TIP3     12533    TIP3     H1       HT       0.417000       1.00800           0
     59981 TIP3     12533    TIP3     H2       HT       0.417000       1.00800           0
     59982 TIP3     12534    TIP3     OH2      OT      -0.834000       15.9994           0
     59983 TIP3     12534    TIP3     H1       HT       0.417000       1.00800           0
     59984 TIP3     12534    TIP3     H2       HT       0.417000       1.00800           0
     59985 TIP3     12535    TIP3     OH2      OT      -0.834000       15.9994           0
     59986 TIP3     12535    TIP3     H1       HT       0.417000       1.00800           0
     59987 TIP3     12535    TIP3     H2       HT       0.417000       1.00800           0
     59988 TIP3     12536    TIP3     OH2      OT      -0.834000       15.9994           0
     59989 TIP3     12536    TIP3     H1       HT       0.417000       1.00800           0
     59990 TIP3     12536    TIP3     H2       HT       0.417000       1.00800           0
     59991 TIP3     12537    TIP3     OH2      OT      -0.834000       15.9994           0
     59992 TIP3     12537    TIP3     H1       HT       0.417000       1.00800           0
     59993 TIP3     12537    TIP3     H2       HT       0.417000       1.00800           0
     59994 TIP3     12538    TIP3     OH2      OT      -0.834000       15.9994           0
     59995 TIP3     12538    TIP3     H1       HT       0.417000       1.00800           0
     59996 TIP3     12538    TIP3     H2       HT       0.417000       1.00800           0
     59997 TIP3     12539    TIP3     OH2      OT      -0.834000       15.9994           0
     59998 TIP3     12539    TIP3     H1       HT       0.417000       1.00800           0
     59999 TIP3     12539    TIP3     H2       HT       0.417000       1.00800           0
     60000 TIP3     12540    TIP3     OH2      OT      -0.834000       15.9994           0
     60001 TIP3     12540    TIP3     H1       HT       0.417000       1.00800           0
     60002 TIP3     12540    TIP3     H2       HT       0.417000       1.00800           0
     60003 TIP3     12541    TIP3     OH2      OT      -0.834000       15.9994           0
     60004 TIP3     12541    TIP3     H1       HT       0.417000       1.00800           0
     60005 TIP3     12541    TIP3     H2       HT       0.417000       1.00800           0
     60006 TIP3     12542    TIP3     OH2      OT      -0.834000       15.9994           0
     60007 TIP3     12542    TIP3     H1       HT       0.417000       1.00800           0
     60008 TIP3     12542    TIP3     H2       HT       0.417000       1.00800           0
     60009 TIP3     12543    TIP3     OH2      OT      -0.834000       15.9994           0
     60010 TIP3     12543    TIP3     H1       HT       0.417000       1.00800           0
     60011 TIP3     12543    TIP3     H2       HT       0.417000       1.00800           0
     60012 TIP3     12544    TIP3     OH2      OT      -0.834000       15.9994           0
     60013 TIP3     12544    TIP3     H1       HT       0.417000       1.00800           0
     60014 TIP3     12544    TIP3     H2       HT       0.417000       1.00800           0
     60015 TIP3     12545    TIP3     OH2      OT      -0.834000       15.9994           0
     60016 TIP3     12545    TIP3     H1       HT       0.417000       1.00800           0
     60017 TIP3     12545    TIP3     H2       HT       0.417000       1.00800           0
     60018 TIP3     12546    TIP3     OH2      OT      -0.834000       15.9994           0
     60019 TIP3     12546    TIP3     H1       HT       0.417000       1.00800           0
     60020 TIP3     12546    TIP3     H2       HT       0.417000       1.00800           0
     60021 TIP3     12547    TIP3     OH2      OT      -0.834000       15.9994           0
     60022 TIP3     12547    TIP3     H1       HT       0.417000       1.00800           0
     60023 TIP3     12547    TIP3     H2       HT       0.417000       1.00800           0
     60024 TIP3     12548    TIP3     OH2      OT      -0.834000       15.9994           0
     60025 TIP3     12548    TIP3     H1       HT       0.417000       1.00800           0
     60026 TIP3     12548    TIP3     H2       HT       0.417000       1.00800           0
     60027 TIP3     12549    TIP3     OH2      OT      -0.834000       15.9994           0
     60028 TIP3     12549    TIP3     H1       HT       0.417000       1.00800           0
     60029 TIP3     12549    TIP3     H2       HT       0.417000       1.00800           0
     60030 TIP3     12550    TIP3     OH2      OT      -0.834000       15.9994           0
     60031 TIP3     12550    TIP3     H1       HT       0.417000       1.00800           0
     60032 TIP3     12550    TIP3     H2       HT       0.417000       1.00800           0
     60033 TIP3     12551    TIP3     OH2      OT      -0.834000       15.9994           0
     60034 TIP3     12551    TIP3     H1       HT       0.417000       1.00800           0
     60035 TIP3     12551    TIP3     H2       HT       0.417000       1.00800           0
     60036 TIP3     12552    TIP3     OH2      OT      -0.834000       15.9994           0
     60037 TIP3     12552    TIP3     H1       HT       0.417000       1.00800           0
     60038 TIP3     12552    TIP3     H2       HT       0.417000       1.00800           0
     60039 TIP3     12553    TIP3     OH2      OT      -0.834000       15.9994           0
     60040 TIP3     12553    TIP3     H1       HT       0.417000       1.00800           0
     60041 TIP3     12553    TIP3     H2       HT       0.417000       1.00800           0
     60042 TIP3     12554    TIP3     OH2      OT      -0.834000       15.9994           0
     60043 TIP3     12554    TIP3     H1       HT       0.417000       1.00800           0
     60044 TIP3     12554    TIP3     H2       HT       0.417000       1.00800           0
     60045 TIP3     12555    TIP3     OH2      OT      -0.834000       15.9994           0
     60046 TIP3     12555    TIP3     H1       HT       0.417000       1.00800           0
     60047 TIP3     12555    TIP3     H2       HT       0.417000       1.00800           0
     60048 TIP3     12556    TIP3     OH2      OT      -0.834000       15.9994           0
     60049 TIP3     12556    TIP3     H1       HT       0.417000       1.00800           0
     60050 TIP3     12556    TIP3     H2       HT       0.417000       1.00800           0
     60051 TIP3     12557    TIP3     OH2      OT      -0.834000       15.9994           0
     60052 TIP3     12557    TIP3     H1       HT       0.417000       1.00800           0
     60053 TIP3     12557    TIP3     H2       HT       0.417000       1.00800           0
     60054 TIP3     12558    TIP3     OH2      OT      -0.834000       15.9994           0
     60055 TIP3     12558    TIP3     H1       HT       0.417000       1.00800           0
     60056 TIP3     12558    TIP3     H2       HT       0.417000       1.00800           0
     60057 TIP3     12559    TIP3     OH2      OT      -0.834000       15.9994           0
     60058 TIP3     12559    TIP3     H1       HT       0.417000       1.00800           0
     60059 TIP3     12559    TIP3     H2       HT       0.417000       1.00800           0
     60060 TIP3     12560    TIP3     OH2      OT      -0.834000       15.9994           0
     60061 TIP3     12560    TIP3     H1       HT       0.417000       1.00800           0
     60062 TIP3     12560    TIP3     H2       HT       0.417000       1.00800           0
     60063 TIP3     12561    TIP3     OH2      OT      -0.834000       15.9994           0
     60064 TIP3     12561    TIP3     H1       HT       0.417000       1.00800           0
     60065 TIP3     12561    TIP3     H2       HT       0.417000       1.00800           0
     60066 TIP3     12562    TIP3     OH2      OT      -0.834000       15.9994           0
     60067 TIP3     12562    TIP3     H1       HT       0.417000       1.00800           0
     60068 TIP3     12562    TIP3     H2       HT       0.417000       1.00800           0
     60069 TIP3     12563    TIP3     OH2      OT      -0.834000       15.9994           0
     60070 TIP3     12563    TIP3     H1       HT       0.417000       1.00800           0
     60071 TIP3     12563    TIP3     H2       HT       0.417000       1.00800           0
     60072 TIP3     12564    TIP3     OH2      OT      -0.834000       15.9994           0
     60073 TIP3     12564    TIP3     H1       HT       0.417000       1.00800           0
     60074 TIP3     12564    TIP3     H2       HT       0.417000       1.00800           0
     60075 TIP3     12565    TIP3     OH2      OT      -0.834000       15.9994           0
     60076 TIP3     12565    TIP3     H1       HT       0.417000       1.00800           0
     60077 TIP3     12565    TIP3     H2       HT       0.417000       1.00800           0
     60078 TIP3     12566    TIP3     OH2      OT      -0.834000       15.9994           0
     60079 TIP3     12566    TIP3     H1       HT       0.417000       1.00800           0
     60080 TIP3     12566    TIP3     H2       HT       0.417000       1.00800           0
     60081 TIP3     12567    TIP3     OH2      OT      -0.834000       15.9994           0
     60082 TIP3     12567    TIP3     H1       HT       0.417000       1.00800           0
     60083 TIP3     12567    TIP3     H2       HT       0.417000       1.00800           0
     60084 TIP3     12568    TIP3     OH2      OT      -0.834000       15.9994           0
     60085 TIP3     12568    TIP3     H1       HT       0.417000       1.00800           0
     60086 TIP3     12568    TIP3     H2       HT       0.417000       1.00800           0
     60087 TIP3     12569    TIP3     OH2      OT      -0.834000       15.9994           0
     60088 TIP3     12569    TIP3     H1       HT       0.417000       1.00800           0
     60089 TIP3     12569    TIP3     H2       HT       0.417000       1.00800           0
     60090 TIP3     12570    TIP3     OH2      OT      -0.834000       15.9994           0
     60091 TIP3     12570    TIP3     H1       HT       0.417000       1.00800           0
     60092 TIP3     12570    TIP3     H2       HT       0.417000       1.00800           0
     60093 TIP3     12571    TIP3     OH2      OT      -0.834000       15.9994           0
     60094 TIP3     12571    TIP3     H1       HT       0.417000       1.00800           0
     60095 TIP3     12571    TIP3     H2       HT       0.417000       1.00800           0
     60096 TIP3     12572    TIP3     OH2      OT      -0.834000       15.9994           0
     60097 TIP3     12572    TIP3     H1       HT       0.417000       1.00800           0
     60098 TIP3     12572    TIP3     H2       HT       0.417000       1.00800           0
     60099 TIP3     12573    TIP3     OH2      OT      -0.834000       15.9994           0
     60100 TIP3     12573    TIP3     H1       HT       0.417000       1.00800           0
     60101 TIP3     12573    TIP3     H2       HT       0.417000       1.00800           0
     60102 TIP3     12574    TIP3     OH2      OT      -0.834000       15.9994           0
     60103 TIP3     12574    TIP3     H1       HT       0.417000       1.00800           0
     60104 TIP3     12574    TIP3     H2       HT       0.417000       1.00800           0
     60105 TIP3     12575    TIP3     OH2      OT      -0.834000       15.9994           0
     60106 TIP3     12575    TIP3     H1       HT       0.417000       1.00800           0
     60107 TIP3     12575    TIP3     H2       HT       0.417000       1.00800           0
     60108 TIP3     12576    TIP3     OH2      OT      -0.834000       15.9994           0
     60109 TIP3     12576    TIP3     H1       HT       0.417000       1.00800           0
     60110 TIP3     12576    TIP3     H2       HT       0.417000       1.00800           0
     60111 TIP3     12577    TIP3     OH2      OT      -0.834000       15.9994           0
     60112 TIP3     12577    TIP3     H1       HT       0.417000       1.00800           0
     60113 TIP3     12577    TIP3     H2       HT       0.417000       1.00800           0
     60114 TIP3     12578    TIP3     OH2      OT      -0.834000       15.9994           0
     60115 TIP3     12578    TIP3     H1       HT       0.417000       1.00800           0
     60116 TIP3     12578    TIP3     H2       HT       0.417000       1.00800           0
     60117 TIP3     12579    TIP3     OH2      OT      -0.834000       15.9994           0
     60118 TIP3     12579    TIP3     H1       HT       0.417000       1.00800           0
     60119 TIP3     12579    TIP3     H2       HT       0.417000       1.00800           0
     60120 TIP3     12580    TIP3     OH2      OT      -0.834000       15.9994           0
     60121 TIP3     12580    TIP3     H1       HT       0.417000       1.00800           0
     60122 TIP3     12580    TIP3     H2       HT       0.417000       1.00800           0
     60123 TIP3     12581    TIP3     OH2      OT      -0.834000       15.9994           0
     60124 TIP3     12581    TIP3     H1       HT       0.417000       1.00800           0
     60125 TIP3     12581    TIP3     H2       HT       0.417000       1.00800           0
     60126 TIP3     12582    TIP3     OH2      OT      -0.834000       15.9994           0
     60127 TIP3     12582    TIP3     H1       HT       0.417000       1.00800           0
     60128 TIP3     12582    TIP3     H2       HT       0.417000       1.00800           0
     60129 TIP3     12583    TIP3     OH2      OT      -0.834000       15.9994           0
     60130 TIP3     12583    TIP3     H1       HT       0.417000       1.00800           0
     60131 TIP3     12583    TIP3     H2       HT       0.417000       1.00800           0
     60132 TIP3     12584    TIP3     OH2      OT      -0.834000       15.9994           0
     60133 TIP3     12584    TIP3     H1       HT       0.417000       1.00800           0
     60134 TIP3     12584    TIP3     H2       HT       0.417000       1.00800           0
     60135 TIP3     12585    TIP3     OH2      OT      -0.834000       15.9994           0
     60136 TIP3     12585    TIP3     H1       HT       0.417000       1.00800           0
     60137 TIP3     12585    TIP3     H2       HT       0.417000       1.00800           0
     60138 TIP3     12586    TIP3     OH2      OT      -0.834000       15.9994           0
     60139 TIP3     12586    TIP3     H1       HT       0.417000       1.00800           0
     60140 TIP3     12586    TIP3     H2       HT       0.417000       1.00800           0
     60141 TIP3     12587    TIP3     OH2      OT      -0.834000       15.9994           0
     60142 TIP3     12587    TIP3     H1       HT       0.417000       1.00800           0
     60143 TIP3     12587    TIP3     H2       HT       0.417000       1.00800           0
     60144 TIP3     12588    TIP3     OH2      OT      -0.834000       15.9994           0
     60145 TIP3     12588    TIP3     H1       HT       0.417000       1.00800           0
     60146 TIP3     12588    TIP3     H2       HT       0.417000       1.00800           0
     60147 TIP3     12589    TIP3     OH2      OT      -0.834000       15.9994           0
     60148 TIP3     12589    TIP3     H1       HT       0.417000       1.00800           0
     60149 TIP3     12589    TIP3     H2       HT       0.417000       1.00800           0
     60150 TIP3     12590    TIP3     OH2      OT      -0.834000       15.9994           0
     60151 TIP3     12590    TIP3     H1       HT       0.417000       1.00800           0
     60152 TIP3     12590    TIP3     H2       HT       0.417000       1.00800           0
     60153 TIP3     12591    TIP3     OH2      OT      -0.834000       15.9994           0
     60154 TIP3     12591    TIP3     H1       HT       0.417000       1.00800           0
     60155 TIP3     12591    TIP3     H2       HT       0.417000       1.00800           0
     60156 TIP3     12592    TIP3     OH2      OT      -0.834000       15.9994           0
     60157 TIP3     12592    TIP3     H1       HT       0.417000       1.00800           0
     60158 TIP3     12592    TIP3     H2       HT       0.417000       1.00800           0
     60159 TIP3     12593    TIP3     OH2      OT      -0.834000       15.9994           0
     60160 TIP3     12593    TIP3     H1       HT       0.417000       1.00800           0
     60161 TIP3     12593    TIP3     H2       HT       0.417000       1.00800           0
     60162 TIP3     12594    TIP3     OH2      OT      -0.834000       15.9994           0
     60163 TIP3     12594    TIP3     H1       HT       0.417000       1.00800           0
     60164 TIP3     12594    TIP3     H2       HT       0.417000       1.00800           0
     60165 TIP3     12595    TIP3     OH2      OT      -0.834000       15.9994           0
     60166 TIP3     12595    TIP3     H1       HT       0.417000       1.00800           0
     60167 TIP3     12595    TIP3     H2       HT       0.417000       1.00800           0
     60168 TIP3     12596    TIP3     OH2      OT      -0.834000       15.9994           0
     60169 TIP3     12596    TIP3     H1       HT       0.417000       1.00800           0
     60170 TIP3     12596    TIP3     H2       HT       0.417000       1.00800           0
     60171 TIP3     12597    TIP3     OH2      OT      -0.834000       15.9994           0
     60172 TIP3     12597    TIP3     H1       HT       0.417000       1.00800           0
     60173 TIP3     12597    TIP3     H2       HT       0.417000       1.00800           0
     60174 TIP3     12598    TIP3     OH2      OT      -0.834000       15.9994           0
     60175 TIP3     12598    TIP3     H1       HT       0.417000       1.00800           0
     60176 TIP3     12598    TIP3     H2       HT       0.417000       1.00800           0
     60177 TIP3     12599    TIP3     OH2      OT      -0.834000       15.9994           0
     60178 TIP3     12599    TIP3     H1       HT       0.417000       1.00800           0
     60179 TIP3     12599    TIP3     H2       HT       0.417000       1.00800           0
     60180 TIP3     12600    TIP3     OH2      OT      -0.834000       15.9994           0
     60181 TIP3     12600    TIP3     H1       HT       0.417000       1.00800           0
     60182 TIP3     12600    TIP3     H2       HT       0.417000       1.00800           0
     60183 TIP3     12601    TIP3     OH2      OT      -0.834000       15.9994           0
     60184 TIP3     12601    TIP3     H1       HT       0.417000       1.00800           0
     60185 TIP3     12601    TIP3     H2       HT       0.417000       1.00800           0
     60186 TIP3     12602    TIP3     OH2      OT      -0.834000       15.9994           0
     60187 TIP3     12602    TIP3     H1       HT       0.417000       1.00800           0
     60188 TIP3     12602    TIP3     H2       HT       0.417000       1.00800           0
     60189 TIP3     12603    TIP3     OH2      OT      -0.834000       15.9994           0
     60190 TIP3     12603    TIP3     H1       HT       0.417000       1.00800           0
     60191 TIP3     12603    TIP3     H2       HT       0.417000       1.00800           0
     60192 TIP3     12604    TIP3     OH2      OT      -0.834000       15.9994           0
     60193 TIP3     12604    TIP3     H1       HT       0.417000       1.00800           0
     60194 TIP3     12604    TIP3     H2       HT       0.417000       1.00800           0
     60195 TIP3     12605    TIP3     OH2      OT      -0.834000       15.9994           0
     60196 TIP3     12605    TIP3     H1       HT       0.417000       1.00800           0
     60197 TIP3     12605    TIP3     H2       HT       0.417000       1.00800           0
     60198 TIP3     12606    TIP3     OH2      OT      -0.834000       15.9994           0
     60199 TIP3     12606    TIP3     H1       HT       0.417000       1.00800           0
     60200 TIP3     12606    TIP3     H2       HT       0.417000       1.00800           0
     60201 TIP3     12607    TIP3     OH2      OT      -0.834000       15.9994           0
     60202 TIP3     12607    TIP3     H1       HT       0.417000       1.00800           0
     60203 TIP3     12607    TIP3     H2       HT       0.417000       1.00800           0
     60204 TIP3     12608    TIP3     OH2      OT      -0.834000       15.9994           0
     60205 TIP3     12608    TIP3     H1       HT       0.417000       1.00800           0
     60206 TIP3     12608    TIP3     H2       HT       0.417000       1.00800           0
     60207 TIP3     12609    TIP3     OH2      OT      -0.834000       15.9994           0
     60208 TIP3     12609    TIP3     H1       HT       0.417000       1.00800           0
     60209 TIP3     12609    TIP3     H2       HT       0.417000       1.00800           0
     60210 TIP3     12610    TIP3     OH2      OT      -0.834000       15.9994           0
     60211 TIP3     12610    TIP3     H1       HT       0.417000       1.00800           0
     60212 TIP3     12610    TIP3     H2       HT       0.417000       1.00800           0
     60213 TIP3     12611    TIP3     OH2      OT      -0.834000       15.9994           0
     60214 TIP3     12611    TIP3     H1       HT       0.417000       1.00800           0
     60215 TIP3     12611    TIP3     H2       HT       0.417000       1.00800           0
     60216 TIP3     12612    TIP3     OH2      OT      -0.834000       15.9994           0
     60217 TIP3     12612    TIP3     H1       HT       0.417000       1.00800           0
     60218 TIP3     12612    TIP3     H2       HT       0.417000       1.00800           0
     60219 TIP3     12613    TIP3     OH2      OT      -0.834000       15.9994           0
     60220 TIP3     12613    TIP3     H1       HT       0.417000       1.00800           0
     60221 TIP3     12613    TIP3     H2       HT       0.417000       1.00800           0
     60222 TIP3     12614    TIP3     OH2      OT      -0.834000       15.9994           0
     60223 TIP3     12614    TIP3     H1       HT       0.417000       1.00800           0
     60224 TIP3     12614    TIP3     H2       HT       0.417000       1.00800           0
     60225 TIP3     12615    TIP3     OH2      OT      -0.834000       15.9994           0
     60226 TIP3     12615    TIP3     H1       HT       0.417000       1.00800           0
     60227 TIP3     12615    TIP3     H2       HT       0.417000       1.00800           0
     60228 TIP3     12616    TIP3     OH2      OT      -0.834000       15.9994           0
     60229 TIP3     12616    TIP3     H1       HT       0.417000       1.00800           0
     60230 TIP3     12616    TIP3     H2       HT       0.417000       1.00800           0
     60231 TIP3     12617    TIP3     OH2      OT      -0.834000       15.9994           0
     60232 TIP3     12617    TIP3     H1       HT       0.417000       1.00800           0
     60233 TIP3     12617    TIP3     H2       HT       0.417000       1.00800           0
     60234 TIP3     12618    TIP3     OH2      OT      -0.834000       15.9994           0
     60235 TIP3     12618    TIP3     H1       HT       0.417000       1.00800           0
     60236 TIP3     12618    TIP3     H2       HT       0.417000       1.00800           0
     60237 TIP3     12619    TIP3     OH2      OT      -0.834000       15.9994           0
     60238 TIP3     12619    TIP3     H1       HT       0.417000       1.00800           0
     60239 TIP3     12619    TIP3     H2       HT       0.417000       1.00800           0
     60240 TIP3     12620    TIP3     OH2      OT      -0.834000       15.9994           0
     60241 TIP3     12620    TIP3     H1       HT       0.417000       1.00800           0
     60242 TIP3     12620    TIP3     H2       HT       0.417000       1.00800           0
     60243 TIP3     12621    TIP3     OH2      OT      -0.834000       15.9994           0
     60244 TIP3     12621    TIP3     H1       HT       0.417000       1.00800           0
     60245 TIP3     12621    TIP3     H2       HT       0.417000       1.00800           0
     60246 TIP3     12622    TIP3     OH2      OT      -0.834000       15.9994           0
     60247 TIP3     12622    TIP3     H1       HT       0.417000       1.00800           0
     60248 TIP3     12622    TIP3     H2       HT       0.417000       1.00800           0
     60249 TIP3     12623    TIP3     OH2      OT      -0.834000       15.9994           0
     60250 TIP3     12623    TIP3     H1       HT       0.417000       1.00800           0
     60251 TIP3     12623    TIP3     H2       HT       0.417000       1.00800           0
     60252 TIP3     12624    TIP3     OH2      OT      -0.834000       15.9994           0
     60253 TIP3     12624    TIP3     H1       HT       0.417000       1.00800           0
     60254 TIP3     12624    TIP3     H2       HT       0.417000       1.00800           0
     60255 TIP3     12625    TIP3     OH2      OT      -0.834000       15.9994           0
     60256 TIP3     12625    TIP3     H1       HT       0.417000       1.00800           0
     60257 TIP3     12625    TIP3     H2       HT       0.417000       1.00800           0
     60258 TIP3     12626    TIP3     OH2      OT      -0.834000       15.9994           0
     60259 TIP3     12626    TIP3     H1       HT       0.417000       1.00800           0
     60260 TIP3     12626    TIP3     H2       HT       0.417000       1.00800           0
     60261 TIP3     12627    TIP3     OH2      OT      -0.834000       15.9994           0
     60262 TIP3     12627    TIP3     H1       HT       0.417000       1.00800           0
     60263 TIP3     12627    TIP3     H2       HT       0.417000       1.00800           0
     60264 TIP3     12628    TIP3     OH2      OT      -0.834000       15.9994           0
     60265 TIP3     12628    TIP3     H1       HT       0.417000       1.00800           0
     60266 TIP3     12628    TIP3     H2       HT       0.417000       1.00800           0
     60267 TIP3     12629    TIP3     OH2      OT      -0.834000       15.9994           0
     60268 TIP3     12629    TIP3     H1       HT       0.417000       1.00800           0
     60269 TIP3     12629    TIP3     H2       HT       0.417000       1.00800           0
     60270 TIP3     12630    TIP3     OH2      OT      -0.834000       15.9994           0
     60271 TIP3     12630    TIP3     H1       HT       0.417000       1.00800           0
     60272 TIP3     12630    TIP3     H2       HT       0.417000       1.00800           0
     60273 TIP3     12631    TIP3     OH2      OT      -0.834000       15.9994           0
     60274 TIP3     12631    TIP3     H1       HT       0.417000       1.00800           0
     60275 TIP3     12631    TIP3     H2       HT       0.417000       1.00800           0
     60276 TIP3     12632    TIP3     OH2      OT      -0.834000       15.9994           0
     60277 TIP3     12632    TIP3     H1       HT       0.417000       1.00800           0
     60278 TIP3     12632    TIP3     H2       HT       0.417000       1.00800           0
     60279 TIP3     12633    TIP3     OH2      OT      -0.834000       15.9994           0
     60280 TIP3     12633    TIP3     H1       HT       0.417000       1.00800           0
     60281 TIP3     12633    TIP3     H2       HT       0.417000       1.00800           0
     60282 TIP3     12634    TIP3     OH2      OT      -0.834000       15.9994           0
     60283 TIP3     12634    TIP3     H1       HT       0.417000       1.00800           0
     60284 TIP3     12634    TIP3     H2       HT       0.417000       1.00800           0
     60285 TIP3     12635    TIP3     OH2      OT      -0.834000       15.9994           0
     60286 TIP3     12635    TIP3     H1       HT       0.417000       1.00800           0
     60287 TIP3     12635    TIP3     H2       HT       0.417000       1.00800           0
     60288 TIP3     12636    TIP3     OH2      OT      -0.834000       15.9994           0
     60289 TIP3     12636    TIP3     H1       HT       0.417000       1.00800           0
     60290 TIP3     12636    TIP3     H2       HT       0.417000       1.00800           0
     60291 TIP3     12637    TIP3     OH2      OT      -0.834000       15.9994           0
     60292 TIP3     12637    TIP3     H1       HT       0.417000       1.00800           0
     60293 TIP3     12637    TIP3     H2       HT       0.417000       1.00800           0
     60294 TIP3     12638    TIP3     OH2      OT      -0.834000       15.9994           0
     60295 TIP3     12638    TIP3     H1       HT       0.417000       1.00800           0
     60296 TIP3     12638    TIP3     H2       HT       0.417000       1.00800           0
     60297 TIP3     12639    TIP3     OH2      OT      -0.834000       15.9994           0
     60298 TIP3     12639    TIP3     H1       HT       0.417000       1.00800           0
     60299 TIP3     12639    TIP3     H2       HT       0.417000       1.00800           0
     60300 TIP3     12640    TIP3     OH2      OT      -0.834000       15.9994           0
     60301 TIP3     12640    TIP3     H1       HT       0.417000       1.00800           0
     60302 TIP3     12640    TIP3     H2       HT       0.417000       1.00800           0
     60303 TIP3     12641    TIP3     OH2      OT      -0.834000       15.9994           0
     60304 TIP3     12641    TIP3     H1       HT       0.417000       1.00800           0
     60305 TIP3     12641    TIP3     H2       HT       0.417000       1.00800           0
     60306 TIP3     12642    TIP3     OH2      OT      -0.834000       15.9994           0
     60307 TIP3     12642    TIP3     H1       HT       0.417000       1.00800           0
     60308 TIP3     12642    TIP3     H2       HT       0.417000       1.00800           0
     60309 TIP3     12643    TIP3     OH2      OT      -0.834000       15.9994           0
     60310 TIP3     12643    TIP3     H1       HT       0.417000       1.00800           0
     60311 TIP3     12643    TIP3     H2       HT       0.417000       1.00800           0
     60312 TIP3     12644    TIP3     OH2      OT      -0.834000       15.9994           0
     60313 TIP3     12644    TIP3     H1       HT       0.417000       1.00800           0
     60314 TIP3     12644    TIP3     H2       HT       0.417000       1.00800           0
     60315 TIP3     12645    TIP3     OH2      OT      -0.834000       15.9994           0
     60316 TIP3     12645    TIP3     H1       HT       0.417000       1.00800           0
     60317 TIP3     12645    TIP3     H2       HT       0.417000       1.00800           0
     60318 TIP3     12646    TIP3     OH2      OT      -0.834000       15.9994           0
     60319 TIP3     12646    TIP3     H1       HT       0.417000       1.00800           0
     60320 TIP3     12646    TIP3     H2       HT       0.417000       1.00800           0
     60321 TIP3     12647    TIP3     OH2      OT      -0.834000       15.9994           0
     60322 TIP3     12647    TIP3     H1       HT       0.417000       1.00800           0
     60323 TIP3     12647    TIP3     H2       HT       0.417000       1.00800           0
     60324 TIP3     12648    TIP3     OH2      OT      -0.834000       15.9994           0
     60325 TIP3     12648    TIP3     H1       HT       0.417000       1.00800           0
     60326 TIP3     12648    TIP3     H2       HT       0.417000       1.00800           0
     60327 TIP3     12649    TIP3     OH2      OT      -0.834000       15.9994           0
     60328 TIP3     12649    TIP3     H1       HT       0.417000       1.00800           0
     60329 TIP3     12649    TIP3     H2       HT       0.417000       1.00800           0
     60330 TIP3     12650    TIP3     OH2      OT      -0.834000       15.9994           0
     60331 TIP3     12650    TIP3     H1       HT       0.417000       1.00800           0
     60332 TIP3     12650    TIP3     H2       HT       0.417000       1.00800           0
     60333 TIP3     12651    TIP3     OH2      OT      -0.834000       15.9994           0
     60334 TIP3     12651    TIP3     H1       HT       0.417000       1.00800           0
     60335 TIP3     12651    TIP3     H2       HT       0.417000       1.00800           0
     60336 TIP3     12652    TIP3     OH2      OT      -0.834000       15.9994           0
     60337 TIP3     12652    TIP3     H1       HT       0.417000       1.00800           0
     60338 TIP3     12652    TIP3     H2       HT       0.417000       1.00800           0
     60339 TIP3     12653    TIP3     OH2      OT      -0.834000       15.9994           0
     60340 TIP3     12653    TIP3     H1       HT       0.417000       1.00800           0
     60341 TIP3     12653    TIP3     H2       HT       0.417000       1.00800           0
     60342 TIP3     12654    TIP3     OH2      OT      -0.834000       15.9994           0
     60343 TIP3     12654    TIP3     H1       HT       0.417000       1.00800           0
     60344 TIP3     12654    TIP3     H2       HT       0.417000       1.00800           0
     60345 TIP3     12655    TIP3     OH2      OT      -0.834000       15.9994           0
     60346 TIP3     12655    TIP3     H1       HT       0.417000       1.00800           0
     60347 TIP3     12655    TIP3     H2       HT       0.417000       1.00800           0
     60348 TIP3     12656    TIP3     OH2      OT      -0.834000       15.9994           0
     60349 TIP3     12656    TIP3     H1       HT       0.417000       1.00800           0
     60350 TIP3     12656    TIP3     H2       HT       0.417000       1.00800           0
     60351 TIP3     12657    TIP3     OH2      OT      -0.834000       15.9994           0
     60352 TIP3     12657    TIP3     H1       HT       0.417000       1.00800           0
     60353 TIP3     12657    TIP3     H2       HT       0.417000       1.00800           0
     60354 TIP3     12658    TIP3     OH2      OT      -0.834000       15.9994           0
     60355 TIP3     12658    TIP3     H1       HT       0.417000       1.00800           0
     60356 TIP3     12658    TIP3     H2       HT       0.417000       1.00800           0
     60357 TIP3     12659    TIP3     OH2      OT      -0.834000       15.9994           0
     60358 TIP3     12659    TIP3     H1       HT       0.417000       1.00800           0
     60359 TIP3     12659    TIP3     H2       HT       0.417000       1.00800           0
     60360 TIP3     12660    TIP3     OH2      OT      -0.834000       15.9994           0
     60361 TIP3     12660    TIP3     H1       HT       0.417000       1.00800           0
     60362 TIP3     12660    TIP3     H2       HT       0.417000       1.00800           0
     60363 TIP3     12661    TIP3     OH2      OT      -0.834000       15.9994           0
     60364 TIP3     12661    TIP3     H1       HT       0.417000       1.00800           0
     60365 TIP3     12661    TIP3     H2       HT       0.417000       1.00800           0
     60366 TIP3     12662    TIP3     OH2      OT      -0.834000       15.9994           0
     60367 TIP3     12662    TIP3     H1       HT       0.417000       1.00800           0
     60368 TIP3     12662    TIP3     H2       HT       0.417000       1.00800           0
     60369 TIP3     12663    TIP3     OH2      OT      -0.834000       15.9994           0
     60370 TIP3     12663    TIP3     H1       HT       0.417000       1.00800           0
     60371 TIP3     12663    TIP3     H2       HT       0.417000       1.00800           0
     60372 TIP3     12664    TIP3     OH2      OT      -0.834000       15.9994           0
     60373 TIP3     12664    TIP3     H1       HT       0.417000       1.00800           0
     60374 TIP3     12664    TIP3     H2       HT       0.417000       1.00800           0
     60375 TIP3     12665    TIP3     OH2      OT      -0.834000       15.9994           0
     60376 TIP3     12665    TIP3     H1       HT       0.417000       1.00800           0
     60377 TIP3     12665    TIP3     H2       HT       0.417000       1.00800           0
     60378 TIP3     12666    TIP3     OH2      OT      -0.834000       15.9994           0
     60379 TIP3     12666    TIP3     H1       HT       0.417000       1.00800           0
     60380 TIP3     12666    TIP3     H2       HT       0.417000       1.00800           0
     60381 TIP3     12667    TIP3     OH2      OT      -0.834000       15.9994           0
     60382 TIP3     12667    TIP3     H1       HT       0.417000       1.00800           0
     60383 TIP3     12667    TIP3     H2       HT       0.417000       1.00800           0
     60384 TIP3     12668    TIP3     OH2      OT      -0.834000       15.9994           0
     60385 TIP3     12668    TIP3     H1       HT       0.417000       1.00800           0
     60386 TIP3     12668    TIP3     H2       HT       0.417000       1.00800           0
     60387 TIP3     12669    TIP3     OH2      OT      -0.834000       15.9994           0
     60388 TIP3     12669    TIP3     H1       HT       0.417000       1.00800           0
     60389 TIP3     12669    TIP3     H2       HT       0.417000       1.00800           0
     60390 TIP3     12670    TIP3     OH2      OT      -0.834000       15.9994           0
     60391 TIP3     12670    TIP3     H1       HT       0.417000       1.00800           0
     60392 TIP3     12670    TIP3     H2       HT       0.417000       1.00800           0
     60393 TIP3     12671    TIP3     OH2      OT      -0.834000       15.9994           0
     60394 TIP3     12671    TIP3     H1       HT       0.417000       1.00800           0
     60395 TIP3     12671    TIP3     H2       HT       0.417000       1.00800           0
     60396 TIP3     12672    TIP3     OH2      OT      -0.834000       15.9994           0
     60397 TIP3     12672    TIP3     H1       HT       0.417000       1.00800           0
     60398 TIP3     12672    TIP3     H2       HT       0.417000       1.00800           0
     60399 TIP3     12673    TIP3     OH2      OT      -0.834000       15.9994           0
     60400 TIP3     12673    TIP3     H1       HT       0.417000       1.00800           0
     60401 TIP3     12673    TIP3     H2       HT       0.417000       1.00800           0
     60402 TIP3     12674    TIP3     OH2      OT      -0.834000       15.9994           0
     60403 TIP3     12674    TIP3     H1       HT       0.417000       1.00800           0
     60404 TIP3     12674    TIP3     H2       HT       0.417000       1.00800           0
     60405 TIP3     12675    TIP3     OH2      OT      -0.834000       15.9994           0
     60406 TIP3     12675    TIP3     H1       HT       0.417000       1.00800           0
     60407 TIP3     12675    TIP3     H2       HT       0.417000       1.00800           0
     60408 TIP3     12676    TIP3     OH2      OT      -0.834000       15.9994           0
     60409 TIP3     12676    TIP3     H1       HT       0.417000       1.00800           0
     60410 TIP3     12676    TIP3     H2       HT       0.417000       1.00800           0
     60411 TIP3     12677    TIP3     OH2      OT      -0.834000       15.9994           0
     60412 TIP3     12677    TIP3     H1       HT       0.417000       1.00800           0
     60413 TIP3     12677    TIP3     H2       HT       0.417000       1.00800           0
     60414 TIP3     12678    TIP3     OH2      OT      -0.834000       15.9994           0
     60415 TIP3     12678    TIP3     H1       HT       0.417000       1.00800           0
     60416 TIP3     12678    TIP3     H2       HT       0.417000       1.00800           0
     60417 TIP3     12679    TIP3     OH2      OT      -0.834000       15.9994           0
     60418 TIP3     12679    TIP3     H1       HT       0.417000       1.00800           0
     60419 TIP3     12679    TIP3     H2       HT       0.417000       1.00800           0
     60420 TIP3     12680    TIP3     OH2      OT      -0.834000       15.9994           0
     60421 TIP3     12680    TIP3     H1       HT       0.417000       1.00800           0
     60422 TIP3     12680    TIP3     H2       HT       0.417000       1.00800           0
     60423 TIP3     12681    TIP3     OH2      OT      -0.834000       15.9994           0
     60424 TIP3     12681    TIP3     H1       HT       0.417000       1.00800           0
     60425 TIP3     12681    TIP3     H2       HT       0.417000       1.00800           0
     60426 TIP3     12682    TIP3     OH2      OT      -0.834000       15.9994           0
     60427 TIP3     12682    TIP3     H1       HT       0.417000       1.00800           0
     60428 TIP3     12682    TIP3     H2       HT       0.417000       1.00800           0
     60429 TIP3     12683    TIP3     OH2      OT      -0.834000       15.9994           0
     60430 TIP3     12683    TIP3     H1       HT       0.417000       1.00800           0
     60431 TIP3     12683    TIP3     H2       HT       0.417000       1.00800           0
     60432 TIP3     12684    TIP3     OH2      OT      -0.834000       15.9994           0
     60433 TIP3     12684    TIP3     H1       HT       0.417000       1.00800           0
     60434 TIP3     12684    TIP3     H2       HT       0.417000       1.00800           0
     60435 TIP3     12685    TIP3     OH2      OT      -0.834000       15.9994           0
     60436 TIP3     12685    TIP3     H1       HT       0.417000       1.00800           0
     60437 TIP3     12685    TIP3     H2       HT       0.417000       1.00800           0
     60438 TIP3     12686    TIP3     OH2      OT      -0.834000       15.9994           0
     60439 TIP3     12686    TIP3     H1       HT       0.417000       1.00800           0
     60440 TIP3     12686    TIP3     H2       HT       0.417000       1.00800           0
     60441 TIP3     12687    TIP3     OH2      OT      -0.834000       15.9994           0
     60442 TIP3     12687    TIP3     H1       HT       0.417000       1.00800           0
     60443 TIP3     12687    TIP3     H2       HT       0.417000       1.00800           0
     60444 TIP3     12688    TIP3     OH2      OT      -0.834000       15.9994           0
     60445 TIP3     12688    TIP3     H1       HT       0.417000       1.00800           0
     60446 TIP3     12688    TIP3     H2       HT       0.417000       1.00800           0
     60447 TIP3     12689    TIP3     OH2      OT      -0.834000       15.9994           0
     60448 TIP3     12689    TIP3     H1       HT       0.417000       1.00800           0
     60449 TIP3     12689    TIP3     H2       HT       0.417000       1.00800           0
     60450 TIP3     12690    TIP3     OH2      OT      -0.834000       15.9994           0
     60451 TIP3     12690    TIP3     H1       HT       0.417000       1.00800           0
     60452 TIP3     12690    TIP3     H2       HT       0.417000       1.00800           0
     60453 TIP3     12691    TIP3     OH2      OT      -0.834000       15.9994           0
     60454 TIP3     12691    TIP3     H1       HT       0.417000       1.00800           0
     60455 TIP3     12691    TIP3     H2       HT       0.417000       1.00800           0
     60456 TIP3     12692    TIP3     OH2      OT      -0.834000       15.9994           0
     60457 TIP3     12692    TIP3     H1       HT       0.417000       1.00800           0
     60458 TIP3     12692    TIP3     H2       HT       0.417000       1.00800           0
     60459 TIP3     12693    TIP3     OH2      OT      -0.834000       15.9994           0
     60460 TIP3     12693    TIP3     H1       HT       0.417000       1.00800           0
     60461 TIP3     12693    TIP3     H2       HT       0.417000       1.00800           0
     60462 TIP3     12694    TIP3     OH2      OT      -0.834000       15.9994           0
     60463 TIP3     12694    TIP3     H1       HT       0.417000       1.00800           0
     60464 TIP3     12694    TIP3     H2       HT       0.417000       1.00800           0
     60465 TIP3     12695    TIP3     OH2      OT      -0.834000       15.9994           0
     60466 TIP3     12695    TIP3     H1       HT       0.417000       1.00800           0
     60467 TIP3     12695    TIP3     H2       HT       0.417000       1.00800           0
     60468 TIP3     12696    TIP3     OH2      OT      -0.834000       15.9994           0
     60469 TIP3     12696    TIP3     H1       HT       0.417000       1.00800           0
     60470 TIP3     12696    TIP3     H2       HT       0.417000       1.00800           0
     60471 TIP3     12697    TIP3     OH2      OT      -0.834000       15.9994           0
     60472 TIP3     12697    TIP3     H1       HT       0.417000       1.00800           0
     60473 TIP3     12697    TIP3     H2       HT       0.417000       1.00800           0
     60474 TIP3     12698    TIP3     OH2      OT      -0.834000       15.9994           0
     60475 TIP3     12698    TIP3     H1       HT       0.417000       1.00800           0
     60476 TIP3     12698    TIP3     H2       HT       0.417000       1.00800           0
     60477 TIP3     12699    TIP3     OH2      OT      -0.834000       15.9994           0
     60478 TIP3     12699    TIP3     H1       HT       0.417000       1.00800           0
     60479 TIP3     12699    TIP3     H2       HT       0.417000       1.00800           0
     60480 TIP3     12700    TIP3     OH2      OT      -0.834000       15.9994           0
     60481 TIP3     12700    TIP3     H1       HT       0.417000       1.00800           0
     60482 TIP3     12700    TIP3     H2       HT       0.417000       1.00800           0
     60483 TIP3     12701    TIP3     OH2      OT      -0.834000       15.9994           0
     60484 TIP3     12701    TIP3     H1       HT       0.417000       1.00800           0
     60485 TIP3     12701    TIP3     H2       HT       0.417000       1.00800           0
     60486 TIP3     12702    TIP3     OH2      OT      -0.834000       15.9994           0
     60487 TIP3     12702    TIP3     H1       HT       0.417000       1.00800           0
     60488 TIP3     12702    TIP3     H2       HT       0.417000       1.00800           0
     60489 TIP3     12703    TIP3     OH2      OT      -0.834000       15.9994           0
     60490 TIP3     12703    TIP3     H1       HT       0.417000       1.00800           0
     60491 TIP3     12703    TIP3     H2       HT       0.417000       1.00800           0
     60492 TIP3     12704    TIP3     OH2      OT      -0.834000       15.9994           0
     60493 TIP3     12704    TIP3     H1       HT       0.417000       1.00800           0
     60494 TIP3     12704    TIP3     H2       HT       0.417000       1.00800           0
     60495 TIP3     12705    TIP3     OH2      OT      -0.834000       15.9994           0
     60496 TIP3     12705    TIP3     H1       HT       0.417000       1.00800           0
     60497 TIP3     12705    TIP3     H2       HT       0.417000       1.00800           0
     60498 TIP3     12706    TIP3     OH2      OT      -0.834000       15.9994           0
     60499 TIP3     12706    TIP3     H1       HT       0.417000       1.00800           0
     60500 TIP3     12706    TIP3     H2       HT       0.417000       1.00800           0
     60501 TIP3     12707    TIP3     OH2      OT      -0.834000       15.9994           0
     60502 TIP3     12707    TIP3     H1       HT       0.417000       1.00800           0
     60503 TIP3     12707    TIP3     H2       HT       0.417000       1.00800           0
     60504 TIP3     12708    TIP3     OH2      OT      -0.834000       15.9994           0
     60505 TIP3     12708    TIP3     H1       HT       0.417000       1.00800           0
     60506 TIP3     12708    TIP3     H2       HT       0.417000       1.00800           0
     60507 TIP3     12709    TIP3     OH2      OT      -0.834000       15.9994           0
     60508 TIP3     12709    TIP3     H1       HT       0.417000       1.00800           0
     60509 TIP3     12709    TIP3     H2       HT       0.417000       1.00800           0
     60510 TIP3     12710    TIP3     OH2      OT      -0.834000       15.9994           0
     60511 TIP3     12710    TIP3     H1       HT       0.417000       1.00800           0
     60512 TIP3     12710    TIP3     H2       HT       0.417000       1.00800           0
     60513 TIP3     12711    TIP3     OH2      OT      -0.834000       15.9994           0
     60514 TIP3     12711    TIP3     H1       HT       0.417000       1.00800           0
     60515 TIP3     12711    TIP3     H2       HT       0.417000       1.00800           0
     60516 TIP3     12712    TIP3     OH2      OT      -0.834000       15.9994           0
     60517 TIP3     12712    TIP3     H1       HT       0.417000       1.00800           0
     60518 TIP3     12712    TIP3     H2       HT       0.417000       1.00800           0
     60519 TIP3     12713    TIP3     OH2      OT      -0.834000       15.9994           0
     60520 TIP3     12713    TIP3     H1       HT       0.417000       1.00800           0
     60521 TIP3     12713    TIP3     H2       HT       0.417000       1.00800           0
     60522 TIP3     12714    TIP3     OH2      OT      -0.834000       15.9994           0
     60523 TIP3     12714    TIP3     H1       HT       0.417000       1.00800           0
     60524 TIP3     12714    TIP3     H2       HT       0.417000       1.00800           0
     60525 TIP3     12715    TIP3     OH2      OT      -0.834000       15.9994           0
     60526 TIP3     12715    TIP3     H1       HT       0.417000       1.00800           0
     60527 TIP3     12715    TIP3     H2       HT       0.417000       1.00800           0
     60528 TIP3     12716    TIP3     OH2      OT      -0.834000       15.9994           0
     60529 TIP3     12716    TIP3     H1       HT       0.417000       1.00800           0
     60530 TIP3     12716    TIP3     H2       HT       0.417000       1.00800           0
     60531 TIP3     12717    TIP3     OH2      OT      -0.834000       15.9994           0
     60532 TIP3     12717    TIP3     H1       HT       0.417000       1.00800           0
     60533 TIP3     12717    TIP3     H2       HT       0.417000       1.00800           0
     60534 TIP3     12718    TIP3     OH2      OT      -0.834000       15.9994           0
     60535 TIP3     12718    TIP3     H1       HT       0.417000       1.00800           0
     60536 TIP3     12718    TIP3     H2       HT       0.417000       1.00800           0
     60537 TIP3     12719    TIP3     OH2      OT      -0.834000       15.9994           0
     60538 TIP3     12719    TIP3     H1       HT       0.417000       1.00800           0
     60539 TIP3     12719    TIP3     H2       HT       0.417000       1.00800           0
     60540 TIP3     12720    TIP3     OH2      OT      -0.834000       15.9994           0
     60541 TIP3     12720    TIP3     H1       HT       0.417000       1.00800           0
     60542 TIP3     12720    TIP3     H2       HT       0.417000       1.00800           0
     60543 TIP3     12721    TIP3     OH2      OT      -0.834000       15.9994           0
     60544 TIP3     12721    TIP3     H1       HT       0.417000       1.00800           0
     60545 TIP3     12721    TIP3     H2       HT       0.417000       1.00800           0
     60546 TIP3     12722    TIP3     OH2      OT      -0.834000       15.9994           0
     60547 TIP3     12722    TIP3     H1       HT       0.417000       1.00800           0
     60548 TIP3     12722    TIP3     H2       HT       0.417000       1.00800           0
     60549 TIP3     12723    TIP3     OH2      OT      -0.834000       15.9994           0
     60550 TIP3     12723    TIP3     H1       HT       0.417000       1.00800           0
     60551 TIP3     12723    TIP3     H2       HT       0.417000       1.00800           0
     60552 TIP3     12724    TIP3     OH2      OT      -0.834000       15.9994           0
     60553 TIP3     12724    TIP3     H1       HT       0.417000       1.00800           0
     60554 TIP3     12724    TIP3     H2       HT       0.417000       1.00800           0
     60555 TIP3     12725    TIP3     OH2      OT      -0.834000       15.9994           0
     60556 TIP3     12725    TIP3     H1       HT       0.417000       1.00800           0
     60557 TIP3     12725    TIP3     H2       HT       0.417000       1.00800           0
     60558 TIP3     12726    TIP3     OH2      OT      -0.834000       15.9994           0
     60559 TIP3     12726    TIP3     H1       HT       0.417000       1.00800           0
     60560 TIP3     12726    TIP3     H2       HT       0.417000       1.00800           0
     60561 TIP3     12727    TIP3     OH2      OT      -0.834000       15.9994           0
     60562 TIP3     12727    TIP3     H1       HT       0.417000       1.00800           0
     60563 TIP3     12727    TIP3     H2       HT       0.417000       1.00800           0
     60564 TIP3     12728    TIP3     OH2      OT      -0.834000       15.9994           0
     60565 TIP3     12728    TIP3     H1       HT       0.417000       1.00800           0
     60566 TIP3     12728    TIP3     H2       HT       0.417000       1.00800           0
     60567 TIP3     12729    TIP3     OH2      OT      -0.834000       15.9994           0
     60568 TIP3     12729    TIP3     H1       HT       0.417000       1.00800           0
     60569 TIP3     12729    TIP3     H2       HT       0.417000       1.00800           0
     60570 TIP3     12730    TIP3     OH2      OT      -0.834000       15.9994           0
     60571 TIP3     12730    TIP3     H1       HT       0.417000       1.00800           0
     60572 TIP3     12730    TIP3     H2       HT       0.417000       1.00800           0
     60573 TIP3     12731    TIP3     OH2      OT      -0.834000       15.9994           0
     60574 TIP3     12731    TIP3     H1       HT       0.417000       1.00800           0
     60575 TIP3     12731    TIP3     H2       HT       0.417000       1.00800           0
     60576 TIP3     12732    TIP3     OH2      OT      -0.834000       15.9994           0
     60577 TIP3     12732    TIP3     H1       HT       0.417000       1.00800           0
     60578 TIP3     12732    TIP3     H2       HT       0.417000       1.00800           0
     60579 TIP3     12733    TIP3     OH2      OT      -0.834000       15.9994           0
     60580 TIP3     12733    TIP3     H1       HT       0.417000       1.00800           0
     60581 TIP3     12733    TIP3     H2       HT       0.417000       1.00800           0
     60582 TIP3     12734    TIP3     OH2      OT      -0.834000       15.9994           0
     60583 TIP3     12734    TIP3     H1       HT       0.417000       1.00800           0
     60584 TIP3     12734    TIP3     H2       HT       0.417000       1.00800           0
     60585 TIP3     12735    TIP3     OH2      OT      -0.834000       15.9994           0
     60586 TIP3     12735    TIP3     H1       HT       0.417000       1.00800           0
     60587 TIP3     12735    TIP3     H2       HT       0.417000       1.00800           0
     60588 TIP3     12736    TIP3     OH2      OT      -0.834000       15.9994           0
     60589 TIP3     12736    TIP3     H1       HT       0.417000       1.00800           0
     60590 TIP3     12736    TIP3     H2       HT       0.417000       1.00800           0
     60591 TIP3     12737    TIP3     OH2      OT      -0.834000       15.9994           0
     60592 TIP3     12737    TIP3     H1       HT       0.417000       1.00800           0
     60593 TIP3     12737    TIP3     H2       HT       0.417000       1.00800           0
     60594 TIP3     12738    TIP3     OH2      OT      -0.834000       15.9994           0
     60595 TIP3     12738    TIP3     H1       HT       0.417000       1.00800           0
     60596 TIP3     12738    TIP3     H2       HT       0.417000       1.00800           0
     60597 TIP3     12739    TIP3     OH2      OT      -0.834000       15.9994           0
     60598 TIP3     12739    TIP3     H1       HT       0.417000       1.00800           0
     60599 TIP3     12739    TIP3     H2       HT       0.417000       1.00800           0
     60600 TIP3     12740    TIP3     OH2      OT      -0.834000       15.9994           0
     60601 TIP3     12740    TIP3     H1       HT       0.417000       1.00800           0
     60602 TIP3     12740    TIP3     H2       HT       0.417000       1.00800           0
     60603 TIP3     12741    TIP3     OH2      OT      -0.834000       15.9994           0
     60604 TIP3     12741    TIP3     H1       HT       0.417000       1.00800           0
     60605 TIP3     12741    TIP3     H2       HT       0.417000       1.00800           0
     60606 TIP3     12742    TIP3     OH2      OT      -0.834000       15.9994           0
     60607 TIP3     12742    TIP3     H1       HT       0.417000       1.00800           0
     60608 TIP3     12742    TIP3     H2       HT       0.417000       1.00800           0
     60609 TIP3     12743    TIP3     OH2      OT      -0.834000       15.9994           0
     60610 TIP3     12743    TIP3     H1       HT       0.417000       1.00800           0
     60611 TIP3     12743    TIP3     H2       HT       0.417000       1.00800           0
     60612 TIP3     12744    TIP3     OH2      OT      -0.834000       15.9994           0
     60613 TIP3     12744    TIP3     H1       HT       0.417000       1.00800           0
     60614 TIP3     12744    TIP3     H2       HT       0.417000       1.00800           0
     60615 TIP3     12745    TIP3     OH2      OT      -0.834000       15.9994           0
     60616 TIP3     12745    TIP3     H1       HT       0.417000       1.00800           0
     60617 TIP3     12745    TIP3     H2       HT       0.417000       1.00800           0
     60618 TIP3     12746    TIP3     OH2      OT      -0.834000       15.9994           0
     60619 TIP3     12746    TIP3     H1       HT       0.417000       1.00800           0
     60620 TIP3     12746    TIP3     H2       HT       0.417000       1.00800           0
     60621 TIP3     12747    TIP3     OH2      OT      -0.834000       15.9994           0
     60622 TIP3     12747    TIP3     H1       HT       0.417000       1.00800           0
     60623 TIP3     12747    TIP3     H2       HT       0.417000       1.00800           0
     60624 TIP3     12748    TIP3     OH2      OT      -0.834000       15.9994           0
     60625 TIP3     12748    TIP3     H1       HT       0.417000       1.00800           0
     60626 TIP3     12748    TIP3     H2       HT       0.417000       1.00800           0
     60627 TIP3     12749    TIP3     OH2      OT      -0.834000       15.9994           0
     60628 TIP3     12749    TIP3     H1       HT       0.417000       1.00800           0
     60629 TIP3     12749    TIP3     H2       HT       0.417000       1.00800           0
     60630 TIP3     12750    TIP3     OH2      OT      -0.834000       15.9994           0
     60631 TIP3     12750    TIP3     H1       HT       0.417000       1.00800           0
     60632 TIP3     12750    TIP3     H2       HT       0.417000       1.00800           0
     60633 TIP3     12751    TIP3     OH2      OT      -0.834000       15.9994           0
     60634 TIP3     12751    TIP3     H1       HT       0.417000       1.00800           0
     60635 TIP3     12751    TIP3     H2       HT       0.417000       1.00800           0
     60636 TIP3     12752    TIP3     OH2      OT      -0.834000       15.9994           0
     60637 TIP3     12752    TIP3     H1       HT       0.417000       1.00800           0
     60638 TIP3     12752    TIP3     H2       HT       0.417000       1.00800           0
     60639 TIP3     12753    TIP3     OH2      OT      -0.834000       15.9994           0
     60640 TIP3     12753    TIP3     H1       HT       0.417000       1.00800           0
     60641 TIP3     12753    TIP3     H2       HT       0.417000       1.00800           0
     60642 TIP3     12754    TIP3     OH2      OT      -0.834000       15.9994           0
     60643 TIP3     12754    TIP3     H1       HT       0.417000       1.00800           0
     60644 TIP3     12754    TIP3     H2       HT       0.417000       1.00800           0
     60645 TIP3     12755    TIP3     OH2      OT      -0.834000       15.9994           0
     60646 TIP3     12755    TIP3     H1       HT       0.417000       1.00800           0
     60647 TIP3     12755    TIP3     H2       HT       0.417000       1.00800           0
     60648 TIP3     12756    TIP3     OH2      OT      -0.834000       15.9994           0
     60649 TIP3     12756    TIP3     H1       HT       0.417000       1.00800           0
     60650 TIP3     12756    TIP3     H2       HT       0.417000       1.00800           0
     60651 TIP3     12757    TIP3     OH2      OT      -0.834000       15.9994           0
     60652 TIP3     12757    TIP3     H1       HT       0.417000       1.00800           0
     60653 TIP3     12757    TIP3     H2       HT       0.417000       1.00800           0
     60654 TIP3     12758    TIP3     OH2      OT      -0.834000       15.9994           0
     60655 TIP3     12758    TIP3     H1       HT       0.417000       1.00800           0
     60656 TIP3     12758    TIP3     H2       HT       0.417000       1.00800           0
     60657 TIP3     12759    TIP3     OH2      OT      -0.834000       15.9994           0
     60658 TIP3     12759    TIP3     H1       HT       0.417000       1.00800           0
     60659 TIP3     12759    TIP3     H2       HT       0.417000       1.00800           0
     60660 TIP3     12760    TIP3     OH2      OT      -0.834000       15.9994           0
     60661 TIP3     12760    TIP3     H1       HT       0.417000       1.00800           0
     60662 TIP3     12760    TIP3     H2       HT       0.417000       1.00800           0
     60663 TIP3     12761    TIP3     OH2      OT      -0.834000       15.9994           0
     60664 TIP3     12761    TIP3     H1       HT       0.417000       1.00800           0
     60665 TIP3     12761    TIP3     H2       HT       0.417000       1.00800           0
     60666 TIP3     12762    TIP3     OH2      OT      -0.834000       15.9994           0
     60667 TIP3     12762    TIP3     H1       HT       0.417000       1.00800           0
     60668 TIP3     12762    TIP3     H2       HT       0.417000       1.00800           0
     60669 TIP3     12763    TIP3     OH2      OT      -0.834000       15.9994           0
     60670 TIP3     12763    TIP3     H1       HT       0.417000       1.00800           0
     60671 TIP3     12763    TIP3     H2       HT       0.417000       1.00800           0
     60672 TIP3     12764    TIP3     OH2      OT      -0.834000       15.9994           0
     60673 TIP3     12764    TIP3     H1       HT       0.417000       1.00800           0
     60674 TIP3     12764    TIP3     H2       HT       0.417000       1.00800           0
     60675 TIP3     12765    TIP3     OH2      OT      -0.834000       15.9994           0
     60676 TIP3     12765    TIP3     H1       HT       0.417000       1.00800           0
     60677 TIP3     12765    TIP3     H2       HT       0.417000       1.00800           0
     60678 TIP3     12766    TIP3     OH2      OT      -0.834000       15.9994           0
     60679 TIP3     12766    TIP3     H1       HT       0.417000       1.00800           0
     60680 TIP3     12766    TIP3     H2       HT       0.417000       1.00800           0
     60681 TIP3     12767    TIP3     OH2      OT      -0.834000       15.9994           0
     60682 TIP3     12767    TIP3     H1       HT       0.417000       1.00800           0
     60683 TIP3     12767    TIP3     H2       HT       0.417000       1.00800           0
     60684 TIP3     12768    TIP3     OH2      OT      -0.834000       15.9994           0
     60685 TIP3     12768    TIP3     H1       HT       0.417000       1.00800           0
     60686 TIP3     12768    TIP3     H2       HT       0.417000       1.00800           0
     60687 TIP3     12769    TIP3     OH2      OT      -0.834000       15.9994           0
     60688 TIP3     12769    TIP3     H1       HT       0.417000       1.00800           0
     60689 TIP3     12769    TIP3     H2       HT       0.417000       1.00800           0
     60690 TIP3     12770    TIP3     OH2      OT      -0.834000       15.9994           0
     60691 TIP3     12770    TIP3     H1       HT       0.417000       1.00800           0
     60692 TIP3     12770    TIP3     H2       HT       0.417000       1.00800           0
     60693 TIP3     12771    TIP3     OH2      OT      -0.834000       15.9994           0
     60694 TIP3     12771    TIP3     H1       HT       0.417000       1.00800           0
     60695 TIP3     12771    TIP3     H2       HT       0.417000       1.00800           0
     60696 TIP3     12772    TIP3     OH2      OT      -0.834000       15.9994           0
     60697 TIP3     12772    TIP3     H1       HT       0.417000       1.00800           0
     60698 TIP3     12772    TIP3     H2       HT       0.417000       1.00800           0
     60699 TIP3     12773    TIP3     OH2      OT      -0.834000       15.9994           0
     60700 TIP3     12773    TIP3     H1       HT       0.417000       1.00800           0
     60701 TIP3     12773    TIP3     H2       HT       0.417000       1.00800           0
     60702 TIP3     12774    TIP3     OH2      OT      -0.834000       15.9994           0
     60703 TIP3     12774    TIP3     H1       HT       0.417000       1.00800           0
     60704 TIP3     12774    TIP3     H2       HT       0.417000       1.00800           0
     60705 TIP3     12775    TIP3     OH2      OT      -0.834000       15.9994           0
     60706 TIP3     12775    TIP3     H1       HT       0.417000       1.00800           0
     60707 TIP3     12775    TIP3     H2       HT       0.417000       1.00800           0
     60708 TIP3     12776    TIP3     OH2      OT      -0.834000       15.9994           0
     60709 TIP3     12776    TIP3     H1       HT       0.417000       1.00800           0
     60710 TIP3     12776    TIP3     H2       HT       0.417000       1.00800           0
     60711 TIP3     12777    TIP3     OH2      OT      -0.834000       15.9994           0
     60712 TIP3     12777    TIP3     H1       HT       0.417000       1.00800           0
     60713 TIP3     12777    TIP3     H2       HT       0.417000       1.00800           0
     60714 TIP3     12778    TIP3     OH2      OT      -0.834000       15.9994           0
     60715 TIP3     12778    TIP3     H1       HT       0.417000       1.00800           0
     60716 TIP3     12778    TIP3     H2       HT       0.417000       1.00800           0
     60717 TIP3     12779    TIP3     OH2      OT      -0.834000       15.9994           0
     60718 TIP3     12779    TIP3     H1       HT       0.417000       1.00800           0
     60719 TIP3     12779    TIP3     H2       HT       0.417000       1.00800           0
     60720 TIP3     12780    TIP3     OH2      OT      -0.834000       15.9994           0
     60721 TIP3     12780    TIP3     H1       HT       0.417000       1.00800           0
     60722 TIP3     12780    TIP3     H2       HT       0.417000       1.00800           0
     60723 TIP3     12781    TIP3     OH2      OT      -0.834000       15.9994           0
     60724 TIP3     12781    TIP3     H1       HT       0.417000       1.00800           0
     60725 TIP3     12781    TIP3     H2       HT       0.417000       1.00800           0
     60726 TIP3     12782    TIP3     OH2      OT      -0.834000       15.9994           0
     60727 TIP3     12782    TIP3     H1       HT       0.417000       1.00800           0
     60728 TIP3     12782    TIP3     H2       HT       0.417000       1.00800           0
     60729 TIP3     12783    TIP3     OH2      OT      -0.834000       15.9994           0
     60730 TIP3     12783    TIP3     H1       HT       0.417000       1.00800           0
     60731 TIP3     12783    TIP3     H2       HT       0.417000       1.00800           0
     60732 TIP3     12784    TIP3     OH2      OT      -0.834000       15.9994           0
     60733 TIP3     12784    TIP3     H1       HT       0.417000       1.00800           0
     60734 TIP3     12784    TIP3     H2       HT       0.417000       1.00800           0
     60735 TIP3     12785    TIP3     OH2      OT      -0.834000       15.9994           0
     60736 TIP3     12785    TIP3     H1       HT       0.417000       1.00800           0
     60737 TIP3     12785    TIP3     H2       HT       0.417000       1.00800           0
     60738 TIP3     12786    TIP3     OH2      OT      -0.834000       15.9994           0
     60739 TIP3     12786    TIP3     H1       HT       0.417000       1.00800           0
     60740 TIP3     12786    TIP3     H2       HT       0.417000       1.00800           0
     60741 TIP3     12787    TIP3     OH2      OT      -0.834000       15.9994           0
     60742 TIP3     12787    TIP3     H1       HT       0.417000       1.00800           0
     60743 TIP3     12787    TIP3     H2       HT       0.417000       1.00800           0
     60744 TIP3     12788    TIP3     OH2      OT      -0.834000       15.9994           0
     60745 TIP3     12788    TIP3     H1       HT       0.417000       1.00800           0
     60746 TIP3     12788    TIP3     H2       HT       0.417000       1.00800           0
     60747 TIP3     12789    TIP3     OH2      OT      -0.834000       15.9994           0
     60748 TIP3     12789    TIP3     H1       HT       0.417000       1.00800           0
     60749 TIP3     12789    TIP3     H2       HT       0.417000       1.00800           0
     60750 TIP3     12790    TIP3     OH2      OT      -0.834000       15.9994           0
     60751 TIP3     12790    TIP3     H1       HT       0.417000       1.00800           0
     60752 TIP3     12790    TIP3     H2       HT       0.417000       1.00800           0
     60753 TIP3     12791    TIP3     OH2      OT      -0.834000       15.9994           0
     60754 TIP3     12791    TIP3     H1       HT       0.417000       1.00800           0
     60755 TIP3     12791    TIP3     H2       HT       0.417000       1.00800           0
     60756 TIP3     12792    TIP3     OH2      OT      -0.834000       15.9994           0
     60757 TIP3     12792    TIP3     H1       HT       0.417000       1.00800           0
     60758 TIP3     12792    TIP3     H2       HT       0.417000       1.00800           0
     60759 TIP3     12793    TIP3     OH2      OT      -0.834000       15.9994           0
     60760 TIP3     12793    TIP3     H1       HT       0.417000       1.00800           0
     60761 TIP3     12793    TIP3     H2       HT       0.417000       1.00800           0
     60762 TIP3     12794    TIP3     OH2      OT      -0.834000       15.9994           0
     60763 TIP3     12794    TIP3     H1       HT       0.417000       1.00800           0
     60764 TIP3     12794    TIP3     H2       HT       0.417000       1.00800           0
     60765 TIP3     12795    TIP3     OH2      OT      -0.834000       15.9994           0
     60766 TIP3     12795    TIP3     H1       HT       0.417000       1.00800           0
     60767 TIP3     12795    TIP3     H2       HT       0.417000       1.00800           0
     60768 TIP3     12796    TIP3     OH2      OT      -0.834000       15.9994           0
     60769 TIP3     12796    TIP3     H1       HT       0.417000       1.00800           0
     60770 TIP3     12796    TIP3     H2       HT       0.417000       1.00800           0
     60771 TIP3     12797    TIP3     OH2      OT      -0.834000       15.9994           0
     60772 TIP3     12797    TIP3     H1       HT       0.417000       1.00800           0
     60773 TIP3     12797    TIP3     H2       HT       0.417000       1.00800           0
     60774 TIP3     12798    TIP3     OH2      OT      -0.834000       15.9994           0
     60775 TIP3     12798    TIP3     H1       HT       0.417000       1.00800           0
     60776 TIP3     12798    TIP3     H2       HT       0.417000       1.00800           0
     60777 TIP3     12799    TIP3     OH2      OT      -0.834000       15.9994           0
     60778 TIP3     12799    TIP3     H1       HT       0.417000       1.00800           0
     60779 TIP3     12799    TIP3     H2       HT       0.417000       1.00800           0
     60780 TIP3     12800    TIP3     OH2      OT      -0.834000       15.9994           0
     60781 TIP3     12800    TIP3     H1       HT       0.417000       1.00800           0
     60782 TIP3     12800    TIP3     H2       HT       0.417000       1.00800           0
     60783 TIP3     12801    TIP3     OH2      OT      -0.834000       15.9994           0
     60784 TIP3     12801    TIP3     H1       HT       0.417000       1.00800           0
     60785 TIP3     12801    TIP3     H2       HT       0.417000       1.00800           0
     60786 TIP3     12802    TIP3     OH2      OT      -0.834000       15.9994           0
     60787 TIP3     12802    TIP3     H1       HT       0.417000       1.00800           0
     60788 TIP3     12802    TIP3     H2       HT       0.417000       1.00800           0
     60789 TIP3     12803    TIP3     OH2      OT      -0.834000       15.9994           0
     60790 TIP3     12803    TIP3     H1       HT       0.417000       1.00800           0
     60791 TIP3     12803    TIP3     H2       HT       0.417000       1.00800           0
     60792 TIP3     12804    TIP3     OH2      OT      -0.834000       15.9994           0
     60793 TIP3     12804    TIP3     H1       HT       0.417000       1.00800           0
     60794 TIP3     12804    TIP3     H2       HT       0.417000       1.00800           0
     60795 TIP3     12805    TIP3     OH2      OT      -0.834000       15.9994           0
     60796 TIP3     12805    TIP3     H1       HT       0.417000       1.00800           0
     60797 TIP3     12805    TIP3     H2       HT       0.417000       1.00800           0
     60798 TIP3     12806    TIP3     OH2      OT      -0.834000       15.9994           0
     60799 TIP3     12806    TIP3     H1       HT       0.417000       1.00800           0
     60800 TIP3     12806    TIP3     H2       HT       0.417000       1.00800           0
     60801 TIP3     12807    TIP3     OH2      OT      -0.834000       15.9994           0
     60802 TIP3     12807    TIP3     H1       HT       0.417000       1.00800           0
     60803 TIP3     12807    TIP3     H2       HT       0.417000       1.00800           0
     60804 TIP3     12808    TIP3     OH2      OT      -0.834000       15.9994           0
     60805 TIP3     12808    TIP3     H1       HT       0.417000       1.00800           0
     60806 TIP3     12808    TIP3     H2       HT       0.417000       1.00800           0
     60807 TIP3     12809    TIP3     OH2      OT      -0.834000       15.9994           0
     60808 TIP3     12809    TIP3     H1       HT       0.417000       1.00800           0
     60809 TIP3     12809    TIP3     H2       HT       0.417000       1.00800           0
     60810 TIP3     12810    TIP3     OH2      OT      -0.834000       15.9994           0
     60811 TIP3     12810    TIP3     H1       HT       0.417000       1.00800           0
     60812 TIP3     12810    TIP3     H2       HT       0.417000       1.00800           0
     60813 TIP3     12811    TIP3     OH2      OT      -0.834000       15.9994           0
     60814 TIP3     12811    TIP3     H1       HT       0.417000       1.00800           0
     60815 TIP3     12811    TIP3     H2       HT       0.417000       1.00800           0
     60816 TIP3     12812    TIP3     OH2      OT      -0.834000       15.9994           0
     60817 TIP3     12812    TIP3     H1       HT       0.417000       1.00800           0
     60818 TIP3     12812    TIP3     H2       HT       0.417000       1.00800           0
     60819 TIP3     12813    TIP3     OH2      OT      -0.834000       15.9994           0
     60820 TIP3     12813    TIP3     H1       HT       0.417000       1.00800           0
     60821 TIP3     12813    TIP3     H2       HT       0.417000       1.00800           0
     60822 TIP3     12814    TIP3     OH2      OT      -0.834000       15.9994           0
     60823 TIP3     12814    TIP3     H1       HT       0.417000       1.00800           0
     60824 TIP3     12814    TIP3     H2       HT       0.417000       1.00800           0
     60825 TIP3     12815    TIP3     OH2      OT      -0.834000       15.9994           0
     60826 TIP3     12815    TIP3     H1       HT       0.417000       1.00800           0
     60827 TIP3     12815    TIP3     H2       HT       0.417000       1.00800           0
     60828 TIP3     12816    TIP3     OH2      OT      -0.834000       15.9994           0
     60829 TIP3     12816    TIP3     H1       HT       0.417000       1.00800           0
     60830 TIP3     12816    TIP3     H2       HT       0.417000       1.00800           0
     60831 TIP3     12817    TIP3     OH2      OT      -0.834000       15.9994           0
     60832 TIP3     12817    TIP3     H1       HT       0.417000       1.00800           0
     60833 TIP3     12817    TIP3     H2       HT       0.417000       1.00800           0
     60834 TIP3     12818    TIP3     OH2      OT      -0.834000       15.9994           0
     60835 TIP3     12818    TIP3     H1       HT       0.417000       1.00800           0
     60836 TIP3     12818    TIP3     H2       HT       0.417000       1.00800           0
     60837 TIP3     12819    TIP3     OH2      OT      -0.834000       15.9994           0
     60838 TIP3     12819    TIP3     H1       HT       0.417000       1.00800           0
     60839 TIP3     12819    TIP3     H2       HT       0.417000       1.00800           0
     60840 TIP3     12820    TIP3     OH2      OT      -0.834000       15.9994           0
     60841 TIP3     12820    TIP3     H1       HT       0.417000       1.00800           0
     60842 TIP3     12820    TIP3     H2       HT       0.417000       1.00800           0
     60843 TIP3     12821    TIP3     OH2      OT      -0.834000       15.9994           0
     60844 TIP3     12821    TIP3     H1       HT       0.417000       1.00800           0
     60845 TIP3     12821    TIP3     H2       HT       0.417000       1.00800           0
     60846 TIP3     12822    TIP3     OH2      OT      -0.834000       15.9994           0
     60847 TIP3     12822    TIP3     H1       HT       0.417000       1.00800           0
     60848 TIP3     12822    TIP3     H2       HT       0.417000       1.00800           0
     60849 TIP3     12823    TIP3     OH2      OT      -0.834000       15.9994           0
     60850 TIP3     12823    TIP3     H1       HT       0.417000       1.00800           0
     60851 TIP3     12823    TIP3     H2       HT       0.417000       1.00800           0
     60852 TIP3     12824    TIP3     OH2      OT      -0.834000       15.9994           0
     60853 TIP3     12824    TIP3     H1       HT       0.417000       1.00800           0
     60854 TIP3     12824    TIP3     H2       HT       0.417000       1.00800           0
     60855 TIP3     12825    TIP3     OH2      OT      -0.834000       15.9994           0
     60856 TIP3     12825    TIP3     H1       HT       0.417000       1.00800           0
     60857 TIP3     12825    TIP3     H2       HT       0.417000       1.00800           0
     60858 TIP3     12826    TIP3     OH2      OT      -0.834000       15.9994           0
     60859 TIP3     12826    TIP3     H1       HT       0.417000       1.00800           0
     60860 TIP3     12826    TIP3     H2       HT       0.417000       1.00800           0
     60861 TIP3     12827    TIP3     OH2      OT      -0.834000       15.9994           0
     60862 TIP3     12827    TIP3     H1       HT       0.417000       1.00800           0
     60863 TIP3     12827    TIP3     H2       HT       0.417000       1.00800           0
     60864 TIP3     12828    TIP3     OH2      OT      -0.834000       15.9994           0
     60865 TIP3     12828    TIP3     H1       HT       0.417000       1.00800           0
     60866 TIP3     12828    TIP3     H2       HT       0.417000       1.00800           0
     60867 TIP3     12829    TIP3     OH2      OT      -0.834000       15.9994           0
     60868 TIP3     12829    TIP3     H1       HT       0.417000       1.00800           0
     60869 TIP3     12829    TIP3     H2       HT       0.417000       1.00800           0
     60870 TIP3     12830    TIP3     OH2      OT      -0.834000       15.9994           0
     60871 TIP3     12830    TIP3     H1       HT       0.417000       1.00800           0
     60872 TIP3     12830    TIP3     H2       HT       0.417000       1.00800           0
     60873 TIP3     12831    TIP3     OH2      OT      -0.834000       15.9994           0
     60874 TIP3     12831    TIP3     H1       HT       0.417000       1.00800           0
     60875 TIP3     12831    TIP3     H2       HT       0.417000       1.00800           0
     60876 TIP3     12832    TIP3     OH2      OT      -0.834000       15.9994           0
     60877 TIP3     12832    TIP3     H1       HT       0.417000       1.00800           0
     60878 TIP3     12832    TIP3     H2       HT       0.417000       1.00800           0
     60879 TIP3     12833    TIP3     OH2      OT      -0.834000       15.9994           0
     60880 TIP3     12833    TIP3     H1       HT       0.417000       1.00800           0
     60881 TIP3     12833    TIP3     H2       HT       0.417000       1.00800           0
     60882 TIP3     12834    TIP3     OH2      OT      -0.834000       15.9994           0
     60883 TIP3     12834    TIP3     H1       HT       0.417000       1.00800           0
     60884 TIP3     12834    TIP3     H2       HT       0.417000       1.00800           0
     60885 TIP3     12835    TIP3     OH2      OT      -0.834000       15.9994           0
     60886 TIP3     12835    TIP3     H1       HT       0.417000       1.00800           0
     60887 TIP3     12835    TIP3     H2       HT       0.417000       1.00800           0
     60888 TIP3     12836    TIP3     OH2      OT      -0.834000       15.9994           0
     60889 TIP3     12836    TIP3     H1       HT       0.417000       1.00800           0
     60890 TIP3     12836    TIP3     H2       HT       0.417000       1.00800           0
     60891 TIP3     12837    TIP3     OH2      OT      -0.834000       15.9994           0
     60892 TIP3     12837    TIP3     H1       HT       0.417000       1.00800           0
     60893 TIP3     12837    TIP3     H2       HT       0.417000       1.00800           0
     60894 TIP3     12838    TIP3     OH2      OT      -0.834000       15.9994           0
     60895 TIP3     12838    TIP3     H1       HT       0.417000       1.00800           0
     60896 TIP3     12838    TIP3     H2       HT       0.417000       1.00800           0
     60897 TIP3     12839    TIP3     OH2      OT      -0.834000       15.9994           0
     60898 TIP3     12839    TIP3     H1       HT       0.417000       1.00800           0
     60899 TIP3     12839    TIP3     H2       HT       0.417000       1.00800           0
     60900 TIP3     12840    TIP3     OH2      OT      -0.834000       15.9994           0
     60901 TIP3     12840    TIP3     H1       HT       0.417000       1.00800           0
     60902 TIP3     12840    TIP3     H2       HT       0.417000       1.00800           0
     60903 TIP3     12841    TIP3     OH2      OT      -0.834000       15.9994           0
     60904 TIP3     12841    TIP3     H1       HT       0.417000       1.00800           0
     60905 TIP3     12841    TIP3     H2       HT       0.417000       1.00800           0
     60906 TIP3     12842    TIP3     OH2      OT      -0.834000       15.9994           0
     60907 TIP3     12842    TIP3     H1       HT       0.417000       1.00800           0
     60908 TIP3     12842    TIP3     H2       HT       0.417000       1.00800           0
     60909 TIP3     12843    TIP3     OH2      OT      -0.834000       15.9994           0
     60910 TIP3     12843    TIP3     H1       HT       0.417000       1.00800           0
     60911 TIP3     12843    TIP3     H2       HT       0.417000       1.00800           0
     60912 TIP3     12844    TIP3     OH2      OT      -0.834000       15.9994           0
     60913 TIP3     12844    TIP3     H1       HT       0.417000       1.00800           0
     60914 TIP3     12844    TIP3     H2       HT       0.417000       1.00800           0
     60915 TIP3     12845    TIP3     OH2      OT      -0.834000       15.9994           0
     60916 TIP3     12845    TIP3     H1       HT       0.417000       1.00800           0
     60917 TIP3     12845    TIP3     H2       HT       0.417000       1.00800           0
     60918 TIP3     12846    TIP3     OH2      OT      -0.834000       15.9994           0
     60919 TIP3     12846    TIP3     H1       HT       0.417000       1.00800           0
     60920 TIP3     12846    TIP3     H2       HT       0.417000       1.00800           0
     60921 TIP3     12847    TIP3     OH2      OT      -0.834000       15.9994           0
     60922 TIP3     12847    TIP3     H1       HT       0.417000       1.00800           0
     60923 TIP3     12847    TIP3     H2       HT       0.417000       1.00800           0
     60924 TIP3     12848    TIP3     OH2      OT      -0.834000       15.9994           0
     60925 TIP3     12848    TIP3     H1       HT       0.417000       1.00800           0
     60926 TIP3     12848    TIP3     H2       HT       0.417000       1.00800           0
     60927 TIP3     12849    TIP3     OH2      OT      -0.834000       15.9994           0
     60928 TIP3     12849    TIP3     H1       HT       0.417000       1.00800           0
     60929 TIP3     12849    TIP3     H2       HT       0.417000       1.00800           0
     60930 TIP3     12850    TIP3     OH2      OT      -0.834000       15.9994           0
     60931 TIP3     12850    TIP3     H1       HT       0.417000       1.00800           0
     60932 TIP3     12850    TIP3     H2       HT       0.417000       1.00800           0
     60933 TIP3     12851    TIP3     OH2      OT      -0.834000       15.9994           0
     60934 TIP3     12851    TIP3     H1       HT       0.417000       1.00800           0
     60935 TIP3     12851    TIP3     H2       HT       0.417000       1.00800           0
     60936 TIP3     12852    TIP3     OH2      OT      -0.834000       15.9994           0
     60937 TIP3     12852    TIP3     H1       HT       0.417000       1.00800           0
     60938 TIP3     12852    TIP3     H2       HT       0.417000       1.00800           0
     60939 TIP3     12853    TIP3     OH2      OT      -0.834000       15.9994           0
     60940 TIP3     12853    TIP3     H1       HT       0.417000       1.00800           0
     60941 TIP3     12853    TIP3     H2       HT       0.417000       1.00800           0
     60942 TIP3     12854    TIP3     OH2      OT      -0.834000       15.9994           0
     60943 TIP3     12854    TIP3     H1       HT       0.417000       1.00800           0
     60944 TIP3     12854    TIP3     H2       HT       0.417000       1.00800           0
     60945 TIP3     12855    TIP3     OH2      OT      -0.834000       15.9994           0
     60946 TIP3     12855    TIP3     H1       HT       0.417000       1.00800           0
     60947 TIP3     12855    TIP3     H2       HT       0.417000       1.00800           0
     60948 TIP3     12856    TIP3     OH2      OT      -0.834000       15.9994           0
     60949 TIP3     12856    TIP3     H1       HT       0.417000       1.00800           0
     60950 TIP3     12856    TIP3     H2       HT       0.417000       1.00800           0
     60951 TIP3     12857    TIP3     OH2      OT      -0.834000       15.9994           0
     60952 TIP3     12857    TIP3     H1       HT       0.417000       1.00800           0
     60953 TIP3     12857    TIP3     H2       HT       0.417000       1.00800           0
     60954 TIP3     12858    TIP3     OH2      OT      -0.834000       15.9994           0
     60955 TIP3     12858    TIP3     H1       HT       0.417000       1.00800           0
     60956 TIP3     12858    TIP3     H2       HT       0.417000       1.00800           0
     60957 TIP3     12859    TIP3     OH2      OT      -0.834000       15.9994           0
     60958 TIP3     12859    TIP3     H1       HT       0.417000       1.00800           0
     60959 TIP3     12859    TIP3     H2       HT       0.417000       1.00800           0
     60960 TIP3     12860    TIP3     OH2      OT      -0.834000       15.9994           0
     60961 TIP3     12860    TIP3     H1       HT       0.417000       1.00800           0
     60962 TIP3     12860    TIP3     H2       HT       0.417000       1.00800           0
     60963 TIP3     12861    TIP3     OH2      OT      -0.834000       15.9994           0
     60964 TIP3     12861    TIP3     H1       HT       0.417000       1.00800           0
     60965 TIP3     12861    TIP3     H2       HT       0.417000       1.00800           0
     60966 TIP3     12862    TIP3     OH2      OT      -0.834000       15.9994           0
     60967 TIP3     12862    TIP3     H1       HT       0.417000       1.00800           0
     60968 TIP3     12862    TIP3     H2       HT       0.417000       1.00800           0
     60969 TIP3     12863    TIP3     OH2      OT      -0.834000       15.9994           0
     60970 TIP3     12863    TIP3     H1       HT       0.417000       1.00800           0
     60971 TIP3     12863    TIP3     H2       HT       0.417000       1.00800           0
     60972 TIP3     12864    TIP3     OH2      OT      -0.834000       15.9994           0
     60973 TIP3     12864    TIP3     H1       HT       0.417000       1.00800           0
     60974 TIP3     12864    TIP3     H2       HT       0.417000       1.00800           0
     60975 TIP3     12865    TIP3     OH2      OT      -0.834000       15.9994           0
     60976 TIP3     12865    TIP3     H1       HT       0.417000       1.00800           0
     60977 TIP3     12865    TIP3     H2       HT       0.417000       1.00800           0
     60978 TIP3     12866    TIP3     OH2      OT      -0.834000       15.9994           0
     60979 TIP3     12866    TIP3     H1       HT       0.417000       1.00800           0
     60980 TIP3     12866    TIP3     H2       HT       0.417000       1.00800           0
     60981 TIP3     12867    TIP3     OH2      OT      -0.834000       15.9994           0
     60982 TIP3     12867    TIP3     H1       HT       0.417000       1.00800           0
     60983 TIP3     12867    TIP3     H2       HT       0.417000       1.00800           0
     60984 TIP3     12868    TIP3     OH2      OT      -0.834000       15.9994           0
     60985 TIP3     12868    TIP3     H1       HT       0.417000       1.00800           0
     60986 TIP3     12868    TIP3     H2       HT       0.417000       1.00800           0
     60987 TIP3     12869    TIP3     OH2      OT      -0.834000       15.9994           0
     60988 TIP3     12869    TIP3     H1       HT       0.417000       1.00800           0
     60989 TIP3     12869    TIP3     H2       HT       0.417000       1.00800           0
     60990 TIP3     12870    TIP3     OH2      OT      -0.834000       15.9994           0
     60991 TIP3     12870    TIP3     H1       HT       0.417000       1.00800           0
     60992 TIP3     12870    TIP3     H2       HT       0.417000       1.00800           0
     60993 TIP3     12871    TIP3     OH2      OT      -0.834000       15.9994           0
     60994 TIP3     12871    TIP3     H1       HT       0.417000       1.00800           0
     60995 TIP3     12871    TIP3     H2       HT       0.417000       1.00800           0
     60996 TIP3     12872    TIP3     OH2      OT      -0.834000       15.9994           0
     60997 TIP3     12872    TIP3     H1       HT       0.417000       1.00800           0
     60998 TIP3     12872    TIP3     H2       HT       0.417000       1.00800           0
     60999 TIP3     12873    TIP3     OH2      OT      -0.834000       15.9994           0
     61000 TIP3     12873    TIP3     H1       HT       0.417000       1.00800           0
     61001 TIP3     12873    TIP3     H2       HT       0.417000       1.00800           0
     61002 TIP3     12874    TIP3     OH2      OT      -0.834000       15.9994           0
     61003 TIP3     12874    TIP3     H1       HT       0.417000       1.00800           0
     61004 TIP3     12874    TIP3     H2       HT       0.417000       1.00800           0
     61005 TIP3     12875    TIP3     OH2      OT      -0.834000       15.9994           0
     61006 TIP3     12875    TIP3     H1       HT       0.417000       1.00800           0
     61007 TIP3     12875    TIP3     H2       HT       0.417000       1.00800           0
     61008 TIP3     12876    TIP3     OH2      OT      -0.834000       15.9994           0
     61009 TIP3     12876    TIP3     H1       HT       0.417000       1.00800           0
     61010 TIP3     12876    TIP3     H2       HT       0.417000       1.00800           0
     61011 TIP3     12877    TIP3     OH2      OT      -0.834000       15.9994           0
     61012 TIP3     12877    TIP3     H1       HT       0.417000       1.00800           0
     61013 TIP3     12877    TIP3     H2       HT       0.417000       1.00800           0
     61014 TIP3     12878    TIP3     OH2      OT      -0.834000       15.9994           0
     61015 TIP3     12878    TIP3     H1       HT       0.417000       1.00800           0
     61016 TIP3     12878    TIP3     H2       HT       0.417000       1.00800           0
     61017 TIP3     12879    TIP3     OH2      OT      -0.834000       15.9994           0
     61018 TIP3     12879    TIP3     H1       HT       0.417000       1.00800           0
     61019 TIP3     12879    TIP3     H2       HT       0.417000       1.00800           0
     61020 TIP3     12880    TIP3     OH2      OT      -0.834000       15.9994           0
     61021 TIP3     12880    TIP3     H1       HT       0.417000       1.00800           0
     61022 TIP3     12880    TIP3     H2       HT       0.417000       1.00800           0
     61023 TIP3     12881    TIP3     OH2      OT      -0.834000       15.9994           0
     61024 TIP3     12881    TIP3     H1       HT       0.417000       1.00800           0
     61025 TIP3     12881    TIP3     H2       HT       0.417000       1.00800           0
     61026 TIP3     12882    TIP3     OH2      OT      -0.834000       15.9994           0
     61027 TIP3     12882    TIP3     H1       HT       0.417000       1.00800           0
     61028 TIP3     12882    TIP3     H2       HT       0.417000       1.00800           0
     61029 TIP3     12883    TIP3     OH2      OT      -0.834000       15.9994           0
     61030 TIP3     12883    TIP3     H1       HT       0.417000       1.00800           0
     61031 TIP3     12883    TIP3     H2       HT       0.417000       1.00800           0
     61032 TIP3     12884    TIP3     OH2      OT      -0.834000       15.9994           0
     61033 TIP3     12884    TIP3     H1       HT       0.417000       1.00800           0
     61034 TIP3     12884    TIP3     H2       HT       0.417000       1.00800           0
     61035 TIP3     12885    TIP3     OH2      OT      -0.834000       15.9994           0
     61036 TIP3     12885    TIP3     H1       HT       0.417000       1.00800           0
     61037 TIP3     12885    TIP3     H2       HT       0.417000       1.00800           0
     61038 TIP3     12886    TIP3     OH2      OT      -0.834000       15.9994           0
     61039 TIP3     12886    TIP3     H1       HT       0.417000       1.00800           0
     61040 TIP3     12886    TIP3     H2       HT       0.417000       1.00800           0
     61041 TIP3     12887    TIP3     OH2      OT      -0.834000       15.9994           0
     61042 TIP3     12887    TIP3     H1       HT       0.417000       1.00800           0
     61043 TIP3     12887    TIP3     H2       HT       0.417000       1.00800           0
     61044 TIP3     12888    TIP3     OH2      OT      -0.834000       15.9994           0
     61045 TIP3     12888    TIP3     H1       HT       0.417000       1.00800           0
     61046 TIP3     12888    TIP3     H2       HT       0.417000       1.00800           0
     61047 TIP3     12889    TIP3     OH2      OT      -0.834000       15.9994           0
     61048 TIP3     12889    TIP3     H1       HT       0.417000       1.00800           0
     61049 TIP3     12889    TIP3     H2       HT       0.417000       1.00800           0
     61050 TIP3     12890    TIP3     OH2      OT      -0.834000       15.9994           0
     61051 TIP3     12890    TIP3     H1       HT       0.417000       1.00800           0
     61052 TIP3     12890    TIP3     H2       HT       0.417000       1.00800           0
     61053 TIP3     12891    TIP3     OH2      OT      -0.834000       15.9994           0
     61054 TIP3     12891    TIP3     H1       HT       0.417000       1.00800           0
     61055 TIP3     12891    TIP3     H2       HT       0.417000       1.00800           0
     61056 TIP3     12892    TIP3     OH2      OT      -0.834000       15.9994           0
     61057 TIP3     12892    TIP3     H1       HT       0.417000       1.00800           0
     61058 TIP3     12892    TIP3     H2       HT       0.417000       1.00800           0
     61059 TIP3     12893    TIP3     OH2      OT      -0.834000       15.9994           0
     61060 TIP3     12893    TIP3     H1       HT       0.417000       1.00800           0
     61061 TIP3     12893    TIP3     H2       HT       0.417000       1.00800           0
     61062 TIP3     12894    TIP3     OH2      OT      -0.834000       15.9994           0
     61063 TIP3     12894    TIP3     H1       HT       0.417000       1.00800           0
     61064 TIP3     12894    TIP3     H2       HT       0.417000       1.00800           0
     61065 TIP3     12895    TIP3     OH2      OT      -0.834000       15.9994           0
     61066 TIP3     12895    TIP3     H1       HT       0.417000       1.00800           0
     61067 TIP3     12895    TIP3     H2       HT       0.417000       1.00800           0
     61068 TIP3     12896    TIP3     OH2      OT      -0.834000       15.9994           0
     61069 TIP3     12896    TIP3     H1       HT       0.417000       1.00800           0
     61070 TIP3     12896    TIP3     H2       HT       0.417000       1.00800           0
     61071 TIP3     12897    TIP3     OH2      OT      -0.834000       15.9994           0
     61072 TIP3     12897    TIP3     H1       HT       0.417000       1.00800           0
     61073 TIP3     12897    TIP3     H2       HT       0.417000       1.00800           0
     61074 TIP3     12898    TIP3     OH2      OT      -0.834000       15.9994           0
     61075 TIP3     12898    TIP3     H1       HT       0.417000       1.00800           0
     61076 TIP3     12898    TIP3     H2       HT       0.417000       1.00800           0
     61077 TIP3     12899    TIP3     OH2      OT      -0.834000       15.9994           0
     61078 TIP3     12899    TIP3     H1       HT       0.417000       1.00800           0
     61079 TIP3     12899    TIP3     H2       HT       0.417000       1.00800           0
     61080 TIP3     12900    TIP3     OH2      OT      -0.834000       15.9994           0
     61081 TIP3     12900    TIP3     H1       HT       0.417000       1.00800           0
     61082 TIP3     12900    TIP3     H2       HT       0.417000       1.00800           0
     61083 TIP3     12901    TIP3     OH2      OT      -0.834000       15.9994           0
     61084 TIP3     12901    TIP3     H1       HT       0.417000       1.00800           0
     61085 TIP3     12901    TIP3     H2       HT       0.417000       1.00800           0
     61086 TIP3     12902    TIP3     OH2      OT      -0.834000       15.9994           0
     61087 TIP3     12902    TIP3     H1       HT       0.417000       1.00800           0
     61088 TIP3     12902    TIP3     H2       HT       0.417000       1.00800           0
     61089 TIP3     12903    TIP3     OH2      OT      -0.834000       15.9994           0
     61090 TIP3     12903    TIP3     H1       HT       0.417000       1.00800           0
     61091 TIP3     12903    TIP3     H2       HT       0.417000       1.00800           0
     61092 TIP3     12904    TIP3     OH2      OT      -0.834000       15.9994           0
     61093 TIP3     12904    TIP3     H1       HT       0.417000       1.00800           0
     61094 TIP3     12904    TIP3     H2       HT       0.417000       1.00800           0
     61095 TIP3     12905    TIP3     OH2      OT      -0.834000       15.9994           0
     61096 TIP3     12905    TIP3     H1       HT       0.417000       1.00800           0
     61097 TIP3     12905    TIP3     H2       HT       0.417000       1.00800           0
     61098 TIP3     12906    TIP3     OH2      OT      -0.834000       15.9994           0
     61099 TIP3     12906    TIP3     H1       HT       0.417000       1.00800           0
     61100 TIP3     12906    TIP3     H2       HT       0.417000       1.00800           0
     61101 TIP3     12907    TIP3     OH2      OT      -0.834000       15.9994           0
     61102 TIP3     12907    TIP3     H1       HT       0.417000       1.00800           0
     61103 TIP3     12907    TIP3     H2       HT       0.417000       1.00800           0
     61104 TIP3     12908    TIP3     OH2      OT      -0.834000       15.9994           0
     61105 TIP3     12908    TIP3     H1       HT       0.417000       1.00800           0
     61106 TIP3     12908    TIP3     H2       HT       0.417000       1.00800           0
     61107 TIP3     12909    TIP3     OH2      OT      -0.834000       15.9994           0
     61108 TIP3     12909    TIP3     H1       HT       0.417000       1.00800           0
     61109 TIP3     12909    TIP3     H2       HT       0.417000       1.00800           0
     61110 TIP3     12910    TIP3     OH2      OT      -0.834000       15.9994           0
     61111 TIP3     12910    TIP3     H1       HT       0.417000       1.00800           0
     61112 TIP3     12910    TIP3     H2       HT       0.417000       1.00800           0
     61113 TIP3     12911    TIP3     OH2      OT      -0.834000       15.9994           0
     61114 TIP3     12911    TIP3     H1       HT       0.417000       1.00800           0
     61115 TIP3     12911    TIP3     H2       HT       0.417000       1.00800           0
     61116 TIP3     12912    TIP3     OH2      OT      -0.834000       15.9994           0
     61117 TIP3     12912    TIP3     H1       HT       0.417000       1.00800           0
     61118 TIP3     12912    TIP3     H2       HT       0.417000       1.00800           0
     61119 TIP3     12913    TIP3     OH2      OT      -0.834000       15.9994           0
     61120 TIP3     12913    TIP3     H1       HT       0.417000       1.00800           0
     61121 TIP3     12913    TIP3     H2       HT       0.417000       1.00800           0
     61122 TIP3     12914    TIP3     OH2      OT      -0.834000       15.9994           0
     61123 TIP3     12914    TIP3     H1       HT       0.417000       1.00800           0
     61124 TIP3     12914    TIP3     H2       HT       0.417000       1.00800           0
     61125 TIP3     12915    TIP3     OH2      OT      -0.834000       15.9994           0
     61126 TIP3     12915    TIP3     H1       HT       0.417000       1.00800           0
     61127 TIP3     12915    TIP3     H2       HT       0.417000       1.00800           0
     61128 TIP3     12916    TIP3     OH2      OT      -0.834000       15.9994           0
     61129 TIP3     12916    TIP3     H1       HT       0.417000       1.00800           0
     61130 TIP3     12916    TIP3     H2       HT       0.417000       1.00800           0
     61131 TIP3     12917    TIP3     OH2      OT      -0.834000       15.9994           0
     61132 TIP3     12917    TIP3     H1       HT       0.417000       1.00800           0
     61133 TIP3     12917    TIP3     H2       HT       0.417000       1.00800           0
     61134 TIP3     12918    TIP3     OH2      OT      -0.834000       15.9994           0
     61135 TIP3     12918    TIP3     H1       HT       0.417000       1.00800           0
     61136 TIP3     12918    TIP3     H2       HT       0.417000       1.00800           0
     61137 TIP3     12919    TIP3     OH2      OT      -0.834000       15.9994           0
     61138 TIP3     12919    TIP3     H1       HT       0.417000       1.00800           0
     61139 TIP3     12919    TIP3     H2       HT       0.417000       1.00800           0
     61140 TIP3     12920    TIP3     OH2      OT      -0.834000       15.9994           0
     61141 TIP3     12920    TIP3     H1       HT       0.417000       1.00800           0
     61142 TIP3     12920    TIP3     H2       HT       0.417000       1.00800           0
     61143 TIP3     12921    TIP3     OH2      OT      -0.834000       15.9994           0
     61144 TIP3     12921    TIP3     H1       HT       0.417000       1.00800           0
     61145 TIP3     12921    TIP3     H2       HT       0.417000       1.00800           0
     61146 TIP3     12922    TIP3     OH2      OT      -0.834000       15.9994           0
     61147 TIP3     12922    TIP3     H1       HT       0.417000       1.00800           0
     61148 TIP3     12922    TIP3     H2       HT       0.417000       1.00800           0
     61149 TIP3     12923    TIP3     OH2      OT      -0.834000       15.9994           0
     61150 TIP3     12923    TIP3     H1       HT       0.417000       1.00800           0
     61151 TIP3     12923    TIP3     H2       HT       0.417000       1.00800           0
     61152 TIP3     12924    TIP3     OH2      OT      -0.834000       15.9994           0
     61153 TIP3     12924    TIP3     H1       HT       0.417000       1.00800           0
     61154 TIP3     12924    TIP3     H2       HT       0.417000       1.00800           0
     61155 TIP3     12925    TIP3     OH2      OT      -0.834000       15.9994           0
     61156 TIP3     12925    TIP3     H1       HT       0.417000       1.00800           0
     61157 TIP3     12925    TIP3     H2       HT       0.417000       1.00800           0
     61158 TIP3     12926    TIP3     OH2      OT      -0.834000       15.9994           0
     61159 TIP3     12926    TIP3     H1       HT       0.417000       1.00800           0
     61160 TIP3     12926    TIP3     H2       HT       0.417000       1.00800           0
     61161 TIP3     12927    TIP3     OH2      OT      -0.834000       15.9994           0
     61162 TIP3     12927    TIP3     H1       HT       0.417000       1.00800           0
     61163 TIP3     12927    TIP3     H2       HT       0.417000       1.00800           0
     61164 TIP3     12928    TIP3     OH2      OT      -0.834000       15.9994           0
     61165 TIP3     12928    TIP3     H1       HT       0.417000       1.00800           0
     61166 TIP3     12928    TIP3     H2       HT       0.417000       1.00800           0
     61167 TIP3     12929    TIP3     OH2      OT      -0.834000       15.9994           0
     61168 TIP3     12929    TIP3     H1       HT       0.417000       1.00800           0
     61169 TIP3     12929    TIP3     H2       HT       0.417000       1.00800           0
     61170 TIP3     12930    TIP3     OH2      OT      -0.834000       15.9994           0
     61171 TIP3     12930    TIP3     H1       HT       0.417000       1.00800           0
     61172 TIP3     12930    TIP3     H2       HT       0.417000       1.00800           0
     61173 TIP3     12931    TIP3     OH2      OT      -0.834000       15.9994           0
     61174 TIP3     12931    TIP3     H1       HT       0.417000       1.00800           0
     61175 TIP3     12931    TIP3     H2       HT       0.417000       1.00800           0
     61176 TIP3     12932    TIP3     OH2      OT      -0.834000       15.9994           0
     61177 TIP3     12932    TIP3     H1       HT       0.417000       1.00800           0
     61178 TIP3     12932    TIP3     H2       HT       0.417000       1.00800           0
     61179 TIP3     12933    TIP3     OH2      OT      -0.834000       15.9994           0
     61180 TIP3     12933    TIP3     H1       HT       0.417000       1.00800           0
     61181 TIP3     12933    TIP3     H2       HT       0.417000       1.00800           0
     61182 TIP3     12934    TIP3     OH2      OT      -0.834000       15.9994           0
     61183 TIP3     12934    TIP3     H1       HT       0.417000       1.00800           0
     61184 TIP3     12934    TIP3     H2       HT       0.417000       1.00800           0
     61185 TIP3     12935    TIP3     OH2      OT      -0.834000       15.9994           0
     61186 TIP3     12935    TIP3     H1       HT       0.417000       1.00800           0
     61187 TIP3     12935    TIP3     H2       HT       0.417000       1.00800           0
     61188 TIP3     12936    TIP3     OH2      OT      -0.834000       15.9994           0
     61189 TIP3     12936    TIP3     H1       HT       0.417000       1.00800           0
     61190 TIP3     12936    TIP3     H2       HT       0.417000       1.00800           0
     61191 TIP3     12937    TIP3     OH2      OT      -0.834000       15.9994           0
     61192 TIP3     12937    TIP3     H1       HT       0.417000       1.00800           0
     61193 TIP3     12937    TIP3     H2       HT       0.417000       1.00800           0
     61194 TIP3     12938    TIP3     OH2      OT      -0.834000       15.9994           0
     61195 TIP3     12938    TIP3     H1       HT       0.417000       1.00800           0
     61196 TIP3     12938    TIP3     H2       HT       0.417000       1.00800           0
     61197 TIP3     12939    TIP3     OH2      OT      -0.834000       15.9994           0
     61198 TIP3     12939    TIP3     H1       HT       0.417000       1.00800           0
     61199 TIP3     12939    TIP3     H2       HT       0.417000       1.00800           0
     61200 TIP3     12940    TIP3     OH2      OT      -0.834000       15.9994           0
     61201 TIP3     12940    TIP3     H1       HT       0.417000       1.00800           0
     61202 TIP3     12940    TIP3     H2       HT       0.417000       1.00800           0
     61203 TIP3     12941    TIP3     OH2      OT      -0.834000       15.9994           0
     61204 TIP3     12941    TIP3     H1       HT       0.417000       1.00800           0
     61205 TIP3     12941    TIP3     H2       HT       0.417000       1.00800           0
     61206 TIP3     12942    TIP3     OH2      OT      -0.834000       15.9994           0
     61207 TIP3     12942    TIP3     H1       HT       0.417000       1.00800           0
     61208 TIP3     12942    TIP3     H2       HT       0.417000       1.00800           0
     61209 TIP3     12943    TIP3     OH2      OT      -0.834000       15.9994           0
     61210 TIP3     12943    TIP3     H1       HT       0.417000       1.00800           0
     61211 TIP3     12943    TIP3     H2       HT       0.417000       1.00800           0
     61212 TIP3     12944    TIP3     OH2      OT      -0.834000       15.9994           0
     61213 TIP3     12944    TIP3     H1       HT       0.417000       1.00800           0
     61214 TIP3     12944    TIP3     H2       HT       0.417000       1.00800           0
     61215 TIP3     12945    TIP3     OH2      OT      -0.834000       15.9994           0
     61216 TIP3     12945    TIP3     H1       HT       0.417000       1.00800           0
     61217 TIP3     12945    TIP3     H2       HT       0.417000       1.00800           0
     61218 TIP3     12946    TIP3     OH2      OT      -0.834000       15.9994           0
     61219 TIP3     12946    TIP3     H1       HT       0.417000       1.00800           0
     61220 TIP3     12946    TIP3     H2       HT       0.417000       1.00800           0
     61221 TIP3     12947    TIP3     OH2      OT      -0.834000       15.9994           0
     61222 TIP3     12947    TIP3     H1       HT       0.417000       1.00800           0
     61223 TIP3     12947    TIP3     H2       HT       0.417000       1.00800           0
     61224 TIP3     12948    TIP3     OH2      OT      -0.834000       15.9994           0
     61225 TIP3     12948    TIP3     H1       HT       0.417000       1.00800           0
     61226 TIP3     12948    TIP3     H2       HT       0.417000       1.00800           0
     61227 TIP3     12949    TIP3     OH2      OT      -0.834000       15.9994           0
     61228 TIP3     12949    TIP3     H1       HT       0.417000       1.00800           0
     61229 TIP3     12949    TIP3     H2       HT       0.417000       1.00800           0
     61230 TIP3     12950    TIP3     OH2      OT      -0.834000       15.9994           0
     61231 TIP3     12950    TIP3     H1       HT       0.417000       1.00800           0
     61232 TIP3     12950    TIP3     H2       HT       0.417000       1.00800           0
     61233 TIP3     12951    TIP3     OH2      OT      -0.834000       15.9994           0
     61234 TIP3     12951    TIP3     H1       HT       0.417000       1.00800           0
     61235 TIP3     12951    TIP3     H2       HT       0.417000       1.00800           0
     61236 TIP3     12952    TIP3     OH2      OT      -0.834000       15.9994           0
     61237 TIP3     12952    TIP3     H1       HT       0.417000       1.00800           0
     61238 TIP3     12952    TIP3     H2       HT       0.417000       1.00800           0
     61239 TIP3     12953    TIP3     OH2      OT      -0.834000       15.9994           0
     61240 TIP3     12953    TIP3     H1       HT       0.417000       1.00800           0
     61241 TIP3     12953    TIP3     H2       HT       0.417000       1.00800           0
     61242 TIP3     12954    TIP3     OH2      OT      -0.834000       15.9994           0
     61243 TIP3     12954    TIP3     H1       HT       0.417000       1.00800           0
     61244 TIP3     12954    TIP3     H2       HT       0.417000       1.00800           0
     61245 TIP3     12955    TIP3     OH2      OT      -0.834000       15.9994           0
     61246 TIP3     12955    TIP3     H1       HT       0.417000       1.00800           0
     61247 TIP3     12955    TIP3     H2       HT       0.417000       1.00800           0
     61248 TIP3     12956    TIP3     OH2      OT      -0.834000       15.9994           0
     61249 TIP3     12956    TIP3     H1       HT       0.417000       1.00800           0
     61250 TIP3     12956    TIP3     H2       HT       0.417000       1.00800           0
     61251 TIP3     12957    TIP3     OH2      OT      -0.834000       15.9994           0
     61252 TIP3     12957    TIP3     H1       HT       0.417000       1.00800           0
     61253 TIP3     12957    TIP3     H2       HT       0.417000       1.00800           0
     61254 TIP3     12958    TIP3     OH2      OT      -0.834000       15.9994           0
     61255 TIP3     12958    TIP3     H1       HT       0.417000       1.00800           0
     61256 TIP3     12958    TIP3     H2       HT       0.417000       1.00800           0
     61257 TIP3     12959    TIP3     OH2      OT      -0.834000       15.9994           0
     61258 TIP3     12959    TIP3     H1       HT       0.417000       1.00800           0
     61259 TIP3     12959    TIP3     H2       HT       0.417000       1.00800           0
     61260 TIP3     12960    TIP3     OH2      OT      -0.834000       15.9994           0
     61261 TIP3     12960    TIP3     H1       HT       0.417000       1.00800           0
     61262 TIP3     12960    TIP3     H2       HT       0.417000       1.00800           0
     61263 TIP3     12961    TIP3     OH2      OT      -0.834000       15.9994           0
     61264 TIP3     12961    TIP3     H1       HT       0.417000       1.00800           0
     61265 TIP3     12961    TIP3     H2       HT       0.417000       1.00800           0
     61266 TIP3     12962    TIP3     OH2      OT      -0.834000       15.9994           0
     61267 TIP3     12962    TIP3     H1       HT       0.417000       1.00800           0
     61268 TIP3     12962    TIP3     H2       HT       0.417000       1.00800           0
     61269 TIP3     12963    TIP3     OH2      OT      -0.834000       15.9994           0
     61270 TIP3     12963    TIP3     H1       HT       0.417000       1.00800           0
     61271 TIP3     12963    TIP3     H2       HT       0.417000       1.00800           0
     61272 TIP3     12964    TIP3     OH2      OT      -0.834000       15.9994           0
     61273 TIP3     12964    TIP3     H1       HT       0.417000       1.00800           0
     61274 TIP3     12964    TIP3     H2       HT       0.417000       1.00800           0
     61275 TIP3     12965    TIP3     OH2      OT      -0.834000       15.9994           0
     61276 TIP3     12965    TIP3     H1       HT       0.417000       1.00800           0
     61277 TIP3     12965    TIP3     H2       HT       0.417000       1.00800           0
     61278 TIP3     12966    TIP3     OH2      OT      -0.834000       15.9994           0
     61279 TIP3     12966    TIP3     H1       HT       0.417000       1.00800           0
     61280 TIP3     12966    TIP3     H2       HT       0.417000       1.00800           0
     61281 TIP3     12967    TIP3     OH2      OT      -0.834000       15.9994           0
     61282 TIP3     12967    TIP3     H1       HT       0.417000       1.00800           0
     61283 TIP3     12967    TIP3     H2       HT       0.417000       1.00800           0
     61284 TIP3     12968    TIP3     OH2      OT      -0.834000       15.9994           0
     61285 TIP3     12968    TIP3     H1       HT       0.417000       1.00800           0
     61286 TIP3     12968    TIP3     H2       HT       0.417000       1.00800           0
     61287 TIP3     12969    TIP3     OH2      OT      -0.834000       15.9994           0
     61288 TIP3     12969    TIP3     H1       HT       0.417000       1.00800           0
     61289 TIP3     12969    TIP3     H2       HT       0.417000       1.00800           0
     61290 TIP3     12970    TIP3     OH2      OT      -0.834000       15.9994           0
     61291 TIP3     12970    TIP3     H1       HT       0.417000       1.00800           0
     61292 TIP3     12970    TIP3     H2       HT       0.417000       1.00800           0
     61293 TIP3     12971    TIP3     OH2      OT      -0.834000       15.9994           0
     61294 TIP3     12971    TIP3     H1       HT       0.417000       1.00800           0
     61295 TIP3     12971    TIP3     H2       HT       0.417000       1.00800           0
     61296 TIP3     12972    TIP3     OH2      OT      -0.834000       15.9994           0
     61297 TIP3     12972    TIP3     H1       HT       0.417000       1.00800           0
     61298 TIP3     12972    TIP3     H2       HT       0.417000       1.00800           0
     61299 TIP3     12973    TIP3     OH2      OT      -0.834000       15.9994           0
     61300 TIP3     12973    TIP3     H1       HT       0.417000       1.00800           0
     61301 TIP3     12973    TIP3     H2       HT       0.417000       1.00800           0
     61302 TIP3     12974    TIP3     OH2      OT      -0.834000       15.9994           0
     61303 TIP3     12974    TIP3     H1       HT       0.417000       1.00800           0
     61304 TIP3     12974    TIP3     H2       HT       0.417000       1.00800           0
     61305 TIP3     12975    TIP3     OH2      OT      -0.834000       15.9994           0
     61306 TIP3     12975    TIP3     H1       HT       0.417000       1.00800           0
     61307 TIP3     12975    TIP3     H2       HT       0.417000       1.00800           0
     61308 TIP3     12976    TIP3     OH2      OT      -0.834000       15.9994           0
     61309 TIP3     12976    TIP3     H1       HT       0.417000       1.00800           0
     61310 TIP3     12976    TIP3     H2       HT       0.417000       1.00800           0
     61311 TIP3     12977    TIP3     OH2      OT      -0.834000       15.9994           0
     61312 TIP3     12977    TIP3     H1       HT       0.417000       1.00800           0
     61313 TIP3     12977    TIP3     H2       HT       0.417000       1.00800           0
     61314 TIP3     12978    TIP3     OH2      OT      -0.834000       15.9994           0
     61315 TIP3     12978    TIP3     H1       HT       0.417000       1.00800           0
     61316 TIP3     12978    TIP3     H2       HT       0.417000       1.00800           0
     61317 TIP3     12979    TIP3     OH2      OT      -0.834000       15.9994           0
     61318 TIP3     12979    TIP3     H1       HT       0.417000       1.00800           0
     61319 TIP3     12979    TIP3     H2       HT       0.417000       1.00800           0
     61320 TIP3     12980    TIP3     OH2      OT      -0.834000       15.9994           0
     61321 TIP3     12980    TIP3     H1       HT       0.417000       1.00800           0
     61322 TIP3     12980    TIP3     H2       HT       0.417000       1.00800           0
     61323 TIP3     12981    TIP3     OH2      OT      -0.834000       15.9994           0
     61324 TIP3     12981    TIP3     H1       HT       0.417000       1.00800           0
     61325 TIP3     12981    TIP3     H2       HT       0.417000       1.00800           0
     61326 TIP3     12982    TIP3     OH2      OT      -0.834000       15.9994           0
     61327 TIP3     12982    TIP3     H1       HT       0.417000       1.00800           0
     61328 TIP3     12982    TIP3     H2       HT       0.417000       1.00800           0
     61329 TIP3     12983    TIP3     OH2      OT      -0.834000       15.9994           0
     61330 TIP3     12983    TIP3     H1       HT       0.417000       1.00800           0
     61331 TIP3     12983    TIP3     H2       HT       0.417000       1.00800           0
     61332 TIP3     12984    TIP3     OH2      OT      -0.834000       15.9994           0
     61333 TIP3     12984    TIP3     H1       HT       0.417000       1.00800           0
     61334 TIP3     12984    TIP3     H2       HT       0.417000       1.00800           0
     61335 TIP3     12985    TIP3     OH2      OT      -0.834000       15.9994           0
     61336 TIP3     12985    TIP3     H1       HT       0.417000       1.00800           0
     61337 TIP3     12985    TIP3     H2       HT       0.417000       1.00800           0
     61338 TIP3     12986    TIP3     OH2      OT      -0.834000       15.9994           0
     61339 TIP3     12986    TIP3     H1       HT       0.417000       1.00800           0
     61340 TIP3     12986    TIP3     H2       HT       0.417000       1.00800           0
     61341 TIP3     12987    TIP3     OH2      OT      -0.834000       15.9994           0
     61342 TIP3     12987    TIP3     H1       HT       0.417000       1.00800           0
     61343 TIP3     12987    TIP3     H2       HT       0.417000       1.00800           0
     61344 TIP3     12988    TIP3     OH2      OT      -0.834000       15.9994           0
     61345 TIP3     12988    TIP3     H1       HT       0.417000       1.00800           0
     61346 TIP3     12988    TIP3     H2       HT       0.417000       1.00800           0
     61347 TIP3     12989    TIP3     OH2      OT      -0.834000       15.9994           0
     61348 TIP3     12989    TIP3     H1       HT       0.417000       1.00800           0
     61349 TIP3     12989    TIP3     H2       HT       0.417000       1.00800           0
     61350 TIP3     12990    TIP3     OH2      OT      -0.834000       15.9994           0
     61351 TIP3     12990    TIP3     H1       HT       0.417000       1.00800           0
     61352 TIP3     12990    TIP3     H2       HT       0.417000       1.00800           0
     61353 TIP3     12991    TIP3     OH2      OT      -0.834000       15.9994           0
     61354 TIP3     12991    TIP3     H1       HT       0.417000       1.00800           0
     61355 TIP3     12991    TIP3     H2       HT       0.417000       1.00800           0
     61356 TIP3     12992    TIP3     OH2      OT      -0.834000       15.9994           0
     61357 TIP3     12992    TIP3     H1       HT       0.417000       1.00800           0
     61358 TIP3     12992    TIP3     H2       HT       0.417000       1.00800           0
     61359 TIP3     12993    TIP3     OH2      OT      -0.834000       15.9994           0
     61360 TIP3     12993    TIP3     H1       HT       0.417000       1.00800           0
     61361 TIP3     12993    TIP3     H2       HT       0.417000       1.00800           0
     61362 TIP3     12994    TIP3     OH2      OT      -0.834000       15.9994           0
     61363 TIP3     12994    TIP3     H1       HT       0.417000       1.00800           0
     61364 TIP3     12994    TIP3     H2       HT       0.417000       1.00800           0
     61365 TIP3     12995    TIP3     OH2      OT      -0.834000       15.9994           0
     61366 TIP3     12995    TIP3     H1       HT       0.417000       1.00800           0
     61367 TIP3     12995    TIP3     H2       HT       0.417000       1.00800           0
     61368 TIP3     12996    TIP3     OH2      OT      -0.834000       15.9994           0
     61369 TIP3     12996    TIP3     H1       HT       0.417000       1.00800           0
     61370 TIP3     12996    TIP3     H2       HT       0.417000       1.00800           0
     61371 TIP3     12997    TIP3     OH2      OT      -0.834000       15.9994           0
     61372 TIP3     12997    TIP3     H1       HT       0.417000       1.00800           0
     61373 TIP3     12997    TIP3     H2       HT       0.417000       1.00800           0
     61374 TIP3     12998    TIP3     OH2      OT      -0.834000       15.9994           0
     61375 TIP3     12998    TIP3     H1       HT       0.417000       1.00800           0
     61376 TIP3     12998    TIP3     H2       HT       0.417000       1.00800           0
     61377 TIP3     12999    TIP3     OH2      OT      -0.834000       15.9994           0
     61378 TIP3     12999    TIP3     H1       HT       0.417000       1.00800           0
     61379 TIP3     12999    TIP3     H2       HT       0.417000       1.00800           0
     61380 TIP3     13000    TIP3     OH2      OT      -0.834000       15.9994           0
     61381 TIP3     13000    TIP3     H1       HT       0.417000       1.00800           0
     61382 TIP3     13000    TIP3     H2       HT       0.417000       1.00800           0
     61383 TIP3     13001    TIP3     OH2      OT      -0.834000       15.9994           0
     61384 TIP3     13001    TIP3     H1       HT       0.417000       1.00800           0
     61385 TIP3     13001    TIP3     H2       HT       0.417000       1.00800           0
     61386 TIP3     13002    TIP3     OH2      OT      -0.834000       15.9994           0
     61387 TIP3     13002    TIP3     H1       HT       0.417000       1.00800           0
     61388 TIP3     13002    TIP3     H2       HT       0.417000       1.00800           0
     61389 TIP3     13003    TIP3     OH2      OT      -0.834000       15.9994           0
     61390 TIP3     13003    TIP3     H1       HT       0.417000       1.00800           0
     61391 TIP3     13003    TIP3     H2       HT       0.417000       1.00800           0
     61392 TIP3     13004    TIP3     OH2      OT      -0.834000       15.9994           0
     61393 TIP3     13004    TIP3     H1       HT       0.417000       1.00800           0
     61394 TIP3     13004    TIP3     H2       HT       0.417000       1.00800           0
     61395 TIP3     13005    TIP3     OH2      OT      -0.834000       15.9994           0
     61396 TIP3     13005    TIP3     H1       HT       0.417000       1.00800           0
     61397 TIP3     13005    TIP3     H2       HT       0.417000       1.00800           0
     61398 TIP3     13006    TIP3     OH2      OT      -0.834000       15.9994           0
     61399 TIP3     13006    TIP3     H1       HT       0.417000       1.00800           0
     61400 TIP3     13006    TIP3     H2       HT       0.417000       1.00800           0
     61401 TIP3     13007    TIP3     OH2      OT      -0.834000       15.9994           0
     61402 TIP3     13007    TIP3     H1       HT       0.417000       1.00800           0
     61403 TIP3     13007    TIP3     H2       HT       0.417000       1.00800           0
     61404 TIP3     13008    TIP3     OH2      OT      -0.834000       15.9994           0
     61405 TIP3     13008    TIP3     H1       HT       0.417000       1.00800           0
     61406 TIP3     13008    TIP3     H2       HT       0.417000       1.00800           0
     61407 TIP3     13009    TIP3     OH2      OT      -0.834000       15.9994           0
     61408 TIP3     13009    TIP3     H1       HT       0.417000       1.00800           0
     61409 TIP3     13009    TIP3     H2       HT       0.417000       1.00800           0
     61410 TIP3     13010    TIP3     OH2      OT      -0.834000       15.9994           0
     61411 TIP3     13010    TIP3     H1       HT       0.417000       1.00800           0
     61412 TIP3     13010    TIP3     H2       HT       0.417000       1.00800           0
     61413 TIP3     13011    TIP3     OH2      OT      -0.834000       15.9994           0
     61414 TIP3     13011    TIP3     H1       HT       0.417000       1.00800           0
     61415 TIP3     13011    TIP3     H2       HT       0.417000       1.00800           0
     61416 TIP3     13012    TIP3     OH2      OT      -0.834000       15.9994           0
     61417 TIP3     13012    TIP3     H1       HT       0.417000       1.00800           0
     61418 TIP3     13012    TIP3     H2       HT       0.417000       1.00800           0
     61419 TIP3     13013    TIP3     OH2      OT      -0.834000       15.9994           0
     61420 TIP3     13013    TIP3     H1       HT       0.417000       1.00800           0
     61421 TIP3     13013    TIP3     H2       HT       0.417000       1.00800           0
     61422 TIP3     13014    TIP3     OH2      OT      -0.834000       15.9994           0
     61423 TIP3     13014    TIP3     H1       HT       0.417000       1.00800           0
     61424 TIP3     13014    TIP3     H2       HT       0.417000       1.00800           0
     61425 TIP3     13015    TIP3     OH2      OT      -0.834000       15.9994           0
     61426 TIP3     13015    TIP3     H1       HT       0.417000       1.00800           0
     61427 TIP3     13015    TIP3     H2       HT       0.417000       1.00800           0
     61428 TIP3     13016    TIP3     OH2      OT      -0.834000       15.9994           0
     61429 TIP3     13016    TIP3     H1       HT       0.417000       1.00800           0
     61430 TIP3     13016    TIP3     H2       HT       0.417000       1.00800           0
     61431 TIP3     13017    TIP3     OH2      OT      -0.834000       15.9994           0
     61432 TIP3     13017    TIP3     H1       HT       0.417000       1.00800           0
     61433 TIP3     13017    TIP3     H2       HT       0.417000       1.00800           0
     61434 TIP3     13018    TIP3     OH2      OT      -0.834000       15.9994           0
     61435 TIP3     13018    TIP3     H1       HT       0.417000       1.00800           0
     61436 TIP3     13018    TIP3     H2       HT       0.417000       1.00800           0
     61437 TIP3     13019    TIP3     OH2      OT      -0.834000       15.9994           0
     61438 TIP3     13019    TIP3     H1       HT       0.417000       1.00800           0
     61439 TIP3     13019    TIP3     H2       HT       0.417000       1.00800           0
     61440 TIP3     13020    TIP3     OH2      OT      -0.834000       15.9994           0
     61441 TIP3     13020    TIP3     H1       HT       0.417000       1.00800           0
     61442 TIP3     13020    TIP3     H2       HT       0.417000       1.00800           0
     61443 TIP3     13021    TIP3     OH2      OT      -0.834000       15.9994           0
     61444 TIP3     13021    TIP3     H1       HT       0.417000       1.00800           0
     61445 TIP3     13021    TIP3     H2       HT       0.417000       1.00800           0
     61446 TIP3     13022    TIP3     OH2      OT      -0.834000       15.9994           0
     61447 TIP3     13022    TIP3     H1       HT       0.417000       1.00800           0
     61448 TIP3     13022    TIP3     H2       HT       0.417000       1.00800           0
     61449 TIP3     13023    TIP3     OH2      OT      -0.834000       15.9994           0
     61450 TIP3     13023    TIP3     H1       HT       0.417000       1.00800           0
     61451 TIP3     13023    TIP3     H2       HT       0.417000       1.00800           0
     61452 TIP3     13024    TIP3     OH2      OT      -0.834000       15.9994           0
     61453 TIP3     13024    TIP3     H1       HT       0.417000       1.00800           0
     61454 TIP3     13024    TIP3     H2       HT       0.417000       1.00800           0
     61455 TIP3     13025    TIP3     OH2      OT      -0.834000       15.9994           0
     61456 TIP3     13025    TIP3     H1       HT       0.417000       1.00800           0
     61457 TIP3     13025    TIP3     H2       HT       0.417000       1.00800           0
     61458 TIP3     13026    TIP3     OH2      OT      -0.834000       15.9994           0
     61459 TIP3     13026    TIP3     H1       HT       0.417000       1.00800           0
     61460 TIP3     13026    TIP3     H2       HT       0.417000       1.00800           0
     61461 TIP3     13027    TIP3     OH2      OT      -0.834000       15.9994           0
     61462 TIP3     13027    TIP3     H1       HT       0.417000       1.00800           0
     61463 TIP3     13027    TIP3     H2       HT       0.417000       1.00800           0
     61464 TIP3     13028    TIP3     OH2      OT      -0.834000       15.9994           0
     61465 TIP3     13028    TIP3     H1       HT       0.417000       1.00800           0
     61466 TIP3     13028    TIP3     H2       HT       0.417000       1.00800           0
     61467 TIP3     13029    TIP3     OH2      OT      -0.834000       15.9994           0
     61468 TIP3     13029    TIP3     H1       HT       0.417000       1.00800           0
     61469 TIP3     13029    TIP3     H2       HT       0.417000       1.00800           0
     61470 TIP3     13030    TIP3     OH2      OT      -0.834000       15.9994           0
     61471 TIP3     13030    TIP3     H1       HT       0.417000       1.00800           0
     61472 TIP3     13030    TIP3     H2       HT       0.417000       1.00800           0
     61473 TIP3     13031    TIP3     OH2      OT      -0.834000       15.9994           0
     61474 TIP3     13031    TIP3     H1       HT       0.417000       1.00800           0
     61475 TIP3     13031    TIP3     H2       HT       0.417000       1.00800           0
     61476 TIP3     13032    TIP3     OH2      OT      -0.834000       15.9994           0
     61477 TIP3     13032    TIP3     H1       HT       0.417000       1.00800           0
     61478 TIP3     13032    TIP3     H2       HT       0.417000       1.00800           0
     61479 TIP3     13033    TIP3     OH2      OT      -0.834000       15.9994           0
     61480 TIP3     13033    TIP3     H1       HT       0.417000       1.00800           0
     61481 TIP3     13033    TIP3     H2       HT       0.417000       1.00800           0
     61482 TIP3     13034    TIP3     OH2      OT      -0.834000       15.9994           0
     61483 TIP3     13034    TIP3     H1       HT       0.417000       1.00800           0
     61484 TIP3     13034    TIP3     H2       HT       0.417000       1.00800           0
     61485 TIP3     13035    TIP3     OH2      OT      -0.834000       15.9994           0
     61486 TIP3     13035    TIP3     H1       HT       0.417000       1.00800           0
     61487 TIP3     13035    TIP3     H2       HT       0.417000       1.00800           0
     61488 TIP3     13036    TIP3     OH2      OT      -0.834000       15.9994           0
     61489 TIP3     13036    TIP3     H1       HT       0.417000       1.00800           0
     61490 TIP3     13036    TIP3     H2       HT       0.417000       1.00800           0
     61491 TIP3     13037    TIP3     OH2      OT      -0.834000       15.9994           0
     61492 TIP3     13037    TIP3     H1       HT       0.417000       1.00800           0
     61493 TIP3     13037    TIP3     H2       HT       0.417000       1.00800           0
     61494 TIP3     13038    TIP3     OH2      OT      -0.834000       15.9994           0
     61495 TIP3     13038    TIP3     H1       HT       0.417000       1.00800           0
     61496 TIP3     13038    TIP3     H2       HT       0.417000       1.00800           0
     61497 TIP3     13039    TIP3     OH2      OT      -0.834000       15.9994           0
     61498 TIP3     13039    TIP3     H1       HT       0.417000       1.00800           0
     61499 TIP3     13039    TIP3     H2       HT       0.417000       1.00800           0
     61500 TIP3     13040    TIP3     OH2      OT      -0.834000       15.9994           0
     61501 TIP3     13040    TIP3     H1       HT       0.417000       1.00800           0
     61502 TIP3     13040    TIP3     H2       HT       0.417000       1.00800           0
     61503 TIP3     13041    TIP3     OH2      OT      -0.834000       15.9994           0
     61504 TIP3     13041    TIP3     H1       HT       0.417000       1.00800           0
     61505 TIP3     13041    TIP3     H2       HT       0.417000       1.00800           0
     61506 TIP3     13042    TIP3     OH2      OT      -0.834000       15.9994           0
     61507 TIP3     13042    TIP3     H1       HT       0.417000       1.00800           0
     61508 TIP3     13042    TIP3     H2       HT       0.417000       1.00800           0
     61509 TIP3     13043    TIP3     OH2      OT      -0.834000       15.9994           0
     61510 TIP3     13043    TIP3     H1       HT       0.417000       1.00800           0
     61511 TIP3     13043    TIP3     H2       HT       0.417000       1.00800           0
     61512 TIP3     13044    TIP3     OH2      OT      -0.834000       15.9994           0
     61513 TIP3     13044    TIP3     H1       HT       0.417000       1.00800           0
     61514 TIP3     13044    TIP3     H2       HT       0.417000       1.00800           0
     61515 TIP3     13045    TIP3     OH2      OT      -0.834000       15.9994           0
     61516 TIP3     13045    TIP3     H1       HT       0.417000       1.00800           0
     61517 TIP3     13045    TIP3     H2       HT       0.417000       1.00800           0
     61518 TIP3     13046    TIP3     OH2      OT      -0.834000       15.9994           0
     61519 TIP3     13046    TIP3     H1       HT       0.417000       1.00800           0
     61520 TIP3     13046    TIP3     H2       HT       0.417000       1.00800           0
     61521 TIP3     13047    TIP3     OH2      OT      -0.834000       15.9994           0
     61522 TIP3     13047    TIP3     H1       HT       0.417000       1.00800           0
     61523 TIP3     13047    TIP3     H2       HT       0.417000       1.00800           0
     61524 TIP3     13048    TIP3     OH2      OT      -0.834000       15.9994           0
     61525 TIP3     13048    TIP3     H1       HT       0.417000       1.00800           0
     61526 TIP3     13048    TIP3     H2       HT       0.417000       1.00800           0
     61527 TIP3     13049    TIP3     OH2      OT      -0.834000       15.9994           0
     61528 TIP3     13049    TIP3     H1       HT       0.417000       1.00800           0
     61529 TIP3     13049    TIP3     H2       HT       0.417000       1.00800           0
     61530 TIP3     13050    TIP3     OH2      OT      -0.834000       15.9994           0
     61531 TIP3     13050    TIP3     H1       HT       0.417000       1.00800           0
     61532 TIP3     13050    TIP3     H2       HT       0.417000       1.00800           0
     61533 TIP3     13051    TIP3     OH2      OT      -0.834000       15.9994           0
     61534 TIP3     13051    TIP3     H1       HT       0.417000       1.00800           0
     61535 TIP3     13051    TIP3     H2       HT       0.417000       1.00800           0
     61536 TIP3     13052    TIP3     OH2      OT      -0.834000       15.9994           0
     61537 TIP3     13052    TIP3     H1       HT       0.417000       1.00800           0
     61538 TIP3     13052    TIP3     H2       HT       0.417000       1.00800           0
     61539 TIP3     13053    TIP3     OH2      OT      -0.834000       15.9994           0
     61540 TIP3     13053    TIP3     H1       HT       0.417000       1.00800           0
     61541 TIP3     13053    TIP3     H2       HT       0.417000       1.00800           0
     61542 TIP3     13054    TIP3     OH2      OT      -0.834000       15.9994           0
     61543 TIP3     13054    TIP3     H1       HT       0.417000       1.00800           0
     61544 TIP3     13054    TIP3     H2       HT       0.417000       1.00800           0
     61545 TIP3     13055    TIP3     OH2      OT      -0.834000       15.9994           0
     61546 TIP3     13055    TIP3     H1       HT       0.417000       1.00800           0
     61547 TIP3     13055    TIP3     H2       HT       0.417000       1.00800           0
     61548 TIP3     13056    TIP3     OH2      OT      -0.834000       15.9994           0
     61549 TIP3     13056    TIP3     H1       HT       0.417000       1.00800           0
     61550 TIP3     13056    TIP3     H2       HT       0.417000       1.00800           0
     61551 TIP3     13057    TIP3     OH2      OT      -0.834000       15.9994           0
     61552 TIP3     13057    TIP3     H1       HT       0.417000       1.00800           0
     61553 TIP3     13057    TIP3     H2       HT       0.417000       1.00800           0
     61554 TIP3     13058    TIP3     OH2      OT      -0.834000       15.9994           0
     61555 TIP3     13058    TIP3     H1       HT       0.417000       1.00800           0
     61556 TIP3     13058    TIP3     H2       HT       0.417000       1.00800           0
     61557 TIP3     13059    TIP3     OH2      OT      -0.834000       15.9994           0
     61558 TIP3     13059    TIP3     H1       HT       0.417000       1.00800           0
     61559 TIP3     13059    TIP3     H2       HT       0.417000       1.00800           0
     61560 TIP3     13060    TIP3     OH2      OT      -0.834000       15.9994           0
     61561 TIP3     13060    TIP3     H1       HT       0.417000       1.00800           0
     61562 TIP3     13060    TIP3     H2       HT       0.417000       1.00800           0
     61563 TIP3     13061    TIP3     OH2      OT      -0.834000       15.9994           0
     61564 TIP3     13061    TIP3     H1       HT       0.417000       1.00800           0
     61565 TIP3     13061    TIP3     H2       HT       0.417000       1.00800           0
     61566 TIP3     13062    TIP3     OH2      OT      -0.834000       15.9994           0
     61567 TIP3     13062    TIP3     H1       HT       0.417000       1.00800           0
     61568 TIP3     13062    TIP3     H2       HT       0.417000       1.00800           0
     61569 TIP3     13063    TIP3     OH2      OT      -0.834000       15.9994           0
     61570 TIP3     13063    TIP3     H1       HT       0.417000       1.00800           0
     61571 TIP3     13063    TIP3     H2       HT       0.417000       1.00800           0
     61572 TIP3     13064    TIP3     OH2      OT      -0.834000       15.9994           0
     61573 TIP3     13064    TIP3     H1       HT       0.417000       1.00800           0
     61574 TIP3     13064    TIP3     H2       HT       0.417000       1.00800           0
     61575 TIP3     13065    TIP3     OH2      OT      -0.834000       15.9994           0
     61576 TIP3     13065    TIP3     H1       HT       0.417000       1.00800           0
     61577 TIP3     13065    TIP3     H2       HT       0.417000       1.00800           0
     61578 TIP3     13066    TIP3     OH2      OT      -0.834000       15.9994           0
     61579 TIP3     13066    TIP3     H1       HT       0.417000       1.00800           0
     61580 TIP3     13066    TIP3     H2       HT       0.417000       1.00800           0
     61581 TIP3     13067    TIP3     OH2      OT      -0.834000       15.9994           0
     61582 TIP3     13067    TIP3     H1       HT       0.417000       1.00800           0
     61583 TIP3     13067    TIP3     H2       HT       0.417000       1.00800           0
     61584 TIP3     13068    TIP3     OH2      OT      -0.834000       15.9994           0
     61585 TIP3     13068    TIP3     H1       HT       0.417000       1.00800           0
     61586 TIP3     13068    TIP3     H2       HT       0.417000       1.00800           0
     61587 TIP3     13069    TIP3     OH2      OT      -0.834000       15.9994           0
     61588 TIP3     13069    TIP3     H1       HT       0.417000       1.00800           0
     61589 TIP3     13069    TIP3     H2       HT       0.417000       1.00800           0
     61590 TIP3     13070    TIP3     OH2      OT      -0.834000       15.9994           0
     61591 TIP3     13070    TIP3     H1       HT       0.417000       1.00800           0
     61592 TIP3     13070    TIP3     H2       HT       0.417000       1.00800           0
     61593 TIP3     13071    TIP3     OH2      OT      -0.834000       15.9994           0
     61594 TIP3     13071    TIP3     H1       HT       0.417000       1.00800           0
     61595 TIP3     13071    TIP3     H2       HT       0.417000       1.00800           0
     61596 TIP3     13072    TIP3     OH2      OT      -0.834000       15.9994           0
     61597 TIP3     13072    TIP3     H1       HT       0.417000       1.00800           0
     61598 TIP3     13072    TIP3     H2       HT       0.417000       1.00800           0
     61599 TIP3     13073    TIP3     OH2      OT      -0.834000       15.9994           0
     61600 TIP3     13073    TIP3     H1       HT       0.417000       1.00800           0
     61601 TIP3     13073    TIP3     H2       HT       0.417000       1.00800           0
     61602 TIP3     13074    TIP3     OH2      OT      -0.834000       15.9994           0
     61603 TIP3     13074    TIP3     H1       HT       0.417000       1.00800           0
     61604 TIP3     13074    TIP3     H2       HT       0.417000       1.00800           0
     61605 TIP3     13075    TIP3     OH2      OT      -0.834000       15.9994           0
     61606 TIP3     13075    TIP3     H1       HT       0.417000       1.00800           0
     61607 TIP3     13075    TIP3     H2       HT       0.417000       1.00800           0
     61608 TIP3     13076    TIP3     OH2      OT      -0.834000       15.9994           0
     61609 TIP3     13076    TIP3     H1       HT       0.417000       1.00800           0
     61610 TIP3     13076    TIP3     H2       HT       0.417000       1.00800           0
     61611 TIP3     13077    TIP3     OH2      OT      -0.834000       15.9994           0
     61612 TIP3     13077    TIP3     H1       HT       0.417000       1.00800           0
     61613 TIP3     13077    TIP3     H2       HT       0.417000       1.00800           0
     61614 TIP3     13078    TIP3     OH2      OT      -0.834000       15.9994           0
     61615 TIP3     13078    TIP3     H1       HT       0.417000       1.00800           0
     61616 TIP3     13078    TIP3     H2       HT       0.417000       1.00800           0
     61617 TIP3     13079    TIP3     OH2      OT      -0.834000       15.9994           0
     61618 TIP3     13079    TIP3     H1       HT       0.417000       1.00800           0
     61619 TIP3     13079    TIP3     H2       HT       0.417000       1.00800           0
     61620 TIP3     13080    TIP3     OH2      OT      -0.834000       15.9994           0
     61621 TIP3     13080    TIP3     H1       HT       0.417000       1.00800           0
     61622 TIP3     13080    TIP3     H2       HT       0.417000       1.00800           0
     61623 TIP3     13081    TIP3     OH2      OT      -0.834000       15.9994           0
     61624 TIP3     13081    TIP3     H1       HT       0.417000       1.00800           0
     61625 TIP3     13081    TIP3     H2       HT       0.417000       1.00800           0
     61626 TIP3     13082    TIP3     OH2      OT      -0.834000       15.9994           0
     61627 TIP3     13082    TIP3     H1       HT       0.417000       1.00800           0
     61628 TIP3     13082    TIP3     H2       HT       0.417000       1.00800           0
     61629 TIP3     13083    TIP3     OH2      OT      -0.834000       15.9994           0
     61630 TIP3     13083    TIP3     H1       HT       0.417000       1.00800           0
     61631 TIP3     13083    TIP3     H2       HT       0.417000       1.00800           0
     61632 TIP3     13084    TIP3     OH2      OT      -0.834000       15.9994           0
     61633 TIP3     13084    TIP3     H1       HT       0.417000       1.00800           0
     61634 TIP3     13084    TIP3     H2       HT       0.417000       1.00800           0
     61635 TIP3     13085    TIP3     OH2      OT      -0.834000       15.9994           0
     61636 TIP3     13085    TIP3     H1       HT       0.417000       1.00800           0
     61637 TIP3     13085    TIP3     H2       HT       0.417000       1.00800           0
     61638 TIP3     13086    TIP3     OH2      OT      -0.834000       15.9994           0
     61639 TIP3     13086    TIP3     H1       HT       0.417000       1.00800           0
     61640 TIP3     13086    TIP3     H2       HT       0.417000       1.00800           0
     61641 TIP3     13087    TIP3     OH2      OT      -0.834000       15.9994           0
     61642 TIP3     13087    TIP3     H1       HT       0.417000       1.00800           0
     61643 TIP3     13087    TIP3     H2       HT       0.417000       1.00800           0
     61644 TIP3     13088    TIP3     OH2      OT      -0.834000       15.9994           0
     61645 TIP3     13088    TIP3     H1       HT       0.417000       1.00800           0
     61646 TIP3     13088    TIP3     H2       HT       0.417000       1.00800           0
     61647 TIP3     13089    TIP3     OH2      OT      -0.834000       15.9994           0
     61648 TIP3     13089    TIP3     H1       HT       0.417000       1.00800           0
     61649 TIP3     13089    TIP3     H2       HT       0.417000       1.00800           0
     61650 TIP3     13090    TIP3     OH2      OT      -0.834000       15.9994           0
     61651 TIP3     13090    TIP3     H1       HT       0.417000       1.00800           0
     61652 TIP3     13090    TIP3     H2       HT       0.417000       1.00800           0
     61653 TIP3     13091    TIP3     OH2      OT      -0.834000       15.9994           0
     61654 TIP3     13091    TIP3     H1       HT       0.417000       1.00800           0
     61655 TIP3     13091    TIP3     H2       HT       0.417000       1.00800           0
     61656 TIP3     13092    TIP3     OH2      OT      -0.834000       15.9994           0
     61657 TIP3     13092    TIP3     H1       HT       0.417000       1.00800           0
     61658 TIP3     13092    TIP3     H2       HT       0.417000       1.00800           0
     61659 TIP3     13093    TIP3     OH2      OT      -0.834000       15.9994           0
     61660 TIP3     13093    TIP3     H1       HT       0.417000       1.00800           0
     61661 TIP3     13093    TIP3     H2       HT       0.417000       1.00800           0
     61662 TIP3     13094    TIP3     OH2      OT      -0.834000       15.9994           0
     61663 TIP3     13094    TIP3     H1       HT       0.417000       1.00800           0
     61664 TIP3     13094    TIP3     H2       HT       0.417000       1.00800           0
     61665 TIP3     13095    TIP3     OH2      OT      -0.834000       15.9994           0
     61666 TIP3     13095    TIP3     H1       HT       0.417000       1.00800           0
     61667 TIP3     13095    TIP3     H2       HT       0.417000       1.00800           0
     61668 TIP3     13096    TIP3     OH2      OT      -0.834000       15.9994           0
     61669 TIP3     13096    TIP3     H1       HT       0.417000       1.00800           0
     61670 TIP3     13096    TIP3     H2       HT       0.417000       1.00800           0
     61671 TIP3     13097    TIP3     OH2      OT      -0.834000       15.9994           0
     61672 TIP3     13097    TIP3     H1       HT       0.417000       1.00800           0
     61673 TIP3     13097    TIP3     H2       HT       0.417000       1.00800           0
     61674 TIP3     13098    TIP3     OH2      OT      -0.834000       15.9994           0
     61675 TIP3     13098    TIP3     H1       HT       0.417000       1.00800           0
     61676 TIP3     13098    TIP3     H2       HT       0.417000       1.00800           0
     61677 TIP3     13099    TIP3     OH2      OT      -0.834000       15.9994           0
     61678 TIP3     13099    TIP3     H1       HT       0.417000       1.00800           0
     61679 TIP3     13099    TIP3     H2       HT       0.417000       1.00800           0
     61680 TIP3     13100    TIP3     OH2      OT      -0.834000       15.9994           0
     61681 TIP3     13100    TIP3     H1       HT       0.417000       1.00800           0
     61682 TIP3     13100    TIP3     H2       HT       0.417000       1.00800           0
     61683 TIP3     13101    TIP3     OH2      OT      -0.834000       15.9994           0
     61684 TIP3     13101    TIP3     H1       HT       0.417000       1.00800           0
     61685 TIP3     13101    TIP3     H2       HT       0.417000       1.00800           0
     61686 TIP3     13102    TIP3     OH2      OT      -0.834000       15.9994           0
     61687 TIP3     13102    TIP3     H1       HT       0.417000       1.00800           0
     61688 TIP3     13102    TIP3     H2       HT       0.417000       1.00800           0
     61689 TIP3     13103    TIP3     OH2      OT      -0.834000       15.9994           0
     61690 TIP3     13103    TIP3     H1       HT       0.417000       1.00800           0
     61691 TIP3     13103    TIP3     H2       HT       0.417000       1.00800           0
     61692 TIP3     13104    TIP3     OH2      OT      -0.834000       15.9994           0
     61693 TIP3     13104    TIP3     H1       HT       0.417000       1.00800           0
     61694 TIP3     13104    TIP3     H2       HT       0.417000       1.00800           0
     61695 TIP3     13105    TIP3     OH2      OT      -0.834000       15.9994           0
     61696 TIP3     13105    TIP3     H1       HT       0.417000       1.00800           0
     61697 TIP3     13105    TIP3     H2       HT       0.417000       1.00800           0
     61698 TIP3     13106    TIP3     OH2      OT      -0.834000       15.9994           0
     61699 TIP3     13106    TIP3     H1       HT       0.417000       1.00800           0
     61700 TIP3     13106    TIP3     H2       HT       0.417000       1.00800           0
     61701 TIP3     13107    TIP3     OH2      OT      -0.834000       15.9994           0
     61702 TIP3     13107    TIP3     H1       HT       0.417000       1.00800           0
     61703 TIP3     13107    TIP3     H2       HT       0.417000       1.00800           0
     61704 TIP3     13108    TIP3     OH2      OT      -0.834000       15.9994           0
     61705 TIP3     13108    TIP3     H1       HT       0.417000       1.00800           0
     61706 TIP3     13108    TIP3     H2       HT       0.417000       1.00800           0
     61707 TIP3     13109    TIP3     OH2      OT      -0.834000       15.9994           0
     61708 TIP3     13109    TIP3     H1       HT       0.417000       1.00800           0
     61709 TIP3     13109    TIP3     H2       HT       0.417000       1.00800           0
     61710 TIP3     13110    TIP3     OH2      OT      -0.834000       15.9994           0
     61711 TIP3     13110    TIP3     H1       HT       0.417000       1.00800           0
     61712 TIP3     13110    TIP3     H2       HT       0.417000       1.00800           0
     61713 TIP3     13111    TIP3     OH2      OT      -0.834000       15.9994           0
     61714 TIP3     13111    TIP3     H1       HT       0.417000       1.00800           0
     61715 TIP3     13111    TIP3     H2       HT       0.417000       1.00800           0
     61716 TIP3     13112    TIP3     OH2      OT      -0.834000       15.9994           0
     61717 TIP3     13112    TIP3     H1       HT       0.417000       1.00800           0
     61718 TIP3     13112    TIP3     H2       HT       0.417000       1.00800           0
     61719 TIP3     13113    TIP3     OH2      OT      -0.834000       15.9994           0
     61720 TIP3     13113    TIP3     H1       HT       0.417000       1.00800           0
     61721 TIP3     13113    TIP3     H2       HT       0.417000       1.00800           0
     61722 TIP3     13114    TIP3     OH2      OT      -0.834000       15.9994           0
     61723 TIP3     13114    TIP3     H1       HT       0.417000       1.00800           0
     61724 TIP3     13114    TIP3     H2       HT       0.417000       1.00800           0
     61725 TIP3     13115    TIP3     OH2      OT      -0.834000       15.9994           0
     61726 TIP3     13115    TIP3     H1       HT       0.417000       1.00800           0
     61727 TIP3     13115    TIP3     H2       HT       0.417000       1.00800           0
     61728 TIP3     13116    TIP3     OH2      OT      -0.834000       15.9994           0
     61729 TIP3     13116    TIP3     H1       HT       0.417000       1.00800           0
     61730 TIP3     13116    TIP3     H2       HT       0.417000       1.00800           0
     61731 TIP3     13117    TIP3     OH2      OT      -0.834000       15.9994           0
     61732 TIP3     13117    TIP3     H1       HT       0.417000       1.00800           0
     61733 TIP3     13117    TIP3     H2       HT       0.417000       1.00800           0
     61734 TIP3     13118    TIP3     OH2      OT      -0.834000       15.9994           0
     61735 TIP3     13118    TIP3     H1       HT       0.417000       1.00800           0
     61736 TIP3     13118    TIP3     H2       HT       0.417000       1.00800           0
     61737 TIP3     13119    TIP3     OH2      OT      -0.834000       15.9994           0
     61738 TIP3     13119    TIP3     H1       HT       0.417000       1.00800           0
     61739 TIP3     13119    TIP3     H2       HT       0.417000       1.00800           0
     61740 TIP3     13120    TIP3     OH2      OT      -0.834000       15.9994           0
     61741 TIP3     13120    TIP3     H1       HT       0.417000       1.00800           0
     61742 TIP3     13120    TIP3     H2       HT       0.417000       1.00800           0
     61743 TIP3     13121    TIP3     OH2      OT      -0.834000       15.9994           0
     61744 TIP3     13121    TIP3     H1       HT       0.417000       1.00800           0
     61745 TIP3     13121    TIP3     H2       HT       0.417000       1.00800           0
     61746 TIP3     13122    TIP3     OH2      OT      -0.834000       15.9994           0
     61747 TIP3     13122    TIP3     H1       HT       0.417000       1.00800           0
     61748 TIP3     13122    TIP3     H2       HT       0.417000       1.00800           0
     61749 TIP3     13123    TIP3     OH2      OT      -0.834000       15.9994           0
     61750 TIP3     13123    TIP3     H1       HT       0.417000       1.00800           0
     61751 TIP3     13123    TIP3     H2       HT       0.417000       1.00800           0
     61752 TIP3     13124    TIP3     OH2      OT      -0.834000       15.9994           0
     61753 TIP3     13124    TIP3     H1       HT       0.417000       1.00800           0
     61754 TIP3     13124    TIP3     H2       HT       0.417000       1.00800           0
     61755 TIP3     13125    TIP3     OH2      OT      -0.834000       15.9994           0
     61756 TIP3     13125    TIP3     H1       HT       0.417000       1.00800           0
     61757 TIP3     13125    TIP3     H2       HT       0.417000       1.00800           0
     61758 TIP3     13126    TIP3     OH2      OT      -0.834000       15.9994           0
     61759 TIP3     13126    TIP3     H1       HT       0.417000       1.00800           0
     61760 TIP3     13126    TIP3     H2       HT       0.417000       1.00800           0
     61761 TIP3     13127    TIP3     OH2      OT      -0.834000       15.9994           0
     61762 TIP3     13127    TIP3     H1       HT       0.417000       1.00800           0
     61763 TIP3     13127    TIP3     H2       HT       0.417000       1.00800           0
     61764 TIP3     13128    TIP3     OH2      OT      -0.834000       15.9994           0
     61765 TIP3     13128    TIP3     H1       HT       0.417000       1.00800           0
     61766 TIP3     13128    TIP3     H2       HT       0.417000       1.00800           0
     61767 TIP3     13129    TIP3     OH2      OT      -0.834000       15.9994           0
     61768 TIP3     13129    TIP3     H1       HT       0.417000       1.00800           0
     61769 TIP3     13129    TIP3     H2       HT       0.417000       1.00800           0
     61770 TIP3     13130    TIP3     OH2      OT      -0.834000       15.9994           0
     61771 TIP3     13130    TIP3     H1       HT       0.417000       1.00800           0
     61772 TIP3     13130    TIP3     H2       HT       0.417000       1.00800           0
     61773 TIP3     13131    TIP3     OH2      OT      -0.834000       15.9994           0
     61774 TIP3     13131    TIP3     H1       HT       0.417000       1.00800           0
     61775 TIP3     13131    TIP3     H2       HT       0.417000       1.00800           0
     61776 TIP3     13132    TIP3     OH2      OT      -0.834000       15.9994           0
     61777 TIP3     13132    TIP3     H1       HT       0.417000       1.00800           0
     61778 TIP3     13132    TIP3     H2       HT       0.417000       1.00800           0
     61779 TIP3     13133    TIP3     OH2      OT      -0.834000       15.9994           0
     61780 TIP3     13133    TIP3     H1       HT       0.417000       1.00800           0
     61781 TIP3     13133    TIP3     H2       HT       0.417000       1.00800           0
     61782 TIP3     13134    TIP3     OH2      OT      -0.834000       15.9994           0
     61783 TIP3     13134    TIP3     H1       HT       0.417000       1.00800           0
     61784 TIP3     13134    TIP3     H2       HT       0.417000       1.00800           0
     61785 TIP3     13135    TIP3     OH2      OT      -0.834000       15.9994           0
     61786 TIP3     13135    TIP3     H1       HT       0.417000       1.00800           0
     61787 TIP3     13135    TIP3     H2       HT       0.417000       1.00800           0
     61788 TIP3     13136    TIP3     OH2      OT      -0.834000       15.9994           0
     61789 TIP3     13136    TIP3     H1       HT       0.417000       1.00800           0
     61790 TIP3     13136    TIP3     H2       HT       0.417000       1.00800           0
     61791 TIP3     13137    TIP3     OH2      OT      -0.834000       15.9994           0
     61792 TIP3     13137    TIP3     H1       HT       0.417000       1.00800           0
     61793 TIP3     13137    TIP3     H2       HT       0.417000       1.00800           0
     61794 TIP3     13138    TIP3     OH2      OT      -0.834000       15.9994           0
     61795 TIP3     13138    TIP3     H1       HT       0.417000       1.00800           0
     61796 TIP3     13138    TIP3     H2       HT       0.417000       1.00800           0
     61797 TIP3     13139    TIP3     OH2      OT      -0.834000       15.9994           0
     61798 TIP3     13139    TIP3     H1       HT       0.417000       1.00800           0
     61799 TIP3     13139    TIP3     H2       HT       0.417000       1.00800           0
     61800 TIP3     13140    TIP3     OH2      OT      -0.834000       15.9994           0
     61801 TIP3     13140    TIP3     H1       HT       0.417000       1.00800           0
     61802 TIP3     13140    TIP3     H2       HT       0.417000       1.00800           0
     61803 TIP3     13141    TIP3     OH2      OT      -0.834000       15.9994           0
     61804 TIP3     13141    TIP3     H1       HT       0.417000       1.00800           0
     61805 TIP3     13141    TIP3     H2       HT       0.417000       1.00800           0
     61806 TIP3     13142    TIP3     OH2      OT      -0.834000       15.9994           0
     61807 TIP3     13142    TIP3     H1       HT       0.417000       1.00800           0
     61808 TIP3     13142    TIP3     H2       HT       0.417000       1.00800           0
     61809 TIP3     13143    TIP3     OH2      OT      -0.834000       15.9994           0
     61810 TIP3     13143    TIP3     H1       HT       0.417000       1.00800           0
     61811 TIP3     13143    TIP3     H2       HT       0.417000       1.00800           0
     61812 TIP3     13144    TIP3     OH2      OT      -0.834000       15.9994           0
     61813 TIP3     13144    TIP3     H1       HT       0.417000       1.00800           0
     61814 TIP3     13144    TIP3     H2       HT       0.417000       1.00800           0
     61815 TIP3     13145    TIP3     OH2      OT      -0.834000       15.9994           0
     61816 TIP3     13145    TIP3     H1       HT       0.417000       1.00800           0
     61817 TIP3     13145    TIP3     H2       HT       0.417000       1.00800           0
     61818 TIP3     13146    TIP3     OH2      OT      -0.834000       15.9994           0
     61819 TIP3     13146    TIP3     H1       HT       0.417000       1.00800           0
     61820 TIP3     13146    TIP3     H2       HT       0.417000       1.00800           0
     61821 TIP3     13147    TIP3     OH2      OT      -0.834000       15.9994           0
     61822 TIP3     13147    TIP3     H1       HT       0.417000       1.00800           0
     61823 TIP3     13147    TIP3     H2       HT       0.417000       1.00800           0
     61824 TIP3     13148    TIP3     OH2      OT      -0.834000       15.9994           0
     61825 TIP3     13148    TIP3     H1       HT       0.417000       1.00800           0
     61826 TIP3     13148    TIP3     H2       HT       0.417000       1.00800           0
     61827 TIP3     13149    TIP3     OH2      OT      -0.834000       15.9994           0
     61828 TIP3     13149    TIP3     H1       HT       0.417000       1.00800           0
     61829 TIP3     13149    TIP3     H2       HT       0.417000       1.00800           0
     61830 TIP3     13150    TIP3     OH2      OT      -0.834000       15.9994           0
     61831 TIP3     13150    TIP3     H1       HT       0.417000       1.00800           0
     61832 TIP3     13150    TIP3     H2       HT       0.417000       1.00800           0
     61833 TIP3     13151    TIP3     OH2      OT      -0.834000       15.9994           0
     61834 TIP3     13151    TIP3     H1       HT       0.417000       1.00800           0
     61835 TIP3     13151    TIP3     H2       HT       0.417000       1.00800           0
     61836 TIP3     13152    TIP3     OH2      OT      -0.834000       15.9994           0
     61837 TIP3     13152    TIP3     H1       HT       0.417000       1.00800           0
     61838 TIP3     13152    TIP3     H2       HT       0.417000       1.00800           0
     61839 TIP3     13153    TIP3     OH2      OT      -0.834000       15.9994           0
     61840 TIP3     13153    TIP3     H1       HT       0.417000       1.00800           0
     61841 TIP3     13153    TIP3     H2       HT       0.417000       1.00800           0
     61842 TIP3     13154    TIP3     OH2      OT      -0.834000       15.9994           0
     61843 TIP3     13154    TIP3     H1       HT       0.417000       1.00800           0
     61844 TIP3     13154    TIP3     H2       HT       0.417000       1.00800           0
     61845 TIP3     13155    TIP3     OH2      OT      -0.834000       15.9994           0
     61846 TIP3     13155    TIP3     H1       HT       0.417000       1.00800           0
     61847 TIP3     13155    TIP3     H2       HT       0.417000       1.00800           0
     61848 TIP3     13156    TIP3     OH2      OT      -0.834000       15.9994           0
     61849 TIP3     13156    TIP3     H1       HT       0.417000       1.00800           0
     61850 TIP3     13156    TIP3     H2       HT       0.417000       1.00800           0
     61851 TIP3     13157    TIP3     OH2      OT      -0.834000       15.9994           0
     61852 TIP3     13157    TIP3     H1       HT       0.417000       1.00800           0
     61853 TIP3     13157    TIP3     H2       HT       0.417000       1.00800           0
     61854 TIP3     13158    TIP3     OH2      OT      -0.834000       15.9994           0
     61855 TIP3     13158    TIP3     H1       HT       0.417000       1.00800           0
     61856 TIP3     13158    TIP3     H2       HT       0.417000       1.00800           0
     61857 TIP3     13159    TIP3     OH2      OT      -0.834000       15.9994           0
     61858 TIP3     13159    TIP3     H1       HT       0.417000       1.00800           0
     61859 TIP3     13159    TIP3     H2       HT       0.417000       1.00800           0
     61860 TIP3     13160    TIP3     OH2      OT      -0.834000       15.9994           0
     61861 TIP3     13160    TIP3     H1       HT       0.417000       1.00800           0
     61862 TIP3     13160    TIP3     H2       HT       0.417000       1.00800           0
     61863 TIP3     13161    TIP3     OH2      OT      -0.834000       15.9994           0
     61864 TIP3     13161    TIP3     H1       HT       0.417000       1.00800           0
     61865 TIP3     13161    TIP3     H2       HT       0.417000       1.00800           0
     61866 TIP3     13162    TIP3     OH2      OT      -0.834000       15.9994           0
     61867 TIP3     13162    TIP3     H1       HT       0.417000       1.00800           0
     61868 TIP3     13162    TIP3     H2       HT       0.417000       1.00800           0
     61869 TIP3     13163    TIP3     OH2      OT      -0.834000       15.9994           0
     61870 TIP3     13163    TIP3     H1       HT       0.417000       1.00800           0
     61871 TIP3     13163    TIP3     H2       HT       0.417000       1.00800           0
     61872 TIP3     13164    TIP3     OH2      OT      -0.834000       15.9994           0
     61873 TIP3     13164    TIP3     H1       HT       0.417000       1.00800           0
     61874 TIP3     13164    TIP3     H2       HT       0.417000       1.00800           0
     61875 TIP3     13165    TIP3     OH2      OT      -0.834000       15.9994           0
     61876 TIP3     13165    TIP3     H1       HT       0.417000       1.00800           0
     61877 TIP3     13165    TIP3     H2       HT       0.417000       1.00800           0
     61878 TIP3     13166    TIP3     OH2      OT      -0.834000       15.9994           0
     61879 TIP3     13166    TIP3     H1       HT       0.417000       1.00800           0
     61880 TIP3     13166    TIP3     H2       HT       0.417000       1.00800           0
     61881 TIP3     13167    TIP3     OH2      OT      -0.834000       15.9994           0
     61882 TIP3     13167    TIP3     H1       HT       0.417000       1.00800           0
     61883 TIP3     13167    TIP3     H2       HT       0.417000       1.00800           0
     61884 TIP3     13168    TIP3     OH2      OT      -0.834000       15.9994           0
     61885 TIP3     13168    TIP3     H1       HT       0.417000       1.00800           0
     61886 TIP3     13168    TIP3     H2       HT       0.417000       1.00800           0
     61887 TIP3     13169    TIP3     OH2      OT      -0.834000       15.9994           0
     61888 TIP3     13169    TIP3     H1       HT       0.417000       1.00800           0
     61889 TIP3     13169    TIP3     H2       HT       0.417000       1.00800           0
     61890 TIP3     13170    TIP3     OH2      OT      -0.834000       15.9994           0
     61891 TIP3     13170    TIP3     H1       HT       0.417000       1.00800           0
     61892 TIP3     13170    TIP3     H2       HT       0.417000       1.00800           0
     61893 TIP3     13171    TIP3     OH2      OT      -0.834000       15.9994           0
     61894 TIP3     13171    TIP3     H1       HT       0.417000       1.00800           0
     61895 TIP3     13171    TIP3     H2       HT       0.417000       1.00800           0
     61896 TIP3     13172    TIP3     OH2      OT      -0.834000       15.9994           0
     61897 TIP3     13172    TIP3     H1       HT       0.417000       1.00800           0
     61898 TIP3     13172    TIP3     H2       HT       0.417000       1.00800           0
     61899 TIP3     13173    TIP3     OH2      OT      -0.834000       15.9994           0
     61900 TIP3     13173    TIP3     H1       HT       0.417000       1.00800           0
     61901 TIP3     13173    TIP3     H2       HT       0.417000       1.00800           0
     61902 TIP3     13174    TIP3     OH2      OT      -0.834000       15.9994           0
     61903 TIP3     13174    TIP3     H1       HT       0.417000       1.00800           0
     61904 TIP3     13174    TIP3     H2       HT       0.417000       1.00800           0
     61905 TIP3     13175    TIP3     OH2      OT      -0.834000       15.9994           0
     61906 TIP3     13175    TIP3     H1       HT       0.417000       1.00800           0
     61907 TIP3     13175    TIP3     H2       HT       0.417000       1.00800           0
     61908 TIP3     13176    TIP3     OH2      OT      -0.834000       15.9994           0
     61909 TIP3     13176    TIP3     H1       HT       0.417000       1.00800           0
     61910 TIP3     13176    TIP3     H2       HT       0.417000       1.00800           0
     61911 TIP3     13177    TIP3     OH2      OT      -0.834000       15.9994           0
     61912 TIP3     13177    TIP3     H1       HT       0.417000       1.00800           0
     61913 TIP3     13177    TIP3     H2       HT       0.417000       1.00800           0
     61914 TIP3     13178    TIP3     OH2      OT      -0.834000       15.9994           0
     61915 TIP3     13178    TIP3     H1       HT       0.417000       1.00800           0
     61916 TIP3     13178    TIP3     H2       HT       0.417000       1.00800           0
     61917 TIP3     13179    TIP3     OH2      OT      -0.834000       15.9994           0
     61918 TIP3     13179    TIP3     H1       HT       0.417000       1.00800           0
     61919 TIP3     13179    TIP3     H2       HT       0.417000       1.00800           0
     61920 TIP3     13180    TIP3     OH2      OT      -0.834000       15.9994           0
     61921 TIP3     13180    TIP3     H1       HT       0.417000       1.00800           0
     61922 TIP3     13180    TIP3     H2       HT       0.417000       1.00800           0
     61923 TIP3     13181    TIP3     OH2      OT      -0.834000       15.9994           0
     61924 TIP3     13181    TIP3     H1       HT       0.417000       1.00800           0
     61925 TIP3     13181    TIP3     H2       HT       0.417000       1.00800           0
     61926 TIP3     13182    TIP3     OH2      OT      -0.834000       15.9994           0
     61927 TIP3     13182    TIP3     H1       HT       0.417000       1.00800           0
     61928 TIP3     13182    TIP3     H2       HT       0.417000       1.00800           0
     61929 TIP3     13183    TIP3     OH2      OT      -0.834000       15.9994           0
     61930 TIP3     13183    TIP3     H1       HT       0.417000       1.00800           0
     61931 TIP3     13183    TIP3     H2       HT       0.417000       1.00800           0
     61932 TIP3     13184    TIP3     OH2      OT      -0.834000       15.9994           0
     61933 TIP3     13184    TIP3     H1       HT       0.417000       1.00800           0
     61934 TIP3     13184    TIP3     H2       HT       0.417000       1.00800           0
     61935 TIP3     13185    TIP3     OH2      OT      -0.834000       15.9994           0
     61936 TIP3     13185    TIP3     H1       HT       0.417000       1.00800           0
     61937 TIP3     13185    TIP3     H2       HT       0.417000       1.00800           0
     61938 TIP3     13186    TIP3     OH2      OT      -0.834000       15.9994           0
     61939 TIP3     13186    TIP3     H1       HT       0.417000       1.00800           0
     61940 TIP3     13186    TIP3     H2       HT       0.417000       1.00800           0
     61941 TIP3     13187    TIP3     OH2      OT      -0.834000       15.9994           0
     61942 TIP3     13187    TIP3     H1       HT       0.417000       1.00800           0
     61943 TIP3     13187    TIP3     H2       HT       0.417000       1.00800           0
     61944 TIP3     13188    TIP3     OH2      OT      -0.834000       15.9994           0
     61945 TIP3     13188    TIP3     H1       HT       0.417000       1.00800           0
     61946 TIP3     13188    TIP3     H2       HT       0.417000       1.00800           0
     61947 TIP3     13189    TIP3     OH2      OT      -0.834000       15.9994           0
     61948 TIP3     13189    TIP3     H1       HT       0.417000       1.00800           0
     61949 TIP3     13189    TIP3     H2       HT       0.417000       1.00800           0
     61950 TIP3     13190    TIP3     OH2      OT      -0.834000       15.9994           0
     61951 TIP3     13190    TIP3     H1       HT       0.417000       1.00800           0
     61952 TIP3     13190    TIP3     H2       HT       0.417000       1.00800           0
     61953 TIP3     13191    TIP3     OH2      OT      -0.834000       15.9994           0
     61954 TIP3     13191    TIP3     H1       HT       0.417000       1.00800           0
     61955 TIP3     13191    TIP3     H2       HT       0.417000       1.00800           0
     61956 TIP3     13192    TIP3     OH2      OT      -0.834000       15.9994           0
     61957 TIP3     13192    TIP3     H1       HT       0.417000       1.00800           0
     61958 TIP3     13192    TIP3     H2       HT       0.417000       1.00800           0
     61959 TIP3     13193    TIP3     OH2      OT      -0.834000       15.9994           0
     61960 TIP3     13193    TIP3     H1       HT       0.417000       1.00800           0
     61961 TIP3     13193    TIP3     H2       HT       0.417000       1.00800           0
     61962 TIP3     13194    TIP3     OH2      OT      -0.834000       15.9994           0
     61963 TIP3     13194    TIP3     H1       HT       0.417000       1.00800           0
     61964 TIP3     13194    TIP3     H2       HT       0.417000       1.00800           0
     61965 TIP3     13195    TIP3     OH2      OT      -0.834000       15.9994           0
     61966 TIP3     13195    TIP3     H1       HT       0.417000       1.00800           0
     61967 TIP3     13195    TIP3     H2       HT       0.417000       1.00800           0
     61968 TIP3     13196    TIP3     OH2      OT      -0.834000       15.9994           0
     61969 TIP3     13196    TIP3     H1       HT       0.417000       1.00800           0
     61970 TIP3     13196    TIP3     H2       HT       0.417000       1.00800           0
     61971 TIP3     13197    TIP3     OH2      OT      -0.834000       15.9994           0
     61972 TIP3     13197    TIP3     H1       HT       0.417000       1.00800           0
     61973 TIP3     13197    TIP3     H2       HT       0.417000       1.00800           0
     61974 TIP3     13198    TIP3     OH2      OT      -0.834000       15.9994           0
     61975 TIP3     13198    TIP3     H1       HT       0.417000       1.00800           0
     61976 TIP3     13198    TIP3     H2       HT       0.417000       1.00800           0
     61977 TIP3     13199    TIP3     OH2      OT      -0.834000       15.9994           0
     61978 TIP3     13199    TIP3     H1       HT       0.417000       1.00800           0
     61979 TIP3     13199    TIP3     H2       HT       0.417000       1.00800           0
     61980 TIP3     13200    TIP3     OH2      OT      -0.834000       15.9994           0
     61981 TIP3     13200    TIP3     H1       HT       0.417000       1.00800           0
     61982 TIP3     13200    TIP3     H2       HT       0.417000       1.00800           0
     61983 TIP3     13201    TIP3     OH2      OT      -0.834000       15.9994           0
     61984 TIP3     13201    TIP3     H1       HT       0.417000       1.00800           0
     61985 TIP3     13201    TIP3     H2       HT       0.417000       1.00800           0
     61986 TIP3     13202    TIP3     OH2      OT      -0.834000       15.9994           0
     61987 TIP3     13202    TIP3     H1       HT       0.417000       1.00800           0
     61988 TIP3     13202    TIP3     H2       HT       0.417000       1.00800           0
     61989 TIP3     13203    TIP3     OH2      OT      -0.834000       15.9994           0
     61990 TIP3     13203    TIP3     H1       HT       0.417000       1.00800           0
     61991 TIP3     13203    TIP3     H2       HT       0.417000       1.00800           0
     61992 TIP3     13204    TIP3     OH2      OT      -0.834000       15.9994           0
     61993 TIP3     13204    TIP3     H1       HT       0.417000       1.00800           0
     61994 TIP3     13204    TIP3     H2       HT       0.417000       1.00800           0
     61995 TIP3     13205    TIP3     OH2      OT      -0.834000       15.9994           0
     61996 TIP3     13205    TIP3     H1       HT       0.417000       1.00800           0
     61997 TIP3     13205    TIP3     H2       HT       0.417000       1.00800           0
     61998 TIP3     13206    TIP3     OH2      OT      -0.834000       15.9994           0
     61999 TIP3     13206    TIP3     H1       HT       0.417000       1.00800           0
     62000 TIP3     13206    TIP3     H2       HT       0.417000       1.00800           0
     62001 TIP3     13207    TIP3     OH2      OT      -0.834000       15.9994           0
     62002 TIP3     13207    TIP3     H1       HT       0.417000       1.00800           0
     62003 TIP3     13207    TIP3     H2       HT       0.417000       1.00800           0
     62004 TIP3     13208    TIP3     OH2      OT      -0.834000       15.9994           0
     62005 TIP3     13208    TIP3     H1       HT       0.417000       1.00800           0
     62006 TIP3     13208    TIP3     H2       HT       0.417000       1.00800           0
     62007 TIP3     13209    TIP3     OH2      OT      -0.834000       15.9994           0
     62008 TIP3     13209    TIP3     H1       HT       0.417000       1.00800           0
     62009 TIP3     13209    TIP3     H2       HT       0.417000       1.00800           0
     62010 TIP3     13210    TIP3     OH2      OT      -0.834000       15.9994           0
     62011 TIP3     13210    TIP3     H1       HT       0.417000       1.00800           0
     62012 TIP3     13210    TIP3     H2       HT       0.417000       1.00800           0
     62013 TIP3     13211    TIP3     OH2      OT      -0.834000       15.9994           0
     62014 TIP3     13211    TIP3     H1       HT       0.417000       1.00800           0
     62015 TIP3     13211    TIP3     H2       HT       0.417000       1.00800           0
     62016 TIP3     13212    TIP3     OH2      OT      -0.834000       15.9994           0
     62017 TIP3     13212    TIP3     H1       HT       0.417000       1.00800           0
     62018 TIP3     13212    TIP3     H2       HT       0.417000       1.00800           0
     62019 TIP3     13213    TIP3     OH2      OT      -0.834000       15.9994           0
     62020 TIP3     13213    TIP3     H1       HT       0.417000       1.00800           0
     62021 TIP3     13213    TIP3     H2       HT       0.417000       1.00800           0
     62022 TIP3     13214    TIP3     OH2      OT      -0.834000       15.9994           0
     62023 TIP3     13214    TIP3     H1       HT       0.417000       1.00800           0
     62024 TIP3     13214    TIP3     H2       HT       0.417000       1.00800           0
     62025 TIP3     13215    TIP3     OH2      OT      -0.834000       15.9994           0
     62026 TIP3     13215    TIP3     H1       HT       0.417000       1.00800           0
     62027 TIP3     13215    TIP3     H2       HT       0.417000       1.00800           0
     62028 TIP3     13216    TIP3     OH2      OT      -0.834000       15.9994           0
     62029 TIP3     13216    TIP3     H1       HT       0.417000       1.00800           0
     62030 TIP3     13216    TIP3     H2       HT       0.417000       1.00800           0
     62031 TIP3     13217    TIP3     OH2      OT      -0.834000       15.9994           0
     62032 TIP3     13217    TIP3     H1       HT       0.417000       1.00800           0
     62033 TIP3     13217    TIP3     H2       HT       0.417000       1.00800           0
     62034 TIP3     13218    TIP3     OH2      OT      -0.834000       15.9994           0
     62035 TIP3     13218    TIP3     H1       HT       0.417000       1.00800           0
     62036 TIP3     13218    TIP3     H2       HT       0.417000       1.00800           0
     62037 TIP3     13219    TIP3     OH2      OT      -0.834000       15.9994           0
     62038 TIP3     13219    TIP3     H1       HT       0.417000       1.00800           0
     62039 TIP3     13219    TIP3     H2       HT       0.417000       1.00800           0
     62040 TIP3     13220    TIP3     OH2      OT      -0.834000       15.9994           0
     62041 TIP3     13220    TIP3     H1       HT       0.417000       1.00800           0
     62042 TIP3     13220    TIP3     H2       HT       0.417000       1.00800           0
     62043 TIP3     13221    TIP3     OH2      OT      -0.834000       15.9994           0
     62044 TIP3     13221    TIP3     H1       HT       0.417000       1.00800           0
     62045 TIP3     13221    TIP3     H2       HT       0.417000       1.00800           0
     62046 TIP3     13222    TIP3     OH2      OT      -0.834000       15.9994           0
     62047 TIP3     13222    TIP3     H1       HT       0.417000       1.00800           0
     62048 TIP3     13222    TIP3     H2       HT       0.417000       1.00800           0
     62049 TIP3     13223    TIP3     OH2      OT      -0.834000       15.9994           0
     62050 TIP3     13223    TIP3     H1       HT       0.417000       1.00800           0
     62051 TIP3     13223    TIP3     H2       HT       0.417000       1.00800           0
     62052 TIP3     13224    TIP3     OH2      OT      -0.834000       15.9994           0
     62053 TIP3     13224    TIP3     H1       HT       0.417000       1.00800           0
     62054 TIP3     13224    TIP3     H2       HT       0.417000       1.00800           0
     62055 TIP3     13225    TIP3     OH2      OT      -0.834000       15.9994           0
     62056 TIP3     13225    TIP3     H1       HT       0.417000       1.00800           0
     62057 TIP3     13225    TIP3     H2       HT       0.417000       1.00800           0
     62058 TIP3     13226    TIP3     OH2      OT      -0.834000       15.9994           0
     62059 TIP3     13226    TIP3     H1       HT       0.417000       1.00800           0
     62060 TIP3     13226    TIP3     H2       HT       0.417000       1.00800           0
     62061 TIP3     13227    TIP3     OH2      OT      -0.834000       15.9994           0
     62062 TIP3     13227    TIP3     H1       HT       0.417000       1.00800           0
     62063 TIP3     13227    TIP3     H2       HT       0.417000       1.00800           0
     62064 TIP3     13228    TIP3     OH2      OT      -0.834000       15.9994           0
     62065 TIP3     13228    TIP3     H1       HT       0.417000       1.00800           0
     62066 TIP3     13228    TIP3     H2       HT       0.417000       1.00800           0
     62067 TIP3     13229    TIP3     OH2      OT      -0.834000       15.9994           0
     62068 TIP3     13229    TIP3     H1       HT       0.417000       1.00800           0
     62069 TIP3     13229    TIP3     H2       HT       0.417000       1.00800           0
     62070 TIP3     13230    TIP3     OH2      OT      -0.834000       15.9994           0
     62071 TIP3     13230    TIP3     H1       HT       0.417000       1.00800           0
     62072 TIP3     13230    TIP3     H2       HT       0.417000       1.00800           0
     62073 TIP3     13231    TIP3     OH2      OT      -0.834000       15.9994           0
     62074 TIP3     13231    TIP3     H1       HT       0.417000       1.00800           0
     62075 TIP3     13231    TIP3     H2       HT       0.417000       1.00800           0
     62076 TIP3     13232    TIP3     OH2      OT      -0.834000       15.9994           0
     62077 TIP3     13232    TIP3     H1       HT       0.417000       1.00800           0
     62078 TIP3     13232    TIP3     H2       HT       0.417000       1.00800           0
     62079 TIP3     13233    TIP3     OH2      OT      -0.834000       15.9994           0
     62080 TIP3     13233    TIP3     H1       HT       0.417000       1.00800           0
     62081 TIP3     13233    TIP3     H2       HT       0.417000       1.00800           0
     62082 TIP3     13234    TIP3     OH2      OT      -0.834000       15.9994           0
     62083 TIP3     13234    TIP3     H1       HT       0.417000       1.00800           0
     62084 TIP3     13234    TIP3     H2       HT       0.417000       1.00800           0
     62085 TIP3     13235    TIP3     OH2      OT      -0.834000       15.9994           0
     62086 TIP3     13235    TIP3     H1       HT       0.417000       1.00800           0
     62087 TIP3     13235    TIP3     H2       HT       0.417000       1.00800           0
     62088 TIP3     13236    TIP3     OH2      OT      -0.834000       15.9994           0
     62089 TIP3     13236    TIP3     H1       HT       0.417000       1.00800           0
     62090 TIP3     13236    TIP3     H2       HT       0.417000       1.00800           0
     62091 TIP3     13237    TIP3     OH2      OT      -0.834000       15.9994           0
     62092 TIP3     13237    TIP3     H1       HT       0.417000       1.00800           0
     62093 TIP3     13237    TIP3     H2       HT       0.417000       1.00800           0
     62094 TIP3     13238    TIP3     OH2      OT      -0.834000       15.9994           0
     62095 TIP3     13238    TIP3     H1       HT       0.417000       1.00800           0
     62096 TIP3     13238    TIP3     H2       HT       0.417000       1.00800           0
     62097 TIP3     13239    TIP3     OH2      OT      -0.834000       15.9994           0
     62098 TIP3     13239    TIP3     H1       HT       0.417000       1.00800           0
     62099 TIP3     13239    TIP3     H2       HT       0.417000       1.00800           0
     62100 TIP3     13240    TIP3     OH2      OT      -0.834000       15.9994           0
     62101 TIP3     13240    TIP3     H1       HT       0.417000       1.00800           0
     62102 TIP3     13240    TIP3     H2       HT       0.417000       1.00800           0
     62103 TIP3     13241    TIP3     OH2      OT      -0.834000       15.9994           0
     62104 TIP3     13241    TIP3     H1       HT       0.417000       1.00800           0
     62105 TIP3     13241    TIP3     H2       HT       0.417000       1.00800           0
     62106 TIP3     13242    TIP3     OH2      OT      -0.834000       15.9994           0
     62107 TIP3     13242    TIP3     H1       HT       0.417000       1.00800           0
     62108 TIP3     13242    TIP3     H2       HT       0.417000       1.00800           0
     62109 TIP3     13243    TIP3     OH2      OT      -0.834000       15.9994           0
     62110 TIP3     13243    TIP3     H1       HT       0.417000       1.00800           0
     62111 TIP3     13243    TIP3     H2       HT       0.417000       1.00800           0
     62112 TIP3     13244    TIP3     OH2      OT      -0.834000       15.9994           0
     62113 TIP3     13244    TIP3     H1       HT       0.417000       1.00800           0
     62114 TIP3     13244    TIP3     H2       HT       0.417000       1.00800           0
     62115 TIP3     13245    TIP3     OH2      OT      -0.834000       15.9994           0
     62116 TIP3     13245    TIP3     H1       HT       0.417000       1.00800           0
     62117 TIP3     13245    TIP3     H2       HT       0.417000       1.00800           0
     62118 TIP3     13246    TIP3     OH2      OT      -0.834000       15.9994           0
     62119 TIP3     13246    TIP3     H1       HT       0.417000       1.00800           0
     62120 TIP3     13246    TIP3     H2       HT       0.417000       1.00800           0
     62121 TIP3     13247    TIP3     OH2      OT      -0.834000       15.9994           0
     62122 TIP3     13247    TIP3     H1       HT       0.417000       1.00800           0
     62123 TIP3     13247    TIP3     H2       HT       0.417000       1.00800           0
     62124 TIP3     13248    TIP3     OH2      OT      -0.834000       15.9994           0
     62125 TIP3     13248    TIP3     H1       HT       0.417000       1.00800           0
     62126 TIP3     13248    TIP3     H2       HT       0.417000       1.00800           0
     62127 TIP3     13249    TIP3     OH2      OT      -0.834000       15.9994           0
     62128 TIP3     13249    TIP3     H1       HT       0.417000       1.00800           0
     62129 TIP3     13249    TIP3     H2       HT       0.417000       1.00800           0
     62130 TIP3     13250    TIP3     OH2      OT      -0.834000       15.9994           0
     62131 TIP3     13250    TIP3     H1       HT       0.417000       1.00800           0
     62132 TIP3     13250    TIP3     H2       HT       0.417000       1.00800           0
     62133 TIP3     13251    TIP3     OH2      OT      -0.834000       15.9994           0
     62134 TIP3     13251    TIP3     H1       HT       0.417000       1.00800           0
     62135 TIP3     13251    TIP3     H2       HT       0.417000       1.00800           0
     62136 TIP3     13252    TIP3     OH2      OT      -0.834000       15.9994           0
     62137 TIP3     13252    TIP3     H1       HT       0.417000       1.00800           0
     62138 TIP3     13252    TIP3     H2       HT       0.417000       1.00800           0
     62139 TIP3     13253    TIP3     OH2      OT      -0.834000       15.9994           0
     62140 TIP3     13253    TIP3     H1       HT       0.417000       1.00800           0
     62141 TIP3     13253    TIP3     H2       HT       0.417000       1.00800           0
     62142 TIP3     13254    TIP3     OH2      OT      -0.834000       15.9994           0
     62143 TIP3     13254    TIP3     H1       HT       0.417000       1.00800           0
     62144 TIP3     13254    TIP3     H2       HT       0.417000       1.00800           0
     62145 TIP3     13255    TIP3     OH2      OT      -0.834000       15.9994           0
     62146 TIP3     13255    TIP3     H1       HT       0.417000       1.00800           0
     62147 TIP3     13255    TIP3     H2       HT       0.417000       1.00800           0
     62148 TIP3     13256    TIP3     OH2      OT      -0.834000       15.9994           0
     62149 TIP3     13256    TIP3     H1       HT       0.417000       1.00800           0
     62150 TIP3     13256    TIP3     H2       HT       0.417000       1.00800           0
     62151 TIP3     13257    TIP3     OH2      OT      -0.834000       15.9994           0
     62152 TIP3     13257    TIP3     H1       HT       0.417000       1.00800           0
     62153 TIP3     13257    TIP3     H2       HT       0.417000       1.00800           0
     62154 TIP3     13258    TIP3     OH2      OT      -0.834000       15.9994           0
     62155 TIP3     13258    TIP3     H1       HT       0.417000       1.00800           0
     62156 TIP3     13258    TIP3     H2       HT       0.417000       1.00800           0
     62157 TIP3     13259    TIP3     OH2      OT      -0.834000       15.9994           0
     62158 TIP3     13259    TIP3     H1       HT       0.417000       1.00800           0
     62159 TIP3     13259    TIP3     H2       HT       0.417000       1.00800           0
     62160 TIP3     13260    TIP3     OH2      OT      -0.834000       15.9994           0
     62161 TIP3     13260    TIP3     H1       HT       0.417000       1.00800           0
     62162 TIP3     13260    TIP3     H2       HT       0.417000       1.00800           0
     62163 TIP3     13261    TIP3     OH2      OT      -0.834000       15.9994           0
     62164 TIP3     13261    TIP3     H1       HT       0.417000       1.00800           0
     62165 TIP3     13261    TIP3     H2       HT       0.417000       1.00800           0
     62166 TIP3     13262    TIP3     OH2      OT      -0.834000       15.9994           0
     62167 TIP3     13262    TIP3     H1       HT       0.417000       1.00800           0
     62168 TIP3     13262    TIP3     H2       HT       0.417000       1.00800           0
     62169 TIP3     13263    TIP3     OH2      OT      -0.834000       15.9994           0
     62170 TIP3     13263    TIP3     H1       HT       0.417000       1.00800           0
     62171 TIP3     13263    TIP3     H2       HT       0.417000       1.00800           0
     62172 TIP3     13264    TIP3     OH2      OT      -0.834000       15.9994           0
     62173 TIP3     13264    TIP3     H1       HT       0.417000       1.00800           0
     62174 TIP3     13264    TIP3     H2       HT       0.417000       1.00800           0
     62175 TIP3     13265    TIP3     OH2      OT      -0.834000       15.9994           0
     62176 TIP3     13265    TIP3     H1       HT       0.417000       1.00800           0
     62177 TIP3     13265    TIP3     H2       HT       0.417000       1.00800           0
     62178 TIP3     13266    TIP3     OH2      OT      -0.834000       15.9994           0
     62179 TIP3     13266    TIP3     H1       HT       0.417000       1.00800           0
     62180 TIP3     13266    TIP3     H2       HT       0.417000       1.00800           0
     62181 TIP3     13267    TIP3     OH2      OT      -0.834000       15.9994           0
     62182 TIP3     13267    TIP3     H1       HT       0.417000       1.00800           0
     62183 TIP3     13267    TIP3     H2       HT       0.417000       1.00800           0
     62184 TIP3     13268    TIP3     OH2      OT      -0.834000       15.9994           0
     62185 TIP3     13268    TIP3     H1       HT       0.417000       1.00800           0
     62186 TIP3     13268    TIP3     H2       HT       0.417000       1.00800           0
     62187 TIP3     13269    TIP3     OH2      OT      -0.834000       15.9994           0
     62188 TIP3     13269    TIP3     H1       HT       0.417000       1.00800           0
     62189 TIP3     13269    TIP3     H2       HT       0.417000       1.00800           0
     62190 TIP3     13270    TIP3     OH2      OT      -0.834000       15.9994           0
     62191 TIP3     13270    TIP3     H1       HT       0.417000       1.00800           0
     62192 TIP3     13270    TIP3     H2       HT       0.417000       1.00800           0
     62193 TIP3     13271    TIP3     OH2      OT      -0.834000       15.9994           0
     62194 TIP3     13271    TIP3     H1       HT       0.417000       1.00800           0
     62195 TIP3     13271    TIP3     H2       HT       0.417000       1.00800           0
     62196 TIP3     13272    TIP3     OH2      OT      -0.834000       15.9994           0
     62197 TIP3     13272    TIP3     H1       HT       0.417000       1.00800           0
     62198 TIP3     13272    TIP3     H2       HT       0.417000       1.00800           0
     62199 TIP3     13273    TIP3     OH2      OT      -0.834000       15.9994           0
     62200 TIP3     13273    TIP3     H1       HT       0.417000       1.00800           0
     62201 TIP3     13273    TIP3     H2       HT       0.417000       1.00800           0
     62202 TIP3     13274    TIP3     OH2      OT      -0.834000       15.9994           0
     62203 TIP3     13274    TIP3     H1       HT       0.417000       1.00800           0
     62204 TIP3     13274    TIP3     H2       HT       0.417000       1.00800           0
     62205 TIP3     13275    TIP3     OH2      OT      -0.834000       15.9994           0
     62206 TIP3     13275    TIP3     H1       HT       0.417000       1.00800           0
     62207 TIP3     13275    TIP3     H2       HT       0.417000       1.00800           0
     62208 TIP3     13276    TIP3     OH2      OT      -0.834000       15.9994           0
     62209 TIP3     13276    TIP3     H1       HT       0.417000       1.00800           0
     62210 TIP3     13276    TIP3     H2       HT       0.417000       1.00800           0
     62211 TIP3     13277    TIP3     OH2      OT      -0.834000       15.9994           0
     62212 TIP3     13277    TIP3     H1       HT       0.417000       1.00800           0
     62213 TIP3     13277    TIP3     H2       HT       0.417000       1.00800           0
     62214 TIP3     13278    TIP3     OH2      OT      -0.834000       15.9994           0
     62215 TIP3     13278    TIP3     H1       HT       0.417000       1.00800           0
     62216 TIP3     13278    TIP3     H2       HT       0.417000       1.00800           0
     62217 TIP3     13279    TIP3     OH2      OT      -0.834000       15.9994           0
     62218 TIP3     13279    TIP3     H1       HT       0.417000       1.00800           0
     62219 TIP3     13279    TIP3     H2       HT       0.417000       1.00800           0
     62220 TIP3     13280    TIP3     OH2      OT      -0.834000       15.9994           0
     62221 TIP3     13280    TIP3     H1       HT       0.417000       1.00800           0
     62222 TIP3     13280    TIP3     H2       HT       0.417000       1.00800           0
     62223 TIP3     13281    TIP3     OH2      OT      -0.834000       15.9994           0
     62224 TIP3     13281    TIP3     H1       HT       0.417000       1.00800           0
     62225 TIP3     13281    TIP3     H2       HT       0.417000       1.00800           0
     62226 TIP3     13282    TIP3     OH2      OT      -0.834000       15.9994           0
     62227 TIP3     13282    TIP3     H1       HT       0.417000       1.00800           0
     62228 TIP3     13282    TIP3     H2       HT       0.417000       1.00800           0
     62229 TIP3     13283    TIP3     OH2      OT      -0.834000       15.9994           0
     62230 TIP3     13283    TIP3     H1       HT       0.417000       1.00800           0
     62231 TIP3     13283    TIP3     H2       HT       0.417000       1.00800           0
     62232 TIP3     13284    TIP3     OH2      OT      -0.834000       15.9994           0
     62233 TIP3     13284    TIP3     H1       HT       0.417000       1.00800           0
     62234 TIP3     13284    TIP3     H2       HT       0.417000       1.00800           0
     62235 TIP3     13285    TIP3     OH2      OT      -0.834000       15.9994           0
     62236 TIP3     13285    TIP3     H1       HT       0.417000       1.00800           0
     62237 TIP3     13285    TIP3     H2       HT       0.417000       1.00800           0
     62238 TIP3     13286    TIP3     OH2      OT      -0.834000       15.9994           0
     62239 TIP3     13286    TIP3     H1       HT       0.417000       1.00800           0
     62240 TIP3     13286    TIP3     H2       HT       0.417000       1.00800           0
     62241 TIP3     13287    TIP3     OH2      OT      -0.834000       15.9994           0
     62242 TIP3     13287    TIP3     H1       HT       0.417000       1.00800           0
     62243 TIP3     13287    TIP3     H2       HT       0.417000       1.00800           0
     62244 TIP3     13288    TIP3     OH2      OT      -0.834000       15.9994           0
     62245 TIP3     13288    TIP3     H1       HT       0.417000       1.00800           0
     62246 TIP3     13288    TIP3     H2       HT       0.417000       1.00800           0
     62247 TIP3     13289    TIP3     OH2      OT      -0.834000       15.9994           0
     62248 TIP3     13289    TIP3     H1       HT       0.417000       1.00800           0
     62249 TIP3     13289    TIP3     H2       HT       0.417000       1.00800           0
     62250 TIP3     13290    TIP3     OH2      OT      -0.834000       15.9994           0
     62251 TIP3     13290    TIP3     H1       HT       0.417000       1.00800           0
     62252 TIP3     13290    TIP3     H2       HT       0.417000       1.00800           0
     62253 TIP3     13291    TIP3     OH2      OT      -0.834000       15.9994           0
     62254 TIP3     13291    TIP3     H1       HT       0.417000       1.00800           0
     62255 TIP3     13291    TIP3     H2       HT       0.417000       1.00800           0
     62256 TIP3     13292    TIP3     OH2      OT      -0.834000       15.9994           0
     62257 TIP3     13292    TIP3     H1       HT       0.417000       1.00800           0
     62258 TIP3     13292    TIP3     H2       HT       0.417000       1.00800           0
     62259 TIP3     13293    TIP3     OH2      OT      -0.834000       15.9994           0
     62260 TIP3     13293    TIP3     H1       HT       0.417000       1.00800           0
     62261 TIP3     13293    TIP3     H2       HT       0.417000       1.00800           0
     62262 TIP3     13294    TIP3     OH2      OT      -0.834000       15.9994           0
     62263 TIP3     13294    TIP3     H1       HT       0.417000       1.00800           0
     62264 TIP3     13294    TIP3     H2       HT       0.417000       1.00800           0
     62265 TIP3     13295    TIP3     OH2      OT      -0.834000       15.9994           0
     62266 TIP3     13295    TIP3     H1       HT       0.417000       1.00800           0
     62267 TIP3     13295    TIP3     H2       HT       0.417000       1.00800           0
     62268 TIP3     13296    TIP3     OH2      OT      -0.834000       15.9994           0
     62269 TIP3     13296    TIP3     H1       HT       0.417000       1.00800           0
     62270 TIP3     13296    TIP3     H2       HT       0.417000       1.00800           0
     62271 TIP3     13297    TIP3     OH2      OT      -0.834000       15.9994           0
     62272 TIP3     13297    TIP3     H1       HT       0.417000       1.00800           0
     62273 TIP3     13297    TIP3     H2       HT       0.417000       1.00800           0
     62274 TIP3     13298    TIP3     OH2      OT      -0.834000       15.9994           0
     62275 TIP3     13298    TIP3     H1       HT       0.417000       1.00800           0
     62276 TIP3     13298    TIP3     H2       HT       0.417000       1.00800           0
     62277 TIP3     13299    TIP3     OH2      OT      -0.834000       15.9994           0
     62278 TIP3     13299    TIP3     H1       HT       0.417000       1.00800           0
     62279 TIP3     13299    TIP3     H2       HT       0.417000       1.00800           0
     62280 TIP3     13300    TIP3     OH2      OT      -0.834000       15.9994           0
     62281 TIP3     13300    TIP3     H1       HT       0.417000       1.00800           0
     62282 TIP3     13300    TIP3     H2       HT       0.417000       1.00800           0
     62283 TIP3     13301    TIP3     OH2      OT      -0.834000       15.9994           0
     62284 TIP3     13301    TIP3     H1       HT       0.417000       1.00800           0
     62285 TIP3     13301    TIP3     H2       HT       0.417000       1.00800           0
     62286 TIP3     13302    TIP3     OH2      OT      -0.834000       15.9994           0
     62287 TIP3     13302    TIP3     H1       HT       0.417000       1.00800           0
     62288 TIP3     13302    TIP3     H2       HT       0.417000       1.00800           0
     62289 TIP3     13303    TIP3     OH2      OT      -0.834000       15.9994           0
     62290 TIP3     13303    TIP3     H1       HT       0.417000       1.00800           0
     62291 TIP3     13303    TIP3     H2       HT       0.417000       1.00800           0
     62292 TIP3     13304    TIP3     OH2      OT      -0.834000       15.9994           0
     62293 TIP3     13304    TIP3     H1       HT       0.417000       1.00800           0
     62294 TIP3     13304    TIP3     H2       HT       0.417000       1.00800           0
     62295 TIP3     13305    TIP3     OH2      OT      -0.834000       15.9994           0
     62296 TIP3     13305    TIP3     H1       HT       0.417000       1.00800           0
     62297 TIP3     13305    TIP3     H2       HT       0.417000       1.00800           0
     62298 TIP3     13306    TIP3     OH2      OT      -0.834000       15.9994           0
     62299 TIP3     13306    TIP3     H1       HT       0.417000       1.00800           0
     62300 TIP3     13306    TIP3     H2       HT       0.417000       1.00800           0
     62301 TIP3     13307    TIP3     OH2      OT      -0.834000       15.9994           0
     62302 TIP3     13307    TIP3     H1       HT       0.417000       1.00800           0
     62303 TIP3     13307    TIP3     H2       HT       0.417000       1.00800           0
     62304 TIP3     13308    TIP3     OH2      OT      -0.834000       15.9994           0
     62305 TIP3     13308    TIP3     H1       HT       0.417000       1.00800           0
     62306 TIP3     13308    TIP3     H2       HT       0.417000       1.00800           0
     62307 TIP3     13309    TIP3     OH2      OT      -0.834000       15.9994           0
     62308 TIP3     13309    TIP3     H1       HT       0.417000       1.00800           0
     62309 TIP3     13309    TIP3     H2       HT       0.417000       1.00800           0
     62310 TIP3     13310    TIP3     OH2      OT      -0.834000       15.9994           0
     62311 TIP3     13310    TIP3     H1       HT       0.417000       1.00800           0
     62312 TIP3     13310    TIP3     H2       HT       0.417000       1.00800           0
     62313 TIP3     13311    TIP3     OH2      OT      -0.834000       15.9994           0
     62314 TIP3     13311    TIP3     H1       HT       0.417000       1.00800           0
     62315 TIP3     13311    TIP3     H2       HT       0.417000       1.00800           0
     62316 TIP3     13312    TIP3     OH2      OT      -0.834000       15.9994           0
     62317 TIP3     13312    TIP3     H1       HT       0.417000       1.00800           0
     62318 TIP3     13312    TIP3     H2       HT       0.417000       1.00800           0
     62319 TIP3     13313    TIP3     OH2      OT      -0.834000       15.9994           0
     62320 TIP3     13313    TIP3     H1       HT       0.417000       1.00800           0
     62321 TIP3     13313    TIP3     H2       HT       0.417000       1.00800           0
     62322 TIP3     13314    TIP3     OH2      OT      -0.834000       15.9994           0
     62323 TIP3     13314    TIP3     H1       HT       0.417000       1.00800           0
     62324 TIP3     13314    TIP3     H2       HT       0.417000       1.00800           0
     62325 TIP3     13315    TIP3     OH2      OT      -0.834000       15.9994           0
     62326 TIP3     13315    TIP3     H1       HT       0.417000       1.00800           0
     62327 TIP3     13315    TIP3     H2       HT       0.417000       1.00800           0
     62328 TIP3     13316    TIP3     OH2      OT      -0.834000       15.9994           0
     62329 TIP3     13316    TIP3     H1       HT       0.417000       1.00800           0
     62330 TIP3     13316    TIP3     H2       HT       0.417000       1.00800           0
     62331 TIP3     13317    TIP3     OH2      OT      -0.834000       15.9994           0
     62332 TIP3     13317    TIP3     H1       HT       0.417000       1.00800           0
     62333 TIP3     13317    TIP3     H2       HT       0.417000       1.00800           0
     62334 TIP3     13318    TIP3     OH2      OT      -0.834000       15.9994           0
     62335 TIP3     13318    TIP3     H1       HT       0.417000       1.00800           0
     62336 TIP3     13318    TIP3     H2       HT       0.417000       1.00800           0
     62337 TIP3     13319    TIP3     OH2      OT      -0.834000       15.9994           0
     62338 TIP3     13319    TIP3     H1       HT       0.417000       1.00800           0
     62339 TIP3     13319    TIP3     H2       HT       0.417000       1.00800           0
     62340 TIP3     13320    TIP3     OH2      OT      -0.834000       15.9994           0
     62341 TIP3     13320    TIP3     H1       HT       0.417000       1.00800           0
     62342 TIP3     13320    TIP3     H2       HT       0.417000       1.00800           0
     62343 TIP3     13321    TIP3     OH2      OT      -0.834000       15.9994           0
     62344 TIP3     13321    TIP3     H1       HT       0.417000       1.00800           0
     62345 TIP3     13321    TIP3     H2       HT       0.417000       1.00800           0
     62346 TIP3     13322    TIP3     OH2      OT      -0.834000       15.9994           0
     62347 TIP3     13322    TIP3     H1       HT       0.417000       1.00800           0
     62348 TIP3     13322    TIP3     H2       HT       0.417000       1.00800           0
     62349 TIP3     13323    TIP3     OH2      OT      -0.834000       15.9994           0
     62350 TIP3     13323    TIP3     H1       HT       0.417000       1.00800           0
     62351 TIP3     13323    TIP3     H2       HT       0.417000       1.00800           0
     62352 TIP3     13324    TIP3     OH2      OT      -0.834000       15.9994           0
     62353 TIP3     13324    TIP3     H1       HT       0.417000       1.00800           0
     62354 TIP3     13324    TIP3     H2       HT       0.417000       1.00800           0
     62355 TIP3     13325    TIP3     OH2      OT      -0.834000       15.9994           0
     62356 TIP3     13325    TIP3     H1       HT       0.417000       1.00800           0
     62357 TIP3     13325    TIP3     H2       HT       0.417000       1.00800           0
     62358 TIP3     13326    TIP3     OH2      OT      -0.834000       15.9994           0
     62359 TIP3     13326    TIP3     H1       HT       0.417000       1.00800           0
     62360 TIP3     13326    TIP3     H2       HT       0.417000       1.00800           0
     62361 TIP3     13327    TIP3     OH2      OT      -0.834000       15.9994           0
     62362 TIP3     13327    TIP3     H1       HT       0.417000       1.00800           0
     62363 TIP3     13327    TIP3     H2       HT       0.417000       1.00800           0
     62364 TIP3     13328    TIP3     OH2      OT      -0.834000       15.9994           0
     62365 TIP3     13328    TIP3     H1       HT       0.417000       1.00800           0
     62366 TIP3     13328    TIP3     H2       HT       0.417000       1.00800           0
     62367 TIP3     13329    TIP3     OH2      OT      -0.834000       15.9994           0
     62368 TIP3     13329    TIP3     H1       HT       0.417000       1.00800           0
     62369 TIP3     13329    TIP3     H2       HT       0.417000       1.00800           0
     62370 TIP3     13330    TIP3     OH2      OT      -0.834000       15.9994           0
     62371 TIP3     13330    TIP3     H1       HT       0.417000       1.00800           0
     62372 TIP3     13330    TIP3     H2       HT       0.417000       1.00800           0
     62373 TIP3     13331    TIP3     OH2      OT      -0.834000       15.9994           0
     62374 TIP3     13331    TIP3     H1       HT       0.417000       1.00800           0
     62375 TIP3     13331    TIP3     H2       HT       0.417000       1.00800           0
     62376 TIP3     13332    TIP3     OH2      OT      -0.834000       15.9994           0
     62377 TIP3     13332    TIP3     H1       HT       0.417000       1.00800           0
     62378 TIP3     13332    TIP3     H2       HT       0.417000       1.00800           0
     62379 TIP3     13333    TIP3     OH2      OT      -0.834000       15.9994           0
     62380 TIP3     13333    TIP3     H1       HT       0.417000       1.00800           0
     62381 TIP3     13333    TIP3     H2       HT       0.417000       1.00800           0
     62382 TIP3     13334    TIP3     OH2      OT      -0.834000       15.9994           0
     62383 TIP3     13334    TIP3     H1       HT       0.417000       1.00800           0
     62384 TIP3     13334    TIP3     H2       HT       0.417000       1.00800           0
     62385 TIP3     13335    TIP3     OH2      OT      -0.834000       15.9994           0
     62386 TIP3     13335    TIP3     H1       HT       0.417000       1.00800           0
     62387 TIP3     13335    TIP3     H2       HT       0.417000       1.00800           0
     62388 TIP3     13336    TIP3     OH2      OT      -0.834000       15.9994           0
     62389 TIP3     13336    TIP3     H1       HT       0.417000       1.00800           0
     62390 TIP3     13336    TIP3     H2       HT       0.417000       1.00800           0
     62391 TIP3     13337    TIP3     OH2      OT      -0.834000       15.9994           0
     62392 TIP3     13337    TIP3     H1       HT       0.417000       1.00800           0
     62393 TIP3     13337    TIP3     H2       HT       0.417000       1.00800           0
     62394 TIP3     13338    TIP3     OH2      OT      -0.834000       15.9994           0
     62395 TIP3     13338    TIP3     H1       HT       0.417000       1.00800           0
     62396 TIP3     13338    TIP3     H2       HT       0.417000       1.00800           0
     62397 TIP3     13339    TIP3     OH2      OT      -0.834000       15.9994           0
     62398 TIP3     13339    TIP3     H1       HT       0.417000       1.00800           0
     62399 TIP3     13339    TIP3     H2       HT       0.417000       1.00800           0
     62400 TIP3     13340    TIP3     OH2      OT      -0.834000       15.9994           0
     62401 TIP3     13340    TIP3     H1       HT       0.417000       1.00800           0
     62402 TIP3     13340    TIP3     H2       HT       0.417000       1.00800           0
     62403 TIP3     13341    TIP3     OH2      OT      -0.834000       15.9994           0
     62404 TIP3     13341    TIP3     H1       HT       0.417000       1.00800           0
     62405 TIP3     13341    TIP3     H2       HT       0.417000       1.00800           0
     62406 TIP3     13342    TIP3     OH2      OT      -0.834000       15.9994           0
     62407 TIP3     13342    TIP3     H1       HT       0.417000       1.00800           0
     62408 TIP3     13342    TIP3     H2       HT       0.417000       1.00800           0
     62409 TIP3     13343    TIP3     OH2      OT      -0.834000       15.9994           0
     62410 TIP3     13343    TIP3     H1       HT       0.417000       1.00800           0
     62411 TIP3     13343    TIP3     H2       HT       0.417000       1.00800           0
     62412 TIP3     13344    TIP3     OH2      OT      -0.834000       15.9994           0
     62413 TIP3     13344    TIP3     H1       HT       0.417000       1.00800           0
     62414 TIP3     13344    TIP3     H2       HT       0.417000       1.00800           0
     62415 TIP3     13345    TIP3     OH2      OT      -0.834000       15.9994           0
     62416 TIP3     13345    TIP3     H1       HT       0.417000       1.00800           0
     62417 TIP3     13345    TIP3     H2       HT       0.417000       1.00800           0
     62418 TIP3     13346    TIP3     OH2      OT      -0.834000       15.9994           0
     62419 TIP3     13346    TIP3     H1       HT       0.417000       1.00800           0
     62420 TIP3     13346    TIP3     H2       HT       0.417000       1.00800           0
     62421 TIP3     13347    TIP3     OH2      OT      -0.834000       15.9994           0
     62422 TIP3     13347    TIP3     H1       HT       0.417000       1.00800           0
     62423 TIP3     13347    TIP3     H2       HT       0.417000       1.00800           0
     62424 TIP3     13348    TIP3     OH2      OT      -0.834000       15.9994           0
     62425 TIP3     13348    TIP3     H1       HT       0.417000       1.00800           0
     62426 TIP3     13348    TIP3     H2       HT       0.417000       1.00800           0
     62427 TIP3     13349    TIP3     OH2      OT      -0.834000       15.9994           0
     62428 TIP3     13349    TIP3     H1       HT       0.417000       1.00800           0
     62429 TIP3     13349    TIP3     H2       HT       0.417000       1.00800           0
     62430 TIP3     13350    TIP3     OH2      OT      -0.834000       15.9994           0
     62431 TIP3     13350    TIP3     H1       HT       0.417000       1.00800           0
     62432 TIP3     13350    TIP3     H2       HT       0.417000       1.00800           0
     62433 TIP3     13351    TIP3     OH2      OT      -0.834000       15.9994           0
     62434 TIP3     13351    TIP3     H1       HT       0.417000       1.00800           0
     62435 TIP3     13351    TIP3     H2       HT       0.417000       1.00800           0
     62436 TIP3     13352    TIP3     OH2      OT      -0.834000       15.9994           0
     62437 TIP3     13352    TIP3     H1       HT       0.417000       1.00800           0
     62438 TIP3     13352    TIP3     H2       HT       0.417000       1.00800           0
     62439 TIP3     13353    TIP3     OH2      OT      -0.834000       15.9994           0
     62440 TIP3     13353    TIP3     H1       HT       0.417000       1.00800           0
     62441 TIP3     13353    TIP3     H2       HT       0.417000       1.00800           0
     62442 TIP3     13354    TIP3     OH2      OT      -0.834000       15.9994           0
     62443 TIP3     13354    TIP3     H1       HT       0.417000       1.00800           0
     62444 TIP3     13354    TIP3     H2       HT       0.417000       1.00800           0
     62445 TIP3     13355    TIP3     OH2      OT      -0.834000       15.9994           0
     62446 TIP3     13355    TIP3     H1       HT       0.417000       1.00800           0
     62447 TIP3     13355    TIP3     H2       HT       0.417000       1.00800           0
     62448 TIP3     13356    TIP3     OH2      OT      -0.834000       15.9994           0
     62449 TIP3     13356    TIP3     H1       HT       0.417000       1.00800           0
     62450 TIP3     13356    TIP3     H2       HT       0.417000       1.00800           0
     62451 TIP3     13357    TIP3     OH2      OT      -0.834000       15.9994           0
     62452 TIP3     13357    TIP3     H1       HT       0.417000       1.00800           0
     62453 TIP3     13357    TIP3     H2       HT       0.417000       1.00800           0
     62454 TIP3     13358    TIP3     OH2      OT      -0.834000       15.9994           0
     62455 TIP3     13358    TIP3     H1       HT       0.417000       1.00800           0
     62456 TIP3     13358    TIP3     H2       HT       0.417000       1.00800           0
     62457 TIP3     13359    TIP3     OH2      OT      -0.834000       15.9994           0
     62458 TIP3     13359    TIP3     H1       HT       0.417000       1.00800           0
     62459 TIP3     13359    TIP3     H2       HT       0.417000       1.00800           0
     62460 TIP3     13360    TIP3     OH2      OT      -0.834000       15.9994           0
     62461 TIP3     13360    TIP3     H1       HT       0.417000       1.00800           0
     62462 TIP3     13360    TIP3     H2       HT       0.417000       1.00800           0
     62463 TIP3     13361    TIP3     OH2      OT      -0.834000       15.9994           0
     62464 TIP3     13361    TIP3     H1       HT       0.417000       1.00800           0
     62465 TIP3     13361    TIP3     H2       HT       0.417000       1.00800           0
     62466 TIP3     13362    TIP3     OH2      OT      -0.834000       15.9994           0
     62467 TIP3     13362    TIP3     H1       HT       0.417000       1.00800           0
     62468 TIP3     13362    TIP3     H2       HT       0.417000       1.00800           0
     62469 TIP3     13363    TIP3     OH2      OT      -0.834000       15.9994           0
     62470 TIP3     13363    TIP3     H1       HT       0.417000       1.00800           0
     62471 TIP3     13363    TIP3     H2       HT       0.417000       1.00800           0
     62472 TIP3     13364    TIP3     OH2      OT      -0.834000       15.9994           0
     62473 TIP3     13364    TIP3     H1       HT       0.417000       1.00800           0
     62474 TIP3     13364    TIP3     H2       HT       0.417000       1.00800           0
     62475 TIP3     13365    TIP3     OH2      OT      -0.834000       15.9994           0
     62476 TIP3     13365    TIP3     H1       HT       0.417000       1.00800           0
     62477 TIP3     13365    TIP3     H2       HT       0.417000       1.00800           0
     62478 TIP3     13366    TIP3     OH2      OT      -0.834000       15.9994           0
     62479 TIP3     13366    TIP3     H1       HT       0.417000       1.00800           0
     62480 TIP3     13366    TIP3     H2       HT       0.417000       1.00800           0
     62481 TIP3     13367    TIP3     OH2      OT      -0.834000       15.9994           0
     62482 TIP3     13367    TIP3     H1       HT       0.417000       1.00800           0
     62483 TIP3     13367    TIP3     H2       HT       0.417000       1.00800           0
     62484 TIP3     13368    TIP3     OH2      OT      -0.834000       15.9994           0
     62485 TIP3     13368    TIP3     H1       HT       0.417000       1.00800           0
     62486 TIP3     13368    TIP3     H2       HT       0.417000       1.00800           0
     62487 TIP3     13369    TIP3     OH2      OT      -0.834000       15.9994           0
     62488 TIP3     13369    TIP3     H1       HT       0.417000       1.00800           0
     62489 TIP3     13369    TIP3     H2       HT       0.417000       1.00800           0
     62490 TIP3     13370    TIP3     OH2      OT      -0.834000       15.9994           0
     62491 TIP3     13370    TIP3     H1       HT       0.417000       1.00800           0
     62492 TIP3     13370    TIP3     H2       HT       0.417000       1.00800           0
     62493 TIP3     13371    TIP3     OH2      OT      -0.834000       15.9994           0
     62494 TIP3     13371    TIP3     H1       HT       0.417000       1.00800           0
     62495 TIP3     13371    TIP3     H2       HT       0.417000       1.00800           0
     62496 TIP3     13372    TIP3     OH2      OT      -0.834000       15.9994           0
     62497 TIP3     13372    TIP3     H1       HT       0.417000       1.00800           0
     62498 TIP3     13372    TIP3     H2       HT       0.417000       1.00800           0
     62499 TIP3     13373    TIP3     OH2      OT      -0.834000       15.9994           0
     62500 TIP3     13373    TIP3     H1       HT       0.417000       1.00800           0
     62501 TIP3     13373    TIP3     H2       HT       0.417000       1.00800           0
     62502 TIP3     13374    TIP3     OH2      OT      -0.834000       15.9994           0
     62503 TIP3     13374    TIP3     H1       HT       0.417000       1.00800           0
     62504 TIP3     13374    TIP3     H2       HT       0.417000       1.00800           0
     62505 TIP3     13375    TIP3     OH2      OT      -0.834000       15.9994           0
     62506 TIP3     13375    TIP3     H1       HT       0.417000       1.00800           0
     62507 TIP3     13375    TIP3     H2       HT       0.417000       1.00800           0
     62508 TIP3     13376    TIP3     OH2      OT      -0.834000       15.9994           0
     62509 TIP3     13376    TIP3     H1       HT       0.417000       1.00800           0
     62510 TIP3     13376    TIP3     H2       HT       0.417000       1.00800           0
     62511 TIP3     13377    TIP3     OH2      OT      -0.834000       15.9994           0
     62512 TIP3     13377    TIP3     H1       HT       0.417000       1.00800           0
     62513 TIP3     13377    TIP3     H2       HT       0.417000       1.00800           0
     62514 TIP3     13378    TIP3     OH2      OT      -0.834000       15.9994           0
     62515 TIP3     13378    TIP3     H1       HT       0.417000       1.00800           0
     62516 TIP3     13378    TIP3     H2       HT       0.417000       1.00800           0
     62517 TIP3     13379    TIP3     OH2      OT      -0.834000       15.9994           0
     62518 TIP3     13379    TIP3     H1       HT       0.417000       1.00800           0
     62519 TIP3     13379    TIP3     H2       HT       0.417000       1.00800           0
     62520 TIP3     13380    TIP3     OH2      OT      -0.834000       15.9994           0
     62521 TIP3     13380    TIP3     H1       HT       0.417000       1.00800           0
     62522 TIP3     13380    TIP3     H2       HT       0.417000       1.00800           0
     62523 TIP3     13381    TIP3     OH2      OT      -0.834000       15.9994           0
     62524 TIP3     13381    TIP3     H1       HT       0.417000       1.00800           0
     62525 TIP3     13381    TIP3     H2       HT       0.417000       1.00800           0
     62526 TIP3     13382    TIP3     OH2      OT      -0.834000       15.9994           0
     62527 TIP3     13382    TIP3     H1       HT       0.417000       1.00800           0
     62528 TIP3     13382    TIP3     H2       HT       0.417000       1.00800           0
     62529 TIP3     13383    TIP3     OH2      OT      -0.834000       15.9994           0
     62530 TIP3     13383    TIP3     H1       HT       0.417000       1.00800           0
     62531 TIP3     13383    TIP3     H2       HT       0.417000       1.00800           0
     62532 TIP3     13384    TIP3     OH2      OT      -0.834000       15.9994           0
     62533 TIP3     13384    TIP3     H1       HT       0.417000       1.00800           0
     62534 TIP3     13384    TIP3     H2       HT       0.417000       1.00800           0
     62535 TIP3     13385    TIP3     OH2      OT      -0.834000       15.9994           0
     62536 TIP3     13385    TIP3     H1       HT       0.417000       1.00800           0
     62537 TIP3     13385    TIP3     H2       HT       0.417000       1.00800           0
     62538 TIP3     13386    TIP3     OH2      OT      -0.834000       15.9994           0
     62539 TIP3     13386    TIP3     H1       HT       0.417000       1.00800           0
     62540 TIP3     13386    TIP3     H2       HT       0.417000       1.00800           0
     62541 TIP3     13387    TIP3     OH2      OT      -0.834000       15.9994           0
     62542 TIP3     13387    TIP3     H1       HT       0.417000       1.00800           0
     62543 TIP3     13387    TIP3     H2       HT       0.417000       1.00800           0
     62544 TIP3     13388    TIP3     OH2      OT      -0.834000       15.9994           0
     62545 TIP3     13388    TIP3     H1       HT       0.417000       1.00800           0
     62546 TIP3     13388    TIP3     H2       HT       0.417000       1.00800           0
     62547 TIP3     13389    TIP3     OH2      OT      -0.834000       15.9994           0
     62548 TIP3     13389    TIP3     H1       HT       0.417000       1.00800           0
     62549 TIP3     13389    TIP3     H2       HT       0.417000       1.00800           0
     62550 TIP3     13390    TIP3     OH2      OT      -0.834000       15.9994           0
     62551 TIP3     13390    TIP3     H1       HT       0.417000       1.00800           0
     62552 TIP3     13390    TIP3     H2       HT       0.417000       1.00800           0
     62553 TIP3     13391    TIP3     OH2      OT      -0.834000       15.9994           0
     62554 TIP3     13391    TIP3     H1       HT       0.417000       1.00800           0
     62555 TIP3     13391    TIP3     H2       HT       0.417000       1.00800           0
     62556 TIP3     13392    TIP3     OH2      OT      -0.834000       15.9994           0
     62557 TIP3     13392    TIP3     H1       HT       0.417000       1.00800           0
     62558 TIP3     13392    TIP3     H2       HT       0.417000       1.00800           0
     62559 TIP3     13393    TIP3     OH2      OT      -0.834000       15.9994           0
     62560 TIP3     13393    TIP3     H1       HT       0.417000       1.00800           0
     62561 TIP3     13393    TIP3     H2       HT       0.417000       1.00800           0
     62562 TIP3     13394    TIP3     OH2      OT      -0.834000       15.9994           0
     62563 TIP3     13394    TIP3     H1       HT       0.417000       1.00800           0
     62564 TIP3     13394    TIP3     H2       HT       0.417000       1.00800           0
     62565 TIP3     13395    TIP3     OH2      OT      -0.834000       15.9994           0
     62566 TIP3     13395    TIP3     H1       HT       0.417000       1.00800           0
     62567 TIP3     13395    TIP3     H2       HT       0.417000       1.00800           0
     62568 TIP3     13396    TIP3     OH2      OT      -0.834000       15.9994           0
     62569 TIP3     13396    TIP3     H1       HT       0.417000       1.00800           0
     62570 TIP3     13396    TIP3     H2       HT       0.417000       1.00800           0
     62571 TIP3     13397    TIP3     OH2      OT      -0.834000       15.9994           0
     62572 TIP3     13397    TIP3     H1       HT       0.417000       1.00800           0
     62573 TIP3     13397    TIP3     H2       HT       0.417000       1.00800           0
     62574 TIP3     13398    TIP3     OH2      OT      -0.834000       15.9994           0
     62575 TIP3     13398    TIP3     H1       HT       0.417000       1.00800           0
     62576 TIP3     13398    TIP3     H2       HT       0.417000       1.00800           0
     62577 TIP3     13399    TIP3     OH2      OT      -0.834000       15.9994           0
     62578 TIP3     13399    TIP3     H1       HT       0.417000       1.00800           0
     62579 TIP3     13399    TIP3     H2       HT       0.417000       1.00800           0
     62580 TIP3     13400    TIP3     OH2      OT      -0.834000       15.9994           0
     62581 TIP3     13400    TIP3     H1       HT       0.417000       1.00800           0
     62582 TIP3     13400    TIP3     H2       HT       0.417000       1.00800           0
     62583 TIP3     13401    TIP3     OH2      OT      -0.834000       15.9994           0
     62584 TIP3     13401    TIP3     H1       HT       0.417000       1.00800           0
     62585 TIP3     13401    TIP3     H2       HT       0.417000       1.00800           0
     62586 TIP3     13402    TIP3     OH2      OT      -0.834000       15.9994           0
     62587 TIP3     13402    TIP3     H1       HT       0.417000       1.00800           0
     62588 TIP3     13402    TIP3     H2       HT       0.417000       1.00800           0
     62589 TIP3     13403    TIP3     OH2      OT      -0.834000       15.9994           0
     62590 TIP3     13403    TIP3     H1       HT       0.417000       1.00800           0
     62591 TIP3     13403    TIP3     H2       HT       0.417000       1.00800           0
     62592 TIP3     13404    TIP3     OH2      OT      -0.834000       15.9994           0
     62593 TIP3     13404    TIP3     H1       HT       0.417000       1.00800           0
     62594 TIP3     13404    TIP3     H2       HT       0.417000       1.00800           0
     62595 TIP3     13405    TIP3     OH2      OT      -0.834000       15.9994           0
     62596 TIP3     13405    TIP3     H1       HT       0.417000       1.00800           0
     62597 TIP3     13405    TIP3     H2       HT       0.417000       1.00800           0
     62598 TIP3     13406    TIP3     OH2      OT      -0.834000       15.9994           0
     62599 TIP3     13406    TIP3     H1       HT       0.417000       1.00800           0
     62600 TIP3     13406    TIP3     H2       HT       0.417000       1.00800           0
     62601 TIP3     13407    TIP3     OH2      OT      -0.834000       15.9994           0
     62602 TIP3     13407    TIP3     H1       HT       0.417000       1.00800           0
     62603 TIP3     13407    TIP3     H2       HT       0.417000       1.00800           0
     62604 TIP3     13408    TIP3     OH2      OT      -0.834000       15.9994           0
     62605 TIP3     13408    TIP3     H1       HT       0.417000       1.00800           0
     62606 TIP3     13408    TIP3     H2       HT       0.417000       1.00800           0
     62607 TIP3     13409    TIP3     OH2      OT      -0.834000       15.9994           0
     62608 TIP3     13409    TIP3     H1       HT       0.417000       1.00800           0
     62609 TIP3     13409    TIP3     H2       HT       0.417000       1.00800           0
     62610 TIP3     13410    TIP3     OH2      OT      -0.834000       15.9994           0
     62611 TIP3     13410    TIP3     H1       HT       0.417000       1.00800           0
     62612 TIP3     13410    TIP3     H2       HT       0.417000       1.00800           0
     62613 TIP3     13411    TIP3     OH2      OT      -0.834000       15.9994           0
     62614 TIP3     13411    TIP3     H1       HT       0.417000       1.00800           0
     62615 TIP3     13411    TIP3     H2       HT       0.417000       1.00800           0
     62616 TIP3     13412    TIP3     OH2      OT      -0.834000       15.9994           0
     62617 TIP3     13412    TIP3     H1       HT       0.417000       1.00800           0
     62618 TIP3     13412    TIP3     H2       HT       0.417000       1.00800           0
     62619 TIP3     13413    TIP3     OH2      OT      -0.834000       15.9994           0
     62620 TIP3     13413    TIP3     H1       HT       0.417000       1.00800           0
     62621 TIP3     13413    TIP3     H2       HT       0.417000       1.00800           0
     62622 TIP3     13414    TIP3     OH2      OT      -0.834000       15.9994           0
     62623 TIP3     13414    TIP3     H1       HT       0.417000       1.00800           0
     62624 TIP3     13414    TIP3     H2       HT       0.417000       1.00800           0
     62625 TIP3     13415    TIP3     OH2      OT      -0.834000       15.9994           0
     62626 TIP3     13415    TIP3     H1       HT       0.417000       1.00800           0
     62627 TIP3     13415    TIP3     H2       HT       0.417000       1.00800           0
     62628 TIP3     13416    TIP3     OH2      OT      -0.834000       15.9994           0
     62629 TIP3     13416    TIP3     H1       HT       0.417000       1.00800           0
     62630 TIP3     13416    TIP3     H2       HT       0.417000       1.00800           0
     62631 TIP3     13417    TIP3     OH2      OT      -0.834000       15.9994           0
     62632 TIP3     13417    TIP3     H1       HT       0.417000       1.00800           0
     62633 TIP3     13417    TIP3     H2       HT       0.417000       1.00800           0
     62634 TIP3     13418    TIP3     OH2      OT      -0.834000       15.9994           0
     62635 TIP3     13418    TIP3     H1       HT       0.417000       1.00800           0
     62636 TIP3     13418    TIP3     H2       HT       0.417000       1.00800           0
     62637 TIP3     13419    TIP3     OH2      OT      -0.834000       15.9994           0
     62638 TIP3     13419    TIP3     H1       HT       0.417000       1.00800           0
     62639 TIP3     13419    TIP3     H2       HT       0.417000       1.00800           0
     62640 TIP3     13420    TIP3     OH2      OT      -0.834000       15.9994           0
     62641 TIP3     13420    TIP3     H1       HT       0.417000       1.00800           0
     62642 TIP3     13420    TIP3     H2       HT       0.417000       1.00800           0
     62643 TIP3     13421    TIP3     OH2      OT      -0.834000       15.9994           0
     62644 TIP3     13421    TIP3     H1       HT       0.417000       1.00800           0
     62645 TIP3     13421    TIP3     H2       HT       0.417000       1.00800           0
     62646 TIP3     13422    TIP3     OH2      OT      -0.834000       15.9994           0
     62647 TIP3     13422    TIP3     H1       HT       0.417000       1.00800           0
     62648 TIP3     13422    TIP3     H2       HT       0.417000       1.00800           0
     62649 TIP3     13423    TIP3     OH2      OT      -0.834000       15.9994           0
     62650 TIP3     13423    TIP3     H1       HT       0.417000       1.00800           0
     62651 TIP3     13423    TIP3     H2       HT       0.417000       1.00800           0
     62652 TIP3     13424    TIP3     OH2      OT      -0.834000       15.9994           0
     62653 TIP3     13424    TIP3     H1       HT       0.417000       1.00800           0
     62654 TIP3     13424    TIP3     H2       HT       0.417000       1.00800           0
     62655 TIP3     13425    TIP3     OH2      OT      -0.834000       15.9994           0
     62656 TIP3     13425    TIP3     H1       HT       0.417000       1.00800           0
     62657 TIP3     13425    TIP3     H2       HT       0.417000       1.00800           0
     62658 TIP3     13426    TIP3     OH2      OT      -0.834000       15.9994           0
     62659 TIP3     13426    TIP3     H1       HT       0.417000       1.00800           0
     62660 TIP3     13426    TIP3     H2       HT       0.417000       1.00800           0
     62661 TIP3     13427    TIP3     OH2      OT      -0.834000       15.9994           0
     62662 TIP3     13427    TIP3     H1       HT       0.417000       1.00800           0
     62663 TIP3     13427    TIP3     H2       HT       0.417000       1.00800           0
     62664 TIP3     13428    TIP3     OH2      OT      -0.834000       15.9994           0
     62665 TIP3     13428    TIP3     H1       HT       0.417000       1.00800           0
     62666 TIP3     13428    TIP3     H2       HT       0.417000       1.00800           0
     62667 TIP3     13429    TIP3     OH2      OT      -0.834000       15.9994           0
     62668 TIP3     13429    TIP3     H1       HT       0.417000       1.00800           0
     62669 TIP3     13429    TIP3     H2       HT       0.417000       1.00800           0
     62670 TIP3     13430    TIP3     OH2      OT      -0.834000       15.9994           0
     62671 TIP3     13430    TIP3     H1       HT       0.417000       1.00800           0
     62672 TIP3     13430    TIP3     H2       HT       0.417000       1.00800           0
     62673 TIP3     13431    TIP3     OH2      OT      -0.834000       15.9994           0
     62674 TIP3     13431    TIP3     H1       HT       0.417000       1.00800           0
     62675 TIP3     13431    TIP3     H2       HT       0.417000       1.00800           0
     62676 TIP3     13432    TIP3     OH2      OT      -0.834000       15.9994           0
     62677 TIP3     13432    TIP3     H1       HT       0.417000       1.00800           0
     62678 TIP3     13432    TIP3     H2       HT       0.417000       1.00800           0
     62679 TIP3     13433    TIP3     OH2      OT      -0.834000       15.9994           0
     62680 TIP3     13433    TIP3     H1       HT       0.417000       1.00800           0
     62681 TIP3     13433    TIP3     H2       HT       0.417000       1.00800           0
     62682 TIP3     13434    TIP3     OH2      OT      -0.834000       15.9994           0
     62683 TIP3     13434    TIP3     H1       HT       0.417000       1.00800           0
     62684 TIP3     13434    TIP3     H2       HT       0.417000       1.00800           0
     62685 TIP3     13435    TIP3     OH2      OT      -0.834000       15.9994           0
     62686 TIP3     13435    TIP3     H1       HT       0.417000       1.00800           0
     62687 TIP3     13435    TIP3     H2       HT       0.417000       1.00800           0
     62688 TIP3     13436    TIP3     OH2      OT      -0.834000       15.9994           0
     62689 TIP3     13436    TIP3     H1       HT       0.417000       1.00800           0
     62690 TIP3     13436    TIP3     H2       HT       0.417000       1.00800           0
     62691 TIP3     13437    TIP3     OH2      OT      -0.834000       15.9994           0
     62692 TIP3     13437    TIP3     H1       HT       0.417000       1.00800           0
     62693 TIP3     13437    TIP3     H2       HT       0.417000       1.00800           0
     62694 TIP3     13438    TIP3     OH2      OT      -0.834000       15.9994           0
     62695 TIP3     13438    TIP3     H1       HT       0.417000       1.00800           0
     62696 TIP3     13438    TIP3     H2       HT       0.417000       1.00800           0
     62697 TIP3     13439    TIP3     OH2      OT      -0.834000       15.9994           0
     62698 TIP3     13439    TIP3     H1       HT       0.417000       1.00800           0
     62699 TIP3     13439    TIP3     H2       HT       0.417000       1.00800           0
     62700 TIP3     13440    TIP3     OH2      OT      -0.834000       15.9994           0
     62701 TIP3     13440    TIP3     H1       HT       0.417000       1.00800           0
     62702 TIP3     13440    TIP3     H2       HT       0.417000       1.00800           0
     62703 TIP3     13441    TIP3     OH2      OT      -0.834000       15.9994           0
     62704 TIP3     13441    TIP3     H1       HT       0.417000       1.00800           0
     62705 TIP3     13441    TIP3     H2       HT       0.417000       1.00800           0
     62706 TIP3     13442    TIP3     OH2      OT      -0.834000       15.9994           0
     62707 TIP3     13442    TIP3     H1       HT       0.417000       1.00800           0
     62708 TIP3     13442    TIP3     H2       HT       0.417000       1.00800           0
     62709 TIP3     13443    TIP3     OH2      OT      -0.834000       15.9994           0
     62710 TIP3     13443    TIP3     H1       HT       0.417000       1.00800           0
     62711 TIP3     13443    TIP3     H2       HT       0.417000       1.00800           0
     62712 TIP3     13444    TIP3     OH2      OT      -0.834000       15.9994           0
     62713 TIP3     13444    TIP3     H1       HT       0.417000       1.00800           0
     62714 TIP3     13444    TIP3     H2       HT       0.417000       1.00800           0
     62715 TIP3     13445    TIP3     OH2      OT      -0.834000       15.9994           0
     62716 TIP3     13445    TIP3     H1       HT       0.417000       1.00800           0
     62717 TIP3     13445    TIP3     H2       HT       0.417000       1.00800           0
     62718 TIP3     13446    TIP3     OH2      OT      -0.834000       15.9994           0
     62719 TIP3     13446    TIP3     H1       HT       0.417000       1.00800           0
     62720 TIP3     13446    TIP3     H2       HT       0.417000       1.00800           0
     62721 TIP3     13447    TIP3     OH2      OT      -0.834000       15.9994           0
     62722 TIP3     13447    TIP3     H1       HT       0.417000       1.00800           0
     62723 TIP3     13447    TIP3     H2       HT       0.417000       1.00800           0
     62724 TIP3     13448    TIP3     OH2      OT      -0.834000       15.9994           0
     62725 TIP3     13448    TIP3     H1       HT       0.417000       1.00800           0
     62726 TIP3     13448    TIP3     H2       HT       0.417000       1.00800           0
     62727 TIP3     13449    TIP3     OH2      OT      -0.834000       15.9994           0
     62728 TIP3     13449    TIP3     H1       HT       0.417000       1.00800           0
     62729 TIP3     13449    TIP3     H2       HT       0.417000       1.00800           0
     62730 TIP3     13450    TIP3     OH2      OT      -0.834000       15.9994           0
     62731 TIP3     13450    TIP3     H1       HT       0.417000       1.00800           0
     62732 TIP3     13450    TIP3     H2       HT       0.417000       1.00800           0
     62733 TIP3     13451    TIP3     OH2      OT      -0.834000       15.9994           0
     62734 TIP3     13451    TIP3     H1       HT       0.417000       1.00800           0
     62735 TIP3     13451    TIP3     H2       HT       0.417000       1.00800           0
     62736 TIP3     13452    TIP3     OH2      OT      -0.834000       15.9994           0
     62737 TIP3     13452    TIP3     H1       HT       0.417000       1.00800           0
     62738 TIP3     13452    TIP3     H2       HT       0.417000       1.00800           0
     62739 TIP3     13453    TIP3     OH2      OT      -0.834000       15.9994           0
     62740 TIP3     13453    TIP3     H1       HT       0.417000       1.00800           0
     62741 TIP3     13453    TIP3     H2       HT       0.417000       1.00800           0
     62742 TIP3     13454    TIP3     OH2      OT      -0.834000       15.9994           0
     62743 TIP3     13454    TIP3     H1       HT       0.417000       1.00800           0
     62744 TIP3     13454    TIP3     H2       HT       0.417000       1.00800           0
     62745 TIP3     13455    TIP3     OH2      OT      -0.834000       15.9994           0
     62746 TIP3     13455    TIP3     H1       HT       0.417000       1.00800           0
     62747 TIP3     13455    TIP3     H2       HT       0.417000       1.00800           0
     62748 TIP3     13456    TIP3     OH2      OT      -0.834000       15.9994           0
     62749 TIP3     13456    TIP3     H1       HT       0.417000       1.00800           0
     62750 TIP3     13456    TIP3     H2       HT       0.417000       1.00800           0
     62751 TIP3     13457    TIP3     OH2      OT      -0.834000       15.9994           0
     62752 TIP3     13457    TIP3     H1       HT       0.417000       1.00800           0
     62753 TIP3     13457    TIP3     H2       HT       0.417000       1.00800           0
     62754 TIP3     13458    TIP3     OH2      OT      -0.834000       15.9994           0
     62755 TIP3     13458    TIP3     H1       HT       0.417000       1.00800           0
     62756 TIP3     13458    TIP3     H2       HT       0.417000       1.00800           0
     62757 TIP3     13459    TIP3     OH2      OT      -0.834000       15.9994           0
     62758 TIP3     13459    TIP3     H1       HT       0.417000       1.00800           0
     62759 TIP3     13459    TIP3     H2       HT       0.417000       1.00800           0
     62760 TIP3     13460    TIP3     OH2      OT      -0.834000       15.9994           0
     62761 TIP3     13460    TIP3     H1       HT       0.417000       1.00800           0
     62762 TIP3     13460    TIP3     H2       HT       0.417000       1.00800           0
     62763 TIP3     13461    TIP3     OH2      OT      -0.834000       15.9994           0
     62764 TIP3     13461    TIP3     H1       HT       0.417000       1.00800           0
     62765 TIP3     13461    TIP3     H2       HT       0.417000       1.00800           0
     62766 TIP3     13462    TIP3     OH2      OT      -0.834000       15.9994           0
     62767 TIP3     13462    TIP3     H1       HT       0.417000       1.00800           0
     62768 TIP3     13462    TIP3     H2       HT       0.417000       1.00800           0
     62769 TIP3     13463    TIP3     OH2      OT      -0.834000       15.9994           0
     62770 TIP3     13463    TIP3     H1       HT       0.417000       1.00800           0
     62771 TIP3     13463    TIP3     H2       HT       0.417000       1.00800           0
     62772 TIP3     13464    TIP3     OH2      OT      -0.834000       15.9994           0
     62773 TIP3     13464    TIP3     H1       HT       0.417000       1.00800           0
     62774 TIP3     13464    TIP3     H2       HT       0.417000       1.00800           0
     62775 TIP3     13465    TIP3     OH2      OT      -0.834000       15.9994           0
     62776 TIP3     13465    TIP3     H1       HT       0.417000       1.00800           0
     62777 TIP3     13465    TIP3     H2       HT       0.417000       1.00800           0
     62778 TIP3     13466    TIP3     OH2      OT      -0.834000       15.9994           0
     62779 TIP3     13466    TIP3     H1       HT       0.417000       1.00800           0
     62780 TIP3     13466    TIP3     H2       HT       0.417000       1.00800           0
     62781 TIP3     13467    TIP3     OH2      OT      -0.834000       15.9994           0
     62782 TIP3     13467    TIP3     H1       HT       0.417000       1.00800           0
     62783 TIP3     13467    TIP3     H2       HT       0.417000       1.00800           0
     62784 TIP3     13468    TIP3     OH2      OT      -0.834000       15.9994           0
     62785 TIP3     13468    TIP3     H1       HT       0.417000       1.00800           0
     62786 TIP3     13468    TIP3     H2       HT       0.417000       1.00800           0
     62787 TIP3     13469    TIP3     OH2      OT      -0.834000       15.9994           0
     62788 TIP3     13469    TIP3     H1       HT       0.417000       1.00800           0
     62789 TIP3     13469    TIP3     H2       HT       0.417000       1.00800           0
     62790 TIP3     13470    TIP3     OH2      OT      -0.834000       15.9994           0
     62791 TIP3     13470    TIP3     H1       HT       0.417000       1.00800           0
     62792 TIP3     13470    TIP3     H2       HT       0.417000       1.00800           0
     62793 TIP3     13471    TIP3     OH2      OT      -0.834000       15.9994           0
     62794 TIP3     13471    TIP3     H1       HT       0.417000       1.00800           0
     62795 TIP3     13471    TIP3     H2       HT       0.417000       1.00800           0
     62796 TIP3     13472    TIP3     OH2      OT      -0.834000       15.9994           0
     62797 TIP3     13472    TIP3     H1       HT       0.417000       1.00800           0
     62798 TIP3     13472    TIP3     H2       HT       0.417000       1.00800           0
     62799 TIP3     13473    TIP3     OH2      OT      -0.834000       15.9994           0
     62800 TIP3     13473    TIP3     H1       HT       0.417000       1.00800           0
     62801 TIP3     13473    TIP3     H2       HT       0.417000       1.00800           0
     62802 TIP3     13474    TIP3     OH2      OT      -0.834000       15.9994           0
     62803 TIP3     13474    TIP3     H1       HT       0.417000       1.00800           0
     62804 TIP3     13474    TIP3     H2       HT       0.417000       1.00800           0
     62805 TIP3     13475    TIP3     OH2      OT      -0.834000       15.9994           0
     62806 TIP3     13475    TIP3     H1       HT       0.417000       1.00800           0
     62807 TIP3     13475    TIP3     H2       HT       0.417000       1.00800           0
     62808 TIP3     13476    TIP3     OH2      OT      -0.834000       15.9994           0
     62809 TIP3     13476    TIP3     H1       HT       0.417000       1.00800           0
     62810 TIP3     13476    TIP3     H2       HT       0.417000       1.00800           0
     62811 TIP3     13477    TIP3     OH2      OT      -0.834000       15.9994           0
     62812 TIP3     13477    TIP3     H1       HT       0.417000       1.00800           0
     62813 TIP3     13477    TIP3     H2       HT       0.417000       1.00800           0
     62814 TIP3     13478    TIP3     OH2      OT      -0.834000       15.9994           0
     62815 TIP3     13478    TIP3     H1       HT       0.417000       1.00800           0
     62816 TIP3     13478    TIP3     H2       HT       0.417000       1.00800           0
     62817 TIP3     13479    TIP3     OH2      OT      -0.834000       15.9994           0
     62818 TIP3     13479    TIP3     H1       HT       0.417000       1.00800           0
     62819 TIP3     13479    TIP3     H2       HT       0.417000       1.00800           0
     62820 TIP3     13480    TIP3     OH2      OT      -0.834000       15.9994           0
     62821 TIP3     13480    TIP3     H1       HT       0.417000       1.00800           0
     62822 TIP3     13480    TIP3     H2       HT       0.417000       1.00800           0
     62823 TIP3     13481    TIP3     OH2      OT      -0.834000       15.9994           0
     62824 TIP3     13481    TIP3     H1       HT       0.417000       1.00800           0
     62825 TIP3     13481    TIP3     H2       HT       0.417000       1.00800           0
     62826 TIP3     13482    TIP3     OH2      OT      -0.834000       15.9994           0
     62827 TIP3     13482    TIP3     H1       HT       0.417000       1.00800           0
     62828 TIP3     13482    TIP3     H2       HT       0.417000       1.00800           0
     62829 TIP3     13483    TIP3     OH2      OT      -0.834000       15.9994           0
     62830 TIP3     13483    TIP3     H1       HT       0.417000       1.00800           0
     62831 TIP3     13483    TIP3     H2       HT       0.417000       1.00800           0
     62832 TIP3     13484    TIP3     OH2      OT      -0.834000       15.9994           0
     62833 TIP3     13484    TIP3     H1       HT       0.417000       1.00800           0
     62834 TIP3     13484    TIP3     H2       HT       0.417000       1.00800           0
     62835 TIP3     13485    TIP3     OH2      OT      -0.834000       15.9994           0
     62836 TIP3     13485    TIP3     H1       HT       0.417000       1.00800           0
     62837 TIP3     13485    TIP3     H2       HT       0.417000       1.00800           0
     62838 TIP3     13486    TIP3     OH2      OT      -0.834000       15.9994           0
     62839 TIP3     13486    TIP3     H1       HT       0.417000       1.00800           0
     62840 TIP3     13486    TIP3     H2       HT       0.417000       1.00800           0
     62841 TIP3     13487    TIP3     OH2      OT      -0.834000       15.9994           0
     62842 TIP3     13487    TIP3     H1       HT       0.417000       1.00800           0
     62843 TIP3     13487    TIP3     H2       HT       0.417000       1.00800           0
     62844 TIP3     13488    TIP3     OH2      OT      -0.834000       15.9994           0
     62845 TIP3     13488    TIP3     H1       HT       0.417000       1.00800           0
     62846 TIP3     13488    TIP3     H2       HT       0.417000       1.00800           0
     62847 TIP3     13489    TIP3     OH2      OT      -0.834000       15.9994           0
     62848 TIP3     13489    TIP3     H1       HT       0.417000       1.00800           0
     62849 TIP3     13489    TIP3     H2       HT       0.417000       1.00800           0
     62850 TIP3     13490    TIP3     OH2      OT      -0.834000       15.9994           0
     62851 TIP3     13490    TIP3     H1       HT       0.417000       1.00800           0
     62852 TIP3     13490    TIP3     H2       HT       0.417000       1.00800           0
     62853 TIP3     13491    TIP3     OH2      OT      -0.834000       15.9994           0
     62854 TIP3     13491    TIP3     H1       HT       0.417000       1.00800           0
     62855 TIP3     13491    TIP3     H2       HT       0.417000       1.00800           0
     62856 TIP3     13492    TIP3     OH2      OT      -0.834000       15.9994           0
     62857 TIP3     13492    TIP3     H1       HT       0.417000       1.00800           0
     62858 TIP3     13492    TIP3     H2       HT       0.417000       1.00800           0
     62859 TIP3     13493    TIP3     OH2      OT      -0.834000       15.9994           0
     62860 TIP3     13493    TIP3     H1       HT       0.417000       1.00800           0
     62861 TIP3     13493    TIP3     H2       HT       0.417000       1.00800           0
     62862 TIP3     13494    TIP3     OH2      OT      -0.834000       15.9994           0
     62863 TIP3     13494    TIP3     H1       HT       0.417000       1.00800           0
     62864 TIP3     13494    TIP3     H2       HT       0.417000       1.00800           0
     62865 TIP3     13495    TIP3     OH2      OT      -0.834000       15.9994           0
     62866 TIP3     13495    TIP3     H1       HT       0.417000       1.00800           0
     62867 TIP3     13495    TIP3     H2       HT       0.417000       1.00800           0
     62868 TIP3     13496    TIP3     OH2      OT      -0.834000       15.9994           0
     62869 TIP3     13496    TIP3     H1       HT       0.417000       1.00800           0
     62870 TIP3     13496    TIP3     H2       HT       0.417000       1.00800           0
     62871 TIP3     13497    TIP3     OH2      OT      -0.834000       15.9994           0
     62872 TIP3     13497    TIP3     H1       HT       0.417000       1.00800           0
     62873 TIP3     13497    TIP3     H2       HT       0.417000       1.00800           0
     62874 TIP3     13498    TIP3     OH2      OT      -0.834000       15.9994           0
     62875 TIP3     13498    TIP3     H1       HT       0.417000       1.00800           0
     62876 TIP3     13498    TIP3     H2       HT       0.417000       1.00800           0
     62877 TIP3     13499    TIP3     OH2      OT      -0.834000       15.9994           0
     62878 TIP3     13499    TIP3     H1       HT       0.417000       1.00800           0
     62879 TIP3     13499    TIP3     H2       HT       0.417000       1.00800           0
     62880 TIP3     13500    TIP3     OH2      OT      -0.834000       15.9994           0
     62881 TIP3     13500    TIP3     H1       HT       0.417000       1.00800           0
     62882 TIP3     13500    TIP3     H2       HT       0.417000       1.00800           0
     62883 TIP3     13501    TIP3     OH2      OT      -0.834000       15.9994           0
     62884 TIP3     13501    TIP3     H1       HT       0.417000       1.00800           0
     62885 TIP3     13501    TIP3     H2       HT       0.417000       1.00800           0
     62886 TIP3     13502    TIP3     OH2      OT      -0.834000       15.9994           0
     62887 TIP3     13502    TIP3     H1       HT       0.417000       1.00800           0
     62888 TIP3     13502    TIP3     H2       HT       0.417000       1.00800           0
     62889 TIP3     13503    TIP3     OH2      OT      -0.834000       15.9994           0
     62890 TIP3     13503    TIP3     H1       HT       0.417000       1.00800           0
     62891 TIP3     13503    TIP3     H2       HT       0.417000       1.00800           0
     62892 TIP3     13504    TIP3     OH2      OT      -0.834000       15.9994           0
     62893 TIP3     13504    TIP3     H1       HT       0.417000       1.00800           0
     62894 TIP3     13504    TIP3     H2       HT       0.417000       1.00800           0
     62895 TIP3     13505    TIP3     OH2      OT      -0.834000       15.9994           0
     62896 TIP3     13505    TIP3     H1       HT       0.417000       1.00800           0
     62897 TIP3     13505    TIP3     H2       HT       0.417000       1.00800           0
     62898 TIP3     13506    TIP3     OH2      OT      -0.834000       15.9994           0
     62899 TIP3     13506    TIP3     H1       HT       0.417000       1.00800           0
     62900 TIP3     13506    TIP3     H2       HT       0.417000       1.00800           0
     62901 TIP3     13507    TIP3     OH2      OT      -0.834000       15.9994           0
     62902 TIP3     13507    TIP3     H1       HT       0.417000       1.00800           0
     62903 TIP3     13507    TIP3     H2       HT       0.417000       1.00800           0
     62904 TIP3     13508    TIP3     OH2      OT      -0.834000       15.9994           0
     62905 TIP3     13508    TIP3     H1       HT       0.417000       1.00800           0
     62906 TIP3     13508    TIP3     H2       HT       0.417000       1.00800           0
     62907 TIP3     13509    TIP3     OH2      OT      -0.834000       15.9994           0
     62908 TIP3     13509    TIP3     H1       HT       0.417000       1.00800           0
     62909 TIP3     13509    TIP3     H2       HT       0.417000       1.00800           0
     62910 TIP3     13510    TIP3     OH2      OT      -0.834000       15.9994           0
     62911 TIP3     13510    TIP3     H1       HT       0.417000       1.00800           0
     62912 TIP3     13510    TIP3     H2       HT       0.417000       1.00800           0
     62913 TIP3     13511    TIP3     OH2      OT      -0.834000       15.9994           0
     62914 TIP3     13511    TIP3     H1       HT       0.417000       1.00800           0
     62915 TIP3     13511    TIP3     H2       HT       0.417000       1.00800           0
     62916 TIP3     13512    TIP3     OH2      OT      -0.834000       15.9994           0
     62917 TIP3     13512    TIP3     H1       HT       0.417000       1.00800           0
     62918 TIP3     13512    TIP3     H2       HT       0.417000       1.00800           0
     62919 TIP3     13513    TIP3     OH2      OT      -0.834000       15.9994           0
     62920 TIP3     13513    TIP3     H1       HT       0.417000       1.00800           0
     62921 TIP3     13513    TIP3     H2       HT       0.417000       1.00800           0
     62922 TIP3     13514    TIP3     OH2      OT      -0.834000       15.9994           0
     62923 TIP3     13514    TIP3     H1       HT       0.417000       1.00800           0
     62924 TIP3     13514    TIP3     H2       HT       0.417000       1.00800           0
     62925 TIP3     13515    TIP3     OH2      OT      -0.834000       15.9994           0
     62926 TIP3     13515    TIP3     H1       HT       0.417000       1.00800           0
     62927 TIP3     13515    TIP3     H2       HT       0.417000       1.00800           0
     62928 TIP3     13516    TIP3     OH2      OT      -0.834000       15.9994           0
     62929 TIP3     13516    TIP3     H1       HT       0.417000       1.00800           0
     62930 TIP3     13516    TIP3     H2       HT       0.417000       1.00800           0
     62931 TIP3     13517    TIP3     OH2      OT      -0.834000       15.9994           0
     62932 TIP3     13517    TIP3     H1       HT       0.417000       1.00800           0
     62933 TIP3     13517    TIP3     H2       HT       0.417000       1.00800           0
     62934 TIP3     13518    TIP3     OH2      OT      -0.834000       15.9994           0
     62935 TIP3     13518    TIP3     H1       HT       0.417000       1.00800           0
     62936 TIP3     13518    TIP3     H2       HT       0.417000       1.00800           0
     62937 TIP3     13519    TIP3     OH2      OT      -0.834000       15.9994           0
     62938 TIP3     13519    TIP3     H1       HT       0.417000       1.00800           0
     62939 TIP3     13519    TIP3     H2       HT       0.417000       1.00800           0
     62940 TIP3     13520    TIP3     OH2      OT      -0.834000       15.9994           0
     62941 TIP3     13520    TIP3     H1       HT       0.417000       1.00800           0
     62942 TIP3     13520    TIP3     H2       HT       0.417000       1.00800           0
     62943 TIP3     13521    TIP3     OH2      OT      -0.834000       15.9994           0
     62944 TIP3     13521    TIP3     H1       HT       0.417000       1.00800           0
     62945 TIP3     13521    TIP3     H2       HT       0.417000       1.00800           0
     62946 TIP3     13522    TIP3     OH2      OT      -0.834000       15.9994           0
     62947 TIP3     13522    TIP3     H1       HT       0.417000       1.00800           0
     62948 TIP3     13522    TIP3     H2       HT       0.417000       1.00800           0
     62949 TIP3     13523    TIP3     OH2      OT      -0.834000       15.9994           0
     62950 TIP3     13523    TIP3     H1       HT       0.417000       1.00800           0
     62951 TIP3     13523    TIP3     H2       HT       0.417000       1.00800           0
     62952 TIP3     13524    TIP3     OH2      OT      -0.834000       15.9994           0
     62953 TIP3     13524    TIP3     H1       HT       0.417000       1.00800           0
     62954 TIP3     13524    TIP3     H2       HT       0.417000       1.00800           0
     62955 TIP3     13525    TIP3     OH2      OT      -0.834000       15.9994           0
     62956 TIP3     13525    TIP3     H1       HT       0.417000       1.00800           0
     62957 TIP3     13525    TIP3     H2       HT       0.417000       1.00800           0
     62958 TIP3     13526    TIP3     OH2      OT      -0.834000       15.9994           0
     62959 TIP3     13526    TIP3     H1       HT       0.417000       1.00800           0
     62960 TIP3     13526    TIP3     H2       HT       0.417000       1.00800           0
     62961 TIP3     13527    TIP3     OH2      OT      -0.834000       15.9994           0
     62962 TIP3     13527    TIP3     H1       HT       0.417000       1.00800           0
     62963 TIP3     13527    TIP3     H2       HT       0.417000       1.00800           0
     62964 TIP3     13528    TIP3     OH2      OT      -0.834000       15.9994           0
     62965 TIP3     13528    TIP3     H1       HT       0.417000       1.00800           0
     62966 TIP3     13528    TIP3     H2       HT       0.417000       1.00800           0
     62967 TIP3     13529    TIP3     OH2      OT      -0.834000       15.9994           0
     62968 TIP3     13529    TIP3     H1       HT       0.417000       1.00800           0
     62969 TIP3     13529    TIP3     H2       HT       0.417000       1.00800           0
     62970 TIP3     13530    TIP3     OH2      OT      -0.834000       15.9994           0
     62971 TIP3     13530    TIP3     H1       HT       0.417000       1.00800           0
     62972 TIP3     13530    TIP3     H2       HT       0.417000       1.00800           0
     62973 TIP3     13531    TIP3     OH2      OT      -0.834000       15.9994           0
     62974 TIP3     13531    TIP3     H1       HT       0.417000       1.00800           0
     62975 TIP3     13531    TIP3     H2       HT       0.417000       1.00800           0
     62976 TIP3     13532    TIP3     OH2      OT      -0.834000       15.9994           0
     62977 TIP3     13532    TIP3     H1       HT       0.417000       1.00800           0
     62978 TIP3     13532    TIP3     H2       HT       0.417000       1.00800           0
     62979 TIP3     13533    TIP3     OH2      OT      -0.834000       15.9994           0
     62980 TIP3     13533    TIP3     H1       HT       0.417000       1.00800           0
     62981 TIP3     13533    TIP3     H2       HT       0.417000       1.00800           0
     62982 TIP3     13534    TIP3     OH2      OT      -0.834000       15.9994           0
     62983 TIP3     13534    TIP3     H1       HT       0.417000       1.00800           0
     62984 TIP3     13534    TIP3     H2       HT       0.417000       1.00800           0
     62985 TIP3     13535    TIP3     OH2      OT      -0.834000       15.9994           0
     62986 TIP3     13535    TIP3     H1       HT       0.417000       1.00800           0
     62987 TIP3     13535    TIP3     H2       HT       0.417000       1.00800           0
     62988 TIP3     13536    TIP3     OH2      OT      -0.834000       15.9994           0
     62989 TIP3     13536    TIP3     H1       HT       0.417000       1.00800           0
     62990 TIP3     13536    TIP3     H2       HT       0.417000       1.00800           0
     62991 TIP3     13537    TIP3     OH2      OT      -0.834000       15.9994           0
     62992 TIP3     13537    TIP3     H1       HT       0.417000       1.00800           0
     62993 TIP3     13537    TIP3     H2       HT       0.417000       1.00800           0
     62994 TIP3     13538    TIP3     OH2      OT      -0.834000       15.9994           0
     62995 TIP3     13538    TIP3     H1       HT       0.417000       1.00800           0
     62996 TIP3     13538    TIP3     H2       HT       0.417000       1.00800           0
     62997 TIP3     13539    TIP3     OH2      OT      -0.834000       15.9994           0
     62998 TIP3     13539    TIP3     H1       HT       0.417000       1.00800           0
     62999 TIP3     13539    TIP3     H2       HT       0.417000       1.00800           0
     63000 TIP3     13540    TIP3     OH2      OT      -0.834000       15.9994           0
     63001 TIP3     13540    TIP3     H1       HT       0.417000       1.00800           0
     63002 TIP3     13540    TIP3     H2       HT       0.417000       1.00800           0
     63003 TIP3     13541    TIP3     OH2      OT      -0.834000       15.9994           0
     63004 TIP3     13541    TIP3     H1       HT       0.417000       1.00800           0
     63005 TIP3     13541    TIP3     H2       HT       0.417000       1.00800           0
     63006 TIP3     13542    TIP3     OH2      OT      -0.834000       15.9994           0
     63007 TIP3     13542    TIP3     H1       HT       0.417000       1.00800           0
     63008 TIP3     13542    TIP3     H2       HT       0.417000       1.00800           0
     63009 TIP3     13543    TIP3     OH2      OT      -0.834000       15.9994           0
     63010 TIP3     13543    TIP3     H1       HT       0.417000       1.00800           0
     63011 TIP3     13543    TIP3     H2       HT       0.417000       1.00800           0
     63012 TIP3     13544    TIP3     OH2      OT      -0.834000       15.9994           0
     63013 TIP3     13544    TIP3     H1       HT       0.417000       1.00800           0
     63014 TIP3     13544    TIP3     H2       HT       0.417000       1.00800           0
     63015 TIP3     13545    TIP3     OH2      OT      -0.834000       15.9994           0
     63016 TIP3     13545    TIP3     H1       HT       0.417000       1.00800           0
     63017 TIP3     13545    TIP3     H2       HT       0.417000       1.00800           0
     63018 TIP3     13546    TIP3     OH2      OT      -0.834000       15.9994           0
     63019 TIP3     13546    TIP3     H1       HT       0.417000       1.00800           0
     63020 TIP3     13546    TIP3     H2       HT       0.417000       1.00800           0
     63021 TIP3     13547    TIP3     OH2      OT      -0.834000       15.9994           0
     63022 TIP3     13547    TIP3     H1       HT       0.417000       1.00800           0
     63023 TIP3     13547    TIP3     H2       HT       0.417000       1.00800           0
     63024 TIP3     13548    TIP3     OH2      OT      -0.834000       15.9994           0
     63025 TIP3     13548    TIP3     H1       HT       0.417000       1.00800           0
     63026 TIP3     13548    TIP3     H2       HT       0.417000       1.00800           0
     63027 TIP3     13549    TIP3     OH2      OT      -0.834000       15.9994           0
     63028 TIP3     13549    TIP3     H1       HT       0.417000       1.00800           0
     63029 TIP3     13549    TIP3     H2       HT       0.417000       1.00800           0
     63030 TIP3     13550    TIP3     OH2      OT      -0.834000       15.9994           0
     63031 TIP3     13550    TIP3     H1       HT       0.417000       1.00800           0
     63032 TIP3     13550    TIP3     H2       HT       0.417000       1.00800           0
     63033 TIP3     13551    TIP3     OH2      OT      -0.834000       15.9994           0
     63034 TIP3     13551    TIP3     H1       HT       0.417000       1.00800           0
     63035 TIP3     13551    TIP3     H2       HT       0.417000       1.00800           0
     63036 TIP3     13552    TIP3     OH2      OT      -0.834000       15.9994           0
     63037 TIP3     13552    TIP3     H1       HT       0.417000       1.00800           0
     63038 TIP3     13552    TIP3     H2       HT       0.417000       1.00800           0
     63039 TIP3     13553    TIP3     OH2      OT      -0.834000       15.9994           0
     63040 TIP3     13553    TIP3     H1       HT       0.417000       1.00800           0
     63041 TIP3     13553    TIP3     H2       HT       0.417000       1.00800           0
     63042 TIP3     13554    TIP3     OH2      OT      -0.834000       15.9994           0
     63043 TIP3     13554    TIP3     H1       HT       0.417000       1.00800           0
     63044 TIP3     13554    TIP3     H2       HT       0.417000       1.00800           0
     63045 TIP3     13555    TIP3     OH2      OT      -0.834000       15.9994           0
     63046 TIP3     13555    TIP3     H1       HT       0.417000       1.00800           0
     63047 TIP3     13555    TIP3     H2       HT       0.417000       1.00800           0
     63048 TIP3     13556    TIP3     OH2      OT      -0.834000       15.9994           0
     63049 TIP3     13556    TIP3     H1       HT       0.417000       1.00800           0
     63050 TIP3     13556    TIP3     H2       HT       0.417000       1.00800           0
     63051 TIP3     13557    TIP3     OH2      OT      -0.834000       15.9994           0
     63052 TIP3     13557    TIP3     H1       HT       0.417000       1.00800           0
     63053 TIP3     13557    TIP3     H2       HT       0.417000       1.00800           0
     63054 TIP3     13558    TIP3     OH2      OT      -0.834000       15.9994           0
     63055 TIP3     13558    TIP3     H1       HT       0.417000       1.00800           0
     63056 TIP3     13558    TIP3     H2       HT       0.417000       1.00800           0
     63057 TIP3     13559    TIP3     OH2      OT      -0.834000       15.9994           0
     63058 TIP3     13559    TIP3     H1       HT       0.417000       1.00800           0
     63059 TIP3     13559    TIP3     H2       HT       0.417000       1.00800           0
     63060 TIP3     13560    TIP3     OH2      OT      -0.834000       15.9994           0
     63061 TIP3     13560    TIP3     H1       HT       0.417000       1.00800           0
     63062 TIP3     13560    TIP3     H2       HT       0.417000       1.00800           0
     63063 TIP3     13561    TIP3     OH2      OT      -0.834000       15.9994           0
     63064 TIP3     13561    TIP3     H1       HT       0.417000       1.00800           0
     63065 TIP3     13561    TIP3     H2       HT       0.417000       1.00800           0
     63066 TIP3     13562    TIP3     OH2      OT      -0.834000       15.9994           0
     63067 TIP3     13562    TIP3     H1       HT       0.417000       1.00800           0
     63068 TIP3     13562    TIP3     H2       HT       0.417000       1.00800           0
     63069 TIP3     13563    TIP3     OH2      OT      -0.834000       15.9994           0
     63070 TIP3     13563    TIP3     H1       HT       0.417000       1.00800           0
     63071 TIP3     13563    TIP3     H2       HT       0.417000       1.00800           0
     63072 TIP3     13564    TIP3     OH2      OT      -0.834000       15.9994           0
     63073 TIP3     13564    TIP3     H1       HT       0.417000       1.00800           0
     63074 TIP3     13564    TIP3     H2       HT       0.417000       1.00800           0
     63075 TIP3     13565    TIP3     OH2      OT      -0.834000       15.9994           0
     63076 TIP3     13565    TIP3     H1       HT       0.417000       1.00800           0
     63077 TIP3     13565    TIP3     H2       HT       0.417000       1.00800           0
     63078 TIP3     13566    TIP3     OH2      OT      -0.834000       15.9994           0
     63079 TIP3     13566    TIP3     H1       HT       0.417000       1.00800           0
     63080 TIP3     13566    TIP3     H2       HT       0.417000       1.00800           0
     63081 TIP3     13567    TIP3     OH2      OT      -0.834000       15.9994           0
     63082 TIP3     13567    TIP3     H1       HT       0.417000       1.00800           0
     63083 TIP3     13567    TIP3     H2       HT       0.417000       1.00800           0
     63084 TIP3     13568    TIP3     OH2      OT      -0.834000       15.9994           0
     63085 TIP3     13568    TIP3     H1       HT       0.417000       1.00800           0
     63086 TIP3     13568    TIP3     H2       HT       0.417000       1.00800           0
     63087 TIP3     13569    TIP3     OH2      OT      -0.834000       15.9994           0
     63088 TIP3     13569    TIP3     H1       HT       0.417000       1.00800           0
     63089 TIP3     13569    TIP3     H2       HT       0.417000       1.00800           0
     63090 TIP3     13570    TIP3     OH2      OT      -0.834000       15.9994           0
     63091 TIP3     13570    TIP3     H1       HT       0.417000       1.00800           0
     63092 TIP3     13570    TIP3     H2       HT       0.417000       1.00800           0
     63093 TIP3     13571    TIP3     OH2      OT      -0.834000       15.9994           0
     63094 TIP3     13571    TIP3     H1       HT       0.417000       1.00800           0
     63095 TIP3     13571    TIP3     H2       HT       0.417000       1.00800           0
     63096 TIP3     13572    TIP3     OH2      OT      -0.834000       15.9994           0
     63097 TIP3     13572    TIP3     H1       HT       0.417000       1.00800           0
     63098 TIP3     13572    TIP3     H2       HT       0.417000       1.00800           0
     63099 TIP3     13573    TIP3     OH2      OT      -0.834000       15.9994           0
     63100 TIP3     13573    TIP3     H1       HT       0.417000       1.00800           0
     63101 TIP3     13573    TIP3     H2       HT       0.417000       1.00800           0
     63102 TIP3     13574    TIP3     OH2      OT      -0.834000       15.9994           0
     63103 TIP3     13574    TIP3     H1       HT       0.417000       1.00800           0
     63104 TIP3     13574    TIP3     H2       HT       0.417000       1.00800           0
     63105 TIP3     13575    TIP3     OH2      OT      -0.834000       15.9994           0
     63106 TIP3     13575    TIP3     H1       HT       0.417000       1.00800           0
     63107 TIP3     13575    TIP3     H2       HT       0.417000       1.00800           0
     63108 TIP3     13576    TIP3     OH2      OT      -0.834000       15.9994           0
     63109 TIP3     13576    TIP3     H1       HT       0.417000       1.00800           0
     63110 TIP3     13576    TIP3     H2       HT       0.417000       1.00800           0
     63111 TIP3     13577    TIP3     OH2      OT      -0.834000       15.9994           0
     63112 TIP3     13577    TIP3     H1       HT       0.417000       1.00800           0
     63113 TIP3     13577    TIP3     H2       HT       0.417000       1.00800           0
     63114 TIP3     13578    TIP3     OH2      OT      -0.834000       15.9994           0
     63115 TIP3     13578    TIP3     H1       HT       0.417000       1.00800           0
     63116 TIP3     13578    TIP3     H2       HT       0.417000       1.00800           0
     63117 TIP3     13579    TIP3     OH2      OT      -0.834000       15.9994           0
     63118 TIP3     13579    TIP3     H1       HT       0.417000       1.00800           0
     63119 TIP3     13579    TIP3     H2       HT       0.417000       1.00800           0
     63120 TIP3     13580    TIP3     OH2      OT      -0.834000       15.9994           0
     63121 TIP3     13580    TIP3     H1       HT       0.417000       1.00800           0
     63122 TIP3     13580    TIP3     H2       HT       0.417000       1.00800           0
     63123 TIP3     13581    TIP3     OH2      OT      -0.834000       15.9994           0
     63124 TIP3     13581    TIP3     H1       HT       0.417000       1.00800           0
     63125 TIP3     13581    TIP3     H2       HT       0.417000       1.00800           0
     63126 TIP3     13582    TIP3     OH2      OT      -0.834000       15.9994           0
     63127 TIP3     13582    TIP3     H1       HT       0.417000       1.00800           0
     63128 TIP3     13582    TIP3     H2       HT       0.417000       1.00800           0
     63129 TIP3     13583    TIP3     OH2      OT      -0.834000       15.9994           0
     63130 TIP3     13583    TIP3     H1       HT       0.417000       1.00800           0
     63131 TIP3     13583    TIP3     H2       HT       0.417000       1.00800           0
     63132 TIP3     13584    TIP3     OH2      OT      -0.834000       15.9994           0
     63133 TIP3     13584    TIP3     H1       HT       0.417000       1.00800           0
     63134 TIP3     13584    TIP3     H2       HT       0.417000       1.00800           0
     63135 TIP3     13585    TIP3     OH2      OT      -0.834000       15.9994           0
     63136 TIP3     13585    TIP3     H1       HT       0.417000       1.00800           0
     63137 TIP3     13585    TIP3     H2       HT       0.417000       1.00800           0
     63138 TIP3     13586    TIP3     OH2      OT      -0.834000       15.9994           0
     63139 TIP3     13586    TIP3     H1       HT       0.417000       1.00800           0
     63140 TIP3     13586    TIP3     H2       HT       0.417000       1.00800           0
     63141 TIP3     13587    TIP3     OH2      OT      -0.834000       15.9994           0
     63142 TIP3     13587    TIP3     H1       HT       0.417000       1.00800           0
     63143 TIP3     13587    TIP3     H2       HT       0.417000       1.00800           0
     63144 TIP3     13588    TIP3     OH2      OT      -0.834000       15.9994           0
     63145 TIP3     13588    TIP3     H1       HT       0.417000       1.00800           0
     63146 TIP3     13588    TIP3     H2       HT       0.417000       1.00800           0
     63147 TIP3     13589    TIP3     OH2      OT      -0.834000       15.9994           0
     63148 TIP3     13589    TIP3     H1       HT       0.417000       1.00800           0
     63149 TIP3     13589    TIP3     H2       HT       0.417000       1.00800           0
     63150 TIP3     13590    TIP3     OH2      OT      -0.834000       15.9994           0
     63151 TIP3     13590    TIP3     H1       HT       0.417000       1.00800           0
     63152 TIP3     13590    TIP3     H2       HT       0.417000       1.00800           0
     63153 TIP3     13591    TIP3     OH2      OT      -0.834000       15.9994           0
     63154 TIP3     13591    TIP3     H1       HT       0.417000       1.00800           0
     63155 TIP3     13591    TIP3     H2       HT       0.417000       1.00800           0
     63156 TIP3     13592    TIP3     OH2      OT      -0.834000       15.9994           0
     63157 TIP3     13592    TIP3     H1       HT       0.417000       1.00800           0
     63158 TIP3     13592    TIP3     H2       HT       0.417000       1.00800           0
     63159 TIP3     13593    TIP3     OH2      OT      -0.834000       15.9994           0
     63160 TIP3     13593    TIP3     H1       HT       0.417000       1.00800           0
     63161 TIP3     13593    TIP3     H2       HT       0.417000       1.00800           0
     63162 TIP3     13594    TIP3     OH2      OT      -0.834000       15.9994           0
     63163 TIP3     13594    TIP3     H1       HT       0.417000       1.00800           0
     63164 TIP3     13594    TIP3     H2       HT       0.417000       1.00800           0
     63165 TIP3     13595    TIP3     OH2      OT      -0.834000       15.9994           0
     63166 TIP3     13595    TIP3     H1       HT       0.417000       1.00800           0
     63167 TIP3     13595    TIP3     H2       HT       0.417000       1.00800           0
     63168 TIP3     13596    TIP3     OH2      OT      -0.834000       15.9994           0
     63169 TIP3     13596    TIP3     H1       HT       0.417000       1.00800           0
     63170 TIP3     13596    TIP3     H2       HT       0.417000       1.00800           0
     63171 TIP3     13597    TIP3     OH2      OT      -0.834000       15.9994           0
     63172 TIP3     13597    TIP3     H1       HT       0.417000       1.00800           0
     63173 TIP3     13597    TIP3     H2       HT       0.417000       1.00800           0
     63174 TIP3     13598    TIP3     OH2      OT      -0.834000       15.9994           0
     63175 TIP3     13598    TIP3     H1       HT       0.417000       1.00800           0
     63176 TIP3     13598    TIP3     H2       HT       0.417000       1.00800           0
     63177 TIP3     13599    TIP3     OH2      OT      -0.834000       15.9994           0
     63178 TIP3     13599    TIP3     H1       HT       0.417000       1.00800           0
     63179 TIP3     13599    TIP3     H2       HT       0.417000       1.00800           0
     63180 TIP3     13600    TIP3     OH2      OT      -0.834000       15.9994           0
     63181 TIP3     13600    TIP3     H1       HT       0.417000       1.00800           0
     63182 TIP3     13600    TIP3     H2       HT       0.417000       1.00800           0
     63183 TIP3     13601    TIP3     OH2      OT      -0.834000       15.9994           0
     63184 TIP3     13601    TIP3     H1       HT       0.417000       1.00800           0
     63185 TIP3     13601    TIP3     H2       HT       0.417000       1.00800           0
     63186 TIP3     13602    TIP3     OH2      OT      -0.834000       15.9994           0
     63187 TIP3     13602    TIP3     H1       HT       0.417000       1.00800           0
     63188 TIP3     13602    TIP3     H2       HT       0.417000       1.00800           0
     63189 TIP3     13603    TIP3     OH2      OT      -0.834000       15.9994           0
     63190 TIP3     13603    TIP3     H1       HT       0.417000       1.00800           0
     63191 TIP3     13603    TIP3     H2       HT       0.417000       1.00800           0
     63192 TIP3     13604    TIP3     OH2      OT      -0.834000       15.9994           0
     63193 TIP3     13604    TIP3     H1       HT       0.417000       1.00800           0
     63194 TIP3     13604    TIP3     H2       HT       0.417000       1.00800           0
     63195 TIP3     13605    TIP3     OH2      OT      -0.834000       15.9994           0
     63196 TIP3     13605    TIP3     H1       HT       0.417000       1.00800           0
     63197 TIP3     13605    TIP3     H2       HT       0.417000       1.00800           0
     63198 TIP3     13606    TIP3     OH2      OT      -0.834000       15.9994           0
     63199 TIP3     13606    TIP3     H1       HT       0.417000       1.00800           0
     63200 TIP3     13606    TIP3     H2       HT       0.417000       1.00800           0
     63201 TIP3     13607    TIP3     OH2      OT      -0.834000       15.9994           0
     63202 TIP3     13607    TIP3     H1       HT       0.417000       1.00800           0
     63203 TIP3     13607    TIP3     H2       HT       0.417000       1.00800           0
     63204 TIP3     13608    TIP3     OH2      OT      -0.834000       15.9994           0
     63205 TIP3     13608    TIP3     H1       HT       0.417000       1.00800           0
     63206 TIP3     13608    TIP3     H2       HT       0.417000       1.00800           0
     63207 TIP3     13609    TIP3     OH2      OT      -0.834000       15.9994           0
     63208 TIP3     13609    TIP3     H1       HT       0.417000       1.00800           0
     63209 TIP3     13609    TIP3     H2       HT       0.417000       1.00800           0
     63210 TIP3     13610    TIP3     OH2      OT      -0.834000       15.9994           0
     63211 TIP3     13610    TIP3     H1       HT       0.417000       1.00800           0
     63212 TIP3     13610    TIP3     H2       HT       0.417000       1.00800           0
     63213 TIP3     13611    TIP3     OH2      OT      -0.834000       15.9994           0
     63214 TIP3     13611    TIP3     H1       HT       0.417000       1.00800           0
     63215 TIP3     13611    TIP3     H2       HT       0.417000       1.00800           0
     63216 TIP3     13612    TIP3     OH2      OT      -0.834000       15.9994           0
     63217 TIP3     13612    TIP3     H1       HT       0.417000       1.00800           0
     63218 TIP3     13612    TIP3     H2       HT       0.417000       1.00800           0
     63219 TIP3     13613    TIP3     OH2      OT      -0.834000       15.9994           0
     63220 TIP3     13613    TIP3     H1       HT       0.417000       1.00800           0
     63221 TIP3     13613    TIP3     H2       HT       0.417000       1.00800           0
     63222 TIP3     13614    TIP3     OH2      OT      -0.834000       15.9994           0
     63223 TIP3     13614    TIP3     H1       HT       0.417000       1.00800           0
     63224 TIP3     13614    TIP3     H2       HT       0.417000       1.00800           0
     63225 TIP3     13615    TIP3     OH2      OT      -0.834000       15.9994           0
     63226 TIP3     13615    TIP3     H1       HT       0.417000       1.00800           0
     63227 TIP3     13615    TIP3     H2       HT       0.417000       1.00800           0
     63228 TIP3     13616    TIP3     OH2      OT      -0.834000       15.9994           0
     63229 TIP3     13616    TIP3     H1       HT       0.417000       1.00800           0
     63230 TIP3     13616    TIP3     H2       HT       0.417000       1.00800           0
     63231 TIP3     13617    TIP3     OH2      OT      -0.834000       15.9994           0
     63232 TIP3     13617    TIP3     H1       HT       0.417000       1.00800           0
     63233 TIP3     13617    TIP3     H2       HT       0.417000       1.00800           0
     63234 TIP3     13618    TIP3     OH2      OT      -0.834000       15.9994           0
     63235 TIP3     13618    TIP3     H1       HT       0.417000       1.00800           0
     63236 TIP3     13618    TIP3     H2       HT       0.417000       1.00800           0
     63237 TIP3     13619    TIP3     OH2      OT      -0.834000       15.9994           0
     63238 TIP3     13619    TIP3     H1       HT       0.417000       1.00800           0
     63239 TIP3     13619    TIP3     H2       HT       0.417000       1.00800           0
     63240 TIP3     13620    TIP3     OH2      OT      -0.834000       15.9994           0
     63241 TIP3     13620    TIP3     H1       HT       0.417000       1.00800           0
     63242 TIP3     13620    TIP3     H2       HT       0.417000       1.00800           0
     63243 TIP3     13621    TIP3     OH2      OT      -0.834000       15.9994           0
     63244 TIP3     13621    TIP3     H1       HT       0.417000       1.00800           0
     63245 TIP3     13621    TIP3     H2       HT       0.417000       1.00800           0
     63246 TIP3     13622    TIP3     OH2      OT      -0.834000       15.9994           0
     63247 TIP3     13622    TIP3     H1       HT       0.417000       1.00800           0
     63248 TIP3     13622    TIP3     H2       HT       0.417000       1.00800           0
     63249 TIP3     13623    TIP3     OH2      OT      -0.834000       15.9994           0
     63250 TIP3     13623    TIP3     H1       HT       0.417000       1.00800           0
     63251 TIP3     13623    TIP3     H2       HT       0.417000       1.00800           0
     63252 TIP3     13624    TIP3     OH2      OT      -0.834000       15.9994           0
     63253 TIP3     13624    TIP3     H1       HT       0.417000       1.00800           0
     63254 TIP3     13624    TIP3     H2       HT       0.417000       1.00800           0
     63255 TIP3     13625    TIP3     OH2      OT      -0.834000       15.9994           0
     63256 TIP3     13625    TIP3     H1       HT       0.417000       1.00800           0
     63257 TIP3     13625    TIP3     H2       HT       0.417000       1.00800           0
     63258 TIP3     13626    TIP3     OH2      OT      -0.834000       15.9994           0
     63259 TIP3     13626    TIP3     H1       HT       0.417000       1.00800           0
     63260 TIP3     13626    TIP3     H2       HT       0.417000       1.00800           0
     63261 TIP3     13627    TIP3     OH2      OT      -0.834000       15.9994           0
     63262 TIP3     13627    TIP3     H1       HT       0.417000       1.00800           0
     63263 TIP3     13627    TIP3     H2       HT       0.417000       1.00800           0
     63264 TIP3     13628    TIP3     OH2      OT      -0.834000       15.9994           0
     63265 TIP3     13628    TIP3     H1       HT       0.417000       1.00800           0
     63266 TIP3     13628    TIP3     H2       HT       0.417000       1.00800           0
     63267 TIP3     13629    TIP3     OH2      OT      -0.834000       15.9994           0
     63268 TIP3     13629    TIP3     H1       HT       0.417000       1.00800           0
     63269 TIP3     13629    TIP3     H2       HT       0.417000       1.00800           0
     63270 TIP3     13630    TIP3     OH2      OT      -0.834000       15.9994           0
     63271 TIP3     13630    TIP3     H1       HT       0.417000       1.00800           0
     63272 TIP3     13630    TIP3     H2       HT       0.417000       1.00800           0
     63273 TIP3     13631    TIP3     OH2      OT      -0.834000       15.9994           0
     63274 TIP3     13631    TIP3     H1       HT       0.417000       1.00800           0
     63275 TIP3     13631    TIP3     H2       HT       0.417000       1.00800           0
     63276 TIP3     13632    TIP3     OH2      OT      -0.834000       15.9994           0
     63277 TIP3     13632    TIP3     H1       HT       0.417000       1.00800           0
     63278 TIP3     13632    TIP3     H2       HT       0.417000       1.00800           0
     63279 TIP3     13633    TIP3     OH2      OT      -0.834000       15.9994           0
     63280 TIP3     13633    TIP3     H1       HT       0.417000       1.00800           0
     63281 TIP3     13633    TIP3     H2       HT       0.417000       1.00800           0
     63282 TIP3     13634    TIP3     OH2      OT      -0.834000       15.9994           0
     63283 TIP3     13634    TIP3     H1       HT       0.417000       1.00800           0
     63284 TIP3     13634    TIP3     H2       HT       0.417000       1.00800           0
     63285 TIP3     13635    TIP3     OH2      OT      -0.834000       15.9994           0
     63286 TIP3     13635    TIP3     H1       HT       0.417000       1.00800           0
     63287 TIP3     13635    TIP3     H2       HT       0.417000       1.00800           0
     63288 TIP3     13636    TIP3     OH2      OT      -0.834000       15.9994           0
     63289 TIP3     13636    TIP3     H1       HT       0.417000       1.00800           0
     63290 TIP3     13636    TIP3     H2       HT       0.417000       1.00800           0
     63291 TIP3     13637    TIP3     OH2      OT      -0.834000       15.9994           0
     63292 TIP3     13637    TIP3     H1       HT       0.417000       1.00800           0
     63293 TIP3     13637    TIP3     H2       HT       0.417000       1.00800           0
     63294 TIP3     13638    TIP3     OH2      OT      -0.834000       15.9994           0
     63295 TIP3     13638    TIP3     H1       HT       0.417000       1.00800           0
     63296 TIP3     13638    TIP3     H2       HT       0.417000       1.00800           0
     63297 TIP3     13639    TIP3     OH2      OT      -0.834000       15.9994           0
     63298 TIP3     13639    TIP3     H1       HT       0.417000       1.00800           0
     63299 TIP3     13639    TIP3     H2       HT       0.417000       1.00800           0
     63300 TIP3     13640    TIP3     OH2      OT      -0.834000       15.9994           0
     63301 TIP3     13640    TIP3     H1       HT       0.417000       1.00800           0
     63302 TIP3     13640    TIP3     H2       HT       0.417000       1.00800           0
     63303 TIP3     13641    TIP3     OH2      OT      -0.834000       15.9994           0
     63304 TIP3     13641    TIP3     H1       HT       0.417000       1.00800           0
     63305 TIP3     13641    TIP3     H2       HT       0.417000       1.00800           0
     63306 TIP3     13642    TIP3     OH2      OT      -0.834000       15.9994           0
     63307 TIP3     13642    TIP3     H1       HT       0.417000       1.00800           0
     63308 TIP3     13642    TIP3     H2       HT       0.417000       1.00800           0
     63309 TIP3     13643    TIP3     OH2      OT      -0.834000       15.9994           0
     63310 TIP3     13643    TIP3     H1       HT       0.417000       1.00800           0
     63311 TIP3     13643    TIP3     H2       HT       0.417000       1.00800           0
     63312 TIP3     13644    TIP3     OH2      OT      -0.834000       15.9994           0
     63313 TIP3     13644    TIP3     H1       HT       0.417000       1.00800           0
     63314 TIP3     13644    TIP3     H2       HT       0.417000       1.00800           0
     63315 TIP3     13645    TIP3     OH2      OT      -0.834000       15.9994           0
     63316 TIP3     13645    TIP3     H1       HT       0.417000       1.00800           0
     63317 TIP3     13645    TIP3     H2       HT       0.417000       1.00800           0
     63318 TIP3     13646    TIP3     OH2      OT      -0.834000       15.9994           0
     63319 TIP3     13646    TIP3     H1       HT       0.417000       1.00800           0
     63320 TIP3     13646    TIP3     H2       HT       0.417000       1.00800           0
     63321 TIP3     13647    TIP3     OH2      OT      -0.834000       15.9994           0
     63322 TIP3     13647    TIP3     H1       HT       0.417000       1.00800           0
     63323 TIP3     13647    TIP3     H2       HT       0.417000       1.00800           0
     63324 TIP3     13648    TIP3     OH2      OT      -0.834000       15.9994           0
     63325 TIP3     13648    TIP3     H1       HT       0.417000       1.00800           0
     63326 TIP3     13648    TIP3     H2       HT       0.417000       1.00800           0
     63327 TIP3     13649    TIP3     OH2      OT      -0.834000       15.9994           0
     63328 TIP3     13649    TIP3     H1       HT       0.417000       1.00800           0
     63329 TIP3     13649    TIP3     H2       HT       0.417000       1.00800           0
     63330 TIP3     13650    TIP3     OH2      OT      -0.834000       15.9994           0
     63331 TIP3     13650    TIP3     H1       HT       0.417000       1.00800           0
     63332 TIP3     13650    TIP3     H2       HT       0.417000       1.00800           0
     63333 TIP3     13651    TIP3     OH2      OT      -0.834000       15.9994           0
     63334 TIP3     13651    TIP3     H1       HT       0.417000       1.00800           0
     63335 TIP3     13651    TIP3     H2       HT       0.417000       1.00800           0
     63336 TIP3     13652    TIP3     OH2      OT      -0.834000       15.9994           0
     63337 TIP3     13652    TIP3     H1       HT       0.417000       1.00800           0
     63338 TIP3     13652    TIP3     H2       HT       0.417000       1.00800           0
     63339 TIP3     13653    TIP3     OH2      OT      -0.834000       15.9994           0
     63340 TIP3     13653    TIP3     H1       HT       0.417000       1.00800           0
     63341 TIP3     13653    TIP3     H2       HT       0.417000       1.00800           0
     63342 TIP3     13654    TIP3     OH2      OT      -0.834000       15.9994           0
     63343 TIP3     13654    TIP3     H1       HT       0.417000       1.00800           0
     63344 TIP3     13654    TIP3     H2       HT       0.417000       1.00800           0
     63345 TIP3     13655    TIP3     OH2      OT      -0.834000       15.9994           0
     63346 TIP3     13655    TIP3     H1       HT       0.417000       1.00800           0
     63347 TIP3     13655    TIP3     H2       HT       0.417000       1.00800           0
     63348 TIP3     13656    TIP3     OH2      OT      -0.834000       15.9994           0
     63349 TIP3     13656    TIP3     H1       HT       0.417000       1.00800           0
     63350 TIP3     13656    TIP3     H2       HT       0.417000       1.00800           0
     63351 TIP3     13657    TIP3     OH2      OT      -0.834000       15.9994           0
     63352 TIP3     13657    TIP3     H1       HT       0.417000       1.00800           0
     63353 TIP3     13657    TIP3     H2       HT       0.417000       1.00800           0
     63354 TIP3     13658    TIP3     OH2      OT      -0.834000       15.9994           0
     63355 TIP3     13658    TIP3     H1       HT       0.417000       1.00800           0
     63356 TIP3     13658    TIP3     H2       HT       0.417000       1.00800           0
     63357 TIP3     13659    TIP3     OH2      OT      -0.834000       15.9994           0
     63358 TIP3     13659    TIP3     H1       HT       0.417000       1.00800           0
     63359 TIP3     13659    TIP3     H2       HT       0.417000       1.00800           0
     63360 TIP3     13660    TIP3     OH2      OT      -0.834000       15.9994           0
     63361 TIP3     13660    TIP3     H1       HT       0.417000       1.00800           0
     63362 TIP3     13660    TIP3     H2       HT       0.417000       1.00800           0
     63363 TIP3     13661    TIP3     OH2      OT      -0.834000       15.9994           0
     63364 TIP3     13661    TIP3     H1       HT       0.417000       1.00800           0
     63365 TIP3     13661    TIP3     H2       HT       0.417000       1.00800           0
     63366 TIP3     13662    TIP3     OH2      OT      -0.834000       15.9994           0
     63367 TIP3     13662    TIP3     H1       HT       0.417000       1.00800           0
     63368 TIP3     13662    TIP3     H2       HT       0.417000       1.00800           0
     63369 TIP3     13663    TIP3     OH2      OT      -0.834000       15.9994           0
     63370 TIP3     13663    TIP3     H1       HT       0.417000       1.00800           0
     63371 TIP3     13663    TIP3     H2       HT       0.417000       1.00800           0
     63372 TIP3     13664    TIP3     OH2      OT      -0.834000       15.9994           0
     63373 TIP3     13664    TIP3     H1       HT       0.417000       1.00800           0
     63374 TIP3     13664    TIP3     H2       HT       0.417000       1.00800           0
     63375 TIP3     13665    TIP3     OH2      OT      -0.834000       15.9994           0
     63376 TIP3     13665    TIP3     H1       HT       0.417000       1.00800           0
     63377 TIP3     13665    TIP3     H2       HT       0.417000       1.00800           0
     63378 TIP3     13666    TIP3     OH2      OT      -0.834000       15.9994           0
     63379 TIP3     13666    TIP3     H1       HT       0.417000       1.00800           0
     63380 TIP3     13666    TIP3     H2       HT       0.417000       1.00800           0
     63381 TIP3     13667    TIP3     OH2      OT      -0.834000       15.9994           0
     63382 TIP3     13667    TIP3     H1       HT       0.417000       1.00800           0
     63383 TIP3     13667    TIP3     H2       HT       0.417000       1.00800           0
     63384 TIP3     13668    TIP3     OH2      OT      -0.834000       15.9994           0
     63385 TIP3     13668    TIP3     H1       HT       0.417000       1.00800           0
     63386 TIP3     13668    TIP3     H2       HT       0.417000       1.00800           0
     63387 TIP3     13669    TIP3     OH2      OT      -0.834000       15.9994           0
     63388 TIP3     13669    TIP3     H1       HT       0.417000       1.00800           0
     63389 TIP3     13669    TIP3     H2       HT       0.417000       1.00800           0
     63390 TIP3     13670    TIP3     OH2      OT      -0.834000       15.9994           0
     63391 TIP3     13670    TIP3     H1       HT       0.417000       1.00800           0
     63392 TIP3     13670    TIP3     H2       HT       0.417000       1.00800           0
     63393 TIP3     13671    TIP3     OH2      OT      -0.834000       15.9994           0
     63394 TIP3     13671    TIP3     H1       HT       0.417000       1.00800           0
     63395 TIP3     13671    TIP3     H2       HT       0.417000       1.00800           0
     63396 TIP3     13672    TIP3     OH2      OT      -0.834000       15.9994           0
     63397 TIP3     13672    TIP3     H1       HT       0.417000       1.00800           0
     63398 TIP3     13672    TIP3     H2       HT       0.417000       1.00800           0
     63399 TIP3     13673    TIP3     OH2      OT      -0.834000       15.9994           0
     63400 TIP3     13673    TIP3     H1       HT       0.417000       1.00800           0
     63401 TIP3     13673    TIP3     H2       HT       0.417000       1.00800           0
     63402 TIP3     13674    TIP3     OH2      OT      -0.834000       15.9994           0
     63403 TIP3     13674    TIP3     H1       HT       0.417000       1.00800           0
     63404 TIP3     13674    TIP3     H2       HT       0.417000       1.00800           0
     63405 TIP3     13675    TIP3     OH2      OT      -0.834000       15.9994           0
     63406 TIP3     13675    TIP3     H1       HT       0.417000       1.00800           0
     63407 TIP3     13675    TIP3     H2       HT       0.417000       1.00800           0
     63408 TIP3     13676    TIP3     OH2      OT      -0.834000       15.9994           0
     63409 TIP3     13676    TIP3     H1       HT       0.417000       1.00800           0
     63410 TIP3     13676    TIP3     H2       HT       0.417000       1.00800           0
     63411 TIP3     13677    TIP3     OH2      OT      -0.834000       15.9994           0
     63412 TIP3     13677    TIP3     H1       HT       0.417000       1.00800           0
     63413 TIP3     13677    TIP3     H2       HT       0.417000       1.00800           0
     63414 TIP3     13678    TIP3     OH2      OT      -0.834000       15.9994           0
     63415 TIP3     13678    TIP3     H1       HT       0.417000       1.00800           0
     63416 TIP3     13678    TIP3     H2       HT       0.417000       1.00800           0
     63417 TIP3     13679    TIP3     OH2      OT      -0.834000       15.9994           0
     63418 TIP3     13679    TIP3     H1       HT       0.417000       1.00800           0
     63419 TIP3     13679    TIP3     H2       HT       0.417000       1.00800           0
     63420 TIP3     13680    TIP3     OH2      OT      -0.834000       15.9994           0
     63421 TIP3     13680    TIP3     H1       HT       0.417000       1.00800           0
     63422 TIP3     13680    TIP3     H2       HT       0.417000       1.00800           0
     63423 TIP3     13681    TIP3     OH2      OT      -0.834000       15.9994           0
     63424 TIP3     13681    TIP3     H1       HT       0.417000       1.00800           0
     63425 TIP3     13681    TIP3     H2       HT       0.417000       1.00800           0
     63426 TIP3     13682    TIP3     OH2      OT      -0.834000       15.9994           0
     63427 TIP3     13682    TIP3     H1       HT       0.417000       1.00800           0
     63428 TIP3     13682    TIP3     H2       HT       0.417000       1.00800           0
     63429 TIP3     13683    TIP3     OH2      OT      -0.834000       15.9994           0
     63430 TIP3     13683    TIP3     H1       HT       0.417000       1.00800           0
     63431 TIP3     13683    TIP3     H2       HT       0.417000       1.00800           0
     63432 TIP3     13684    TIP3     OH2      OT      -0.834000       15.9994           0
     63433 TIP3     13684    TIP3     H1       HT       0.417000       1.00800           0
     63434 TIP3     13684    TIP3     H2       HT       0.417000       1.00800           0
     63435 TIP3     13685    TIP3     OH2      OT      -0.834000       15.9994           0
     63436 TIP3     13685    TIP3     H1       HT       0.417000       1.00800           0
     63437 TIP3     13685    TIP3     H2       HT       0.417000       1.00800           0
     63438 TIP3     13686    TIP3     OH2      OT      -0.834000       15.9994           0
     63439 TIP3     13686    TIP3     H1       HT       0.417000       1.00800           0
     63440 TIP3     13686    TIP3     H2       HT       0.417000       1.00800           0
     63441 TIP3     13687    TIP3     OH2      OT      -0.834000       15.9994           0
     63442 TIP3     13687    TIP3     H1       HT       0.417000       1.00800           0
     63443 TIP3     13687    TIP3     H2       HT       0.417000       1.00800           0
     63444 TIP3     13688    TIP3     OH2      OT      -0.834000       15.9994           0
     63445 TIP3     13688    TIP3     H1       HT       0.417000       1.00800           0
     63446 TIP3     13688    TIP3     H2       HT       0.417000       1.00800           0
     63447 TIP3     13689    TIP3     OH2      OT      -0.834000       15.9994           0
     63448 TIP3     13689    TIP3     H1       HT       0.417000       1.00800           0
     63449 TIP3     13689    TIP3     H2       HT       0.417000       1.00800           0
     63450 TIP3     13690    TIP3     OH2      OT      -0.834000       15.9994           0
     63451 TIP3     13690    TIP3     H1       HT       0.417000       1.00800           0
     63452 TIP3     13690    TIP3     H2       HT       0.417000       1.00800           0
     63453 TIP3     13691    TIP3     OH2      OT      -0.834000       15.9994           0
     63454 TIP3     13691    TIP3     H1       HT       0.417000       1.00800           0
     63455 TIP3     13691    TIP3     H2       HT       0.417000       1.00800           0
     63456 TIP3     13692    TIP3     OH2      OT      -0.834000       15.9994           0
     63457 TIP3     13692    TIP3     H1       HT       0.417000       1.00800           0
     63458 TIP3     13692    TIP3     H2       HT       0.417000       1.00800           0
     63459 TIP3     13693    TIP3     OH2      OT      -0.834000       15.9994           0
     63460 TIP3     13693    TIP3     H1       HT       0.417000       1.00800           0
     63461 TIP3     13693    TIP3     H2       HT       0.417000       1.00800           0
     63462 TIP3     13694    TIP3     OH2      OT      -0.834000       15.9994           0
     63463 TIP3     13694    TIP3     H1       HT       0.417000       1.00800           0
     63464 TIP3     13694    TIP3     H2       HT       0.417000       1.00800           0
     63465 TIP3     13695    TIP3     OH2      OT      -0.834000       15.9994           0
     63466 TIP3     13695    TIP3     H1       HT       0.417000       1.00800           0
     63467 TIP3     13695    TIP3     H2       HT       0.417000       1.00800           0
     63468 TIP3     13696    TIP3     OH2      OT      -0.834000       15.9994           0
     63469 TIP3     13696    TIP3     H1       HT       0.417000       1.00800           0
     63470 TIP3     13696    TIP3     H2       HT       0.417000       1.00800           0
     63471 TIP3     13697    TIP3     OH2      OT      -0.834000       15.9994           0
     63472 TIP3     13697    TIP3     H1       HT       0.417000       1.00800           0
     63473 TIP3     13697    TIP3     H2       HT       0.417000       1.00800           0
     63474 TIP3     13698    TIP3     OH2      OT      -0.834000       15.9994           0
     63475 TIP3     13698    TIP3     H1       HT       0.417000       1.00800           0
     63476 TIP3     13698    TIP3     H2       HT       0.417000       1.00800           0
     63477 TIP3     13699    TIP3     OH2      OT      -0.834000       15.9994           0
     63478 TIP3     13699    TIP3     H1       HT       0.417000       1.00800           0
     63479 TIP3     13699    TIP3     H2       HT       0.417000       1.00800           0
     63480 TIP3     13700    TIP3     OH2      OT      -0.834000       15.9994           0
     63481 TIP3     13700    TIP3     H1       HT       0.417000       1.00800           0
     63482 TIP3     13700    TIP3     H2       HT       0.417000       1.00800           0
     63483 TIP3     13701    TIP3     OH2      OT      -0.834000       15.9994           0
     63484 TIP3     13701    TIP3     H1       HT       0.417000       1.00800           0
     63485 TIP3     13701    TIP3     H2       HT       0.417000       1.00800           0
     63486 TIP3     13702    TIP3     OH2      OT      -0.834000       15.9994           0
     63487 TIP3     13702    TIP3     H1       HT       0.417000       1.00800           0
     63488 TIP3     13702    TIP3     H2       HT       0.417000       1.00800           0
     63489 TIP3     13703    TIP3     OH2      OT      -0.834000       15.9994           0
     63490 TIP3     13703    TIP3     H1       HT       0.417000       1.00800           0
     63491 TIP3     13703    TIP3     H2       HT       0.417000       1.00800           0
     63492 TIP3     13704    TIP3     OH2      OT      -0.834000       15.9994           0
     63493 TIP3     13704    TIP3     H1       HT       0.417000       1.00800           0
     63494 TIP3     13704    TIP3     H2       HT       0.417000       1.00800           0
     63495 TIP3     13705    TIP3     OH2      OT      -0.834000       15.9994           0
     63496 TIP3     13705    TIP3     H1       HT       0.417000       1.00800           0
     63497 TIP3     13705    TIP3     H2       HT       0.417000       1.00800           0
     63498 TIP3     13706    TIP3     OH2      OT      -0.834000       15.9994           0
     63499 TIP3     13706    TIP3     H1       HT       0.417000       1.00800           0
     63500 TIP3     13706    TIP3     H2       HT       0.417000       1.00800           0
     63501 TIP3     13707    TIP3     OH2      OT      -0.834000       15.9994           0
     63502 TIP3     13707    TIP3     H1       HT       0.417000       1.00800           0
     63503 TIP3     13707    TIP3     H2       HT       0.417000       1.00800           0
     63504 TIP3     13708    TIP3     OH2      OT      -0.834000       15.9994           0
     63505 TIP3     13708    TIP3     H1       HT       0.417000       1.00800           0
     63506 TIP3     13708    TIP3     H2       HT       0.417000       1.00800           0
     63507 TIP3     13709    TIP3     OH2      OT      -0.834000       15.9994           0
     63508 TIP3     13709    TIP3     H1       HT       0.417000       1.00800           0
     63509 TIP3     13709    TIP3     H2       HT       0.417000       1.00800           0
     63510 TIP3     13710    TIP3     OH2      OT      -0.834000       15.9994           0
     63511 TIP3     13710    TIP3     H1       HT       0.417000       1.00800           0
     63512 TIP3     13710    TIP3     H2       HT       0.417000       1.00800           0
     63513 TIP3     13711    TIP3     OH2      OT      -0.834000       15.9994           0
     63514 TIP3     13711    TIP3     H1       HT       0.417000       1.00800           0
     63515 TIP3     13711    TIP3     H2       HT       0.417000       1.00800           0
     63516 TIP3     13712    TIP3     OH2      OT      -0.834000       15.9994           0
     63517 TIP3     13712    TIP3     H1       HT       0.417000       1.00800           0
     63518 TIP3     13712    TIP3     H2       HT       0.417000       1.00800           0
     63519 TIP3     13713    TIP3     OH2      OT      -0.834000       15.9994           0
     63520 TIP3     13713    TIP3     H1       HT       0.417000       1.00800           0
     63521 TIP3     13713    TIP3     H2       HT       0.417000       1.00800           0
     63522 TIP3     13714    TIP3     OH2      OT      -0.834000       15.9994           0
     63523 TIP3     13714    TIP3     H1       HT       0.417000       1.00800           0
     63524 TIP3     13714    TIP3     H2       HT       0.417000       1.00800           0
     63525 TIP3     13715    TIP3     OH2      OT      -0.834000       15.9994           0
     63526 TIP3     13715    TIP3     H1       HT       0.417000       1.00800           0
     63527 TIP3     13715    TIP3     H2       HT       0.417000       1.00800           0
     63528 TIP3     13716    TIP3     OH2      OT      -0.834000       15.9994           0
     63529 TIP3     13716    TIP3     H1       HT       0.417000       1.00800           0
     63530 TIP3     13716    TIP3     H2       HT       0.417000       1.00800           0
     63531 TIP3     13717    TIP3     OH2      OT      -0.834000       15.9994           0
     63532 TIP3     13717    TIP3     H1       HT       0.417000       1.00800           0
     63533 TIP3     13717    TIP3     H2       HT       0.417000       1.00800           0
     63534 TIP3     13718    TIP3     OH2      OT      -0.834000       15.9994           0
     63535 TIP3     13718    TIP3     H1       HT       0.417000       1.00800           0
     63536 TIP3     13718    TIP3     H2       HT       0.417000       1.00800           0
     63537 TIP3     13719    TIP3     OH2      OT      -0.834000       15.9994           0
     63538 TIP3     13719    TIP3     H1       HT       0.417000       1.00800           0
     63539 TIP3     13719    TIP3     H2       HT       0.417000       1.00800           0
     63540 TIP3     13720    TIP3     OH2      OT      -0.834000       15.9994           0
     63541 TIP3     13720    TIP3     H1       HT       0.417000       1.00800           0
     63542 TIP3     13720    TIP3     H2       HT       0.417000       1.00800           0
     63543 TIP3     13721    TIP3     OH2      OT      -0.834000       15.9994           0
     63544 TIP3     13721    TIP3     H1       HT       0.417000       1.00800           0
     63545 TIP3     13721    TIP3     H2       HT       0.417000       1.00800           0
     63546 TIP3     13722    TIP3     OH2      OT      -0.834000       15.9994           0
     63547 TIP3     13722    TIP3     H1       HT       0.417000       1.00800           0
     63548 TIP3     13722    TIP3     H2       HT       0.417000       1.00800           0
     63549 TIP3     13723    TIP3     OH2      OT      -0.834000       15.9994           0
     63550 TIP3     13723    TIP3     H1       HT       0.417000       1.00800           0
     63551 TIP3     13723    TIP3     H2       HT       0.417000       1.00800           0
     63552 TIP3     13724    TIP3     OH2      OT      -0.834000       15.9994           0
     63553 TIP3     13724    TIP3     H1       HT       0.417000       1.00800           0
     63554 TIP3     13724    TIP3     H2       HT       0.417000       1.00800           0
     63555 TIP3     13725    TIP3     OH2      OT      -0.834000       15.9994           0
     63556 TIP3     13725    TIP3     H1       HT       0.417000       1.00800           0
     63557 TIP3     13725    TIP3     H2       HT       0.417000       1.00800           0
     63558 TIP3     13726    TIP3     OH2      OT      -0.834000       15.9994           0
     63559 TIP3     13726    TIP3     H1       HT       0.417000       1.00800           0
     63560 TIP3     13726    TIP3     H2       HT       0.417000       1.00800           0
     63561 TIP3     13727    TIP3     OH2      OT      -0.834000       15.9994           0
     63562 TIP3     13727    TIP3     H1       HT       0.417000       1.00800           0
     63563 TIP3     13727    TIP3     H2       HT       0.417000       1.00800           0
     63564 TIP3     13728    TIP3     OH2      OT      -0.834000       15.9994           0
     63565 TIP3     13728    TIP3     H1       HT       0.417000       1.00800           0
     63566 TIP3     13728    TIP3     H2       HT       0.417000       1.00800           0
     63567 TIP3     13729    TIP3     OH2      OT      -0.834000       15.9994           0
     63568 TIP3     13729    TIP3     H1       HT       0.417000       1.00800           0
     63569 TIP3     13729    TIP3     H2       HT       0.417000       1.00800           0
     63570 TIP3     13730    TIP3     OH2      OT      -0.834000       15.9994           0
     63571 TIP3     13730    TIP3     H1       HT       0.417000       1.00800           0
     63572 TIP3     13730    TIP3     H2       HT       0.417000       1.00800           0
     63573 TIP3     13731    TIP3     OH2      OT      -0.834000       15.9994           0
     63574 TIP3     13731    TIP3     H1       HT       0.417000       1.00800           0
     63575 TIP3     13731    TIP3     H2       HT       0.417000       1.00800           0
     63576 TIP3     13732    TIP3     OH2      OT      -0.834000       15.9994           0
     63577 TIP3     13732    TIP3     H1       HT       0.417000       1.00800           0
     63578 TIP3     13732    TIP3     H2       HT       0.417000       1.00800           0
     63579 TIP3     13733    TIP3     OH2      OT      -0.834000       15.9994           0
     63580 TIP3     13733    TIP3     H1       HT       0.417000       1.00800           0
     63581 TIP3     13733    TIP3     H2       HT       0.417000       1.00800           0
     63582 TIP3     13734    TIP3     OH2      OT      -0.834000       15.9994           0
     63583 TIP3     13734    TIP3     H1       HT       0.417000       1.00800           0
     63584 TIP3     13734    TIP3     H2       HT       0.417000       1.00800           0
     63585 TIP3     13735    TIP3     OH2      OT      -0.834000       15.9994           0
     63586 TIP3     13735    TIP3     H1       HT       0.417000       1.00800           0
     63587 TIP3     13735    TIP3     H2       HT       0.417000       1.00800           0
     63588 TIP3     13736    TIP3     OH2      OT      -0.834000       15.9994           0
     63589 TIP3     13736    TIP3     H1       HT       0.417000       1.00800           0
     63590 TIP3     13736    TIP3     H2       HT       0.417000       1.00800           0
     63591 TIP3     13737    TIP3     OH2      OT      -0.834000       15.9994           0
     63592 TIP3     13737    TIP3     H1       HT       0.417000       1.00800           0
     63593 TIP3     13737    TIP3     H2       HT       0.417000       1.00800           0
     63594 TIP3     13738    TIP3     OH2      OT      -0.834000       15.9994           0
     63595 TIP3     13738    TIP3     H1       HT       0.417000       1.00800           0
     63596 TIP3     13738    TIP3     H2       HT       0.417000       1.00800           0
     63597 TIP3     13739    TIP3     OH2      OT      -0.834000       15.9994           0
     63598 TIP3     13739    TIP3     H1       HT       0.417000       1.00800           0
     63599 TIP3     13739    TIP3     H2       HT       0.417000       1.00800           0
     63600 TIP3     13740    TIP3     OH2      OT      -0.834000       15.9994           0
     63601 TIP3     13740    TIP3     H1       HT       0.417000       1.00800           0
     63602 TIP3     13740    TIP3     H2       HT       0.417000       1.00800           0
     63603 TIP3     13741    TIP3     OH2      OT      -0.834000       15.9994           0
     63604 TIP3     13741    TIP3     H1       HT       0.417000       1.00800           0
     63605 TIP3     13741    TIP3     H2       HT       0.417000       1.00800           0
     63606 TIP3     13742    TIP3     OH2      OT      -0.834000       15.9994           0
     63607 TIP3     13742    TIP3     H1       HT       0.417000       1.00800           0
     63608 TIP3     13742    TIP3     H2       HT       0.417000       1.00800           0
     63609 TIP3     13743    TIP3     OH2      OT      -0.834000       15.9994           0
     63610 TIP3     13743    TIP3     H1       HT       0.417000       1.00800           0
     63611 TIP3     13743    TIP3     H2       HT       0.417000       1.00800           0
     63612 TIP3     13744    TIP3     OH2      OT      -0.834000       15.9994           0
     63613 TIP3     13744    TIP3     H1       HT       0.417000       1.00800           0
     63614 TIP3     13744    TIP3     H2       HT       0.417000       1.00800           0
     63615 TIP3     13745    TIP3     OH2      OT      -0.834000       15.9994           0
     63616 TIP3     13745    TIP3     H1       HT       0.417000       1.00800           0
     63617 TIP3     13745    TIP3     H2       HT       0.417000       1.00800           0
     63618 TIP3     13746    TIP3     OH2      OT      -0.834000       15.9994           0
     63619 TIP3     13746    TIP3     H1       HT       0.417000       1.00800           0
     63620 TIP3     13746    TIP3     H2       HT       0.417000       1.00800           0
     63621 TIP3     13747    TIP3     OH2      OT      -0.834000       15.9994           0
     63622 TIP3     13747    TIP3     H1       HT       0.417000       1.00800           0
     63623 TIP3     13747    TIP3     H2       HT       0.417000       1.00800           0
     63624 TIP3     13748    TIP3     OH2      OT      -0.834000       15.9994           0
     63625 TIP3     13748    TIP3     H1       HT       0.417000       1.00800           0
     63626 TIP3     13748    TIP3     H2       HT       0.417000       1.00800           0
     63627 TIP3     13749    TIP3     OH2      OT      -0.834000       15.9994           0
     63628 TIP3     13749    TIP3     H1       HT       0.417000       1.00800           0
     63629 TIP3     13749    TIP3     H2       HT       0.417000       1.00800           0
     63630 TIP3     13750    TIP3     OH2      OT      -0.834000       15.9994           0
     63631 TIP3     13750    TIP3     H1       HT       0.417000       1.00800           0
     63632 TIP3     13750    TIP3     H2       HT       0.417000       1.00800           0
     63633 TIP3     13751    TIP3     OH2      OT      -0.834000       15.9994           0
     63634 TIP3     13751    TIP3     H1       HT       0.417000       1.00800           0
     63635 TIP3     13751    TIP3     H2       HT       0.417000       1.00800           0
     63636 TIP3     13752    TIP3     OH2      OT      -0.834000       15.9994           0
     63637 TIP3     13752    TIP3     H1       HT       0.417000       1.00800           0
     63638 TIP3     13752    TIP3     H2       HT       0.417000       1.00800           0
     63639 TIP3     13753    TIP3     OH2      OT      -0.834000       15.9994           0
     63640 TIP3     13753    TIP3     H1       HT       0.417000       1.00800           0
     63641 TIP3     13753    TIP3     H2       HT       0.417000       1.00800           0
     63642 TIP3     13754    TIP3     OH2      OT      -0.834000       15.9994           0
     63643 TIP3     13754    TIP3     H1       HT       0.417000       1.00800           0
     63644 TIP3     13754    TIP3     H2       HT       0.417000       1.00800           0
     63645 TIP3     13755    TIP3     OH2      OT      -0.834000       15.9994           0
     63646 TIP3     13755    TIP3     H1       HT       0.417000       1.00800           0
     63647 TIP3     13755    TIP3     H2       HT       0.417000       1.00800           0
     63648 TIP3     13756    TIP3     OH2      OT      -0.834000       15.9994           0
     63649 TIP3     13756    TIP3     H1       HT       0.417000       1.00800           0
     63650 TIP3     13756    TIP3     H2       HT       0.417000       1.00800           0
     63651 TIP3     13757    TIP3     OH2      OT      -0.834000       15.9994           0
     63652 TIP3     13757    TIP3     H1       HT       0.417000       1.00800           0
     63653 TIP3     13757    TIP3     H2       HT       0.417000       1.00800           0
     63654 TIP3     13758    TIP3     OH2      OT      -0.834000       15.9994           0
     63655 TIP3     13758    TIP3     H1       HT       0.417000       1.00800           0
     63656 TIP3     13758    TIP3     H2       HT       0.417000       1.00800           0
     63657 TIP3     13759    TIP3     OH2      OT      -0.834000       15.9994           0
     63658 TIP3     13759    TIP3     H1       HT       0.417000       1.00800           0
     63659 TIP3     13759    TIP3     H2       HT       0.417000       1.00800           0
     63660 TIP3     13760    TIP3     OH2      OT      -0.834000       15.9994           0
     63661 TIP3     13760    TIP3     H1       HT       0.417000       1.00800           0
     63662 TIP3     13760    TIP3     H2       HT       0.417000       1.00800           0
     63663 TIP3     13761    TIP3     OH2      OT      -0.834000       15.9994           0
     63664 TIP3     13761    TIP3     H1       HT       0.417000       1.00800           0
     63665 TIP3     13761    TIP3     H2       HT       0.417000       1.00800           0
     63666 TIP3     13762    TIP3     OH2      OT      -0.834000       15.9994           0
     63667 TIP3     13762    TIP3     H1       HT       0.417000       1.00800           0
     63668 TIP3     13762    TIP3     H2       HT       0.417000       1.00800           0
     63669 TIP3     13763    TIP3     OH2      OT      -0.834000       15.9994           0
     63670 TIP3     13763    TIP3     H1       HT       0.417000       1.00800           0
     63671 TIP3     13763    TIP3     H2       HT       0.417000       1.00800           0
     63672 TIP3     13764    TIP3     OH2      OT      -0.834000       15.9994           0
     63673 TIP3     13764    TIP3     H1       HT       0.417000       1.00800           0
     63674 TIP3     13764    TIP3     H2       HT       0.417000       1.00800           0
     63675 TIP3     13765    TIP3     OH2      OT      -0.834000       15.9994           0
     63676 TIP3     13765    TIP3     H1       HT       0.417000       1.00800           0
     63677 TIP3     13765    TIP3     H2       HT       0.417000       1.00800           0
     63678 TIP3     13766    TIP3     OH2      OT      -0.834000       15.9994           0
     63679 TIP3     13766    TIP3     H1       HT       0.417000       1.00800           0
     63680 TIP3     13766    TIP3     H2       HT       0.417000       1.00800           0
     63681 TIP3     13767    TIP3     OH2      OT      -0.834000       15.9994           0
     63682 TIP3     13767    TIP3     H1       HT       0.417000       1.00800           0
     63683 TIP3     13767    TIP3     H2       HT       0.417000       1.00800           0
     63684 TIP3     13768    TIP3     OH2      OT      -0.834000       15.9994           0
     63685 TIP3     13768    TIP3     H1       HT       0.417000       1.00800           0
     63686 TIP3     13768    TIP3     H2       HT       0.417000       1.00800           0
     63687 TIP3     13769    TIP3     OH2      OT      -0.834000       15.9994           0
     63688 TIP3     13769    TIP3     H1       HT       0.417000       1.00800           0
     63689 TIP3     13769    TIP3     H2       HT       0.417000       1.00800           0
     63690 TIP3     13770    TIP3     OH2      OT      -0.834000       15.9994           0
     63691 TIP3     13770    TIP3     H1       HT       0.417000       1.00800           0
     63692 TIP3     13770    TIP3     H2       HT       0.417000       1.00800           0
     63693 TIP3     13771    TIP3     OH2      OT      -0.834000       15.9994           0
     63694 TIP3     13771    TIP3     H1       HT       0.417000       1.00800           0
     63695 TIP3     13771    TIP3     H2       HT       0.417000       1.00800           0
     63696 TIP3     13772    TIP3     OH2      OT      -0.834000       15.9994           0
     63697 TIP3     13772    TIP3     H1       HT       0.417000       1.00800           0
     63698 TIP3     13772    TIP3     H2       HT       0.417000       1.00800           0
     63699 TIP3     13773    TIP3     OH2      OT      -0.834000       15.9994           0
     63700 TIP3     13773    TIP3     H1       HT       0.417000       1.00800           0
     63701 TIP3     13773    TIP3     H2       HT       0.417000       1.00800           0
     63702 TIP3     13774    TIP3     OH2      OT      -0.834000       15.9994           0
     63703 TIP3     13774    TIP3     H1       HT       0.417000       1.00800           0
     63704 TIP3     13774    TIP3     H2       HT       0.417000       1.00800           0
     63705 TIP3     13775    TIP3     OH2      OT      -0.834000       15.9994           0
     63706 TIP3     13775    TIP3     H1       HT       0.417000       1.00800           0
     63707 TIP3     13775    TIP3     H2       HT       0.417000       1.00800           0
     63708 TIP3     13776    TIP3     OH2      OT      -0.834000       15.9994           0
     63709 TIP3     13776    TIP3     H1       HT       0.417000       1.00800           0
     63710 TIP3     13776    TIP3     H2       HT       0.417000       1.00800           0
     63711 TIP3     13777    TIP3     OH2      OT      -0.834000       15.9994           0
     63712 TIP3     13777    TIP3     H1       HT       0.417000       1.00800           0
     63713 TIP3     13777    TIP3     H2       HT       0.417000       1.00800           0
     63714 TIP3     13778    TIP3     OH2      OT      -0.834000       15.9994           0
     63715 TIP3     13778    TIP3     H1       HT       0.417000       1.00800           0
     63716 TIP3     13778    TIP3     H2       HT       0.417000       1.00800           0
     63717 TIP3     13779    TIP3     OH2      OT      -0.834000       15.9994           0
     63718 TIP3     13779    TIP3     H1       HT       0.417000       1.00800           0
     63719 TIP3     13779    TIP3     H2       HT       0.417000       1.00800           0
     63720 TIP3     13780    TIP3     OH2      OT      -0.834000       15.9994           0
     63721 TIP3     13780    TIP3     H1       HT       0.417000       1.00800           0
     63722 TIP3     13780    TIP3     H2       HT       0.417000       1.00800           0
     63723 TIP3     13781    TIP3     OH2      OT      -0.834000       15.9994           0
     63724 TIP3     13781    TIP3     H1       HT       0.417000       1.00800           0
     63725 TIP3     13781    TIP3     H2       HT       0.417000       1.00800           0
     63726 TIP3     13782    TIP3     OH2      OT      -0.834000       15.9994           0
     63727 TIP3     13782    TIP3     H1       HT       0.417000       1.00800           0
     63728 TIP3     13782    TIP3     H2       HT       0.417000       1.00800           0
     63729 TIP3     13783    TIP3     OH2      OT      -0.834000       15.9994           0
     63730 TIP3     13783    TIP3     H1       HT       0.417000       1.00800           0
     63731 TIP3     13783    TIP3     H2       HT       0.417000       1.00800           0
     63732 TIP3     13784    TIP3     OH2      OT      -0.834000       15.9994           0
     63733 TIP3     13784    TIP3     H1       HT       0.417000       1.00800           0
     63734 TIP3     13784    TIP3     H2       HT       0.417000       1.00800           0
     63735 TIP3     13785    TIP3     OH2      OT      -0.834000       15.9994           0
     63736 TIP3     13785    TIP3     H1       HT       0.417000       1.00800           0
     63737 TIP3     13785    TIP3     H2       HT       0.417000       1.00800           0
     63738 TIP3     13786    TIP3     OH2      OT      -0.834000       15.9994           0
     63739 TIP3     13786    TIP3     H1       HT       0.417000       1.00800           0
     63740 TIP3     13786    TIP3     H2       HT       0.417000       1.00800           0
     63741 TIP3     13787    TIP3     OH2      OT      -0.834000       15.9994           0
     63742 TIP3     13787    TIP3     H1       HT       0.417000       1.00800           0
     63743 TIP3     13787    TIP3     H2       HT       0.417000       1.00800           0
     63744 TIP3     13788    TIP3     OH2      OT      -0.834000       15.9994           0
     63745 TIP3     13788    TIP3     H1       HT       0.417000       1.00800           0
     63746 TIP3     13788    TIP3     H2       HT       0.417000       1.00800           0
     63747 TIP3     13789    TIP3     OH2      OT      -0.834000       15.9994           0
     63748 TIP3     13789    TIP3     H1       HT       0.417000       1.00800           0
     63749 TIP3     13789    TIP3     H2       HT       0.417000       1.00800           0
     63750 TIP3     13790    TIP3     OH2      OT      -0.834000       15.9994           0
     63751 TIP3     13790    TIP3     H1       HT       0.417000       1.00800           0
     63752 TIP3     13790    TIP3     H2       HT       0.417000       1.00800           0
     63753 TIP3     13791    TIP3     OH2      OT      -0.834000       15.9994           0
     63754 TIP3     13791    TIP3     H1       HT       0.417000       1.00800           0
     63755 TIP3     13791    TIP3     H2       HT       0.417000       1.00800           0
     63756 TIP3     13792    TIP3     OH2      OT      -0.834000       15.9994           0
     63757 TIP3     13792    TIP3     H1       HT       0.417000       1.00800           0
     63758 TIP3     13792    TIP3     H2       HT       0.417000       1.00800           0
     63759 TIP3     13793    TIP3     OH2      OT      -0.834000       15.9994           0
     63760 TIP3     13793    TIP3     H1       HT       0.417000       1.00800           0
     63761 TIP3     13793    TIP3     H2       HT       0.417000       1.00800           0
     63762 TIP3     13794    TIP3     OH2      OT      -0.834000       15.9994           0
     63763 TIP3     13794    TIP3     H1       HT       0.417000       1.00800           0
     63764 TIP3     13794    TIP3     H2       HT       0.417000       1.00800           0
     63765 TIP3     13795    TIP3     OH2      OT      -0.834000       15.9994           0
     63766 TIP3     13795    TIP3     H1       HT       0.417000       1.00800           0
     63767 TIP3     13795    TIP3     H2       HT       0.417000       1.00800           0
     63768 TIP3     13796    TIP3     OH2      OT      -0.834000       15.9994           0
     63769 TIP3     13796    TIP3     H1       HT       0.417000       1.00800           0
     63770 TIP3     13796    TIP3     H2       HT       0.417000       1.00800           0
     63771 TIP3     13797    TIP3     OH2      OT      -0.834000       15.9994           0
     63772 TIP3     13797    TIP3     H1       HT       0.417000       1.00800           0
     63773 TIP3     13797    TIP3     H2       HT       0.417000       1.00800           0
     63774 TIP3     13798    TIP3     OH2      OT      -0.834000       15.9994           0
     63775 TIP3     13798    TIP3     H1       HT       0.417000       1.00800           0
     63776 TIP3     13798    TIP3     H2       HT       0.417000       1.00800           0
     63777 TIP3     13799    TIP3     OH2      OT      -0.834000       15.9994           0
     63778 TIP3     13799    TIP3     H1       HT       0.417000       1.00800           0
     63779 TIP3     13799    TIP3     H2       HT       0.417000       1.00800           0
     63780 TIP3     13800    TIP3     OH2      OT      -0.834000       15.9994           0
     63781 TIP3     13800    TIP3     H1       HT       0.417000       1.00800           0
     63782 TIP3     13800    TIP3     H2       HT       0.417000       1.00800           0
     63783 TIP3     13801    TIP3     OH2      OT      -0.834000       15.9994           0
     63784 TIP3     13801    TIP3     H1       HT       0.417000       1.00800           0
     63785 TIP3     13801    TIP3     H2       HT       0.417000       1.00800           0
     63786 TIP3     13802    TIP3     OH2      OT      -0.834000       15.9994           0
     63787 TIP3     13802    TIP3     H1       HT       0.417000       1.00800           0
     63788 TIP3     13802    TIP3     H2       HT       0.417000       1.00800           0
     63789 TIP3     13803    TIP3     OH2      OT      -0.834000       15.9994           0
     63790 TIP3     13803    TIP3     H1       HT       0.417000       1.00800           0
     63791 TIP3     13803    TIP3     H2       HT       0.417000       1.00800           0
     63792 TIP3     13804    TIP3     OH2      OT      -0.834000       15.9994           0
     63793 TIP3     13804    TIP3     H1       HT       0.417000       1.00800           0
     63794 TIP3     13804    TIP3     H2       HT       0.417000       1.00800           0
     63795 TIP3     13805    TIP3     OH2      OT      -0.834000       15.9994           0
     63796 TIP3     13805    TIP3     H1       HT       0.417000       1.00800           0
     63797 TIP3     13805    TIP3     H2       HT       0.417000       1.00800           0
     63798 TIP3     13806    TIP3     OH2      OT      -0.834000       15.9994           0
     63799 TIP3     13806    TIP3     H1       HT       0.417000       1.00800           0
     63800 TIP3     13806    TIP3     H2       HT       0.417000       1.00800           0
     63801 TIP3     13807    TIP3     OH2      OT      -0.834000       15.9994           0
     63802 TIP3     13807    TIP3     H1       HT       0.417000       1.00800           0
     63803 TIP3     13807    TIP3     H2       HT       0.417000       1.00800           0
     63804 TIP3     13808    TIP3     OH2      OT      -0.834000       15.9994           0
     63805 TIP3     13808    TIP3     H1       HT       0.417000       1.00800           0
     63806 TIP3     13808    TIP3     H2       HT       0.417000       1.00800           0
     63807 TIP3     13809    TIP3     OH2      OT      -0.834000       15.9994           0
     63808 TIP3     13809    TIP3     H1       HT       0.417000       1.00800           0
     63809 TIP3     13809    TIP3     H2       HT       0.417000       1.00800           0
     63810 TIP3     13810    TIP3     OH2      OT      -0.834000       15.9994           0
     63811 TIP3     13810    TIP3     H1       HT       0.417000       1.00800           0
     63812 TIP3     13810    TIP3     H2       HT       0.417000       1.00800           0
     63813 TIP3     13811    TIP3     OH2      OT      -0.834000       15.9994           0
     63814 TIP3     13811    TIP3     H1       HT       0.417000       1.00800           0
     63815 TIP3     13811    TIP3     H2       HT       0.417000       1.00800           0
     63816 TIP3     13812    TIP3     OH2      OT      -0.834000       15.9994           0
     63817 TIP3     13812    TIP3     H1       HT       0.417000       1.00800           0
     63818 TIP3     13812    TIP3     H2       HT       0.417000       1.00800           0
     63819 TIP3     13813    TIP3     OH2      OT      -0.834000       15.9994           0
     63820 TIP3     13813    TIP3     H1       HT       0.417000       1.00800           0
     63821 TIP3     13813    TIP3     H2       HT       0.417000       1.00800           0
     63822 TIP3     13814    TIP3     OH2      OT      -0.834000       15.9994           0
     63823 TIP3     13814    TIP3     H1       HT       0.417000       1.00800           0
     63824 TIP3     13814    TIP3     H2       HT       0.417000       1.00800           0
     63825 TIP3     13815    TIP3     OH2      OT      -0.834000       15.9994           0
     63826 TIP3     13815    TIP3     H1       HT       0.417000       1.00800           0
     63827 TIP3     13815    TIP3     H2       HT       0.417000       1.00800           0
     63828 TIP3     13816    TIP3     OH2      OT      -0.834000       15.9994           0
     63829 TIP3     13816    TIP3     H1       HT       0.417000       1.00800           0
     63830 TIP3     13816    TIP3     H2       HT       0.417000       1.00800           0
     63831 TIP3     13817    TIP3     OH2      OT      -0.834000       15.9994           0
     63832 TIP3     13817    TIP3     H1       HT       0.417000       1.00800           0
     63833 TIP3     13817    TIP3     H2       HT       0.417000       1.00800           0
     63834 TIP3     13818    TIP3     OH2      OT      -0.834000       15.9994           0
     63835 TIP3     13818    TIP3     H1       HT       0.417000       1.00800           0
     63836 TIP3     13818    TIP3     H2       HT       0.417000       1.00800           0
     63837 TIP3     13819    TIP3     OH2      OT      -0.834000       15.9994           0
     63838 TIP3     13819    TIP3     H1       HT       0.417000       1.00800           0
     63839 TIP3     13819    TIP3     H2       HT       0.417000       1.00800           0
     63840 TIP3     13820    TIP3     OH2      OT      -0.834000       15.9994           0
     63841 TIP3     13820    TIP3     H1       HT       0.417000       1.00800           0
     63842 TIP3     13820    TIP3     H2       HT       0.417000       1.00800           0
     63843 TIP3     13821    TIP3     OH2      OT      -0.834000       15.9994           0
     63844 TIP3     13821    TIP3     H1       HT       0.417000       1.00800           0
     63845 TIP3     13821    TIP3     H2       HT       0.417000       1.00800           0
     63846 TIP3     13822    TIP3     OH2      OT      -0.834000       15.9994           0
     63847 TIP3     13822    TIP3     H1       HT       0.417000       1.00800           0
     63848 TIP3     13822    TIP3     H2       HT       0.417000       1.00800           0
     63849 TIP3     13823    TIP3     OH2      OT      -0.834000       15.9994           0
     63850 TIP3     13823    TIP3     H1       HT       0.417000       1.00800           0
     63851 TIP3     13823    TIP3     H2       HT       0.417000       1.00800           0
     63852 TIP3     13824    TIP3     OH2      OT      -0.834000       15.9994           0
     63853 TIP3     13824    TIP3     H1       HT       0.417000       1.00800           0
     63854 TIP3     13824    TIP3     H2       HT       0.417000       1.00800           0
     63855 TIP3     13825    TIP3     OH2      OT      -0.834000       15.9994           0
     63856 TIP3     13825    TIP3     H1       HT       0.417000       1.00800           0
     63857 TIP3     13825    TIP3     H2       HT       0.417000       1.00800           0
     63858 TIP3     13826    TIP3     OH2      OT      -0.834000       15.9994           0
     63859 TIP3     13826    TIP3     H1       HT       0.417000       1.00800           0
     63860 TIP3     13826    TIP3     H2       HT       0.417000       1.00800           0
     63861 TIP3     13827    TIP3     OH2      OT      -0.834000       15.9994           0
     63862 TIP3     13827    TIP3     H1       HT       0.417000       1.00800           0
     63863 TIP3     13827    TIP3     H2       HT       0.417000       1.00800           0
     63864 TIP3     13828    TIP3     OH2      OT      -0.834000       15.9994           0
     63865 TIP3     13828    TIP3     H1       HT       0.417000       1.00800           0
     63866 TIP3     13828    TIP3     H2       HT       0.417000       1.00800           0
     63867 TIP3     13829    TIP3     OH2      OT      -0.834000       15.9994           0
     63868 TIP3     13829    TIP3     H1       HT       0.417000       1.00800           0
     63869 TIP3     13829    TIP3     H2       HT       0.417000       1.00800           0
     63870 TIP3     13830    TIP3     OH2      OT      -0.834000       15.9994           0
     63871 TIP3     13830    TIP3     H1       HT       0.417000       1.00800           0
     63872 TIP3     13830    TIP3     H2       HT       0.417000       1.00800           0
     63873 TIP3     13831    TIP3     OH2      OT      -0.834000       15.9994           0
     63874 TIP3     13831    TIP3     H1       HT       0.417000       1.00800           0
     63875 TIP3     13831    TIP3     H2       HT       0.417000       1.00800           0
     63876 TIP3     13832    TIP3     OH2      OT      -0.834000       15.9994           0
     63877 TIP3     13832    TIP3     H1       HT       0.417000       1.00800           0
     63878 TIP3     13832    TIP3     H2       HT       0.417000       1.00800           0
     63879 TIP3     13833    TIP3     OH2      OT      -0.834000       15.9994           0
     63880 TIP3     13833    TIP3     H1       HT       0.417000       1.00800           0
     63881 TIP3     13833    TIP3     H2       HT       0.417000       1.00800           0
     63882 TIP3     13834    TIP3     OH2      OT      -0.834000       15.9994           0
     63883 TIP3     13834    TIP3     H1       HT       0.417000       1.00800           0
     63884 TIP3     13834    TIP3     H2       HT       0.417000       1.00800           0
     63885 TIP3     13835    TIP3     OH2      OT      -0.834000       15.9994           0
     63886 TIP3     13835    TIP3     H1       HT       0.417000       1.00800           0
     63887 TIP3     13835    TIP3     H2       HT       0.417000       1.00800           0
     63888 TIP3     13836    TIP3     OH2      OT      -0.834000       15.9994           0
     63889 TIP3     13836    TIP3     H1       HT       0.417000       1.00800           0
     63890 TIP3     13836    TIP3     H2       HT       0.417000       1.00800           0
     63891 TIP3     13837    TIP3     OH2      OT      -0.834000       15.9994           0
     63892 TIP3     13837    TIP3     H1       HT       0.417000       1.00800           0
     63893 TIP3     13837    TIP3     H2       HT       0.417000       1.00800           0
     63894 TIP3     13838    TIP3     OH2      OT      -0.834000       15.9994           0
     63895 TIP3     13838    TIP3     H1       HT       0.417000       1.00800           0
     63896 TIP3     13838    TIP3     H2       HT       0.417000       1.00800           0
     63897 TIP3     13839    TIP3     OH2      OT      -0.834000       15.9994           0
     63898 TIP3     13839    TIP3     H1       HT       0.417000       1.00800           0
     63899 TIP3     13839    TIP3     H2       HT       0.417000       1.00800           0
     63900 TIP3     13840    TIP3     OH2      OT      -0.834000       15.9994           0
     63901 TIP3     13840    TIP3     H1       HT       0.417000       1.00800           0
     63902 TIP3     13840    TIP3     H2       HT       0.417000       1.00800           0
     63903 TIP3     13841    TIP3     OH2      OT      -0.834000       15.9994           0
     63904 TIP3     13841    TIP3     H1       HT       0.417000       1.00800           0
     63905 TIP3     13841    TIP3     H2       HT       0.417000       1.00800           0
     63906 TIP3     13842    TIP3     OH2      OT      -0.834000       15.9994           0
     63907 TIP3     13842    TIP3     H1       HT       0.417000       1.00800           0
     63908 TIP3     13842    TIP3     H2       HT       0.417000       1.00800           0
     63909 TIP3     13843    TIP3     OH2      OT      -0.834000       15.9994           0
     63910 TIP3     13843    TIP3     H1       HT       0.417000       1.00800           0
     63911 TIP3     13843    TIP3     H2       HT       0.417000       1.00800           0
     63912 TIP3     13844    TIP3     OH2      OT      -0.834000       15.9994           0
     63913 TIP3     13844    TIP3     H1       HT       0.417000       1.00800           0
     63914 TIP3     13844    TIP3     H2       HT       0.417000       1.00800           0
     63915 TIP3     13845    TIP3     OH2      OT      -0.834000       15.9994           0
     63916 TIP3     13845    TIP3     H1       HT       0.417000       1.00800           0
     63917 TIP3     13845    TIP3     H2       HT       0.417000       1.00800           0
     63918 TIP3     13846    TIP3     OH2      OT      -0.834000       15.9994           0
     63919 TIP3     13846    TIP3     H1       HT       0.417000       1.00800           0
     63920 TIP3     13846    TIP3     H2       HT       0.417000       1.00800           0
     63921 TIP3     13847    TIP3     OH2      OT      -0.834000       15.9994           0
     63922 TIP3     13847    TIP3     H1       HT       0.417000       1.00800           0
     63923 TIP3     13847    TIP3     H2       HT       0.417000       1.00800           0
     63924 TIP3     13848    TIP3     OH2      OT      -0.834000       15.9994           0
     63925 TIP3     13848    TIP3     H1       HT       0.417000       1.00800           0
     63926 TIP3     13848    TIP3     H2       HT       0.417000       1.00800           0
     63927 TIP3     13849    TIP3     OH2      OT      -0.834000       15.9994           0
     63928 TIP3     13849    TIP3     H1       HT       0.417000       1.00800           0
     63929 TIP3     13849    TIP3     H2       HT       0.417000       1.00800           0
     63930 TIP3     13850    TIP3     OH2      OT      -0.834000       15.9994           0
     63931 TIP3     13850    TIP3     H1       HT       0.417000       1.00800           0
     63932 TIP3     13850    TIP3     H2       HT       0.417000       1.00800           0
     63933 TIP3     13851    TIP3     OH2      OT      -0.834000       15.9994           0
     63934 TIP3     13851    TIP3     H1       HT       0.417000       1.00800           0
     63935 TIP3     13851    TIP3     H2       HT       0.417000       1.00800           0
     63936 TIP3     13852    TIP3     OH2      OT      -0.834000       15.9994           0
     63937 TIP3     13852    TIP3     H1       HT       0.417000       1.00800           0
     63938 TIP3     13852    TIP3     H2       HT       0.417000       1.00800           0
     63939 TIP3     13853    TIP3     OH2      OT      -0.834000       15.9994           0
     63940 TIP3     13853    TIP3     H1       HT       0.417000       1.00800           0
     63941 TIP3     13853    TIP3     H2       HT       0.417000       1.00800           0
     63942 TIP3     13854    TIP3     OH2      OT      -0.834000       15.9994           0
     63943 TIP3     13854    TIP3     H1       HT       0.417000       1.00800           0
     63944 TIP3     13854    TIP3     H2       HT       0.417000       1.00800           0
     63945 TIP3     13855    TIP3     OH2      OT      -0.834000       15.9994           0
     63946 TIP3     13855    TIP3     H1       HT       0.417000       1.00800           0
     63947 TIP3     13855    TIP3     H2       HT       0.417000       1.00800           0
     63948 TIP3     13856    TIP3     OH2      OT      -0.834000       15.9994           0
     63949 TIP3     13856    TIP3     H1       HT       0.417000       1.00800           0
     63950 TIP3     13856    TIP3     H2       HT       0.417000       1.00800           0
     63951 TIP3     13857    TIP3     OH2      OT      -0.834000       15.9994           0
     63952 TIP3     13857    TIP3     H1       HT       0.417000       1.00800           0
     63953 TIP3     13857    TIP3     H2       HT       0.417000       1.00800           0
     63954 TIP3     13858    TIP3     OH2      OT      -0.834000       15.9994           0
     63955 TIP3     13858    TIP3     H1       HT       0.417000       1.00800           0
     63956 TIP3     13858    TIP3     H2       HT       0.417000       1.00800           0
     63957 TIP3     13859    TIP3     OH2      OT      -0.834000       15.9994           0
     63958 TIP3     13859    TIP3     H1       HT       0.417000       1.00800           0
     63959 TIP3     13859    TIP3     H2       HT       0.417000       1.00800           0
     63960 TIP3     13860    TIP3     OH2      OT      -0.834000       15.9994           0
     63961 TIP3     13860    TIP3     H1       HT       0.417000       1.00800           0
     63962 TIP3     13860    TIP3     H2       HT       0.417000       1.00800           0
     63963 TIP3     13861    TIP3     OH2      OT      -0.834000       15.9994           0
     63964 TIP3     13861    TIP3     H1       HT       0.417000       1.00800           0
     63965 TIP3     13861    TIP3     H2       HT       0.417000       1.00800           0
     63966 TIP3     13862    TIP3     OH2      OT      -0.834000       15.9994           0
     63967 TIP3     13862    TIP3     H1       HT       0.417000       1.00800           0
     63968 TIP3     13862    TIP3     H2       HT       0.417000       1.00800           0
     63969 TIP3     13863    TIP3     OH2      OT      -0.834000       15.9994           0
     63970 TIP3     13863    TIP3     H1       HT       0.417000       1.00800           0
     63971 TIP3     13863    TIP3     H2       HT       0.417000       1.00800           0
     63972 TIP3     13864    TIP3     OH2      OT      -0.834000       15.9994           0
     63973 TIP3     13864    TIP3     H1       HT       0.417000       1.00800           0
     63974 TIP3     13864    TIP3     H2       HT       0.417000       1.00800           0
     63975 TIP3     13865    TIP3     OH2      OT      -0.834000       15.9994           0
     63976 TIP3     13865    TIP3     H1       HT       0.417000       1.00800           0
     63977 TIP3     13865    TIP3     H2       HT       0.417000       1.00800           0
     63978 TIP3     13866    TIP3     OH2      OT      -0.834000       15.9994           0
     63979 TIP3     13866    TIP3     H1       HT       0.417000       1.00800           0
     63980 TIP3     13866    TIP3     H2       HT       0.417000       1.00800           0
     63981 TIP3     13867    TIP3     OH2      OT      -0.834000       15.9994           0
     63982 TIP3     13867    TIP3     H1       HT       0.417000       1.00800           0
     63983 TIP3     13867    TIP3     H2       HT       0.417000       1.00800           0
     63984 TIP3     13868    TIP3     OH2      OT      -0.834000       15.9994           0
     63985 TIP3     13868    TIP3     H1       HT       0.417000       1.00800           0
     63986 TIP3     13868    TIP3     H2       HT       0.417000       1.00800           0
     63987 TIP3     13869    TIP3     OH2      OT      -0.834000       15.9994           0
     63988 TIP3     13869    TIP3     H1       HT       0.417000       1.00800           0
     63989 TIP3     13869    TIP3     H2       HT       0.417000       1.00800           0
     63990 TIP3     13870    TIP3     OH2      OT      -0.834000       15.9994           0
     63991 TIP3     13870    TIP3     H1       HT       0.417000       1.00800           0
     63992 TIP3     13870    TIP3     H2       HT       0.417000       1.00800           0
     63993 TIP3     13871    TIP3     OH2      OT      -0.834000       15.9994           0
     63994 TIP3     13871    TIP3     H1       HT       0.417000       1.00800           0
     63995 TIP3     13871    TIP3     H2       HT       0.417000       1.00800           0
     63996 TIP3     13872    TIP3     OH2      OT      -0.834000       15.9994           0
     63997 TIP3     13872    TIP3     H1       HT       0.417000       1.00800           0
     63998 TIP3     13872    TIP3     H2       HT       0.417000       1.00800           0
     63999 TIP3     13873    TIP3     OH2      OT      -0.834000       15.9994           0
     64000 TIP3     13873    TIP3     H1       HT       0.417000       1.00800           0
     64001 TIP3     13873    TIP3     H2       HT       0.417000       1.00800           0
     64002 TIP3     13874    TIP3     OH2      OT      -0.834000       15.9994           0
     64003 TIP3     13874    TIP3     H1       HT       0.417000       1.00800           0
     64004 TIP3     13874    TIP3     H2       HT       0.417000       1.00800           0
     64005 TIP3     13875    TIP3     OH2      OT      -0.834000       15.9994           0
     64006 TIP3     13875    TIP3     H1       HT       0.417000       1.00800           0
     64007 TIP3     13875    TIP3     H2       HT       0.417000       1.00800           0
     64008 TIP3     13876    TIP3     OH2      OT      -0.834000       15.9994           0
     64009 TIP3     13876    TIP3     H1       HT       0.417000       1.00800           0
     64010 TIP3     13876    TIP3     H2       HT       0.417000       1.00800           0
     64011 TIP3     13877    TIP3     OH2      OT      -0.834000       15.9994           0
     64012 TIP3     13877    TIP3     H1       HT       0.417000       1.00800           0
     64013 TIP3     13877    TIP3     H2       HT       0.417000       1.00800           0
     64014 TIP3     13878    TIP3     OH2      OT      -0.834000       15.9994           0
     64015 TIP3     13878    TIP3     H1       HT       0.417000       1.00800           0
     64016 TIP3     13878    TIP3     H2       HT       0.417000       1.00800           0
     64017 TIP3     13879    TIP3     OH2      OT      -0.834000       15.9994           0
     64018 TIP3     13879    TIP3     H1       HT       0.417000       1.00800           0
     64019 TIP3     13879    TIP3     H2       HT       0.417000       1.00800           0
     64020 TIP3     13880    TIP3     OH2      OT      -0.834000       15.9994           0
     64021 TIP3     13880    TIP3     H1       HT       0.417000       1.00800           0
     64022 TIP3     13880    TIP3     H2       HT       0.417000       1.00800           0
     64023 TIP3     13881    TIP3     OH2      OT      -0.834000       15.9994           0
     64024 TIP3     13881    TIP3     H1       HT       0.417000       1.00800           0
     64025 TIP3     13881    TIP3     H2       HT       0.417000       1.00800           0
     64026 TIP3     13882    TIP3     OH2      OT      -0.834000       15.9994           0
     64027 TIP3     13882    TIP3     H1       HT       0.417000       1.00800           0
     64028 TIP3     13882    TIP3     H2       HT       0.417000       1.00800           0
     64029 TIP3     13883    TIP3     OH2      OT      -0.834000       15.9994           0
     64030 TIP3     13883    TIP3     H1       HT       0.417000       1.00800           0
     64031 TIP3     13883    TIP3     H2       HT       0.417000       1.00800           0
     64032 TIP3     13884    TIP3     OH2      OT      -0.834000       15.9994           0
     64033 TIP3     13884    TIP3     H1       HT       0.417000       1.00800           0
     64034 TIP3     13884    TIP3     H2       HT       0.417000       1.00800           0
     64035 TIP3     13885    TIP3     OH2      OT      -0.834000       15.9994           0
     64036 TIP3     13885    TIP3     H1       HT       0.417000       1.00800           0
     64037 TIP3     13885    TIP3     H2       HT       0.417000       1.00800           0
     64038 TIP3     13886    TIP3     OH2      OT      -0.834000       15.9994           0
     64039 TIP3     13886    TIP3     H1       HT       0.417000       1.00800           0
     64040 TIP3     13886    TIP3     H2       HT       0.417000       1.00800           0
     64041 TIP3     13887    TIP3     OH2      OT      -0.834000       15.9994           0
     64042 TIP3     13887    TIP3     H1       HT       0.417000       1.00800           0
     64043 TIP3     13887    TIP3     H2       HT       0.417000       1.00800           0
     64044 TIP3     13888    TIP3     OH2      OT      -0.834000       15.9994           0
     64045 TIP3     13888    TIP3     H1       HT       0.417000       1.00800           0
     64046 TIP3     13888    TIP3     H2       HT       0.417000       1.00800           0
     64047 TIP3     13889    TIP3     OH2      OT      -0.834000       15.9994           0
     64048 TIP3     13889    TIP3     H1       HT       0.417000       1.00800           0
     64049 TIP3     13889    TIP3     H2       HT       0.417000       1.00800           0
     64050 TIP3     13890    TIP3     OH2      OT      -0.834000       15.9994           0
     64051 TIP3     13890    TIP3     H1       HT       0.417000       1.00800           0
     64052 TIP3     13890    TIP3     H2       HT       0.417000       1.00800           0
     64053 TIP3     13891    TIP3     OH2      OT      -0.834000       15.9994           0
     64054 TIP3     13891    TIP3     H1       HT       0.417000       1.00800           0
     64055 TIP3     13891    TIP3     H2       HT       0.417000       1.00800           0
     64056 TIP3     13892    TIP3     OH2      OT      -0.834000       15.9994           0
     64057 TIP3     13892    TIP3     H1       HT       0.417000       1.00800           0
     64058 TIP3     13892    TIP3     H2       HT       0.417000       1.00800           0
     64059 TIP3     13893    TIP3     OH2      OT      -0.834000       15.9994           0
     64060 TIP3     13893    TIP3     H1       HT       0.417000       1.00800           0
     64061 TIP3     13893    TIP3     H2       HT       0.417000       1.00800           0
     64062 TIP3     13894    TIP3     OH2      OT      -0.834000       15.9994           0
     64063 TIP3     13894    TIP3     H1       HT       0.417000       1.00800           0
     64064 TIP3     13894    TIP3     H2       HT       0.417000       1.00800           0
     64065 TIP3     13895    TIP3     OH2      OT      -0.834000       15.9994           0
     64066 TIP3     13895    TIP3     H1       HT       0.417000       1.00800           0
     64067 TIP3     13895    TIP3     H2       HT       0.417000       1.00800           0
     64068 TIP3     13896    TIP3     OH2      OT      -0.834000       15.9994           0
     64069 TIP3     13896    TIP3     H1       HT       0.417000       1.00800           0
     64070 TIP3     13896    TIP3     H2       HT       0.417000       1.00800           0
     64071 TIP3     13897    TIP3     OH2      OT      -0.834000       15.9994           0
     64072 TIP3     13897    TIP3     H1       HT       0.417000       1.00800           0
     64073 TIP3     13897    TIP3     H2       HT       0.417000       1.00800           0
     64074 TIP3     13898    TIP3     OH2      OT      -0.834000       15.9994           0
     64075 TIP3     13898    TIP3     H1       HT       0.417000       1.00800           0
     64076 TIP3     13898    TIP3     H2       HT       0.417000       1.00800           0
     64077 TIP3     13899    TIP3     OH2      OT      -0.834000       15.9994           0
     64078 TIP3     13899    TIP3     H1       HT       0.417000       1.00800           0
     64079 TIP3     13899    TIP3     H2       HT       0.417000       1.00800           0
     64080 TIP3     13900    TIP3     OH2      OT      -0.834000       15.9994           0
     64081 TIP3     13900    TIP3     H1       HT       0.417000       1.00800           0
     64082 TIP3     13900    TIP3     H2       HT       0.417000       1.00800           0
     64083 TIP3     13901    TIP3     OH2      OT      -0.834000       15.9994           0
     64084 TIP3     13901    TIP3     H1       HT       0.417000       1.00800           0
     64085 TIP3     13901    TIP3     H2       HT       0.417000       1.00800           0
     64086 TIP3     13902    TIP3     OH2      OT      -0.834000       15.9994           0
     64087 TIP3     13902    TIP3     H1       HT       0.417000       1.00800           0
     64088 TIP3     13902    TIP3     H2       HT       0.417000       1.00800           0
     64089 TIP3     13903    TIP3     OH2      OT      -0.834000       15.9994           0
     64090 TIP3     13903    TIP3     H1       HT       0.417000       1.00800           0
     64091 TIP3     13903    TIP3     H2       HT       0.417000       1.00800           0
     64092 TIP3     13904    TIP3     OH2      OT      -0.834000       15.9994           0
     64093 TIP3     13904    TIP3     H1       HT       0.417000       1.00800           0
     64094 TIP3     13904    TIP3     H2       HT       0.417000       1.00800           0
     64095 TIP3     13905    TIP3     OH2      OT      -0.834000       15.9994           0
     64096 TIP3     13905    TIP3     H1       HT       0.417000       1.00800           0
     64097 TIP3     13905    TIP3     H2       HT       0.417000       1.00800           0
     64098 TIP3     13906    TIP3     OH2      OT      -0.834000       15.9994           0
     64099 TIP3     13906    TIP3     H1       HT       0.417000       1.00800           0
     64100 TIP3     13906    TIP3     H2       HT       0.417000       1.00800           0
     64101 TIP3     13907    TIP3     OH2      OT      -0.834000       15.9994           0
     64102 TIP3     13907    TIP3     H1       HT       0.417000       1.00800           0
     64103 TIP3     13907    TIP3     H2       HT       0.417000       1.00800           0
     64104 TIP3     13908    TIP3     OH2      OT      -0.834000       15.9994           0
     64105 TIP3     13908    TIP3     H1       HT       0.417000       1.00800           0
     64106 TIP3     13908    TIP3     H2       HT       0.417000       1.00800           0
     64107 TIP3     13909    TIP3     OH2      OT      -0.834000       15.9994           0
     64108 TIP3     13909    TIP3     H1       HT       0.417000       1.00800           0
     64109 TIP3     13909    TIP3     H2       HT       0.417000       1.00800           0
     64110 TIP3     13910    TIP3     OH2      OT      -0.834000       15.9994           0
     64111 TIP3     13910    TIP3     H1       HT       0.417000       1.00800           0
     64112 TIP3     13910    TIP3     H2       HT       0.417000       1.00800           0
     64113 TIP3     13911    TIP3     OH2      OT      -0.834000       15.9994           0
     64114 TIP3     13911    TIP3     H1       HT       0.417000       1.00800           0
     64115 TIP3     13911    TIP3     H2       HT       0.417000       1.00800           0
     64116 TIP3     13912    TIP3     OH2      OT      -0.834000       15.9994           0
     64117 TIP3     13912    TIP3     H1       HT       0.417000       1.00800           0
     64118 TIP3     13912    TIP3     H2       HT       0.417000       1.00800           0
     64119 TIP3     13913    TIP3     OH2      OT      -0.834000       15.9994           0
     64120 TIP3     13913    TIP3     H1       HT       0.417000       1.00800           0
     64121 TIP3     13913    TIP3     H2       HT       0.417000       1.00800           0
     64122 TIP3     13914    TIP3     OH2      OT      -0.834000       15.9994           0
     64123 TIP3     13914    TIP3     H1       HT       0.417000       1.00800           0
     64124 TIP3     13914    TIP3     H2       HT       0.417000       1.00800           0
     64125 TIP3     13915    TIP3     OH2      OT      -0.834000       15.9994           0
     64126 TIP3     13915    TIP3     H1       HT       0.417000       1.00800           0
     64127 TIP3     13915    TIP3     H2       HT       0.417000       1.00800           0
     64128 TIP3     13916    TIP3     OH2      OT      -0.834000       15.9994           0
     64129 TIP3     13916    TIP3     H1       HT       0.417000       1.00800           0
     64130 TIP3     13916    TIP3     H2       HT       0.417000       1.00800           0
     64131 TIP3     13917    TIP3     OH2      OT      -0.834000       15.9994           0
     64132 TIP3     13917    TIP3     H1       HT       0.417000       1.00800           0
     64133 TIP3     13917    TIP3     H2       HT       0.417000       1.00800           0
     64134 TIP3     13918    TIP3     OH2      OT      -0.834000       15.9994           0
     64135 TIP3     13918    TIP3     H1       HT       0.417000       1.00800           0
     64136 TIP3     13918    TIP3     H2       HT       0.417000       1.00800           0
     64137 TIP3     13919    TIP3     OH2      OT      -0.834000       15.9994           0
     64138 TIP3     13919    TIP3     H1       HT       0.417000       1.00800           0
     64139 TIP3     13919    TIP3     H2       HT       0.417000       1.00800           0
     64140 TIP3     13920    TIP3     OH2      OT      -0.834000       15.9994           0
     64141 TIP3     13920    TIP3     H1       HT       0.417000       1.00800           0
     64142 TIP3     13920    TIP3     H2       HT       0.417000       1.00800           0
     64143 TIP3     13921    TIP3     OH2      OT      -0.834000       15.9994           0
     64144 TIP3     13921    TIP3     H1       HT       0.417000       1.00800           0
     64145 TIP3     13921    TIP3     H2       HT       0.417000       1.00800           0
     64146 TIP3     13922    TIP3     OH2      OT      -0.834000       15.9994           0
     64147 TIP3     13922    TIP3     H1       HT       0.417000       1.00800           0
     64148 TIP3     13922    TIP3     H2       HT       0.417000       1.00800           0
     64149 TIP3     13923    TIP3     OH2      OT      -0.834000       15.9994           0
     64150 TIP3     13923    TIP3     H1       HT       0.417000       1.00800           0
     64151 TIP3     13923    TIP3     H2       HT       0.417000       1.00800           0
     64152 TIP3     13924    TIP3     OH2      OT      -0.834000       15.9994           0
     64153 TIP3     13924    TIP3     H1       HT       0.417000       1.00800           0
     64154 TIP3     13924    TIP3     H2       HT       0.417000       1.00800           0
     64155 TIP3     13925    TIP3     OH2      OT      -0.834000       15.9994           0
     64156 TIP3     13925    TIP3     H1       HT       0.417000       1.00800           0
     64157 TIP3     13925    TIP3     H2       HT       0.417000       1.00800           0
     64158 TIP3     13926    TIP3     OH2      OT      -0.834000       15.9994           0
     64159 TIP3     13926    TIP3     H1       HT       0.417000       1.00800           0
     64160 TIP3     13926    TIP3     H2       HT       0.417000       1.00800           0
     64161 TIP3     13927    TIP3     OH2      OT      -0.834000       15.9994           0
     64162 TIP3     13927    TIP3     H1       HT       0.417000       1.00800           0
     64163 TIP3     13927    TIP3     H2       HT       0.417000       1.00800           0
     64164 TIP3     13928    TIP3     OH2      OT      -0.834000       15.9994           0
     64165 TIP3     13928    TIP3     H1       HT       0.417000       1.00800           0
     64166 TIP3     13928    TIP3     H2       HT       0.417000       1.00800           0
     64167 TIP3     13929    TIP3     OH2      OT      -0.834000       15.9994           0
     64168 TIP3     13929    TIP3     H1       HT       0.417000       1.00800           0
     64169 TIP3     13929    TIP3     H2       HT       0.417000       1.00800           0
     64170 TIP3     13930    TIP3     OH2      OT      -0.834000       15.9994           0
     64171 TIP3     13930    TIP3     H1       HT       0.417000       1.00800           0
     64172 TIP3     13930    TIP3     H2       HT       0.417000       1.00800           0
     64173 TIP3     13931    TIP3     OH2      OT      -0.834000       15.9994           0
     64174 TIP3     13931    TIP3     H1       HT       0.417000       1.00800           0
     64175 TIP3     13931    TIP3     H2       HT       0.417000       1.00800           0
     64176 TIP3     13932    TIP3     OH2      OT      -0.834000       15.9994           0
     64177 TIP3     13932    TIP3     H1       HT       0.417000       1.00800           0
     64178 TIP3     13932    TIP3     H2       HT       0.417000       1.00800           0
     64179 TIP3     13933    TIP3     OH2      OT      -0.834000       15.9994           0
     64180 TIP3     13933    TIP3     H1       HT       0.417000       1.00800           0
     64181 TIP3     13933    TIP3     H2       HT       0.417000       1.00800           0
     64182 TIP3     13934    TIP3     OH2      OT      -0.834000       15.9994           0
     64183 TIP3     13934    TIP3     H1       HT       0.417000       1.00800           0
     64184 TIP3     13934    TIP3     H2       HT       0.417000       1.00800           0
     64185 TIP3     13935    TIP3     OH2      OT      -0.834000       15.9994           0
     64186 TIP3     13935    TIP3     H1       HT       0.417000       1.00800           0
     64187 TIP3     13935    TIP3     H2       HT       0.417000       1.00800           0
     64188 TIP3     13936    TIP3     OH2      OT      -0.834000       15.9994           0
     64189 TIP3     13936    TIP3     H1       HT       0.417000       1.00800           0
     64190 TIP3     13936    TIP3     H2       HT       0.417000       1.00800           0
     64191 TIP3     13937    TIP3     OH2      OT      -0.834000       15.9994           0
     64192 TIP3     13937    TIP3     H1       HT       0.417000       1.00800           0
     64193 TIP3     13937    TIP3     H2       HT       0.417000       1.00800           0
     64194 TIP3     13938    TIP3     OH2      OT      -0.834000       15.9994           0
     64195 TIP3     13938    TIP3     H1       HT       0.417000       1.00800           0
     64196 TIP3     13938    TIP3     H2       HT       0.417000       1.00800           0
     64197 TIP3     13939    TIP3     OH2      OT      -0.834000       15.9994           0
     64198 TIP3     13939    TIP3     H1       HT       0.417000       1.00800           0
     64199 TIP3     13939    TIP3     H2       HT       0.417000       1.00800           0
     64200 TIP3     13940    TIP3     OH2      OT      -0.834000       15.9994           0
     64201 TIP3     13940    TIP3     H1       HT       0.417000       1.00800           0
     64202 TIP3     13940    TIP3     H2       HT       0.417000       1.00800           0
     64203 TIP3     13941    TIP3     OH2      OT      -0.834000       15.9994           0
     64204 TIP3     13941    TIP3     H1       HT       0.417000       1.00800           0
     64205 TIP3     13941    TIP3     H2       HT       0.417000       1.00800           0
     64206 TIP3     13942    TIP3     OH2      OT      -0.834000       15.9994           0
     64207 TIP3     13942    TIP3     H1       HT       0.417000       1.00800           0
     64208 TIP3     13942    TIP3     H2       HT       0.417000       1.00800           0
     64209 TIP3     13943    TIP3     OH2      OT      -0.834000       15.9994           0
     64210 TIP3     13943    TIP3     H1       HT       0.417000       1.00800           0
     64211 TIP3     13943    TIP3     H2       HT       0.417000       1.00800           0
     64212 TIP3     13944    TIP3     OH2      OT      -0.834000       15.9994           0
     64213 TIP3     13944    TIP3     H1       HT       0.417000       1.00800           0
     64214 TIP3     13944    TIP3     H2       HT       0.417000       1.00800           0
     64215 TIP3     13945    TIP3     OH2      OT      -0.834000       15.9994           0
     64216 TIP3     13945    TIP3     H1       HT       0.417000       1.00800           0
     64217 TIP3     13945    TIP3     H2       HT       0.417000       1.00800           0
     64218 TIP3     13946    TIP3     OH2      OT      -0.834000       15.9994           0
     64219 TIP3     13946    TIP3     H1       HT       0.417000       1.00800           0
     64220 TIP3     13946    TIP3     H2       HT       0.417000       1.00800           0
     64221 TIP3     13947    TIP3     OH2      OT      -0.834000       15.9994           0
     64222 TIP3     13947    TIP3     H1       HT       0.417000       1.00800           0
     64223 TIP3     13947    TIP3     H2       HT       0.417000       1.00800           0
     64224 TIP3     13948    TIP3     OH2      OT      -0.834000       15.9994           0
     64225 TIP3     13948    TIP3     H1       HT       0.417000       1.00800           0
     64226 TIP3     13948    TIP3     H2       HT       0.417000       1.00800           0
     64227 TIP3     13949    TIP3     OH2      OT      -0.834000       15.9994           0
     64228 TIP3     13949    TIP3     H1       HT       0.417000       1.00800           0
     64229 TIP3     13949    TIP3     H2       HT       0.417000       1.00800           0
     64230 TIP3     13950    TIP3     OH2      OT      -0.834000       15.9994           0
     64231 TIP3     13950    TIP3     H1       HT       0.417000       1.00800           0
     64232 TIP3     13950    TIP3     H2       HT       0.417000       1.00800           0
     64233 TIP3     13951    TIP3     OH2      OT      -0.834000       15.9994           0
     64234 TIP3     13951    TIP3     H1       HT       0.417000       1.00800           0
     64235 TIP3     13951    TIP3     H2       HT       0.417000       1.00800           0
     64236 TIP3     13952    TIP3     OH2      OT      -0.834000       15.9994           0
     64237 TIP3     13952    TIP3     H1       HT       0.417000       1.00800           0
     64238 TIP3     13952    TIP3     H2       HT       0.417000       1.00800           0
     64239 TIP3     13953    TIP3     OH2      OT      -0.834000       15.9994           0
     64240 TIP3     13953    TIP3     H1       HT       0.417000       1.00800           0
     64241 TIP3     13953    TIP3     H2       HT       0.417000       1.00800           0
     64242 TIP3     13954    TIP3     OH2      OT      -0.834000       15.9994           0
     64243 TIP3     13954    TIP3     H1       HT       0.417000       1.00800           0
     64244 TIP3     13954    TIP3     H2       HT       0.417000       1.00800           0
     64245 TIP3     13955    TIP3     OH2      OT      -0.834000       15.9994           0
     64246 TIP3     13955    TIP3     H1       HT       0.417000       1.00800           0
     64247 TIP3     13955    TIP3     H2       HT       0.417000       1.00800           0
     64248 TIP3     13956    TIP3     OH2      OT      -0.834000       15.9994           0
     64249 TIP3     13956    TIP3     H1       HT       0.417000       1.00800           0
     64250 TIP3     13956    TIP3     H2       HT       0.417000       1.00800           0
     64251 TIP3     13957    TIP3     OH2      OT      -0.834000       15.9994           0
     64252 TIP3     13957    TIP3     H1       HT       0.417000       1.00800           0
     64253 TIP3     13957    TIP3     H2       HT       0.417000       1.00800           0
     64254 TIP3     13958    TIP3     OH2      OT      -0.834000       15.9994           0
     64255 TIP3     13958    TIP3     H1       HT       0.417000       1.00800           0
     64256 TIP3     13958    TIP3     H2       HT       0.417000       1.00800           0
     64257 TIP3     13959    TIP3     OH2      OT      -0.834000       15.9994           0
     64258 TIP3     13959    TIP3     H1       HT       0.417000       1.00800           0
     64259 TIP3     13959    TIP3     H2       HT       0.417000       1.00800           0
     64260 TIP3     13960    TIP3     OH2      OT      -0.834000       15.9994           0
     64261 TIP3     13960    TIP3     H1       HT       0.417000       1.00800           0
     64262 TIP3     13960    TIP3     H2       HT       0.417000       1.00800           0
     64263 TIP3     13961    TIP3     OH2      OT      -0.834000       15.9994           0
     64264 TIP3     13961    TIP3     H1       HT       0.417000       1.00800           0
     64265 TIP3     13961    TIP3     H2       HT       0.417000       1.00800           0
     64266 TIP3     13962    TIP3     OH2      OT      -0.834000       15.9994           0
     64267 TIP3     13962    TIP3     H1       HT       0.417000       1.00800           0
     64268 TIP3     13962    TIP3     H2       HT       0.417000       1.00800           0
     64269 TIP3     13963    TIP3     OH2      OT      -0.834000       15.9994           0
     64270 TIP3     13963    TIP3     H1       HT       0.417000       1.00800           0
     64271 TIP3     13963    TIP3     H2       HT       0.417000       1.00800           0
     64272 TIP3     13964    TIP3     OH2      OT      -0.834000       15.9994           0
     64273 TIP3     13964    TIP3     H1       HT       0.417000       1.00800           0
     64274 TIP3     13964    TIP3     H2       HT       0.417000       1.00800           0
     64275 TIP3     13965    TIP3     OH2      OT      -0.834000       15.9994           0
     64276 TIP3     13965    TIP3     H1       HT       0.417000       1.00800           0
     64277 TIP3     13965    TIP3     H2       HT       0.417000       1.00800           0
     64278 TIP3     13966    TIP3     OH2      OT      -0.834000       15.9994           0
     64279 TIP3     13966    TIP3     H1       HT       0.417000       1.00800           0
     64280 TIP3     13966    TIP3     H2       HT       0.417000       1.00800           0
     64281 TIP3     13967    TIP3     OH2      OT      -0.834000       15.9994           0
     64282 TIP3     13967    TIP3     H1       HT       0.417000       1.00800           0
     64283 TIP3     13967    TIP3     H2       HT       0.417000       1.00800           0
     64284 TIP3     13968    TIP3     OH2      OT      -0.834000       15.9994           0
     64285 TIP3     13968    TIP3     H1       HT       0.417000       1.00800           0
     64286 TIP3     13968    TIP3     H2       HT       0.417000       1.00800           0
     64287 TIP3     13969    TIP3     OH2      OT      -0.834000       15.9994           0
     64288 TIP3     13969    TIP3     H1       HT       0.417000       1.00800           0
     64289 TIP3     13969    TIP3     H2       HT       0.417000       1.00800           0
     64290 TIP3     13970    TIP3     OH2      OT      -0.834000       15.9994           0
     64291 TIP3     13970    TIP3     H1       HT       0.417000       1.00800           0
     64292 TIP3     13970    TIP3     H2       HT       0.417000       1.00800           0
     64293 TIP3     13971    TIP3     OH2      OT      -0.834000       15.9994           0
     64294 TIP3     13971    TIP3     H1       HT       0.417000       1.00800           0
     64295 TIP3     13971    TIP3     H2       HT       0.417000       1.00800           0
     64296 TIP3     13972    TIP3     OH2      OT      -0.834000       15.9994           0
     64297 TIP3     13972    TIP3     H1       HT       0.417000       1.00800           0
     64298 TIP3     13972    TIP3     H2       HT       0.417000       1.00800           0
     64299 TIP3     13973    TIP3     OH2      OT      -0.834000       15.9994           0
     64300 TIP3     13973    TIP3     H1       HT       0.417000       1.00800           0
     64301 TIP3     13973    TIP3     H2       HT       0.417000       1.00800           0
     64302 TIP3     13974    TIP3     OH2      OT      -0.834000       15.9994           0
     64303 TIP3     13974    TIP3     H1       HT       0.417000       1.00800           0
     64304 TIP3     13974    TIP3     H2       HT       0.417000       1.00800           0
     64305 TIP3     13975    TIP3     OH2      OT      -0.834000       15.9994           0
     64306 TIP3     13975    TIP3     H1       HT       0.417000       1.00800           0
     64307 TIP3     13975    TIP3     H2       HT       0.417000       1.00800           0
     64308 TIP3     13976    TIP3     OH2      OT      -0.834000       15.9994           0
     64309 TIP3     13976    TIP3     H1       HT       0.417000       1.00800           0
     64310 TIP3     13976    TIP3     H2       HT       0.417000       1.00800           0
     64311 TIP3     13977    TIP3     OH2      OT      -0.834000       15.9994           0
     64312 TIP3     13977    TIP3     H1       HT       0.417000       1.00800           0
     64313 TIP3     13977    TIP3     H2       HT       0.417000       1.00800           0
     64314 TIP3     13978    TIP3     OH2      OT      -0.834000       15.9994           0
     64315 TIP3     13978    TIP3     H1       HT       0.417000       1.00800           0
     64316 TIP3     13978    TIP3     H2       HT       0.417000       1.00800           0
     64317 TIP3     13979    TIP3     OH2      OT      -0.834000       15.9994           0
     64318 TIP3     13979    TIP3     H1       HT       0.417000       1.00800           0
     64319 TIP3     13979    TIP3     H2       HT       0.417000       1.00800           0
     64320 TIP3     13980    TIP3     OH2      OT      -0.834000       15.9994           0
     64321 TIP3     13980    TIP3     H1       HT       0.417000       1.00800           0
     64322 TIP3     13980    TIP3     H2       HT       0.417000       1.00800           0
     64323 TIP3     13981    TIP3     OH2      OT      -0.834000       15.9994           0
     64324 TIP3     13981    TIP3     H1       HT       0.417000       1.00800           0
     64325 TIP3     13981    TIP3     H2       HT       0.417000       1.00800           0
     64326 TIP3     13982    TIP3     OH2      OT      -0.834000       15.9994           0
     64327 TIP3     13982    TIP3     H1       HT       0.417000       1.00800           0
     64328 TIP3     13982    TIP3     H2       HT       0.417000       1.00800           0
     64329 TIP3     13983    TIP3     OH2      OT      -0.834000       15.9994           0
     64330 TIP3     13983    TIP3     H1       HT       0.417000       1.00800           0
     64331 TIP3     13983    TIP3     H2       HT       0.417000       1.00800           0
     64332 TIP3     13984    TIP3     OH2      OT      -0.834000       15.9994           0
     64333 TIP3     13984    TIP3     H1       HT       0.417000       1.00800           0
     64334 TIP3     13984    TIP3     H2       HT       0.417000       1.00800           0
     64335 TIP3     13985    TIP3     OH2      OT      -0.834000       15.9994           0
     64336 TIP3     13985    TIP3     H1       HT       0.417000       1.00800           0
     64337 TIP3     13985    TIP3     H2       HT       0.417000       1.00800           0
     64338 TIP3     13986    TIP3     OH2      OT      -0.834000       15.9994           0
     64339 TIP3     13986    TIP3     H1       HT       0.417000       1.00800           0
     64340 TIP3     13986    TIP3     H2       HT       0.417000       1.00800           0
     64341 TIP3     13987    TIP3     OH2      OT      -0.834000       15.9994           0
     64342 TIP3     13987    TIP3     H1       HT       0.417000       1.00800           0
     64343 TIP3     13987    TIP3     H2       HT       0.417000       1.00800           0
     64344 TIP3     13988    TIP3     OH2      OT      -0.834000       15.9994           0
     64345 TIP3     13988    TIP3     H1       HT       0.417000       1.00800           0
     64346 TIP3     13988    TIP3     H2       HT       0.417000       1.00800           0
     64347 TIP3     13989    TIP3     OH2      OT      -0.834000       15.9994           0
     64348 TIP3     13989    TIP3     H1       HT       0.417000       1.00800           0
     64349 TIP3     13989    TIP3     H2       HT       0.417000       1.00800           0
     64350 TIP3     13990    TIP3     OH2      OT      -0.834000       15.9994           0
     64351 TIP3     13990    TIP3     H1       HT       0.417000       1.00800           0
     64352 TIP3     13990    TIP3     H2       HT       0.417000       1.00800           0
     64353 TIP3     13991    TIP3     OH2      OT      -0.834000       15.9994           0
     64354 TIP3     13991    TIP3     H1       HT       0.417000       1.00800           0
     64355 TIP3     13991    TIP3     H2       HT       0.417000       1.00800           0
     64356 TIP3     13992    TIP3     OH2      OT      -0.834000       15.9994           0
     64357 TIP3     13992    TIP3     H1       HT       0.417000       1.00800           0
     64358 TIP3     13992    TIP3     H2       HT       0.417000       1.00800           0
     64359 TIP3     13993    TIP3     OH2      OT      -0.834000       15.9994           0
     64360 TIP3     13993    TIP3     H1       HT       0.417000       1.00800           0
     64361 TIP3     13993    TIP3     H2       HT       0.417000       1.00800           0
     64362 TIP3     13994    TIP3     OH2      OT      -0.834000       15.9994           0
     64363 TIP3     13994    TIP3     H1       HT       0.417000       1.00800           0
     64364 TIP3     13994    TIP3     H2       HT       0.417000       1.00800           0
     64365 TIP3     13995    TIP3     OH2      OT      -0.834000       15.9994           0
     64366 TIP3     13995    TIP3     H1       HT       0.417000       1.00800           0
     64367 TIP3     13995    TIP3     H2       HT       0.417000       1.00800           0
     64368 TIP3     13996    TIP3     OH2      OT      -0.834000       15.9994           0
     64369 TIP3     13996    TIP3     H1       HT       0.417000       1.00800           0
     64370 TIP3     13996    TIP3     H2       HT       0.417000       1.00800           0
     64371 TIP3     13997    TIP3     OH2      OT      -0.834000       15.9994           0
     64372 TIP3     13997    TIP3     H1       HT       0.417000       1.00800           0
     64373 TIP3     13997    TIP3     H2       HT       0.417000       1.00800           0
     64374 TIP3     13998    TIP3     OH2      OT      -0.834000       15.9994           0
     64375 TIP3     13998    TIP3     H1       HT       0.417000       1.00800           0
     64376 TIP3     13998    TIP3     H2       HT       0.417000       1.00800           0
     64377 TIP3     13999    TIP3     OH2      OT      -0.834000       15.9994           0
     64378 TIP3     13999    TIP3     H1       HT       0.417000       1.00800           0
     64379 TIP3     13999    TIP3     H2       HT       0.417000       1.00800           0
     64380 TIP3     14000    TIP3     OH2      OT      -0.834000       15.9994           0
     64381 TIP3     14000    TIP3     H1       HT       0.417000       1.00800           0
     64382 TIP3     14000    TIP3     H2       HT       0.417000       1.00800           0
     64383 TIP3     14001    TIP3     OH2      OT      -0.834000       15.9994           0
     64384 TIP3     14001    TIP3     H1       HT       0.417000       1.00800           0
     64385 TIP3     14001    TIP3     H2       HT       0.417000       1.00800           0
     64386 TIP3     14002    TIP3     OH2      OT      -0.834000       15.9994           0
     64387 TIP3     14002    TIP3     H1       HT       0.417000       1.00800           0
     64388 TIP3     14002    TIP3     H2       HT       0.417000       1.00800           0
     64389 TIP3     14003    TIP3     OH2      OT      -0.834000       15.9994           0
     64390 TIP3     14003    TIP3     H1       HT       0.417000       1.00800           0
     64391 TIP3     14003    TIP3     H2       HT       0.417000       1.00800           0
     64392 TIP3     14004    TIP3     OH2      OT      -0.834000       15.9994           0
     64393 TIP3     14004    TIP3     H1       HT       0.417000       1.00800           0
     64394 TIP3     14004    TIP3     H2       HT       0.417000       1.00800           0
     64395 TIP3     14005    TIP3     OH2      OT      -0.834000       15.9994           0
     64396 TIP3     14005    TIP3     H1       HT       0.417000       1.00800           0
     64397 TIP3     14005    TIP3     H2       HT       0.417000       1.00800           0
     64398 TIP3     14006    TIP3     OH2      OT      -0.834000       15.9994           0
     64399 TIP3     14006    TIP3     H1       HT       0.417000       1.00800           0
     64400 TIP3     14006    TIP3     H2       HT       0.417000       1.00800           0
     64401 TIP3     14007    TIP3     OH2      OT      -0.834000       15.9994           0
     64402 TIP3     14007    TIP3     H1       HT       0.417000       1.00800           0
     64403 TIP3     14007    TIP3     H2       HT       0.417000       1.00800           0
     64404 TIP3     14008    TIP3     OH2      OT      -0.834000       15.9994           0
     64405 TIP3     14008    TIP3     H1       HT       0.417000       1.00800           0
     64406 TIP3     14008    TIP3     H2       HT       0.417000       1.00800           0
     64407 TIP3     14009    TIP3     OH2      OT      -0.834000       15.9994           0
     64408 TIP3     14009    TIP3     H1       HT       0.417000       1.00800           0
     64409 TIP3     14009    TIP3     H2       HT       0.417000       1.00800           0
     64410 TIP3     14010    TIP3     OH2      OT      -0.834000       15.9994           0
     64411 TIP3     14010    TIP3     H1       HT       0.417000       1.00800           0
     64412 TIP3     14010    TIP3     H2       HT       0.417000       1.00800           0
     64413 TIP3     14011    TIP3     OH2      OT      -0.834000       15.9994           0
     64414 TIP3     14011    TIP3     H1       HT       0.417000       1.00800           0
     64415 TIP3     14011    TIP3     H2       HT       0.417000       1.00800           0
     64416 TIP3     14012    TIP3     OH2      OT      -0.834000       15.9994           0
     64417 TIP3     14012    TIP3     H1       HT       0.417000       1.00800           0
     64418 TIP3     14012    TIP3     H2       HT       0.417000       1.00800           0
     64419 TIP3     14013    TIP3     OH2      OT      -0.834000       15.9994           0
     64420 TIP3     14013    TIP3     H1       HT       0.417000       1.00800           0
     64421 TIP3     14013    TIP3     H2       HT       0.417000       1.00800           0
     64422 TIP3     14014    TIP3     OH2      OT      -0.834000       15.9994           0
     64423 TIP3     14014    TIP3     H1       HT       0.417000       1.00800           0
     64424 TIP3     14014    TIP3     H2       HT       0.417000       1.00800           0
     64425 TIP3     14015    TIP3     OH2      OT      -0.834000       15.9994           0
     64426 TIP3     14015    TIP3     H1       HT       0.417000       1.00800           0
     64427 TIP3     14015    TIP3     H2       HT       0.417000       1.00800           0
     64428 TIP3     14016    TIP3     OH2      OT      -0.834000       15.9994           0
     64429 TIP3     14016    TIP3     H1       HT       0.417000       1.00800           0
     64430 TIP3     14016    TIP3     H2       HT       0.417000       1.00800           0
     64431 TIP3     14017    TIP3     OH2      OT      -0.834000       15.9994           0
     64432 TIP3     14017    TIP3     H1       HT       0.417000       1.00800           0
     64433 TIP3     14017    TIP3     H2       HT       0.417000       1.00800           0
     64434 TIP3     14018    TIP3     OH2      OT      -0.834000       15.9994           0
     64435 TIP3     14018    TIP3     H1       HT       0.417000       1.00800           0
     64436 TIP3     14018    TIP3     H2       HT       0.417000       1.00800           0
     64437 TIP3     14019    TIP3     OH2      OT      -0.834000       15.9994           0
     64438 TIP3     14019    TIP3     H1       HT       0.417000       1.00800           0
     64439 TIP3     14019    TIP3     H2       HT       0.417000       1.00800           0
     64440 TIP3     14020    TIP3     OH2      OT      -0.834000       15.9994           0
     64441 TIP3     14020    TIP3     H1       HT       0.417000       1.00800           0
     64442 TIP3     14020    TIP3     H2       HT       0.417000       1.00800           0
     64443 TIP3     14021    TIP3     OH2      OT      -0.834000       15.9994           0
     64444 TIP3     14021    TIP3     H1       HT       0.417000       1.00800           0
     64445 TIP3     14021    TIP3     H2       HT       0.417000       1.00800           0
     64446 TIP3     14022    TIP3     OH2      OT      -0.834000       15.9994           0
     64447 TIP3     14022    TIP3     H1       HT       0.417000       1.00800           0
     64448 TIP3     14022    TIP3     H2       HT       0.417000       1.00800           0
     64449 TIP3     14023    TIP3     OH2      OT      -0.834000       15.9994           0
     64450 TIP3     14023    TIP3     H1       HT       0.417000       1.00800           0
     64451 TIP3     14023    TIP3     H2       HT       0.417000       1.00800           0
     64452 TIP3     14024    TIP3     OH2      OT      -0.834000       15.9994           0
     64453 TIP3     14024    TIP3     H1       HT       0.417000       1.00800           0
     64454 TIP3     14024    TIP3     H2       HT       0.417000       1.00800           0
     64455 TIP3     14025    TIP3     OH2      OT      -0.834000       15.9994           0
     64456 TIP3     14025    TIP3     H1       HT       0.417000       1.00800           0
     64457 TIP3     14025    TIP3     H2       HT       0.417000       1.00800           0
     64458 TIP3     14026    TIP3     OH2      OT      -0.834000       15.9994           0
     64459 TIP3     14026    TIP3     H1       HT       0.417000       1.00800           0
     64460 TIP3     14026    TIP3     H2       HT       0.417000       1.00800           0
     64461 TIP3     14027    TIP3     OH2      OT      -0.834000       15.9994           0
     64462 TIP3     14027    TIP3     H1       HT       0.417000       1.00800           0
     64463 TIP3     14027    TIP3     H2       HT       0.417000       1.00800           0
     64464 TIP3     14028    TIP3     OH2      OT      -0.834000       15.9994           0
     64465 TIP3     14028    TIP3     H1       HT       0.417000       1.00800           0
     64466 TIP3     14028    TIP3     H2       HT       0.417000       1.00800           0
     64467 TIP3     14029    TIP3     OH2      OT      -0.834000       15.9994           0
     64468 TIP3     14029    TIP3     H1       HT       0.417000       1.00800           0
     64469 TIP3     14029    TIP3     H2       HT       0.417000       1.00800           0
     64470 TIP3     14030    TIP3     OH2      OT      -0.834000       15.9994           0
     64471 TIP3     14030    TIP3     H1       HT       0.417000       1.00800           0
     64472 TIP3     14030    TIP3     H2       HT       0.417000       1.00800           0
     64473 TIP3     14031    TIP3     OH2      OT      -0.834000       15.9994           0
     64474 TIP3     14031    TIP3     H1       HT       0.417000       1.00800           0
     64475 TIP3     14031    TIP3     H2       HT       0.417000       1.00800           0
     64476 TIP3     14032    TIP3     OH2      OT      -0.834000       15.9994           0
     64477 TIP3     14032    TIP3     H1       HT       0.417000       1.00800           0
     64478 TIP3     14032    TIP3     H2       HT       0.417000       1.00800           0
     64479 TIP3     14033    TIP3     OH2      OT      -0.834000       15.9994           0
     64480 TIP3     14033    TIP3     H1       HT       0.417000       1.00800           0
     64481 TIP3     14033    TIP3     H2       HT       0.417000       1.00800           0
     64482 TIP3     14034    TIP3     OH2      OT      -0.834000       15.9994           0
     64483 TIP3     14034    TIP3     H1       HT       0.417000       1.00800           0
     64484 TIP3     14034    TIP3     H2       HT       0.417000       1.00800           0
     64485 TIP3     14035    TIP3     OH2      OT      -0.834000       15.9994           0
     64486 TIP3     14035    TIP3     H1       HT       0.417000       1.00800           0
     64487 TIP3     14035    TIP3     H2       HT       0.417000       1.00800           0
     64488 TIP3     14036    TIP3     OH2      OT      -0.834000       15.9994           0
     64489 TIP3     14036    TIP3     H1       HT       0.417000       1.00800           0
     64490 TIP3     14036    TIP3     H2       HT       0.417000       1.00800           0
     64491 TIP3     14037    TIP3     OH2      OT      -0.834000       15.9994           0
     64492 TIP3     14037    TIP3     H1       HT       0.417000       1.00800           0
     64493 TIP3     14037    TIP3     H2       HT       0.417000       1.00800           0
     64494 TIP3     14038    TIP3     OH2      OT      -0.834000       15.9994           0
     64495 TIP3     14038    TIP3     H1       HT       0.417000       1.00800           0
     64496 TIP3     14038    TIP3     H2       HT       0.417000       1.00800           0
     64497 TIP3     14039    TIP3     OH2      OT      -0.834000       15.9994           0
     64498 TIP3     14039    TIP3     H1       HT       0.417000       1.00800           0
     64499 TIP3     14039    TIP3     H2       HT       0.417000       1.00800           0
     64500 TIP3     14040    TIP3     OH2      OT      -0.834000       15.9994           0
     64501 TIP3     14040    TIP3     H1       HT       0.417000       1.00800           0
     64502 TIP3     14040    TIP3     H2       HT       0.417000       1.00800           0
     64503 TIP3     14041    TIP3     OH2      OT      -0.834000       15.9994           0
     64504 TIP3     14041    TIP3     H1       HT       0.417000       1.00800           0
     64505 TIP3     14041    TIP3     H2       HT       0.417000       1.00800           0
     64506 TIP3     14042    TIP3     OH2      OT      -0.834000       15.9994           0
     64507 TIP3     14042    TIP3     H1       HT       0.417000       1.00800           0
     64508 TIP3     14042    TIP3     H2       HT       0.417000       1.00800           0
     64509 TIP3     14043    TIP3     OH2      OT      -0.834000       15.9994           0
     64510 TIP3     14043    TIP3     H1       HT       0.417000       1.00800           0
     64511 TIP3     14043    TIP3     H2       HT       0.417000       1.00800           0
     64512 TIP3     14044    TIP3     OH2      OT      -0.834000       15.9994           0
     64513 TIP3     14044    TIP3     H1       HT       0.417000       1.00800           0
     64514 TIP3     14044    TIP3     H2       HT       0.417000       1.00800           0
     64515 TIP3     14045    TIP3     OH2      OT      -0.834000       15.9994           0
     64516 TIP3     14045    TIP3     H1       HT       0.417000       1.00800           0
     64517 TIP3     14045    TIP3     H2       HT       0.417000       1.00800           0
     64518 TIP3     14046    TIP3     OH2      OT      -0.834000       15.9994           0
     64519 TIP3     14046    TIP3     H1       HT       0.417000       1.00800           0
     64520 TIP3     14046    TIP3     H2       HT       0.417000       1.00800           0
     64521 TIP3     14047    TIP3     OH2      OT      -0.834000       15.9994           0
     64522 TIP3     14047    TIP3     H1       HT       0.417000       1.00800           0
     64523 TIP3     14047    TIP3     H2       HT       0.417000       1.00800           0
     64524 TIP3     14048    TIP3     OH2      OT      -0.834000       15.9994           0
     64525 TIP3     14048    TIP3     H1       HT       0.417000       1.00800           0
     64526 TIP3     14048    TIP3     H2       HT       0.417000       1.00800           0
     64527 TIP3     14049    TIP3     OH2      OT      -0.834000       15.9994           0
     64528 TIP3     14049    TIP3     H1       HT       0.417000       1.00800           0
     64529 TIP3     14049    TIP3     H2       HT       0.417000       1.00800           0
     64530 TIP3     14050    TIP3     OH2      OT      -0.834000       15.9994           0
     64531 TIP3     14050    TIP3     H1       HT       0.417000       1.00800           0
     64532 TIP3     14050    TIP3     H2       HT       0.417000       1.00800           0
     64533 TIP3     14051    TIP3     OH2      OT      -0.834000       15.9994           0
     64534 TIP3     14051    TIP3     H1       HT       0.417000       1.00800           0
     64535 TIP3     14051    TIP3     H2       HT       0.417000       1.00800           0
     64536 TIP3     14052    TIP3     OH2      OT      -0.834000       15.9994           0
     64537 TIP3     14052    TIP3     H1       HT       0.417000       1.00800           0
     64538 TIP3     14052    TIP3     H2       HT       0.417000       1.00800           0
     64539 TIP3     14053    TIP3     OH2      OT      -0.834000       15.9994           0
     64540 TIP3     14053    TIP3     H1       HT       0.417000       1.00800           0
     64541 TIP3     14053    TIP3     H2       HT       0.417000       1.00800           0
     64542 TIP3     14054    TIP3     OH2      OT      -0.834000       15.9994           0
     64543 TIP3     14054    TIP3     H1       HT       0.417000       1.00800           0
     64544 TIP3     14054    TIP3     H2       HT       0.417000       1.00800           0
     64545 TIP3     14055    TIP3     OH2      OT      -0.834000       15.9994           0
     64546 TIP3     14055    TIP3     H1       HT       0.417000       1.00800           0
     64547 TIP3     14055    TIP3     H2       HT       0.417000       1.00800           0
     64548 TIP3     14056    TIP3     OH2      OT      -0.834000       15.9994           0
     64549 TIP3     14056    TIP3     H1       HT       0.417000       1.00800           0
     64550 TIP3     14056    TIP3     H2       HT       0.417000       1.00800           0
     64551 TIP3     14057    TIP3     OH2      OT      -0.834000       15.9994           0
     64552 TIP3     14057    TIP3     H1       HT       0.417000       1.00800           0
     64553 TIP3     14057    TIP3     H2       HT       0.417000       1.00800           0
     64554 TIP3     14058    TIP3     OH2      OT      -0.834000       15.9994           0
     64555 TIP3     14058    TIP3     H1       HT       0.417000       1.00800           0
     64556 TIP3     14058    TIP3     H2       HT       0.417000       1.00800           0
     64557 TIP3     14059    TIP3     OH2      OT      -0.834000       15.9994           0
     64558 TIP3     14059    TIP3     H1       HT       0.417000       1.00800           0
     64559 TIP3     14059    TIP3     H2       HT       0.417000       1.00800           0
     64560 TIP3     14060    TIP3     OH2      OT      -0.834000       15.9994           0
     64561 TIP3     14060    TIP3     H1       HT       0.417000       1.00800           0
     64562 TIP3     14060    TIP3     H2       HT       0.417000       1.00800           0
     64563 TIP3     14061    TIP3     OH2      OT      -0.834000       15.9994           0
     64564 TIP3     14061    TIP3     H1       HT       0.417000       1.00800           0
     64565 TIP3     14061    TIP3     H2       HT       0.417000       1.00800           0
     64566 TIP3     14062    TIP3     OH2      OT      -0.834000       15.9994           0
     64567 TIP3     14062    TIP3     H1       HT       0.417000       1.00800           0
     64568 TIP3     14062    TIP3     H2       HT       0.417000       1.00800           0
     64569 TIP3     14063    TIP3     OH2      OT      -0.834000       15.9994           0
     64570 TIP3     14063    TIP3     H1       HT       0.417000       1.00800           0
     64571 TIP3     14063    TIP3     H2       HT       0.417000       1.00800           0
     64572 TIP3     14064    TIP3     OH2      OT      -0.834000       15.9994           0
     64573 TIP3     14064    TIP3     H1       HT       0.417000       1.00800           0
     64574 TIP3     14064    TIP3     H2       HT       0.417000       1.00800           0
     64575 TIP3     14065    TIP3     OH2      OT      -0.834000       15.9994           0
     64576 TIP3     14065    TIP3     H1       HT       0.417000       1.00800           0
     64577 TIP3     14065    TIP3     H2       HT       0.417000       1.00800           0
     64578 TIP3     14066    TIP3     OH2      OT      -0.834000       15.9994           0
     64579 TIP3     14066    TIP3     H1       HT       0.417000       1.00800           0
     64580 TIP3     14066    TIP3     H2       HT       0.417000       1.00800           0
     64581 TIP3     14067    TIP3     OH2      OT      -0.834000       15.9994           0
     64582 TIP3     14067    TIP3     H1       HT       0.417000       1.00800           0
     64583 TIP3     14067    TIP3     H2       HT       0.417000       1.00800           0
     64584 TIP3     14068    TIP3     OH2      OT      -0.834000       15.9994           0
     64585 TIP3     14068    TIP3     H1       HT       0.417000       1.00800           0
     64586 TIP3     14068    TIP3     H2       HT       0.417000       1.00800           0
     64587 TIP3     14069    TIP3     OH2      OT      -0.834000       15.9994           0
     64588 TIP3     14069    TIP3     H1       HT       0.417000       1.00800           0
     64589 TIP3     14069    TIP3     H2       HT       0.417000       1.00800           0
     64590 TIP3     14070    TIP3     OH2      OT      -0.834000       15.9994           0
     64591 TIP3     14070    TIP3     H1       HT       0.417000       1.00800           0
     64592 TIP3     14070    TIP3     H2       HT       0.417000       1.00800           0
     64593 TIP3     14071    TIP3     OH2      OT      -0.834000       15.9994           0
     64594 TIP3     14071    TIP3     H1       HT       0.417000       1.00800           0
     64595 TIP3     14071    TIP3     H2       HT       0.417000       1.00800           0
     64596 TIP3     14072    TIP3     OH2      OT      -0.834000       15.9994           0
     64597 TIP3     14072    TIP3     H1       HT       0.417000       1.00800           0
     64598 TIP3     14072    TIP3     H2       HT       0.417000       1.00800           0
     64599 TIP3     14073    TIP3     OH2      OT      -0.834000       15.9994           0
     64600 TIP3     14073    TIP3     H1       HT       0.417000       1.00800           0
     64601 TIP3     14073    TIP3     H2       HT       0.417000       1.00800           0
     64602 TIP3     14074    TIP3     OH2      OT      -0.834000       15.9994           0
     64603 TIP3     14074    TIP3     H1       HT       0.417000       1.00800           0
     64604 TIP3     14074    TIP3     H2       HT       0.417000       1.00800           0
     64605 TIP3     14075    TIP3     OH2      OT      -0.834000       15.9994           0
     64606 TIP3     14075    TIP3     H1       HT       0.417000       1.00800           0
     64607 TIP3     14075    TIP3     H2       HT       0.417000       1.00800           0
     64608 TIP3     14076    TIP3     OH2      OT      -0.834000       15.9994           0
     64609 TIP3     14076    TIP3     H1       HT       0.417000       1.00800           0
     64610 TIP3     14076    TIP3     H2       HT       0.417000       1.00800           0
     64611 TIP3     14077    TIP3     OH2      OT      -0.834000       15.9994           0
     64612 TIP3     14077    TIP3     H1       HT       0.417000       1.00800           0
     64613 TIP3     14077    TIP3     H2       HT       0.417000       1.00800           0
     64614 TIP3     14078    TIP3     OH2      OT      -0.834000       15.9994           0
     64615 TIP3     14078    TIP3     H1       HT       0.417000       1.00800           0
     64616 TIP3     14078    TIP3     H2       HT       0.417000       1.00800           0
     64617 TIP3     14079    TIP3     OH2      OT      -0.834000       15.9994           0
     64618 TIP3     14079    TIP3     H1       HT       0.417000       1.00800           0
     64619 TIP3     14079    TIP3     H2       HT       0.417000       1.00800           0
     64620 TIP3     14080    TIP3     OH2      OT      -0.834000       15.9994           0
     64621 TIP3     14080    TIP3     H1       HT       0.417000       1.00800           0
     64622 TIP3     14080    TIP3     H2       HT       0.417000       1.00800           0
     64623 TIP3     14081    TIP3     OH2      OT      -0.834000       15.9994           0
     64624 TIP3     14081    TIP3     H1       HT       0.417000       1.00800           0
     64625 TIP3     14081    TIP3     H2       HT       0.417000       1.00800           0
     64626 TIP3     14082    TIP3     OH2      OT      -0.834000       15.9994           0
     64627 TIP3     14082    TIP3     H1       HT       0.417000       1.00800           0
     64628 TIP3     14082    TIP3     H2       HT       0.417000       1.00800           0
     64629 TIP3     14083    TIP3     OH2      OT      -0.834000       15.9994           0
     64630 TIP3     14083    TIP3     H1       HT       0.417000       1.00800           0
     64631 TIP3     14083    TIP3     H2       HT       0.417000       1.00800           0
     64632 TIP3     14084    TIP3     OH2      OT      -0.834000       15.9994           0
     64633 TIP3     14084    TIP3     H1       HT       0.417000       1.00800           0
     64634 TIP3     14084    TIP3     H2       HT       0.417000       1.00800           0
     64635 TIP3     14085    TIP3     OH2      OT      -0.834000       15.9994           0
     64636 TIP3     14085    TIP3     H1       HT       0.417000       1.00800           0
     64637 TIP3     14085    TIP3     H2       HT       0.417000       1.00800           0
     64638 TIP3     14086    TIP3     OH2      OT      -0.834000       15.9994           0
     64639 TIP3     14086    TIP3     H1       HT       0.417000       1.00800           0
     64640 TIP3     14086    TIP3     H2       HT       0.417000       1.00800           0
     64641 TIP3     14087    TIP3     OH2      OT      -0.834000       15.9994           0
     64642 TIP3     14087    TIP3     H1       HT       0.417000       1.00800           0
     64643 TIP3     14087    TIP3     H2       HT       0.417000       1.00800           0
     64644 TIP3     14088    TIP3     OH2      OT      -0.834000       15.9994           0
     64645 TIP3     14088    TIP3     H1       HT       0.417000       1.00800           0
     64646 TIP3     14088    TIP3     H2       HT       0.417000       1.00800           0
     64647 TIP3     14089    TIP3     OH2      OT      -0.834000       15.9994           0
     64648 TIP3     14089    TIP3     H1       HT       0.417000       1.00800           0
     64649 TIP3     14089    TIP3     H2       HT       0.417000       1.00800           0
     64650 TIP3     14090    TIP3     OH2      OT      -0.834000       15.9994           0
     64651 TIP3     14090    TIP3     H1       HT       0.417000       1.00800           0
     64652 TIP3     14090    TIP3     H2       HT       0.417000       1.00800           0
     64653 TIP3     14091    TIP3     OH2      OT      -0.834000       15.9994           0
     64654 TIP3     14091    TIP3     H1       HT       0.417000       1.00800           0
     64655 TIP3     14091    TIP3     H2       HT       0.417000       1.00800           0
     64656 TIP3     14092    TIP3     OH2      OT      -0.834000       15.9994           0
     64657 TIP3     14092    TIP3     H1       HT       0.417000       1.00800           0
     64658 TIP3     14092    TIP3     H2       HT       0.417000       1.00800           0
     64659 TIP3     14093    TIP3     OH2      OT      -0.834000       15.9994           0
     64660 TIP3     14093    TIP3     H1       HT       0.417000       1.00800           0
     64661 TIP3     14093    TIP3     H2       HT       0.417000       1.00800           0
     64662 TIP3     14094    TIP3     OH2      OT      -0.834000       15.9994           0
     64663 TIP3     14094    TIP3     H1       HT       0.417000       1.00800           0
     64664 TIP3     14094    TIP3     H2       HT       0.417000       1.00800           0
     64665 TIP3     14095    TIP3     OH2      OT      -0.834000       15.9994           0
     64666 TIP3     14095    TIP3     H1       HT       0.417000       1.00800           0
     64667 TIP3     14095    TIP3     H2       HT       0.417000       1.00800           0
     64668 TIP3     14096    TIP3     OH2      OT      -0.834000       15.9994           0
     64669 TIP3     14096    TIP3     H1       HT       0.417000       1.00800           0
     64670 TIP3     14096    TIP3     H2       HT       0.417000       1.00800           0
     64671 TIP3     14097    TIP3     OH2      OT      -0.834000       15.9994           0
     64672 TIP3     14097    TIP3     H1       HT       0.417000       1.00800           0
     64673 TIP3     14097    TIP3     H2       HT       0.417000       1.00800           0
     64674 TIP3     14098    TIP3     OH2      OT      -0.834000       15.9994           0
     64675 TIP3     14098    TIP3     H1       HT       0.417000       1.00800           0
     64676 TIP3     14098    TIP3     H2       HT       0.417000       1.00800           0
     64677 TIP3     14099    TIP3     OH2      OT      -0.834000       15.9994           0
     64678 TIP3     14099    TIP3     H1       HT       0.417000       1.00800           0
     64679 TIP3     14099    TIP3     H2       HT       0.417000       1.00800           0
     64680 TIP3     14100    TIP3     OH2      OT      -0.834000       15.9994           0
     64681 TIP3     14100    TIP3     H1       HT       0.417000       1.00800           0
     64682 TIP3     14100    TIP3     H2       HT       0.417000       1.00800           0
     64683 TIP3     14101    TIP3     OH2      OT      -0.834000       15.9994           0
     64684 TIP3     14101    TIP3     H1       HT       0.417000       1.00800           0
     64685 TIP3     14101    TIP3     H2       HT       0.417000       1.00800           0
     64686 TIP3     14102    TIP3     OH2      OT      -0.834000       15.9994           0
     64687 TIP3     14102    TIP3     H1       HT       0.417000       1.00800           0
     64688 TIP3     14102    TIP3     H2       HT       0.417000       1.00800           0
     64689 TIP3     14103    TIP3     OH2      OT      -0.834000       15.9994           0
     64690 TIP3     14103    TIP3     H1       HT       0.417000       1.00800           0
     64691 TIP3     14103    TIP3     H2       HT       0.417000       1.00800           0
     64692 TIP3     14104    TIP3     OH2      OT      -0.834000       15.9994           0
     64693 TIP3     14104    TIP3     H1       HT       0.417000       1.00800           0
     64694 TIP3     14104    TIP3     H2       HT       0.417000       1.00800           0
     64695 TIP3     14105    TIP3     OH2      OT      -0.834000       15.9994           0
     64696 TIP3     14105    TIP3     H1       HT       0.417000       1.00800           0
     64697 TIP3     14105    TIP3     H2       HT       0.417000       1.00800           0
     64698 TIP3     14106    TIP3     OH2      OT      -0.834000       15.9994           0
     64699 TIP3     14106    TIP3     H1       HT       0.417000       1.00800           0
     64700 TIP3     14106    TIP3     H2       HT       0.417000       1.00800           0
     64701 TIP3     14107    TIP3     OH2      OT      -0.834000       15.9994           0
     64702 TIP3     14107    TIP3     H1       HT       0.417000       1.00800           0
     64703 TIP3     14107    TIP3     H2       HT       0.417000       1.00800           0
     64704 TIP3     14108    TIP3     OH2      OT      -0.834000       15.9994           0
     64705 TIP3     14108    TIP3     H1       HT       0.417000       1.00800           0
     64706 TIP3     14108    TIP3     H2       HT       0.417000       1.00800           0
     64707 TIP3     14109    TIP3     OH2      OT      -0.834000       15.9994           0
     64708 TIP3     14109    TIP3     H1       HT       0.417000       1.00800           0
     64709 TIP3     14109    TIP3     H2       HT       0.417000       1.00800           0
     64710 TIP3     14110    TIP3     OH2      OT      -0.834000       15.9994           0
     64711 TIP3     14110    TIP3     H1       HT       0.417000       1.00800           0
     64712 TIP3     14110    TIP3     H2       HT       0.417000       1.00800           0
     64713 TIP3     14111    TIP3     OH2      OT      -0.834000       15.9994           0
     64714 TIP3     14111    TIP3     H1       HT       0.417000       1.00800           0
     64715 TIP3     14111    TIP3     H2       HT       0.417000       1.00800           0
     64716 TIP3     14112    TIP3     OH2      OT      -0.834000       15.9994           0
     64717 TIP3     14112    TIP3     H1       HT       0.417000       1.00800           0
     64718 TIP3     14112    TIP3     H2       HT       0.417000       1.00800           0
     64719 TIP3     14113    TIP3     OH2      OT      -0.834000       15.9994           0
     64720 TIP3     14113    TIP3     H1       HT       0.417000       1.00800           0
     64721 TIP3     14113    TIP3     H2       HT       0.417000       1.00800           0
     64722 TIP3     14114    TIP3     OH2      OT      -0.834000       15.9994           0
     64723 TIP3     14114    TIP3     H1       HT       0.417000       1.00800           0
     64724 TIP3     14114    TIP3     H2       HT       0.417000       1.00800           0
     64725 TIP3     14115    TIP3     OH2      OT      -0.834000       15.9994           0
     64726 TIP3     14115    TIP3     H1       HT       0.417000       1.00800           0
     64727 TIP3     14115    TIP3     H2       HT       0.417000       1.00800           0
     64728 TIP3     14116    TIP3     OH2      OT      -0.834000       15.9994           0
     64729 TIP3     14116    TIP3     H1       HT       0.417000       1.00800           0
     64730 TIP3     14116    TIP3     H2       HT       0.417000       1.00800           0
     64731 TIP3     14117    TIP3     OH2      OT      -0.834000       15.9994           0
     64732 TIP3     14117    TIP3     H1       HT       0.417000       1.00800           0
     64733 TIP3     14117    TIP3     H2       HT       0.417000       1.00800           0
     64734 TIP3     14118    TIP3     OH2      OT      -0.834000       15.9994           0
     64735 TIP3     14118    TIP3     H1       HT       0.417000       1.00800           0
     64736 TIP3     14118    TIP3     H2       HT       0.417000       1.00800           0
     64737 TIP3     14119    TIP3     OH2      OT      -0.834000       15.9994           0
     64738 TIP3     14119    TIP3     H1       HT       0.417000       1.00800           0
     64739 TIP3     14119    TIP3     H2       HT       0.417000       1.00800           0
     64740 TIP3     14120    TIP3     OH2      OT      -0.834000       15.9994           0
     64741 TIP3     14120    TIP3     H1       HT       0.417000       1.00800           0
     64742 TIP3     14120    TIP3     H2       HT       0.417000       1.00800           0
     64743 TIP3     14121    TIP3     OH2      OT      -0.834000       15.9994           0
     64744 TIP3     14121    TIP3     H1       HT       0.417000       1.00800           0
     64745 TIP3     14121    TIP3     H2       HT       0.417000       1.00800           0
     64746 TIP3     14122    TIP3     OH2      OT      -0.834000       15.9994           0
     64747 TIP3     14122    TIP3     H1       HT       0.417000       1.00800           0
     64748 TIP3     14122    TIP3     H2       HT       0.417000       1.00800           0
     64749 TIP3     14123    TIP3     OH2      OT      -0.834000       15.9994           0
     64750 TIP3     14123    TIP3     H1       HT       0.417000       1.00800           0
     64751 TIP3     14123    TIP3     H2       HT       0.417000       1.00800           0
     64752 TIP3     14124    TIP3     OH2      OT      -0.834000       15.9994           0
     64753 TIP3     14124    TIP3     H1       HT       0.417000       1.00800           0
     64754 TIP3     14124    TIP3     H2       HT       0.417000       1.00800           0
     64755 TIP3     14125    TIP3     OH2      OT      -0.834000       15.9994           0
     64756 TIP3     14125    TIP3     H1       HT       0.417000       1.00800           0
     64757 TIP3     14125    TIP3     H2       HT       0.417000       1.00800           0
     64758 TIP3     14126    TIP3     OH2      OT      -0.834000       15.9994           0
     64759 TIP3     14126    TIP3     H1       HT       0.417000       1.00800           0
     64760 TIP3     14126    TIP3     H2       HT       0.417000       1.00800           0
     64761 TIP3     14127    TIP3     OH2      OT      -0.834000       15.9994           0
     64762 TIP3     14127    TIP3     H1       HT       0.417000       1.00800           0
     64763 TIP3     14127    TIP3     H2       HT       0.417000       1.00800           0
     64764 TIP3     14128    TIP3     OH2      OT      -0.834000       15.9994           0
     64765 TIP3     14128    TIP3     H1       HT       0.417000       1.00800           0
     64766 TIP3     14128    TIP3     H2       HT       0.417000       1.00800           0
     64767 TIP3     14129    TIP3     OH2      OT      -0.834000       15.9994           0
     64768 TIP3     14129    TIP3     H1       HT       0.417000       1.00800           0
     64769 TIP3     14129    TIP3     H2       HT       0.417000       1.00800           0
     64770 TIP3     14130    TIP3     OH2      OT      -0.834000       15.9994           0
     64771 TIP3     14130    TIP3     H1       HT       0.417000       1.00800           0
     64772 TIP3     14130    TIP3     H2       HT       0.417000       1.00800           0
     64773 TIP3     14131    TIP3     OH2      OT      -0.834000       15.9994           0
     64774 TIP3     14131    TIP3     H1       HT       0.417000       1.00800           0
     64775 TIP3     14131    TIP3     H2       HT       0.417000       1.00800           0
     64776 TIP3     14132    TIP3     OH2      OT      -0.834000       15.9994           0
     64777 TIP3     14132    TIP3     H1       HT       0.417000       1.00800           0
     64778 TIP3     14132    TIP3     H2       HT       0.417000       1.00800           0
     64779 TIP3     14133    TIP3     OH2      OT      -0.834000       15.9994           0
     64780 TIP3     14133    TIP3     H1       HT       0.417000       1.00800           0
     64781 TIP3     14133    TIP3     H2       HT       0.417000       1.00800           0
     64782 TIP3     14134    TIP3     OH2      OT      -0.834000       15.9994           0
     64783 TIP3     14134    TIP3     H1       HT       0.417000       1.00800           0
     64784 TIP3     14134    TIP3     H2       HT       0.417000       1.00800           0
     64785 TIP3     14135    TIP3     OH2      OT      -0.834000       15.9994           0
     64786 TIP3     14135    TIP3     H1       HT       0.417000       1.00800           0
     64787 TIP3     14135    TIP3     H2       HT       0.417000       1.00800           0
     64788 TIP3     14136    TIP3     OH2      OT      -0.834000       15.9994           0
     64789 TIP3     14136    TIP3     H1       HT       0.417000       1.00800           0
     64790 TIP3     14136    TIP3     H2       HT       0.417000       1.00800           0
     64791 TIP3     14137    TIP3     OH2      OT      -0.834000       15.9994           0
     64792 TIP3     14137    TIP3     H1       HT       0.417000       1.00800           0
     64793 TIP3     14137    TIP3     H2       HT       0.417000       1.00800           0
     64794 TIP3     14138    TIP3     OH2      OT      -0.834000       15.9994           0
     64795 TIP3     14138    TIP3     H1       HT       0.417000       1.00800           0
     64796 TIP3     14138    TIP3     H2       HT       0.417000       1.00800           0
     64797 TIP3     14139    TIP3     OH2      OT      -0.834000       15.9994           0
     64798 TIP3     14139    TIP3     H1       HT       0.417000       1.00800           0
     64799 TIP3     14139    TIP3     H2       HT       0.417000       1.00800           0
     64800 TIP3     14140    TIP3     OH2      OT      -0.834000       15.9994           0
     64801 TIP3     14140    TIP3     H1       HT       0.417000       1.00800           0
     64802 TIP3     14140    TIP3     H2       HT       0.417000       1.00800           0
     64803 TIP3     14141    TIP3     OH2      OT      -0.834000       15.9994           0
     64804 TIP3     14141    TIP3     H1       HT       0.417000       1.00800           0
     64805 TIP3     14141    TIP3     H2       HT       0.417000       1.00800           0
     64806 TIP3     14142    TIP3     OH2      OT      -0.834000       15.9994           0
     64807 TIP3     14142    TIP3     H1       HT       0.417000       1.00800           0
     64808 TIP3     14142    TIP3     H2       HT       0.417000       1.00800           0
     64809 TIP3     14143    TIP3     OH2      OT      -0.834000       15.9994           0
     64810 TIP3     14143    TIP3     H1       HT       0.417000       1.00800           0
     64811 TIP3     14143    TIP3     H2       HT       0.417000       1.00800           0
     64812 TIP3     14144    TIP3     OH2      OT      -0.834000       15.9994           0
     64813 TIP3     14144    TIP3     H1       HT       0.417000       1.00800           0
     64814 TIP3     14144    TIP3     H2       HT       0.417000       1.00800           0
     64815 TIP3     14145    TIP3     OH2      OT      -0.834000       15.9994           0
     64816 TIP3     14145    TIP3     H1       HT       0.417000       1.00800           0
     64817 TIP3     14145    TIP3     H2       HT       0.417000       1.00800           0
     64818 TIP3     14146    TIP3     OH2      OT      -0.834000       15.9994           0
     64819 TIP3     14146    TIP3     H1       HT       0.417000       1.00800           0
     64820 TIP3     14146    TIP3     H2       HT       0.417000       1.00800           0
     64821 TIP3     14147    TIP3     OH2      OT      -0.834000       15.9994           0
     64822 TIP3     14147    TIP3     H1       HT       0.417000       1.00800           0
     64823 TIP3     14147    TIP3     H2       HT       0.417000       1.00800           0
     64824 TIP3     14148    TIP3     OH2      OT      -0.834000       15.9994           0
     64825 TIP3     14148    TIP3     H1       HT       0.417000       1.00800           0
     64826 TIP3     14148    TIP3     H2       HT       0.417000       1.00800           0
     64827 TIP3     14149    TIP3     OH2      OT      -0.834000       15.9994           0
     64828 TIP3     14149    TIP3     H1       HT       0.417000       1.00800           0
     64829 TIP3     14149    TIP3     H2       HT       0.417000       1.00800           0
     64830 TIP3     14150    TIP3     OH2      OT      -0.834000       15.9994           0
     64831 TIP3     14150    TIP3     H1       HT       0.417000       1.00800           0
     64832 TIP3     14150    TIP3     H2       HT       0.417000       1.00800           0
     64833 TIP3     14151    TIP3     OH2      OT      -0.834000       15.9994           0
     64834 TIP3     14151    TIP3     H1       HT       0.417000       1.00800           0
     64835 TIP3     14151    TIP3     H2       HT       0.417000       1.00800           0
     64836 TIP3     14152    TIP3     OH2      OT      -0.834000       15.9994           0
     64837 TIP3     14152    TIP3     H1       HT       0.417000       1.00800           0
     64838 TIP3     14152    TIP3     H2       HT       0.417000       1.00800           0
     64839 TIP3     14153    TIP3     OH2      OT      -0.834000       15.9994           0
     64840 TIP3     14153    TIP3     H1       HT       0.417000       1.00800           0
     64841 TIP3     14153    TIP3     H2       HT       0.417000       1.00800           0
     64842 TIP3     14154    TIP3     OH2      OT      -0.834000       15.9994           0
     64843 TIP3     14154    TIP3     H1       HT       0.417000       1.00800           0
     64844 TIP3     14154    TIP3     H2       HT       0.417000       1.00800           0
     64845 TIP3     14155    TIP3     OH2      OT      -0.834000       15.9994           0
     64846 TIP3     14155    TIP3     H1       HT       0.417000       1.00800           0
     64847 TIP3     14155    TIP3     H2       HT       0.417000       1.00800           0
     64848 TIP3     14156    TIP3     OH2      OT      -0.834000       15.9994           0
     64849 TIP3     14156    TIP3     H1       HT       0.417000       1.00800           0
     64850 TIP3     14156    TIP3     H2       HT       0.417000       1.00800           0
     64851 TIP3     14157    TIP3     OH2      OT      -0.834000       15.9994           0
     64852 TIP3     14157    TIP3     H1       HT       0.417000       1.00800           0
     64853 TIP3     14157    TIP3     H2       HT       0.417000       1.00800           0
     64854 TIP3     14158    TIP3     OH2      OT      -0.834000       15.9994           0
     64855 TIP3     14158    TIP3     H1       HT       0.417000       1.00800           0
     64856 TIP3     14158    TIP3     H2       HT       0.417000       1.00800           0
     64857 TIP3     14159    TIP3     OH2      OT      -0.834000       15.9994           0
     64858 TIP3     14159    TIP3     H1       HT       0.417000       1.00800           0
     64859 TIP3     14159    TIP3     H2       HT       0.417000       1.00800           0
     64860 TIP3     14160    TIP3     OH2      OT      -0.834000       15.9994           0
     64861 TIP3     14160    TIP3     H1       HT       0.417000       1.00800           0
     64862 TIP3     14160    TIP3     H2       HT       0.417000       1.00800           0
     64863 TIP3     14161    TIP3     OH2      OT      -0.834000       15.9994           0
     64864 TIP3     14161    TIP3     H1       HT       0.417000       1.00800           0
     64865 TIP3     14161    TIP3     H2       HT       0.417000       1.00800           0
     64866 TIP3     14162    TIP3     OH2      OT      -0.834000       15.9994           0
     64867 TIP3     14162    TIP3     H1       HT       0.417000       1.00800           0
     64868 TIP3     14162    TIP3     H2       HT       0.417000       1.00800           0
     64869 TIP3     14163    TIP3     OH2      OT      -0.834000       15.9994           0
     64870 TIP3     14163    TIP3     H1       HT       0.417000       1.00800           0
     64871 TIP3     14163    TIP3     H2       HT       0.417000       1.00800           0
     64872 TIP3     14164    TIP3     OH2      OT      -0.834000       15.9994           0
     64873 TIP3     14164    TIP3     H1       HT       0.417000       1.00800           0
     64874 TIP3     14164    TIP3     H2       HT       0.417000       1.00800           0
     64875 TIP3     14165    TIP3     OH2      OT      -0.834000       15.9994           0
     64876 TIP3     14165    TIP3     H1       HT       0.417000       1.00800           0
     64877 TIP3     14165    TIP3     H2       HT       0.417000       1.00800           0
     64878 TIP3     14166    TIP3     OH2      OT      -0.834000       15.9994           0
     64879 TIP3     14166    TIP3     H1       HT       0.417000       1.00800           0
     64880 TIP3     14166    TIP3     H2       HT       0.417000       1.00800           0
     64881 TIP3     14167    TIP3     OH2      OT      -0.834000       15.9994           0
     64882 TIP3     14167    TIP3     H1       HT       0.417000       1.00800           0
     64883 TIP3     14167    TIP3     H2       HT       0.417000       1.00800           0
     64884 TIP3     14168    TIP3     OH2      OT      -0.834000       15.9994           0
     64885 TIP3     14168    TIP3     H1       HT       0.417000       1.00800           0
     64886 TIP3     14168    TIP3     H2       HT       0.417000       1.00800           0
     64887 TIP3     14169    TIP3     OH2      OT      -0.834000       15.9994           0
     64888 TIP3     14169    TIP3     H1       HT       0.417000       1.00800           0
     64889 TIP3     14169    TIP3     H2       HT       0.417000       1.00800           0
     64890 TIP3     14170    TIP3     OH2      OT      -0.834000       15.9994           0
     64891 TIP3     14170    TIP3     H1       HT       0.417000       1.00800           0
     64892 TIP3     14170    TIP3     H2       HT       0.417000       1.00800           0
     64893 TIP3     14171    TIP3     OH2      OT      -0.834000       15.9994           0
     64894 TIP3     14171    TIP3     H1       HT       0.417000       1.00800           0
     64895 TIP3     14171    TIP3     H2       HT       0.417000       1.00800           0
     64896 TIP3     14172    TIP3     OH2      OT      -0.834000       15.9994           0
     64897 TIP3     14172    TIP3     H1       HT       0.417000       1.00800           0
     64898 TIP3     14172    TIP3     H2       HT       0.417000       1.00800           0
     64899 TIP3     14173    TIP3     OH2      OT      -0.834000       15.9994           0
     64900 TIP3     14173    TIP3     H1       HT       0.417000       1.00800           0
     64901 TIP3     14173    TIP3     H2       HT       0.417000       1.00800           0
     64902 TIP3     14174    TIP3     OH2      OT      -0.834000       15.9994           0
     64903 TIP3     14174    TIP3     H1       HT       0.417000       1.00800           0
     64904 TIP3     14174    TIP3     H2       HT       0.417000       1.00800           0
     64905 TIP3     14175    TIP3     OH2      OT      -0.834000       15.9994           0
     64906 TIP3     14175    TIP3     H1       HT       0.417000       1.00800           0
     64907 TIP3     14175    TIP3     H2       HT       0.417000       1.00800           0
     64908 TIP3     14176    TIP3     OH2      OT      -0.834000       15.9994           0
     64909 TIP3     14176    TIP3     H1       HT       0.417000       1.00800           0
     64910 TIP3     14176    TIP3     H2       HT       0.417000       1.00800           0
     64911 TIP3     14177    TIP3     OH2      OT      -0.834000       15.9994           0
     64912 TIP3     14177    TIP3     H1       HT       0.417000       1.00800           0
     64913 TIP3     14177    TIP3     H2       HT       0.417000       1.00800           0
     64914 TIP3     14178    TIP3     OH2      OT      -0.834000       15.9994           0
     64915 TIP3     14178    TIP3     H1       HT       0.417000       1.00800           0
     64916 TIP3     14178    TIP3     H2       HT       0.417000       1.00800           0
     64917 TIP3     14179    TIP3     OH2      OT      -0.834000       15.9994           0
     64918 TIP3     14179    TIP3     H1       HT       0.417000       1.00800           0
     64919 TIP3     14179    TIP3     H2       HT       0.417000       1.00800           0
     64920 TIP3     14180    TIP3     OH2      OT      -0.834000       15.9994           0
     64921 TIP3     14180    TIP3     H1       HT       0.417000       1.00800           0
     64922 TIP3     14180    TIP3     H2       HT       0.417000       1.00800           0
     64923 TIP3     14181    TIP3     OH2      OT      -0.834000       15.9994           0
     64924 TIP3     14181    TIP3     H1       HT       0.417000       1.00800           0
     64925 TIP3     14181    TIP3     H2       HT       0.417000       1.00800           0
     64926 TIP3     14182    TIP3     OH2      OT      -0.834000       15.9994           0
     64927 TIP3     14182    TIP3     H1       HT       0.417000       1.00800           0
     64928 TIP3     14182    TIP3     H2       HT       0.417000       1.00800           0
     64929 TIP3     14183    TIP3     OH2      OT      -0.834000       15.9994           0
     64930 TIP3     14183    TIP3     H1       HT       0.417000       1.00800           0
     64931 TIP3     14183    TIP3     H2       HT       0.417000       1.00800           0
     64932 TIP3     14184    TIP3     OH2      OT      -0.834000       15.9994           0
     64933 TIP3     14184    TIP3     H1       HT       0.417000       1.00800           0
     64934 TIP3     14184    TIP3     H2       HT       0.417000       1.00800           0
     64935 TIP3     14185    TIP3     OH2      OT      -0.834000       15.9994           0
     64936 TIP3     14185    TIP3     H1       HT       0.417000       1.00800           0
     64937 TIP3     14185    TIP3     H2       HT       0.417000       1.00800           0
     64938 TIP3     14186    TIP3     OH2      OT      -0.834000       15.9994           0
     64939 TIP3     14186    TIP3     H1       HT       0.417000       1.00800           0
     64940 TIP3     14186    TIP3     H2       HT       0.417000       1.00800           0
     64941 TIP3     14187    TIP3     OH2      OT      -0.834000       15.9994           0
     64942 TIP3     14187    TIP3     H1       HT       0.417000       1.00800           0
     64943 TIP3     14187    TIP3     H2       HT       0.417000       1.00800           0
     64944 TIP3     14188    TIP3     OH2      OT      -0.834000       15.9994           0
     64945 TIP3     14188    TIP3     H1       HT       0.417000       1.00800           0
     64946 TIP3     14188    TIP3     H2       HT       0.417000       1.00800           0
     64947 TIP3     14189    TIP3     OH2      OT      -0.834000       15.9994           0
     64948 TIP3     14189    TIP3     H1       HT       0.417000       1.00800           0
     64949 TIP3     14189    TIP3     H2       HT       0.417000       1.00800           0
     64950 TIP3     14190    TIP3     OH2      OT      -0.834000       15.9994           0
     64951 TIP3     14190    TIP3     H1       HT       0.417000       1.00800           0
     64952 TIP3     14190    TIP3     H2       HT       0.417000       1.00800           0
     64953 TIP3     14191    TIP3     OH2      OT      -0.834000       15.9994           0
     64954 TIP3     14191    TIP3     H1       HT       0.417000       1.00800           0
     64955 TIP3     14191    TIP3     H2       HT       0.417000       1.00800           0
     64956 TIP3     14192    TIP3     OH2      OT      -0.834000       15.9994           0
     64957 TIP3     14192    TIP3     H1       HT       0.417000       1.00800           0
     64958 TIP3     14192    TIP3     H2       HT       0.417000       1.00800           0
     64959 TIP3     14193    TIP3     OH2      OT      -0.834000       15.9994           0
     64960 TIP3     14193    TIP3     H1       HT       0.417000       1.00800           0
     64961 TIP3     14193    TIP3     H2       HT       0.417000       1.00800           0
     64962 TIP3     14194    TIP3     OH2      OT      -0.834000       15.9994           0
     64963 TIP3     14194    TIP3     H1       HT       0.417000       1.00800           0
     64964 TIP3     14194    TIP3     H2       HT       0.417000       1.00800           0
     64965 TIP3     14195    TIP3     OH2      OT      -0.834000       15.9994           0
     64966 TIP3     14195    TIP3     H1       HT       0.417000       1.00800           0
     64967 TIP3     14195    TIP3     H2       HT       0.417000       1.00800           0
     64968 TIP3     14196    TIP3     OH2      OT      -0.834000       15.9994           0
     64969 TIP3     14196    TIP3     H1       HT       0.417000       1.00800           0
     64970 TIP3     14196    TIP3     H2       HT       0.417000       1.00800           0
     64971 TIP3     14197    TIP3     OH2      OT      -0.834000       15.9994           0
     64972 TIP3     14197    TIP3     H1       HT       0.417000       1.00800           0
     64973 TIP3     14197    TIP3     H2       HT       0.417000       1.00800           0
     64974 TIP3     14198    TIP3     OH2      OT      -0.834000       15.9994           0
     64975 TIP3     14198    TIP3     H1       HT       0.417000       1.00800           0
     64976 TIP3     14198    TIP3     H2       HT       0.417000       1.00800           0
     64977 TIP3     14199    TIP3     OH2      OT      -0.834000       15.9994           0
     64978 TIP3     14199    TIP3     H1       HT       0.417000       1.00800           0
     64979 TIP3     14199    TIP3     H2       HT       0.417000       1.00800           0
     64980 TIP3     14200    TIP3     OH2      OT      -0.834000       15.9994           0
     64981 TIP3     14200    TIP3     H1       HT       0.417000       1.00800           0
     64982 TIP3     14200    TIP3     H2       HT       0.417000       1.00800           0
     64983 TIP3     14201    TIP3     OH2      OT      -0.834000       15.9994           0
     64984 TIP3     14201    TIP3     H1       HT       0.417000       1.00800           0
     64985 TIP3     14201    TIP3     H2       HT       0.417000       1.00800           0
     64986 TIP3     14202    TIP3     OH2      OT      -0.834000       15.9994           0
     64987 TIP3     14202    TIP3     H1       HT       0.417000       1.00800           0
     64988 TIP3     14202    TIP3     H2       HT       0.417000       1.00800           0
     64989 TIP3     14203    TIP3     OH2      OT      -0.834000       15.9994           0
     64990 TIP3     14203    TIP3     H1       HT       0.417000       1.00800           0
     64991 TIP3     14203    TIP3     H2       HT       0.417000       1.00800           0
     64992 TIP3     14204    TIP3     OH2      OT      -0.834000       15.9994           0
     64993 TIP3     14204    TIP3     H1       HT       0.417000       1.00800           0
     64994 TIP3     14204    TIP3     H2       HT       0.417000       1.00800           0
     64995 TIP3     14205    TIP3     OH2      OT      -0.834000       15.9994           0
     64996 TIP3     14205    TIP3     H1       HT       0.417000       1.00800           0
     64997 TIP3     14205    TIP3     H2       HT       0.417000       1.00800           0
     64998 TIP3     14206    TIP3     OH2      OT      -0.834000       15.9994           0
     64999 TIP3     14206    TIP3     H1       HT       0.417000       1.00800           0
     65000 TIP3     14206    TIP3     H2       HT       0.417000       1.00800           0
     65001 TIP3     14207    TIP3     OH2      OT      -0.834000       15.9994           0
     65002 TIP3     14207    TIP3     H1       HT       0.417000       1.00800           0
     65003 TIP3     14207    TIP3     H2       HT       0.417000       1.00800           0
     65004 TIP3     14208    TIP3     OH2      OT      -0.834000       15.9994           0
     65005 TIP3     14208    TIP3     H1       HT       0.417000       1.00800           0
     65006 TIP3     14208    TIP3     H2       HT       0.417000       1.00800           0
     65007 TIP3     14209    TIP3     OH2      OT      -0.834000       15.9994           0
     65008 TIP3     14209    TIP3     H1       HT       0.417000       1.00800           0
     65009 TIP3     14209    TIP3     H2       HT       0.417000       1.00800           0
     65010 TIP3     14210    TIP3     OH2      OT      -0.834000       15.9994           0
     65011 TIP3     14210    TIP3     H1       HT       0.417000       1.00800           0
     65012 TIP3     14210    TIP3     H2       HT       0.417000       1.00800           0
     65013 TIP3     14211    TIP3     OH2      OT      -0.834000       15.9994           0
     65014 TIP3     14211    TIP3     H1       HT       0.417000       1.00800           0
     65015 TIP3     14211    TIP3     H2       HT       0.417000       1.00800           0
     65016 TIP3     14212    TIP3     OH2      OT      -0.834000       15.9994           0
     65017 TIP3     14212    TIP3     H1       HT       0.417000       1.00800           0
     65018 TIP3     14212    TIP3     H2       HT       0.417000       1.00800           0
     65019 TIP3     14213    TIP3     OH2      OT      -0.834000       15.9994           0
     65020 TIP3     14213    TIP3     H1       HT       0.417000       1.00800           0
     65021 TIP3     14213    TIP3     H2       HT       0.417000       1.00800           0
     65022 TIP3     14214    TIP3     OH2      OT      -0.834000       15.9994           0
     65023 TIP3     14214    TIP3     H1       HT       0.417000       1.00800           0
     65024 TIP3     14214    TIP3     H2       HT       0.417000       1.00800           0
     65025 TIP3     14215    TIP3     OH2      OT      -0.834000       15.9994           0
     65026 TIP3     14215    TIP3     H1       HT       0.417000       1.00800           0
     65027 TIP3     14215    TIP3     H2       HT       0.417000       1.00800           0
     65028 TIP3     14216    TIP3     OH2      OT      -0.834000       15.9994           0
     65029 TIP3     14216    TIP3     H1       HT       0.417000       1.00800           0
     65030 TIP3     14216    TIP3     H2       HT       0.417000       1.00800           0
     65031 TIP3     14217    TIP3     OH2      OT      -0.834000       15.9994           0
     65032 TIP3     14217    TIP3     H1       HT       0.417000       1.00800           0
     65033 TIP3     14217    TIP3     H2       HT       0.417000       1.00800           0
     65034 TIP3     14218    TIP3     OH2      OT      -0.834000       15.9994           0
     65035 TIP3     14218    TIP3     H1       HT       0.417000       1.00800           0
     65036 TIP3     14218    TIP3     H2       HT       0.417000       1.00800           0
     65037 TIP3     14219    TIP3     OH2      OT      -0.834000       15.9994           0
     65038 TIP3     14219    TIP3     H1       HT       0.417000       1.00800           0
     65039 TIP3     14219    TIP3     H2       HT       0.417000       1.00800           0
     65040 TIP3     14220    TIP3     OH2      OT      -0.834000       15.9994           0
     65041 TIP3     14220    TIP3     H1       HT       0.417000       1.00800           0
     65042 TIP3     14220    TIP3     H2       HT       0.417000       1.00800           0
     65043 TIP3     14221    TIP3     OH2      OT      -0.834000       15.9994           0
     65044 TIP3     14221    TIP3     H1       HT       0.417000       1.00800           0
     65045 TIP3     14221    TIP3     H2       HT       0.417000       1.00800           0
     65046 TIP3     14222    TIP3     OH2      OT      -0.834000       15.9994           0
     65047 TIP3     14222    TIP3     H1       HT       0.417000       1.00800           0
     65048 TIP3     14222    TIP3     H2       HT       0.417000       1.00800           0
     65049 TIP3     14223    TIP3     OH2      OT      -0.834000       15.9994           0
     65050 TIP3     14223    TIP3     H1       HT       0.417000       1.00800           0
     65051 TIP3     14223    TIP3     H2       HT       0.417000       1.00800           0
     65052 TIP3     14224    TIP3     OH2      OT      -0.834000       15.9994           0
     65053 TIP3     14224    TIP3     H1       HT       0.417000       1.00800           0
     65054 TIP3     14224    TIP3     H2       HT       0.417000       1.00800           0
     65055 TIP3     14225    TIP3     OH2      OT      -0.834000       15.9994           0
     65056 TIP3     14225    TIP3     H1       HT       0.417000       1.00800           0
     65057 TIP3     14225    TIP3     H2       HT       0.417000       1.00800           0
     65058 TIP3     14226    TIP3     OH2      OT      -0.834000       15.9994           0
     65059 TIP3     14226    TIP3     H1       HT       0.417000       1.00800           0
     65060 TIP3     14226    TIP3     H2       HT       0.417000       1.00800           0
     65061 TIP3     14227    TIP3     OH2      OT      -0.834000       15.9994           0
     65062 TIP3     14227    TIP3     H1       HT       0.417000       1.00800           0
     65063 TIP3     14227    TIP3     H2       HT       0.417000       1.00800           0
     65064 TIP3     14228    TIP3     OH2      OT      -0.834000       15.9994           0
     65065 TIP3     14228    TIP3     H1       HT       0.417000       1.00800           0
     65066 TIP3     14228    TIP3     H2       HT       0.417000       1.00800           0
     65067 TIP3     14229    TIP3     OH2      OT      -0.834000       15.9994           0
     65068 TIP3     14229    TIP3     H1       HT       0.417000       1.00800           0
     65069 TIP3     14229    TIP3     H2       HT       0.417000       1.00800           0
     65070 TIP3     14230    TIP3     OH2      OT      -0.834000       15.9994           0
     65071 TIP3     14230    TIP3     H1       HT       0.417000       1.00800           0
     65072 TIP3     14230    TIP3     H2       HT       0.417000       1.00800           0
     65073 TIP3     14231    TIP3     OH2      OT      -0.834000       15.9994           0
     65074 TIP3     14231    TIP3     H1       HT       0.417000       1.00800           0
     65075 TIP3     14231    TIP3     H2       HT       0.417000       1.00800           0
     65076 TIP3     14232    TIP3     OH2      OT      -0.834000       15.9994           0
     65077 TIP3     14232    TIP3     H1       HT       0.417000       1.00800           0
     65078 TIP3     14232    TIP3     H2       HT       0.417000       1.00800           0
     65079 TIP3     14233    TIP3     OH2      OT      -0.834000       15.9994           0
     65080 TIP3     14233    TIP3     H1       HT       0.417000       1.00800           0
     65081 TIP3     14233    TIP3     H2       HT       0.417000       1.00800           0
     65082 TIP3     14234    TIP3     OH2      OT      -0.834000       15.9994           0
     65083 TIP3     14234    TIP3     H1       HT       0.417000       1.00800           0
     65084 TIP3     14234    TIP3     H2       HT       0.417000       1.00800           0
     65085 TIP3     14235    TIP3     OH2      OT      -0.834000       15.9994           0
     65086 TIP3     14235    TIP3     H1       HT       0.417000       1.00800           0
     65087 TIP3     14235    TIP3     H2       HT       0.417000       1.00800           0
     65088 TIP3     14236    TIP3     OH2      OT      -0.834000       15.9994           0
     65089 TIP3     14236    TIP3     H1       HT       0.417000       1.00800           0
     65090 TIP3     14236    TIP3     H2       HT       0.417000       1.00800           0
     65091 TIP3     14237    TIP3     OH2      OT      -0.834000       15.9994           0
     65092 TIP3     14237    TIP3     H1       HT       0.417000       1.00800           0
     65093 TIP3     14237    TIP3     H2       HT       0.417000       1.00800           0
     65094 TIP3     14238    TIP3     OH2      OT      -0.834000       15.9994           0
     65095 TIP3     14238    TIP3     H1       HT       0.417000       1.00800           0
     65096 TIP3     14238    TIP3     H2       HT       0.417000       1.00800           0
     65097 TIP3     14239    TIP3     OH2      OT      -0.834000       15.9994           0
     65098 TIP3     14239    TIP3     H1       HT       0.417000       1.00800           0
     65099 TIP3     14239    TIP3     H2       HT       0.417000       1.00800           0
     65100 TIP3     14240    TIP3     OH2      OT      -0.834000       15.9994           0
     65101 TIP3     14240    TIP3     H1       HT       0.417000       1.00800           0
     65102 TIP3     14240    TIP3     H2       HT       0.417000       1.00800           0
     65103 TIP3     14241    TIP3     OH2      OT      -0.834000       15.9994           0
     65104 TIP3     14241    TIP3     H1       HT       0.417000       1.00800           0
     65105 TIP3     14241    TIP3     H2       HT       0.417000       1.00800           0
     65106 TIP3     14242    TIP3     OH2      OT      -0.834000       15.9994           0
     65107 TIP3     14242    TIP3     H1       HT       0.417000       1.00800           0
     65108 TIP3     14242    TIP3     H2       HT       0.417000       1.00800           0
     65109 TIP3     14243    TIP3     OH2      OT      -0.834000       15.9994           0
     65110 TIP3     14243    TIP3     H1       HT       0.417000       1.00800           0
     65111 TIP3     14243    TIP3     H2       HT       0.417000       1.00800           0
     65112 TIP3     14244    TIP3     OH2      OT      -0.834000       15.9994           0
     65113 TIP3     14244    TIP3     H1       HT       0.417000       1.00800           0
     65114 TIP3     14244    TIP3     H2       HT       0.417000       1.00800           0
     65115 TIP3     14245    TIP3     OH2      OT      -0.834000       15.9994           0
     65116 TIP3     14245    TIP3     H1       HT       0.417000       1.00800           0
     65117 TIP3     14245    TIP3     H2       HT       0.417000       1.00800           0
     65118 TIP3     14246    TIP3     OH2      OT      -0.834000       15.9994           0
     65119 TIP3     14246    TIP3     H1       HT       0.417000       1.00800           0
     65120 TIP3     14246    TIP3     H2       HT       0.417000       1.00800           0
     65121 TIP3     14247    TIP3     OH2      OT      -0.834000       15.9994           0
     65122 TIP3     14247    TIP3     H1       HT       0.417000       1.00800           0
     65123 TIP3     14247    TIP3     H2       HT       0.417000       1.00800           0
     65124 TIP3     14248    TIP3     OH2      OT      -0.834000       15.9994           0
     65125 TIP3     14248    TIP3     H1       HT       0.417000       1.00800           0
     65126 TIP3     14248    TIP3     H2       HT       0.417000       1.00800           0
     65127 TIP3     14249    TIP3     OH2      OT      -0.834000       15.9994           0
     65128 TIP3     14249    TIP3     H1       HT       0.417000       1.00800           0
     65129 TIP3     14249    TIP3     H2       HT       0.417000       1.00800           0
     65130 TIP3     14250    TIP3     OH2      OT      -0.834000       15.9994           0
     65131 TIP3     14250    TIP3     H1       HT       0.417000       1.00800           0
     65132 TIP3     14250    TIP3     H2       HT       0.417000       1.00800           0
     65133 TIP3     14251    TIP3     OH2      OT      -0.834000       15.9994           0
     65134 TIP3     14251    TIP3     H1       HT       0.417000       1.00800           0
     65135 TIP3     14251    TIP3     H2       HT       0.417000       1.00800           0
     65136 TIP3     14252    TIP3     OH2      OT      -0.834000       15.9994           0
     65137 TIP3     14252    TIP3     H1       HT       0.417000       1.00800           0
     65138 TIP3     14252    TIP3     H2       HT       0.417000       1.00800           0
     65139 TIP3     14253    TIP3     OH2      OT      -0.834000       15.9994           0
     65140 TIP3     14253    TIP3     H1       HT       0.417000       1.00800           0
     65141 TIP3     14253    TIP3     H2       HT       0.417000       1.00800           0
     65142 TIP3     14254    TIP3     OH2      OT      -0.834000       15.9994           0
     65143 TIP3     14254    TIP3     H1       HT       0.417000       1.00800           0
     65144 TIP3     14254    TIP3     H2       HT       0.417000       1.00800           0
     65145 TIP3     14255    TIP3     OH2      OT      -0.834000       15.9994           0
     65146 TIP3     14255    TIP3     H1       HT       0.417000       1.00800           0
     65147 TIP3     14255    TIP3     H2       HT       0.417000       1.00800           0
     65148 TIP3     14256    TIP3     OH2      OT      -0.834000       15.9994           0
     65149 TIP3     14256    TIP3     H1       HT       0.417000       1.00800           0
     65150 TIP3     14256    TIP3     H2       HT       0.417000       1.00800           0
     65151 TIP3     14257    TIP3     OH2      OT      -0.834000       15.9994           0
     65152 TIP3     14257    TIP3     H1       HT       0.417000       1.00800           0
     65153 TIP3     14257    TIP3     H2       HT       0.417000       1.00800           0
     65154 TIP3     14258    TIP3     OH2      OT      -0.834000       15.9994           0
     65155 TIP3     14258    TIP3     H1       HT       0.417000       1.00800           0
     65156 TIP3     14258    TIP3     H2       HT       0.417000       1.00800           0
     65157 TIP3     14259    TIP3     OH2      OT      -0.834000       15.9994           0
     65158 TIP3     14259    TIP3     H1       HT       0.417000       1.00800           0
     65159 TIP3     14259    TIP3     H2       HT       0.417000       1.00800           0
     65160 TIP3     14260    TIP3     OH2      OT      -0.834000       15.9994           0
     65161 TIP3     14260    TIP3     H1       HT       0.417000       1.00800           0
     65162 TIP3     14260    TIP3     H2       HT       0.417000       1.00800           0
     65163 TIP3     14261    TIP3     OH2      OT      -0.834000       15.9994           0
     65164 TIP3     14261    TIP3     H1       HT       0.417000       1.00800           0
     65165 TIP3     14261    TIP3     H2       HT       0.417000       1.00800           0
     65166 TIP3     14262    TIP3     OH2      OT      -0.834000       15.9994           0
     65167 TIP3     14262    TIP3     H1       HT       0.417000       1.00800           0
     65168 TIP3     14262    TIP3     H2       HT       0.417000       1.00800           0
     65169 TIP3     14263    TIP3     OH2      OT      -0.834000       15.9994           0
     65170 TIP3     14263    TIP3     H1       HT       0.417000       1.00800           0
     65171 TIP3     14263    TIP3     H2       HT       0.417000       1.00800           0
     65172 TIP3     14264    TIP3     OH2      OT      -0.834000       15.9994           0
     65173 TIP3     14264    TIP3     H1       HT       0.417000       1.00800           0
     65174 TIP3     14264    TIP3     H2       HT       0.417000       1.00800           0
     65175 TIP3     14265    TIP3     OH2      OT      -0.834000       15.9994           0
     65176 TIP3     14265    TIP3     H1       HT       0.417000       1.00800           0
     65177 TIP3     14265    TIP3     H2       HT       0.417000       1.00800           0
     65178 TIP3     14266    TIP3     OH2      OT      -0.834000       15.9994           0
     65179 TIP3     14266    TIP3     H1       HT       0.417000       1.00800           0
     65180 TIP3     14266    TIP3     H2       HT       0.417000       1.00800           0
     65181 TIP3     14267    TIP3     OH2      OT      -0.834000       15.9994           0
     65182 TIP3     14267    TIP3     H1       HT       0.417000       1.00800           0
     65183 TIP3     14267    TIP3     H2       HT       0.417000       1.00800           0
     65184 TIP3     14268    TIP3     OH2      OT      -0.834000       15.9994           0
     65185 TIP3     14268    TIP3     H1       HT       0.417000       1.00800           0
     65186 TIP3     14268    TIP3     H2       HT       0.417000       1.00800           0
     65187 TIP3     14269    TIP3     OH2      OT      -0.834000       15.9994           0
     65188 TIP3     14269    TIP3     H1       HT       0.417000       1.00800           0
     65189 TIP3     14269    TIP3     H2       HT       0.417000       1.00800           0
     65190 TIP3     14270    TIP3     OH2      OT      -0.834000       15.9994           0
     65191 TIP3     14270    TIP3     H1       HT       0.417000       1.00800           0
     65192 TIP3     14270    TIP3     H2       HT       0.417000       1.00800           0
     65193 TIP3     14271    TIP3     OH2      OT      -0.834000       15.9994           0
     65194 TIP3     14271    TIP3     H1       HT       0.417000       1.00800           0
     65195 TIP3     14271    TIP3     H2       HT       0.417000       1.00800           0
     65196 TIP3     14272    TIP3     OH2      OT      -0.834000       15.9994           0
     65197 TIP3     14272    TIP3     H1       HT       0.417000       1.00800           0
     65198 TIP3     14272    TIP3     H2       HT       0.417000       1.00800           0
     65199 TIP3     14273    TIP3     OH2      OT      -0.834000       15.9994           0
     65200 TIP3     14273    TIP3     H1       HT       0.417000       1.00800           0
     65201 TIP3     14273    TIP3     H2       HT       0.417000       1.00800           0
     65202 TIP3     14274    TIP3     OH2      OT      -0.834000       15.9994           0
     65203 TIP3     14274    TIP3     H1       HT       0.417000       1.00800           0
     65204 TIP3     14274    TIP3     H2       HT       0.417000       1.00800           0
     65205 TIP3     14275    TIP3     OH2      OT      -0.834000       15.9994           0
     65206 TIP3     14275    TIP3     H1       HT       0.417000       1.00800           0
     65207 TIP3     14275    TIP3     H2       HT       0.417000       1.00800           0
     65208 TIP3     14276    TIP3     OH2      OT      -0.834000       15.9994           0
     65209 TIP3     14276    TIP3     H1       HT       0.417000       1.00800           0
     65210 TIP3     14276    TIP3     H2       HT       0.417000       1.00800           0
     65211 TIP3     14277    TIP3     OH2      OT      -0.834000       15.9994           0
     65212 TIP3     14277    TIP3     H1       HT       0.417000       1.00800           0
     65213 TIP3     14277    TIP3     H2       HT       0.417000       1.00800           0
     65214 TIP3     14278    TIP3     OH2      OT      -0.834000       15.9994           0
     65215 TIP3     14278    TIP3     H1       HT       0.417000       1.00800           0
     65216 TIP3     14278    TIP3     H2       HT       0.417000       1.00800           0
     65217 TIP3     14279    TIP3     OH2      OT      -0.834000       15.9994           0
     65218 TIP3     14279    TIP3     H1       HT       0.417000       1.00800           0
     65219 TIP3     14279    TIP3     H2       HT       0.417000       1.00800           0
     65220 TIP3     14280    TIP3     OH2      OT      -0.834000       15.9994           0
     65221 TIP3     14280    TIP3     H1       HT       0.417000       1.00800           0
     65222 TIP3     14280    TIP3     H2       HT       0.417000       1.00800           0
     65223 TIP3     14281    TIP3     OH2      OT      -0.834000       15.9994           0
     65224 TIP3     14281    TIP3     H1       HT       0.417000       1.00800           0
     65225 TIP3     14281    TIP3     H2       HT       0.417000       1.00800           0
     65226 TIP3     14282    TIP3     OH2      OT      -0.834000       15.9994           0
     65227 TIP3     14282    TIP3     H1       HT       0.417000       1.00800           0
     65228 TIP3     14282    TIP3     H2       HT       0.417000       1.00800           0
     65229 TIP3     14283    TIP3     OH2      OT      -0.834000       15.9994           0
     65230 TIP3     14283    TIP3     H1       HT       0.417000       1.00800           0
     65231 TIP3     14283    TIP3     H2       HT       0.417000       1.00800           0
     65232 TIP3     14284    TIP3     OH2      OT      -0.834000       15.9994           0
     65233 TIP3     14284    TIP3     H1       HT       0.417000       1.00800           0
     65234 TIP3     14284    TIP3     H2       HT       0.417000       1.00800           0
     65235 TIP3     14285    TIP3     OH2      OT      -0.834000       15.9994           0
     65236 TIP3     14285    TIP3     H1       HT       0.417000       1.00800           0
     65237 TIP3     14285    TIP3     H2       HT       0.417000       1.00800           0
     65238 TIP3     14286    TIP3     OH2      OT      -0.834000       15.9994           0
     65239 TIP3     14286    TIP3     H1       HT       0.417000       1.00800           0
     65240 TIP3     14286    TIP3     H2       HT       0.417000       1.00800           0
     65241 TIP3     14287    TIP3     OH2      OT      -0.834000       15.9994           0
     65242 TIP3     14287    TIP3     H1       HT       0.417000       1.00800           0
     65243 TIP3     14287    TIP3     H2       HT       0.417000       1.00800           0
     65244 TIP3     14288    TIP3     OH2      OT      -0.834000       15.9994           0
     65245 TIP3     14288    TIP3     H1       HT       0.417000       1.00800           0
     65246 TIP3     14288    TIP3     H2       HT       0.417000       1.00800           0
     65247 TIP3     14289    TIP3     OH2      OT      -0.834000       15.9994           0
     65248 TIP3     14289    TIP3     H1       HT       0.417000       1.00800           0
     65249 TIP3     14289    TIP3     H2       HT       0.417000       1.00800           0
     65250 TIP3     14290    TIP3     OH2      OT      -0.834000       15.9994           0
     65251 TIP3     14290    TIP3     H1       HT       0.417000       1.00800           0
     65252 TIP3     14290    TIP3     H2       HT       0.417000       1.00800           0
     65253 TIP3     14291    TIP3     OH2      OT      -0.834000       15.9994           0
     65254 TIP3     14291    TIP3     H1       HT       0.417000       1.00800           0
     65255 TIP3     14291    TIP3     H2       HT       0.417000       1.00800           0
     65256 TIP3     14292    TIP3     OH2      OT      -0.834000       15.9994           0
     65257 TIP3     14292    TIP3     H1       HT       0.417000       1.00800           0
     65258 TIP3     14292    TIP3     H2       HT       0.417000       1.00800           0
     65259 TIP3     14293    TIP3     OH2      OT      -0.834000       15.9994           0
     65260 TIP3     14293    TIP3     H1       HT       0.417000       1.00800           0
     65261 TIP3     14293    TIP3     H2       HT       0.417000       1.00800           0
     65262 TIP3     14294    TIP3     OH2      OT      -0.834000       15.9994           0
     65263 TIP3     14294    TIP3     H1       HT       0.417000       1.00800           0
     65264 TIP3     14294    TIP3     H2       HT       0.417000       1.00800           0
     65265 TIP3     14295    TIP3     OH2      OT      -0.834000       15.9994           0
     65266 TIP3     14295    TIP3     H1       HT       0.417000       1.00800           0
     65267 TIP3     14295    TIP3     H2       HT       0.417000       1.00800           0
     65268 TIP3     14296    TIP3     OH2      OT      -0.834000       15.9994           0
     65269 TIP3     14296    TIP3     H1       HT       0.417000       1.00800           0
     65270 TIP3     14296    TIP3     H2       HT       0.417000       1.00800           0
     65271 TIP3     14297    TIP3     OH2      OT      -0.834000       15.9994           0
     65272 TIP3     14297    TIP3     H1       HT       0.417000       1.00800           0
     65273 TIP3     14297    TIP3     H2       HT       0.417000       1.00800           0
     65274 TIP3     14298    TIP3     OH2      OT      -0.834000       15.9994           0
     65275 TIP3     14298    TIP3     H1       HT       0.417000       1.00800           0
     65276 TIP3     14298    TIP3     H2       HT       0.417000       1.00800           0
     65277 TIP3     14299    TIP3     OH2      OT      -0.834000       15.9994           0
     65278 TIP3     14299    TIP3     H1       HT       0.417000       1.00800           0
     65279 TIP3     14299    TIP3     H2       HT       0.417000       1.00800           0
     65280 TIP3     14300    TIP3     OH2      OT      -0.834000       15.9994           0
     65281 TIP3     14300    TIP3     H1       HT       0.417000       1.00800           0
     65282 TIP3     14300    TIP3     H2       HT       0.417000       1.00800           0
     65283 TIP3     14301    TIP3     OH2      OT      -0.834000       15.9994           0
     65284 TIP3     14301    TIP3     H1       HT       0.417000       1.00800           0
     65285 TIP3     14301    TIP3     H2       HT       0.417000       1.00800           0
     65286 TIP3     14302    TIP3     OH2      OT      -0.834000       15.9994           0
     65287 TIP3     14302    TIP3     H1       HT       0.417000       1.00800           0
     65288 TIP3     14302    TIP3     H2       HT       0.417000       1.00800           0
     65289 TIP3     14303    TIP3     OH2      OT      -0.834000       15.9994           0
     65290 TIP3     14303    TIP3     H1       HT       0.417000       1.00800           0
     65291 TIP3     14303    TIP3     H2       HT       0.417000       1.00800           0
     65292 TIP3     14304    TIP3     OH2      OT      -0.834000       15.9994           0
     65293 TIP3     14304    TIP3     H1       HT       0.417000       1.00800           0
     65294 TIP3     14304    TIP3     H2       HT       0.417000       1.00800           0
     65295 TIP3     14305    TIP3     OH2      OT      -0.834000       15.9994           0
     65296 TIP3     14305    TIP3     H1       HT       0.417000       1.00800           0
     65297 TIP3     14305    TIP3     H2       HT       0.417000       1.00800           0
     65298 TIP3     14306    TIP3     OH2      OT      -0.834000       15.9994           0
     65299 TIP3     14306    TIP3     H1       HT       0.417000       1.00800           0
     65300 TIP3     14306    TIP3     H2       HT       0.417000       1.00800           0
     65301 TIP3     14307    TIP3     OH2      OT      -0.834000       15.9994           0
     65302 TIP3     14307    TIP3     H1       HT       0.417000       1.00800           0
     65303 TIP3     14307    TIP3     H2       HT       0.417000       1.00800           0
     65304 TIP3     14308    TIP3     OH2      OT      -0.834000       15.9994           0
     65305 TIP3     14308    TIP3     H1       HT       0.417000       1.00800           0
     65306 TIP3     14308    TIP3     H2       HT       0.417000       1.00800           0
     65307 TIP3     14309    TIP3     OH2      OT      -0.834000       15.9994           0
     65308 TIP3     14309    TIP3     H1       HT       0.417000       1.00800           0
     65309 TIP3     14309    TIP3     H2       HT       0.417000       1.00800           0
     65310 TIP3     14310    TIP3     OH2      OT      -0.834000       15.9994           0
     65311 TIP3     14310    TIP3     H1       HT       0.417000       1.00800           0
     65312 TIP3     14310    TIP3     H2       HT       0.417000       1.00800           0
     65313 TIP3     14311    TIP3     OH2      OT      -0.834000       15.9994           0
     65314 TIP3     14311    TIP3     H1       HT       0.417000       1.00800           0
     65315 TIP3     14311    TIP3     H2       HT       0.417000       1.00800           0
     65316 TIP3     14312    TIP3     OH2      OT      -0.834000       15.9994           0
     65317 TIP3     14312    TIP3     H1       HT       0.417000       1.00800           0
     65318 TIP3     14312    TIP3     H2       HT       0.417000       1.00800           0
     65319 TIP3     14313    TIP3     OH2      OT      -0.834000       15.9994           0
     65320 TIP3     14313    TIP3     H1       HT       0.417000       1.00800           0
     65321 TIP3     14313    TIP3     H2       HT       0.417000       1.00800           0
     65322 TIP3     14314    TIP3     OH2      OT      -0.834000       15.9994           0
     65323 TIP3     14314    TIP3     H1       HT       0.417000       1.00800           0
     65324 TIP3     14314    TIP3     H2       HT       0.417000       1.00800           0
     65325 TIP3     14315    TIP3     OH2      OT      -0.834000       15.9994           0
     65326 TIP3     14315    TIP3     H1       HT       0.417000       1.00800           0
     65327 TIP3     14315    TIP3     H2       HT       0.417000       1.00800           0
     65328 TIP3     14316    TIP3     OH2      OT      -0.834000       15.9994           0
     65329 TIP3     14316    TIP3     H1       HT       0.417000       1.00800           0
     65330 TIP3     14316    TIP3     H2       HT       0.417000       1.00800           0
     65331 TIP3     14317    TIP3     OH2      OT      -0.834000       15.9994           0
     65332 TIP3     14317    TIP3     H1       HT       0.417000       1.00800           0
     65333 TIP3     14317    TIP3     H2       HT       0.417000       1.00800           0
     65334 TIP3     14318    TIP3     OH2      OT      -0.834000       15.9994           0
     65335 TIP3     14318    TIP3     H1       HT       0.417000       1.00800           0
     65336 TIP3     14318    TIP3     H2       HT       0.417000       1.00800           0
     65337 TIP3     14319    TIP3     OH2      OT      -0.834000       15.9994           0
     65338 TIP3     14319    TIP3     H1       HT       0.417000       1.00800           0
     65339 TIP3     14319    TIP3     H2       HT       0.417000       1.00800           0
     65340 TIP3     14320    TIP3     OH2      OT      -0.834000       15.9994           0
     65341 TIP3     14320    TIP3     H1       HT       0.417000       1.00800           0
     65342 TIP3     14320    TIP3     H2       HT       0.417000       1.00800           0
     65343 TIP3     14321    TIP3     OH2      OT      -0.834000       15.9994           0
     65344 TIP3     14321    TIP3     H1       HT       0.417000       1.00800           0
     65345 TIP3     14321    TIP3     H2       HT       0.417000       1.00800           0
     65346 TIP3     14322    TIP3     OH2      OT      -0.834000       15.9994           0
     65347 TIP3     14322    TIP3     H1       HT       0.417000       1.00800           0
     65348 TIP3     14322    TIP3     H2       HT       0.417000       1.00800           0
     65349 TIP3     14323    TIP3     OH2      OT      -0.834000       15.9994           0
     65350 TIP3     14323    TIP3     H1       HT       0.417000       1.00800           0
     65351 TIP3     14323    TIP3     H2       HT       0.417000       1.00800           0
     65352 TIP3     14324    TIP3     OH2      OT      -0.834000       15.9994           0
     65353 TIP3     14324    TIP3     H1       HT       0.417000       1.00800           0
     65354 TIP3     14324    TIP3     H2       HT       0.417000       1.00800           0
     65355 TIP3     14325    TIP3     OH2      OT      -0.834000       15.9994           0
     65356 TIP3     14325    TIP3     H1       HT       0.417000       1.00800           0
     65357 TIP3     14325    TIP3     H2       HT       0.417000       1.00800           0
     65358 TIP3     14326    TIP3     OH2      OT      -0.834000       15.9994           0
     65359 TIP3     14326    TIP3     H1       HT       0.417000       1.00800           0
     65360 TIP3     14326    TIP3     H2       HT       0.417000       1.00800           0
     65361 TIP3     14327    TIP3     OH2      OT      -0.834000       15.9994           0
     65362 TIP3     14327    TIP3     H1       HT       0.417000       1.00800           0
     65363 TIP3     14327    TIP3     H2       HT       0.417000       1.00800           0
     65364 TIP3     14328    TIP3     OH2      OT      -0.834000       15.9994           0
     65365 TIP3     14328    TIP3     H1       HT       0.417000       1.00800           0
     65366 TIP3     14328    TIP3     H2       HT       0.417000       1.00800           0
     65367 TIP3     14329    TIP3     OH2      OT      -0.834000       15.9994           0
     65368 TIP3     14329    TIP3     H1       HT       0.417000       1.00800           0
     65369 TIP3     14329    TIP3     H2       HT       0.417000       1.00800           0
     65370 TIP3     14330    TIP3     OH2      OT      -0.834000       15.9994           0
     65371 TIP3     14330    TIP3     H1       HT       0.417000       1.00800           0
     65372 TIP3     14330    TIP3     H2       HT       0.417000       1.00800           0
     65373 TIP3     14331    TIP3     OH2      OT      -0.834000       15.9994           0
     65374 TIP3     14331    TIP3     H1       HT       0.417000       1.00800           0
     65375 TIP3     14331    TIP3     H2       HT       0.417000       1.00800           0
     65376 TIP3     14332    TIP3     OH2      OT      -0.834000       15.9994           0
     65377 TIP3     14332    TIP3     H1       HT       0.417000       1.00800           0
     65378 TIP3     14332    TIP3     H2       HT       0.417000       1.00800           0
     65379 TIP3     14333    TIP3     OH2      OT      -0.834000       15.9994           0
     65380 TIP3     14333    TIP3     H1       HT       0.417000       1.00800           0
     65381 TIP3     14333    TIP3     H2       HT       0.417000       1.00800           0
     65382 TIP3     14334    TIP3     OH2      OT      -0.834000       15.9994           0
     65383 TIP3     14334    TIP3     H1       HT       0.417000       1.00800           0
     65384 TIP3     14334    TIP3     H2       HT       0.417000       1.00800           0
     65385 TIP3     14335    TIP3     OH2      OT      -0.834000       15.9994           0
     65386 TIP3     14335    TIP3     H1       HT       0.417000       1.00800           0
     65387 TIP3     14335    TIP3     H2       HT       0.417000       1.00800           0
     65388 TIP3     14336    TIP3     OH2      OT      -0.834000       15.9994           0
     65389 TIP3     14336    TIP3     H1       HT       0.417000       1.00800           0
     65390 TIP3     14336    TIP3     H2       HT       0.417000       1.00800           0
     65391 TIP3     14337    TIP3     OH2      OT      -0.834000       15.9994           0
     65392 TIP3     14337    TIP3     H1       HT       0.417000       1.00800           0
     65393 TIP3     14337    TIP3     H2       HT       0.417000       1.00800           0
     65394 TIP3     14338    TIP3     OH2      OT      -0.834000       15.9994           0
     65395 TIP3     14338    TIP3     H1       HT       0.417000       1.00800           0
     65396 TIP3     14338    TIP3     H2       HT       0.417000       1.00800           0
     65397 TIP3     14339    TIP3     OH2      OT      -0.834000       15.9994           0
     65398 TIP3     14339    TIP3     H1       HT       0.417000       1.00800           0
     65399 TIP3     14339    TIP3     H2       HT       0.417000       1.00800           0
     65400 TIP3     14340    TIP3     OH2      OT      -0.834000       15.9994           0
     65401 TIP3     14340    TIP3     H1       HT       0.417000       1.00800           0
     65402 TIP3     14340    TIP3     H2       HT       0.417000       1.00800           0
     65403 TIP3     14341    TIP3     OH2      OT      -0.834000       15.9994           0
     65404 TIP3     14341    TIP3     H1       HT       0.417000       1.00800           0
     65405 TIP3     14341    TIP3     H2       HT       0.417000       1.00800           0
     65406 TIP3     14342    TIP3     OH2      OT      -0.834000       15.9994           0
     65407 TIP3     14342    TIP3     H1       HT       0.417000       1.00800           0
     65408 TIP3     14342    TIP3     H2       HT       0.417000       1.00800           0
     65409 TIP3     14343    TIP3     OH2      OT      -0.834000       15.9994           0
     65410 TIP3     14343    TIP3     H1       HT       0.417000       1.00800           0
     65411 TIP3     14343    TIP3     H2       HT       0.417000       1.00800           0
     65412 TIP3     14344    TIP3     OH2      OT      -0.834000       15.9994           0
     65413 TIP3     14344    TIP3     H1       HT       0.417000       1.00800           0
     65414 TIP3     14344    TIP3     H2       HT       0.417000       1.00800           0
     65415 TIP3     14345    TIP3     OH2      OT      -0.834000       15.9994           0
     65416 TIP3     14345    TIP3     H1       HT       0.417000       1.00800           0
     65417 TIP3     14345    TIP3     H2       HT       0.417000       1.00800           0
     65418 TIP3     14346    TIP3     OH2      OT      -0.834000       15.9994           0
     65419 TIP3     14346    TIP3     H1       HT       0.417000       1.00800           0
     65420 TIP3     14346    TIP3     H2       HT       0.417000       1.00800           0
     65421 TIP3     14347    TIP3     OH2      OT      -0.834000       15.9994           0
     65422 TIP3     14347    TIP3     H1       HT       0.417000       1.00800           0
     65423 TIP3     14347    TIP3     H2       HT       0.417000       1.00800           0
     65424 TIP3     14348    TIP3     OH2      OT      -0.834000       15.9994           0
     65425 TIP3     14348    TIP3     H1       HT       0.417000       1.00800           0
     65426 TIP3     14348    TIP3     H2       HT       0.417000       1.00800           0
     65427 TIP3     14349    TIP3     OH2      OT      -0.834000       15.9994           0
     65428 TIP3     14349    TIP3     H1       HT       0.417000       1.00800           0
     65429 TIP3     14349    TIP3     H2       HT       0.417000       1.00800           0
     65430 TIP3     14350    TIP3     OH2      OT      -0.834000       15.9994           0
     65431 TIP3     14350    TIP3     H1       HT       0.417000       1.00800           0
     65432 TIP3     14350    TIP3     H2       HT       0.417000       1.00800           0
     65433 TIP3     14351    TIP3     OH2      OT      -0.834000       15.9994           0
     65434 TIP3     14351    TIP3     H1       HT       0.417000       1.00800           0
     65435 TIP3     14351    TIP3     H2       HT       0.417000       1.00800           0
     65436 TIP3     14352    TIP3     OH2      OT      -0.834000       15.9994           0
     65437 TIP3     14352    TIP3     H1       HT       0.417000       1.00800           0
     65438 TIP3     14352    TIP3     H2       HT       0.417000       1.00800           0
     65439 TIP3     14353    TIP3     OH2      OT      -0.834000       15.9994           0
     65440 TIP3     14353    TIP3     H1       HT       0.417000       1.00800           0
     65441 TIP3     14353    TIP3     H2       HT       0.417000       1.00800           0
     65442 TIP3     14354    TIP3     OH2      OT      -0.834000       15.9994           0
     65443 TIP3     14354    TIP3     H1       HT       0.417000       1.00800           0
     65444 TIP3     14354    TIP3     H2       HT       0.417000       1.00800           0
     65445 TIP3     14355    TIP3     OH2      OT      -0.834000       15.9994           0
     65446 TIP3     14355    TIP3     H1       HT       0.417000       1.00800           0
     65447 TIP3     14355    TIP3     H2       HT       0.417000       1.00800           0
     65448 TIP3     14356    TIP3     OH2      OT      -0.834000       15.9994           0
     65449 TIP3     14356    TIP3     H1       HT       0.417000       1.00800           0
     65450 TIP3     14356    TIP3     H2       HT       0.417000       1.00800           0
     65451 TIP3     14357    TIP3     OH2      OT      -0.834000       15.9994           0
     65452 TIP3     14357    TIP3     H1       HT       0.417000       1.00800           0
     65453 TIP3     14357    TIP3     H2       HT       0.417000       1.00800           0
     65454 TIP3     14358    TIP3     OH2      OT      -0.834000       15.9994           0
     65455 TIP3     14358    TIP3     H1       HT       0.417000       1.00800           0
     65456 TIP3     14358    TIP3     H2       HT       0.417000       1.00800           0
     65457 TIP3     14359    TIP3     OH2      OT      -0.834000       15.9994           0
     65458 TIP3     14359    TIP3     H1       HT       0.417000       1.00800           0
     65459 TIP3     14359    TIP3     H2       HT       0.417000       1.00800           0
     65460 TIP3     14360    TIP3     OH2      OT      -0.834000       15.9994           0
     65461 TIP3     14360    TIP3     H1       HT       0.417000       1.00800           0
     65462 TIP3     14360    TIP3     H2       HT       0.417000       1.00800           0
     65463 TIP3     14361    TIP3     OH2      OT      -0.834000       15.9994           0
     65464 TIP3     14361    TIP3     H1       HT       0.417000       1.00800           0
     65465 TIP3     14361    TIP3     H2       HT       0.417000       1.00800           0
     65466 TIP3     14362    TIP3     OH2      OT      -0.834000       15.9994           0
     65467 TIP3     14362    TIP3     H1       HT       0.417000       1.00800           0
     65468 TIP3     14362    TIP3     H2       HT       0.417000       1.00800           0
     65469 TIP3     14363    TIP3     OH2      OT      -0.834000       15.9994           0
     65470 TIP3     14363    TIP3     H1       HT       0.417000       1.00800           0
     65471 TIP3     14363    TIP3     H2       HT       0.417000       1.00800           0
     65472 TIP3     14364    TIP3     OH2      OT      -0.834000       15.9994           0
     65473 TIP3     14364    TIP3     H1       HT       0.417000       1.00800           0
     65474 TIP3     14364    TIP3     H2       HT       0.417000       1.00800           0
     65475 TIP3     14365    TIP3     OH2      OT      -0.834000       15.9994           0
     65476 TIP3     14365    TIP3     H1       HT       0.417000       1.00800           0
     65477 TIP3     14365    TIP3     H2       HT       0.417000       1.00800           0
     65478 TIP3     14366    TIP3     OH2      OT      -0.834000       15.9994           0
     65479 TIP3     14366    TIP3     H1       HT       0.417000       1.00800           0
     65480 TIP3     14366    TIP3     H2       HT       0.417000       1.00800           0
     65481 TIP3     14367    TIP3     OH2      OT      -0.834000       15.9994           0
     65482 TIP3     14367    TIP3     H1       HT       0.417000       1.00800           0
     65483 TIP3     14367    TIP3     H2       HT       0.417000       1.00800           0
     65484 TIP3     14368    TIP3     OH2      OT      -0.834000       15.9994           0
     65485 TIP3     14368    TIP3     H1       HT       0.417000       1.00800           0
     65486 TIP3     14368    TIP3     H2       HT       0.417000       1.00800           0
     65487 TIP3     14369    TIP3     OH2      OT      -0.834000       15.9994           0
     65488 TIP3     14369    TIP3     H1       HT       0.417000       1.00800           0
     65489 TIP3     14369    TIP3     H2       HT       0.417000       1.00800           0
     65490 TIP3     14370    TIP3     OH2      OT      -0.834000       15.9994           0
     65491 TIP3     14370    TIP3     H1       HT       0.417000       1.00800           0
     65492 TIP3     14370    TIP3     H2       HT       0.417000       1.00800           0
     65493 TIP3     14371    TIP3     OH2      OT      -0.834000       15.9994           0
     65494 TIP3     14371    TIP3     H1       HT       0.417000       1.00800           0
     65495 TIP3     14371    TIP3     H2       HT       0.417000       1.00800           0
     65496 TIP3     14372    TIP3     OH2      OT      -0.834000       15.9994           0
     65497 TIP3     14372    TIP3     H1       HT       0.417000       1.00800           0
     65498 TIP3     14372    TIP3     H2       HT       0.417000       1.00800           0
     65499 TIP3     14373    TIP3     OH2      OT      -0.834000       15.9994           0
     65500 TIP3     14373    TIP3     H1       HT       0.417000       1.00800           0
     65501 TIP3     14373    TIP3     H2       HT       0.417000       1.00800           0
     65502 TIP3     14374    TIP3     OH2      OT      -0.834000       15.9994           0
     65503 TIP3     14374    TIP3     H1       HT       0.417000       1.00800           0
     65504 TIP3     14374    TIP3     H2       HT       0.417000       1.00800           0
     65505 TIP3     14375    TIP3     OH2      OT      -0.834000       15.9994           0
     65506 TIP3     14375    TIP3     H1       HT       0.417000       1.00800           0
     65507 TIP3     14375    TIP3     H2       HT       0.417000       1.00800           0
     65508 TIP3     14376    TIP3     OH2      OT      -0.834000       15.9994           0
     65509 TIP3     14376    TIP3     H1       HT       0.417000       1.00800           0
     65510 TIP3     14376    TIP3     H2       HT       0.417000       1.00800           0
     65511 TIP3     14377    TIP3     OH2      OT      -0.834000       15.9994           0
     65512 TIP3     14377    TIP3     H1       HT       0.417000       1.00800           0
     65513 TIP3     14377    TIP3     H2       HT       0.417000       1.00800           0
     65514 TIP3     14378    TIP3     OH2      OT      -0.834000       15.9994           0
     65515 TIP3     14378    TIP3     H1       HT       0.417000       1.00800           0
     65516 TIP3     14378    TIP3     H2       HT       0.417000       1.00800           0
     65517 TIP3     14379    TIP3     OH2      OT      -0.834000       15.9994           0
     65518 TIP3     14379    TIP3     H1       HT       0.417000       1.00800           0
     65519 TIP3     14379    TIP3     H2       HT       0.417000       1.00800           0
     65520 TIP3     14380    TIP3     OH2      OT      -0.834000       15.9994           0
     65521 TIP3     14380    TIP3     H1       HT       0.417000       1.00800           0
     65522 TIP3     14380    TIP3     H2       HT       0.417000       1.00800           0
     65523 TIP3     14381    TIP3     OH2      OT      -0.834000       15.9994           0
     65524 TIP3     14381    TIP3     H1       HT       0.417000       1.00800           0
     65525 TIP3     14381    TIP3     H2       HT       0.417000       1.00800           0
     65526 TIP3     14382    TIP3     OH2      OT      -0.834000       15.9994           0
     65527 TIP3     14382    TIP3     H1       HT       0.417000       1.00800           0
     65528 TIP3     14382    TIP3     H2       HT       0.417000       1.00800           0
     65529 TIP3     14383    TIP3     OH2      OT      -0.834000       15.9994           0
     65530 TIP3     14383    TIP3     H1       HT       0.417000       1.00800           0
     65531 TIP3     14383    TIP3     H2       HT       0.417000       1.00800           0
     65532 TIP3     14384    TIP3     OH2      OT      -0.834000       15.9994           0
     65533 TIP3     14384    TIP3     H1       HT       0.417000       1.00800           0
     65534 TIP3     14384    TIP3     H2       HT       0.417000       1.00800           0
     65535 TIP3     14385    TIP3     OH2      OT      -0.834000       15.9994           0
     65536 TIP3     14385    TIP3     H1       HT       0.417000       1.00800           0
     65537 TIP3     14385    TIP3     H2       HT       0.417000       1.00800           0
     65538 TIP3     14386    TIP3     OH2      OT      -0.834000       15.9994           0
     65539 TIP3     14386    TIP3     H1       HT       0.417000       1.00800           0
     65540 TIP3     14386    TIP3     H2       HT       0.417000       1.00800           0
     65541 TIP3     14387    TIP3     OH2      OT      -0.834000       15.9994           0
     65542 TIP3     14387    TIP3     H1       HT       0.417000       1.00800           0
     65543 TIP3     14387    TIP3     H2       HT       0.417000       1.00800           0
     65544 TIP3     14388    TIP3     OH2      OT      -0.834000       15.9994           0
     65545 TIP3     14388    TIP3     H1       HT       0.417000       1.00800           0
     65546 TIP3     14388    TIP3     H2       HT       0.417000       1.00800           0
     65547 TIP3     14389    TIP3     OH2      OT      -0.834000       15.9994           0
     65548 TIP3     14389    TIP3     H1       HT       0.417000       1.00800           0
     65549 TIP3     14389    TIP3     H2       HT       0.417000       1.00800           0
     65550 TIP3     14390    TIP3     OH2      OT      -0.834000       15.9994           0
     65551 TIP3     14390    TIP3     H1       HT       0.417000       1.00800           0
     65552 TIP3     14390    TIP3     H2       HT       0.417000       1.00800           0
     65553 TIP3     14391    TIP3     OH2      OT      -0.834000       15.9994           0
     65554 TIP3     14391    TIP3     H1       HT       0.417000       1.00800           0
     65555 TIP3     14391    TIP3     H2       HT       0.417000       1.00800           0
     65556 TIP3     14392    TIP3     OH2      OT      -0.834000       15.9994           0
     65557 TIP3     14392    TIP3     H1       HT       0.417000       1.00800           0
     65558 TIP3     14392    TIP3     H2       HT       0.417000       1.00800           0
     65559 TIP3     14393    TIP3     OH2      OT      -0.834000       15.9994           0
     65560 TIP3     14393    TIP3     H1       HT       0.417000       1.00800           0
     65561 TIP3     14393    TIP3     H2       HT       0.417000       1.00800           0
     65562 TIP3     14394    TIP3     OH2      OT      -0.834000       15.9994           0
     65563 TIP3     14394    TIP3     H1       HT       0.417000       1.00800           0
     65564 TIP3     14394    TIP3     H2       HT       0.417000       1.00800           0
     65565 TIP3     14395    TIP3     OH2      OT      -0.834000       15.9994           0
     65566 TIP3     14395    TIP3     H1       HT       0.417000       1.00800           0
     65567 TIP3     14395    TIP3     H2       HT       0.417000       1.00800           0
     65568 TIP3     14396    TIP3     OH2      OT      -0.834000       15.9994           0
     65569 TIP3     14396    TIP3     H1       HT       0.417000       1.00800           0
     65570 TIP3     14396    TIP3     H2       HT       0.417000       1.00800           0
     65571 TIP3     14397    TIP3     OH2      OT      -0.834000       15.9994           0
     65572 TIP3     14397    TIP3     H1       HT       0.417000       1.00800           0
     65573 TIP3     14397    TIP3     H2       HT       0.417000       1.00800           0
     65574 TIP3     14398    TIP3     OH2      OT      -0.834000       15.9994           0
     65575 TIP3     14398    TIP3     H1       HT       0.417000       1.00800           0
     65576 TIP3     14398    TIP3     H2       HT       0.417000       1.00800           0
     65577 TIP3     14399    TIP3     OH2      OT      -0.834000       15.9994           0
     65578 TIP3     14399    TIP3     H1       HT       0.417000       1.00800           0
     65579 TIP3     14399    TIP3     H2       HT       0.417000       1.00800           0
     65580 TIP3     14400    TIP3     OH2      OT      -0.834000       15.9994           0
     65581 TIP3     14400    TIP3     H1       HT       0.417000       1.00800           0
     65582 TIP3     14400    TIP3     H2       HT       0.417000       1.00800           0
     65583 TIP3     14401    TIP3     OH2      OT      -0.834000       15.9994           0
     65584 TIP3     14401    TIP3     H1       HT       0.417000       1.00800           0
     65585 TIP3     14401    TIP3     H2       HT       0.417000       1.00800           0
     65586 TIP3     14402    TIP3     OH2      OT      -0.834000       15.9994           0
     65587 TIP3     14402    TIP3     H1       HT       0.417000       1.00800           0
     65588 TIP3     14402    TIP3     H2       HT       0.417000       1.00800           0
     65589 TIP3     14403    TIP3     OH2      OT      -0.834000       15.9994           0
     65590 TIP3     14403    TIP3     H1       HT       0.417000       1.00800           0
     65591 TIP3     14403    TIP3     H2       HT       0.417000       1.00800           0
     65592 TIP3     14404    TIP3     OH2      OT      -0.834000       15.9994           0
     65593 TIP3     14404    TIP3     H1       HT       0.417000       1.00800           0
     65594 TIP3     14404    TIP3     H2       HT       0.417000       1.00800           0
     65595 TIP3     14405    TIP3     OH2      OT      -0.834000       15.9994           0
     65596 TIP3     14405    TIP3     H1       HT       0.417000       1.00800           0
     65597 TIP3     14405    TIP3     H2       HT       0.417000       1.00800           0
     65598 TIP3     14406    TIP3     OH2      OT      -0.834000       15.9994           0
     65599 TIP3     14406    TIP3     H1       HT       0.417000       1.00800           0
     65600 TIP3     14406    TIP3     H2       HT       0.417000       1.00800           0
     65601 TIP3     14407    TIP3     OH2      OT      -0.834000       15.9994           0
     65602 TIP3     14407    TIP3     H1       HT       0.417000       1.00800           0
     65603 TIP3     14407    TIP3     H2       HT       0.417000       1.00800           0
     65604 TIP3     14408    TIP3     OH2      OT      -0.834000       15.9994           0
     65605 TIP3     14408    TIP3     H1       HT       0.417000       1.00800           0
     65606 TIP3     14408    TIP3     H2       HT       0.417000       1.00800           0
     65607 TIP3     14409    TIP3     OH2      OT      -0.834000       15.9994           0
     65608 TIP3     14409    TIP3     H1       HT       0.417000       1.00800           0
     65609 TIP3     14409    TIP3     H2       HT       0.417000       1.00800           0
     65610 TIP3     14410    TIP3     OH2      OT      -0.834000       15.9994           0
     65611 TIP3     14410    TIP3     H1       HT       0.417000       1.00800           0
     65612 TIP3     14410    TIP3     H2       HT       0.417000       1.00800           0
     65613 TIP3     14411    TIP3     OH2      OT      -0.834000       15.9994           0
     65614 TIP3     14411    TIP3     H1       HT       0.417000       1.00800           0
     65615 TIP3     14411    TIP3     H2       HT       0.417000       1.00800           0
     65616 TIP3     14412    TIP3     OH2      OT      -0.834000       15.9994           0
     65617 TIP3     14412    TIP3     H1       HT       0.417000       1.00800           0
     65618 TIP3     14412    TIP3     H2       HT       0.417000       1.00800           0
     65619 TIP3     14413    TIP3     OH2      OT      -0.834000       15.9994           0
     65620 TIP3     14413    TIP3     H1       HT       0.417000       1.00800           0
     65621 TIP3     14413    TIP3     H2       HT       0.417000       1.00800           0
     65622 TIP3     14414    TIP3     OH2      OT      -0.834000       15.9994           0
     65623 TIP3     14414    TIP3     H1       HT       0.417000       1.00800           0
     65624 TIP3     14414    TIP3     H2       HT       0.417000       1.00800           0
     65625 TIP3     14415    TIP3     OH2      OT      -0.834000       15.9994           0
     65626 TIP3     14415    TIP3     H1       HT       0.417000       1.00800           0
     65627 TIP3     14415    TIP3     H2       HT       0.417000       1.00800           0
     65628 TIP3     14416    TIP3     OH2      OT      -0.834000       15.9994           0
     65629 TIP3     14416    TIP3     H1       HT       0.417000       1.00800           0
     65630 TIP3     14416    TIP3     H2       HT       0.417000       1.00800           0
     65631 TIP3     14417    TIP3     OH2      OT      -0.834000       15.9994           0
     65632 TIP3     14417    TIP3     H1       HT       0.417000       1.00800           0
     65633 TIP3     14417    TIP3     H2       HT       0.417000       1.00800           0
     65634 TIP3     14418    TIP3     OH2      OT      -0.834000       15.9994           0
     65635 TIP3     14418    TIP3     H1       HT       0.417000       1.00800           0
     65636 TIP3     14418    TIP3     H2       HT       0.417000       1.00800           0
     65637 TIP3     14419    TIP3     OH2      OT      -0.834000       15.9994           0
     65638 TIP3     14419    TIP3     H1       HT       0.417000       1.00800           0
     65639 TIP3     14419    TIP3     H2       HT       0.417000       1.00800           0
     65640 TIP3     14420    TIP3     OH2      OT      -0.834000       15.9994           0
     65641 TIP3     14420    TIP3     H1       HT       0.417000       1.00800           0
     65642 TIP3     14420    TIP3     H2       HT       0.417000       1.00800           0
     65643 TIP3     14421    TIP3     OH2      OT      -0.834000       15.9994           0
     65644 TIP3     14421    TIP3     H1       HT       0.417000       1.00800           0
     65645 TIP3     14421    TIP3     H2       HT       0.417000       1.00800           0
     65646 TIP3     14422    TIP3     OH2      OT      -0.834000       15.9994           0
     65647 TIP3     14422    TIP3     H1       HT       0.417000       1.00800           0
     65648 TIP3     14422    TIP3     H2       HT       0.417000       1.00800           0
     65649 TIP3     14423    TIP3     OH2      OT      -0.834000       15.9994           0
     65650 TIP3     14423    TIP3     H1       HT       0.417000       1.00800           0
     65651 TIP3     14423    TIP3     H2       HT       0.417000       1.00800           0
     65652 TIP3     14424    TIP3     OH2      OT      -0.834000       15.9994           0
     65653 TIP3     14424    TIP3     H1       HT       0.417000       1.00800           0
     65654 TIP3     14424    TIP3     H2       HT       0.417000       1.00800           0
     65655 TIP3     14425    TIP3     OH2      OT      -0.834000       15.9994           0
     65656 TIP3     14425    TIP3     H1       HT       0.417000       1.00800           0
     65657 TIP3     14425    TIP3     H2       HT       0.417000       1.00800           0
     65658 TIP3     14426    TIP3     OH2      OT      -0.834000       15.9994           0
     65659 TIP3     14426    TIP3     H1       HT       0.417000       1.00800           0
     65660 TIP3     14426    TIP3     H2       HT       0.417000       1.00800           0
     65661 TIP3     14427    TIP3     OH2      OT      -0.834000       15.9994           0
     65662 TIP3     14427    TIP3     H1       HT       0.417000       1.00800           0
     65663 TIP3     14427    TIP3     H2       HT       0.417000       1.00800           0
     65664 TIP3     14428    TIP3     OH2      OT      -0.834000       15.9994           0
     65665 TIP3     14428    TIP3     H1       HT       0.417000       1.00800           0
     65666 TIP3     14428    TIP3     H2       HT       0.417000       1.00800           0
     65667 TIP3     14429    TIP3     OH2      OT      -0.834000       15.9994           0
     65668 TIP3     14429    TIP3     H1       HT       0.417000       1.00800           0
     65669 TIP3     14429    TIP3     H2       HT       0.417000       1.00800           0
     65670 TIP3     14430    TIP3     OH2      OT      -0.834000       15.9994           0
     65671 TIP3     14430    TIP3     H1       HT       0.417000       1.00800           0
     65672 TIP3     14430    TIP3     H2       HT       0.417000       1.00800           0
     65673 TIP3     14431    TIP3     OH2      OT      -0.834000       15.9994           0
     65674 TIP3     14431    TIP3     H1       HT       0.417000       1.00800           0
     65675 TIP3     14431    TIP3     H2       HT       0.417000       1.00800           0
     65676 TIP3     14432    TIP3     OH2      OT      -0.834000       15.9994           0
     65677 TIP3     14432    TIP3     H1       HT       0.417000       1.00800           0
     65678 TIP3     14432    TIP3     H2       HT       0.417000       1.00800           0
     65679 TIP3     14433    TIP3     OH2      OT      -0.834000       15.9994           0
     65680 TIP3     14433    TIP3     H1       HT       0.417000       1.00800           0
     65681 TIP3     14433    TIP3     H2       HT       0.417000       1.00800           0
     65682 TIP3     14434    TIP3     OH2      OT      -0.834000       15.9994           0
     65683 TIP3     14434    TIP3     H1       HT       0.417000       1.00800           0
     65684 TIP3     14434    TIP3     H2       HT       0.417000       1.00800           0
     65685 TIP3     14435    TIP3     OH2      OT      -0.834000       15.9994           0
     65686 TIP3     14435    TIP3     H1       HT       0.417000       1.00800           0
     65687 TIP3     14435    TIP3     H2       HT       0.417000       1.00800           0
     65688 TIP3     14436    TIP3     OH2      OT      -0.834000       15.9994           0
     65689 TIP3     14436    TIP3     H1       HT       0.417000       1.00800           0
     65690 TIP3     14436    TIP3     H2       HT       0.417000       1.00800           0
     65691 TIP3     14437    TIP3     OH2      OT      -0.834000       15.9994           0
     65692 TIP3     14437    TIP3     H1       HT       0.417000       1.00800           0
     65693 TIP3     14437    TIP3     H2       HT       0.417000       1.00800           0
     65694 TIP3     14438    TIP3     OH2      OT      -0.834000       15.9994           0
     65695 TIP3     14438    TIP3     H1       HT       0.417000       1.00800           0
     65696 TIP3     14438    TIP3     H2       HT       0.417000       1.00800           0
     65697 TIP3     14439    TIP3     OH2      OT      -0.834000       15.9994           0
     65698 TIP3     14439    TIP3     H1       HT       0.417000       1.00800           0
     65699 TIP3     14439    TIP3     H2       HT       0.417000       1.00800           0
     65700 TIP3     14440    TIP3     OH2      OT      -0.834000       15.9994           0
     65701 TIP3     14440    TIP3     H1       HT       0.417000       1.00800           0
     65702 TIP3     14440    TIP3     H2       HT       0.417000       1.00800           0
     65703 TIP3     14441    TIP3     OH2      OT      -0.834000       15.9994           0
     65704 TIP3     14441    TIP3     H1       HT       0.417000       1.00800           0
     65705 TIP3     14441    TIP3     H2       HT       0.417000       1.00800           0
     65706 TIP3     14442    TIP3     OH2      OT      -0.834000       15.9994           0
     65707 TIP3     14442    TIP3     H1       HT       0.417000       1.00800           0
     65708 TIP3     14442    TIP3     H2       HT       0.417000       1.00800           0
     65709 TIP3     14443    TIP3     OH2      OT      -0.834000       15.9994           0
     65710 TIP3     14443    TIP3     H1       HT       0.417000       1.00800           0
     65711 TIP3     14443    TIP3     H2       HT       0.417000       1.00800           0
     65712 TIP3     14444    TIP3     OH2      OT      -0.834000       15.9994           0
     65713 TIP3     14444    TIP3     H1       HT       0.417000       1.00800           0
     65714 TIP3     14444    TIP3     H2       HT       0.417000       1.00800           0
     65715 TIP3     14445    TIP3     OH2      OT      -0.834000       15.9994           0
     65716 TIP3     14445    TIP3     H1       HT       0.417000       1.00800           0
     65717 TIP3     14445    TIP3     H2       HT       0.417000       1.00800           0
     65718 TIP3     14446    TIP3     OH2      OT      -0.834000       15.9994           0
     65719 TIP3     14446    TIP3     H1       HT       0.417000       1.00800           0
     65720 TIP3     14446    TIP3     H2       HT       0.417000       1.00800           0
     65721 TIP3     14447    TIP3     OH2      OT      -0.834000       15.9994           0
     65722 TIP3     14447    TIP3     H1       HT       0.417000       1.00800           0
     65723 TIP3     14447    TIP3     H2       HT       0.417000       1.00800           0
     65724 TIP3     14448    TIP3     OH2      OT      -0.834000       15.9994           0
     65725 TIP3     14448    TIP3     H1       HT       0.417000       1.00800           0
     65726 TIP3     14448    TIP3     H2       HT       0.417000       1.00800           0
     65727 TIP3     14449    TIP3     OH2      OT      -0.834000       15.9994           0
     65728 TIP3     14449    TIP3     H1       HT       0.417000       1.00800           0
     65729 TIP3     14449    TIP3     H2       HT       0.417000       1.00800           0
     65730 TIP3     14450    TIP3     OH2      OT      -0.834000       15.9994           0
     65731 TIP3     14450    TIP3     H1       HT       0.417000       1.00800           0
     65732 TIP3     14450    TIP3     H2       HT       0.417000       1.00800           0
     65733 TIP3     14451    TIP3     OH2      OT      -0.834000       15.9994           0
     65734 TIP3     14451    TIP3     H1       HT       0.417000       1.00800           0
     65735 TIP3     14451    TIP3     H2       HT       0.417000       1.00800           0
     65736 TIP3     14452    TIP3     OH2      OT      -0.834000       15.9994           0
     65737 TIP3     14452    TIP3     H1       HT       0.417000       1.00800           0
     65738 TIP3     14452    TIP3     H2       HT       0.417000       1.00800           0
     65739 TIP3     14453    TIP3     OH2      OT      -0.834000       15.9994           0
     65740 TIP3     14453    TIP3     H1       HT       0.417000       1.00800           0
     65741 TIP3     14453    TIP3     H2       HT       0.417000       1.00800           0
     65742 TIP3     14454    TIP3     OH2      OT      -0.834000       15.9994           0
     65743 TIP3     14454    TIP3     H1       HT       0.417000       1.00800           0
     65744 TIP3     14454    TIP3     H2       HT       0.417000       1.00800           0
     65745 TIP3     14455    TIP3     OH2      OT      -0.834000       15.9994           0
     65746 TIP3     14455    TIP3     H1       HT       0.417000       1.00800           0
     65747 TIP3     14455    TIP3     H2       HT       0.417000       1.00800           0
     65748 TIP3     14456    TIP3     OH2      OT      -0.834000       15.9994           0
     65749 TIP3     14456    TIP3     H1       HT       0.417000       1.00800           0
     65750 TIP3     14456    TIP3     H2       HT       0.417000       1.00800           0
     65751 TIP3     14457    TIP3     OH2      OT      -0.834000       15.9994           0
     65752 TIP3     14457    TIP3     H1       HT       0.417000       1.00800           0
     65753 TIP3     14457    TIP3     H2       HT       0.417000       1.00800           0
     65754 TIP3     14458    TIP3     OH2      OT      -0.834000       15.9994           0
     65755 TIP3     14458    TIP3     H1       HT       0.417000       1.00800           0
     65756 TIP3     14458    TIP3     H2       HT       0.417000       1.00800           0
     65757 TIP3     14459    TIP3     OH2      OT      -0.834000       15.9994           0
     65758 TIP3     14459    TIP3     H1       HT       0.417000       1.00800           0
     65759 TIP3     14459    TIP3     H2       HT       0.417000       1.00800           0
     65760 TIP3     14460    TIP3     OH2      OT      -0.834000       15.9994           0
     65761 TIP3     14460    TIP3     H1       HT       0.417000       1.00800           0
     65762 TIP3     14460    TIP3     H2       HT       0.417000       1.00800           0
     65763 TIP3     14461    TIP3     OH2      OT      -0.834000       15.9994           0
     65764 TIP3     14461    TIP3     H1       HT       0.417000       1.00800           0
     65765 TIP3     14461    TIP3     H2       HT       0.417000       1.00800           0
     65766 TIP3     14462    TIP3     OH2      OT      -0.834000       15.9994           0
     65767 TIP3     14462    TIP3     H1       HT       0.417000       1.00800           0
     65768 TIP3     14462    TIP3     H2       HT       0.417000       1.00800           0
     65769 TIP3     14463    TIP3     OH2      OT      -0.834000       15.9994           0
     65770 TIP3     14463    TIP3     H1       HT       0.417000       1.00800           0
     65771 TIP3     14463    TIP3     H2       HT       0.417000       1.00800           0
     65772 TIP3     14464    TIP3     OH2      OT      -0.834000       15.9994           0
     65773 TIP3     14464    TIP3     H1       HT       0.417000       1.00800           0
     65774 TIP3     14464    TIP3     H2       HT       0.417000       1.00800           0
     65775 TIP3     14465    TIP3     OH2      OT      -0.834000       15.9994           0
     65776 TIP3     14465    TIP3     H1       HT       0.417000       1.00800           0
     65777 TIP3     14465    TIP3     H2       HT       0.417000       1.00800           0
     65778 TIP3     14466    TIP3     OH2      OT      -0.834000       15.9994           0
     65779 TIP3     14466    TIP3     H1       HT       0.417000       1.00800           0
     65780 TIP3     14466    TIP3     H2       HT       0.417000       1.00800           0
     65781 TIP3     14467    TIP3     OH2      OT      -0.834000       15.9994           0
     65782 TIP3     14467    TIP3     H1       HT       0.417000       1.00800           0
     65783 TIP3     14467    TIP3     H2       HT       0.417000       1.00800           0
     65784 TIP3     14468    TIP3     OH2      OT      -0.834000       15.9994           0
     65785 TIP3     14468    TIP3     H1       HT       0.417000       1.00800           0
     65786 TIP3     14468    TIP3     H2       HT       0.417000       1.00800           0
     65787 TIP3     14469    TIP3     OH2      OT      -0.834000       15.9994           0
     65788 TIP3     14469    TIP3     H1       HT       0.417000       1.00800           0
     65789 TIP3     14469    TIP3     H2       HT       0.417000       1.00800           0
     65790 TIP3     14470    TIP3     OH2      OT      -0.834000       15.9994           0
     65791 TIP3     14470    TIP3     H1       HT       0.417000       1.00800           0
     65792 TIP3     14470    TIP3     H2       HT       0.417000       1.00800           0
     65793 TIP3     14471    TIP3     OH2      OT      -0.834000       15.9994           0
     65794 TIP3     14471    TIP3     H1       HT       0.417000       1.00800           0
     65795 TIP3     14471    TIP3     H2       HT       0.417000       1.00800           0
     65796 TIP3     14472    TIP3     OH2      OT      -0.834000       15.9994           0
     65797 TIP3     14472    TIP3     H1       HT       0.417000       1.00800           0
     65798 TIP3     14472    TIP3     H2       HT       0.417000       1.00800           0
     65799 TIP3     14473    TIP3     OH2      OT      -0.834000       15.9994           0
     65800 TIP3     14473    TIP3     H1       HT       0.417000       1.00800           0
     65801 TIP3     14473    TIP3     H2       HT       0.417000       1.00800           0
     65802 TIP3     14474    TIP3     OH2      OT      -0.834000       15.9994           0
     65803 TIP3     14474    TIP3     H1       HT       0.417000       1.00800           0
     65804 TIP3     14474    TIP3     H2       HT       0.417000       1.00800           0
     65805 TIP3     14475    TIP3     OH2      OT      -0.834000       15.9994           0
     65806 TIP3     14475    TIP3     H1       HT       0.417000       1.00800           0
     65807 TIP3     14475    TIP3     H2       HT       0.417000       1.00800           0
     65808 TIP3     14476    TIP3     OH2      OT      -0.834000       15.9994           0
     65809 TIP3     14476    TIP3     H1       HT       0.417000       1.00800           0
     65810 TIP3     14476    TIP3     H2       HT       0.417000       1.00800           0
     65811 TIP3     14477    TIP3     OH2      OT      -0.834000       15.9994           0
     65812 TIP3     14477    TIP3     H1       HT       0.417000       1.00800           0
     65813 TIP3     14477    TIP3     H2       HT       0.417000       1.00800           0
     65814 TIP3     14478    TIP3     OH2      OT      -0.834000       15.9994           0
     65815 TIP3     14478    TIP3     H1       HT       0.417000       1.00800           0
     65816 TIP3     14478    TIP3     H2       HT       0.417000       1.00800           0
     65817 TIP3     14479    TIP3     OH2      OT      -0.834000       15.9994           0
     65818 TIP3     14479    TIP3     H1       HT       0.417000       1.00800           0
     65819 TIP3     14479    TIP3     H2       HT       0.417000       1.00800           0
     65820 TIP3     14480    TIP3     OH2      OT      -0.834000       15.9994           0
     65821 TIP3     14480    TIP3     H1       HT       0.417000       1.00800           0
     65822 TIP3     14480    TIP3     H2       HT       0.417000       1.00800           0
     65823 TIP3     14481    TIP3     OH2      OT      -0.834000       15.9994           0
     65824 TIP3     14481    TIP3     H1       HT       0.417000       1.00800           0
     65825 TIP3     14481    TIP3     H2       HT       0.417000       1.00800           0
     65826 TIP3     14482    TIP3     OH2      OT      -0.834000       15.9994           0
     65827 TIP3     14482    TIP3     H1       HT       0.417000       1.00800           0
     65828 TIP3     14482    TIP3     H2       HT       0.417000       1.00800           0
     65829 TIP3     14483    TIP3     OH2      OT      -0.834000       15.9994           0
     65830 TIP3     14483    TIP3     H1       HT       0.417000       1.00800           0
     65831 TIP3     14483    TIP3     H2       HT       0.417000       1.00800           0
     65832 TIP3     14484    TIP3     OH2      OT      -0.834000       15.9994           0
     65833 TIP3     14484    TIP3     H1       HT       0.417000       1.00800           0
     65834 TIP3     14484    TIP3     H2       HT       0.417000       1.00800           0
     65835 TIP3     14485    TIP3     OH2      OT      -0.834000       15.9994           0
     65836 TIP3     14485    TIP3     H1       HT       0.417000       1.00800           0
     65837 TIP3     14485    TIP3     H2       HT       0.417000       1.00800           0
     65838 TIP3     14486    TIP3     OH2      OT      -0.834000       15.9994           0
     65839 TIP3     14486    TIP3     H1       HT       0.417000       1.00800           0
     65840 TIP3     14486    TIP3     H2       HT       0.417000       1.00800           0
     65841 TIP3     14487    TIP3     OH2      OT      -0.834000       15.9994           0
     65842 TIP3     14487    TIP3     H1       HT       0.417000       1.00800           0
     65843 TIP3     14487    TIP3     H2       HT       0.417000       1.00800           0
     65844 TIP3     14488    TIP3     OH2      OT      -0.834000       15.9994           0
     65845 TIP3     14488    TIP3     H1       HT       0.417000       1.00800           0
     65846 TIP3     14488    TIP3     H2       HT       0.417000       1.00800           0
     65847 TIP3     14489    TIP3     OH2      OT      -0.834000       15.9994           0
     65848 TIP3     14489    TIP3     H1       HT       0.417000       1.00800           0
     65849 TIP3     14489    TIP3     H2       HT       0.417000       1.00800           0
     65850 TIP3     14490    TIP3     OH2      OT      -0.834000       15.9994           0
     65851 TIP3     14490    TIP3     H1       HT       0.417000       1.00800           0
     65852 TIP3     14490    TIP3     H2       HT       0.417000       1.00800           0
     65853 TIP3     14491    TIP3     OH2      OT      -0.834000       15.9994           0
     65854 TIP3     14491    TIP3     H1       HT       0.417000       1.00800           0
     65855 TIP3     14491    TIP3     H2       HT       0.417000       1.00800           0
     65856 TIP3     14492    TIP3     OH2      OT      -0.834000       15.9994           0
     65857 TIP3     14492    TIP3     H1       HT       0.417000       1.00800           0
     65858 TIP3     14492    TIP3     H2       HT       0.417000       1.00800           0
     65859 TIP3     14493    TIP3     OH2      OT      -0.834000       15.9994           0
     65860 TIP3     14493    TIP3     H1       HT       0.417000       1.00800           0
     65861 TIP3     14493    TIP3     H2       HT       0.417000       1.00800           0
     65862 TIP3     14494    TIP3     OH2      OT      -0.834000       15.9994           0
     65863 TIP3     14494    TIP3     H1       HT       0.417000       1.00800           0
     65864 TIP3     14494    TIP3     H2       HT       0.417000       1.00800           0
     65865 TIP3     14495    TIP3     OH2      OT      -0.834000       15.9994           0
     65866 TIP3     14495    TIP3     H1       HT       0.417000       1.00800           0
     65867 TIP3     14495    TIP3     H2       HT       0.417000       1.00800           0
     65868 TIP3     14496    TIP3     OH2      OT      -0.834000       15.9994           0
     65869 TIP3     14496    TIP3     H1       HT       0.417000       1.00800           0
     65870 TIP3     14496    TIP3     H2       HT       0.417000       1.00800           0
     65871 TIP3     14497    TIP3     OH2      OT      -0.834000       15.9994           0
     65872 TIP3     14497    TIP3     H1       HT       0.417000       1.00800           0
     65873 TIP3     14497    TIP3     H2       HT       0.417000       1.00800           0
     65874 TIP3     14498    TIP3     OH2      OT      -0.834000       15.9994           0
     65875 TIP3     14498    TIP3     H1       HT       0.417000       1.00800           0
     65876 TIP3     14498    TIP3     H2       HT       0.417000       1.00800           0
     65877 TIP3     14499    TIP3     OH2      OT      -0.834000       15.9994           0
     65878 TIP3     14499    TIP3     H1       HT       0.417000       1.00800           0
     65879 TIP3     14499    TIP3     H2       HT       0.417000       1.00800           0
     65880 TIP3     14500    TIP3     OH2      OT      -0.834000       15.9994           0
     65881 TIP3     14500    TIP3     H1       HT       0.417000       1.00800           0
     65882 TIP3     14500    TIP3     H2       HT       0.417000       1.00800           0
     65883 TIP3     14501    TIP3     OH2      OT      -0.834000       15.9994           0
     65884 TIP3     14501    TIP3     H1       HT       0.417000       1.00800           0
     65885 TIP3     14501    TIP3     H2       HT       0.417000       1.00800           0
     65886 TIP3     14502    TIP3     OH2      OT      -0.834000       15.9994           0
     65887 TIP3     14502    TIP3     H1       HT       0.417000       1.00800           0
     65888 TIP3     14502    TIP3     H2       HT       0.417000       1.00800           0
     65889 TIP3     14503    TIP3     OH2      OT      -0.834000       15.9994           0
     65890 TIP3     14503    TIP3     H1       HT       0.417000       1.00800           0
     65891 TIP3     14503    TIP3     H2       HT       0.417000       1.00800           0
     65892 TIP3     14504    TIP3     OH2      OT      -0.834000       15.9994           0
     65893 TIP3     14504    TIP3     H1       HT       0.417000       1.00800           0
     65894 TIP3     14504    TIP3     H2       HT       0.417000       1.00800           0
     65895 TIP3     14505    TIP3     OH2      OT      -0.834000       15.9994           0
     65896 TIP3     14505    TIP3     H1       HT       0.417000       1.00800           0
     65897 TIP3     14505    TIP3     H2       HT       0.417000       1.00800           0
     65898 TIP3     14506    TIP3     OH2      OT      -0.834000       15.9994           0
     65899 TIP3     14506    TIP3     H1       HT       0.417000       1.00800           0
     65900 TIP3     14506    TIP3     H2       HT       0.417000       1.00800           0
     65901 TIP3     14507    TIP3     OH2      OT      -0.834000       15.9994           0
     65902 TIP3     14507    TIP3     H1       HT       0.417000       1.00800           0
     65903 TIP3     14507    TIP3     H2       HT       0.417000       1.00800           0
     65904 TIP3     14508    TIP3     OH2      OT      -0.834000       15.9994           0
     65905 TIP3     14508    TIP3     H1       HT       0.417000       1.00800           0
     65906 TIP3     14508    TIP3     H2       HT       0.417000       1.00800           0
     65907 TIP3     14509    TIP3     OH2      OT      -0.834000       15.9994           0
     65908 TIP3     14509    TIP3     H1       HT       0.417000       1.00800           0
     65909 TIP3     14509    TIP3     H2       HT       0.417000       1.00800           0
     65910 TIP3     14510    TIP3     OH2      OT      -0.834000       15.9994           0
     65911 TIP3     14510    TIP3     H1       HT       0.417000       1.00800           0
     65912 TIP3     14510    TIP3     H2       HT       0.417000       1.00800           0
     65913 TIP3     14511    TIP3     OH2      OT      -0.834000       15.9994           0
     65914 TIP3     14511    TIP3     H1       HT       0.417000       1.00800           0
     65915 TIP3     14511    TIP3     H2       HT       0.417000       1.00800           0
     65916 TIP3     14512    TIP3     OH2      OT      -0.834000       15.9994           0
     65917 TIP3     14512    TIP3     H1       HT       0.417000       1.00800           0
     65918 TIP3     14512    TIP3     H2       HT       0.417000       1.00800           0
     65919 TIP3     14513    TIP3     OH2      OT      -0.834000       15.9994           0
     65920 TIP3     14513    TIP3     H1       HT       0.417000       1.00800           0
     65921 TIP3     14513    TIP3     H2       HT       0.417000       1.00800           0
     65922 TIP3     14514    TIP3     OH2      OT      -0.834000       15.9994           0
     65923 TIP3     14514    TIP3     H1       HT       0.417000       1.00800           0
     65924 TIP3     14514    TIP3     H2       HT       0.417000       1.00800           0
     65925 TIP3     14515    TIP3     OH2      OT      -0.834000       15.9994           0
     65926 TIP3     14515    TIP3     H1       HT       0.417000       1.00800           0
     65927 TIP3     14515    TIP3     H2       HT       0.417000       1.00800           0
     65928 TIP3     14516    TIP3     OH2      OT      -0.834000       15.9994           0
     65929 TIP3     14516    TIP3     H1       HT       0.417000       1.00800           0
     65930 TIP3     14516    TIP3     H2       HT       0.417000       1.00800           0
     65931 TIP3     14517    TIP3     OH2      OT      -0.834000       15.9994           0
     65932 TIP3     14517    TIP3     H1       HT       0.417000       1.00800           0
     65933 TIP3     14517    TIP3     H2       HT       0.417000       1.00800           0
     65934 TIP3     14518    TIP3     OH2      OT      -0.834000       15.9994           0
     65935 TIP3     14518    TIP3     H1       HT       0.417000       1.00800           0
     65936 TIP3     14518    TIP3     H2       HT       0.417000       1.00800           0
     65937 TIP3     14519    TIP3     OH2      OT      -0.834000       15.9994           0
     65938 TIP3     14519    TIP3     H1       HT       0.417000       1.00800           0
     65939 TIP3     14519    TIP3     H2       HT       0.417000       1.00800           0
     65940 TIP3     14520    TIP3     OH2      OT      -0.834000       15.9994           0
     65941 TIP3     14520    TIP3     H1       HT       0.417000       1.00800           0
     65942 TIP3     14520    TIP3     H2       HT       0.417000       1.00800           0
     65943 TIP3     14521    TIP3     OH2      OT      -0.834000       15.9994           0
     65944 TIP3     14521    TIP3     H1       HT       0.417000       1.00800           0
     65945 TIP3     14521    TIP3     H2       HT       0.417000       1.00800           0
     65946 TIP3     14522    TIP3     OH2      OT      -0.834000       15.9994           0
     65947 TIP3     14522    TIP3     H1       HT       0.417000       1.00800           0
     65948 TIP3     14522    TIP3     H2       HT       0.417000       1.00800           0
     65949 TIP3     14523    TIP3     OH2      OT      -0.834000       15.9994           0
     65950 TIP3     14523    TIP3     H1       HT       0.417000       1.00800           0
     65951 TIP3     14523    TIP3     H2       HT       0.417000       1.00800           0
     65952 TIP3     14524    TIP3     OH2      OT      -0.834000       15.9994           0
     65953 TIP3     14524    TIP3     H1       HT       0.417000       1.00800           0
     65954 TIP3     14524    TIP3     H2       HT       0.417000       1.00800           0
     65955 TIP3     14525    TIP3     OH2      OT      -0.834000       15.9994           0
     65956 TIP3     14525    TIP3     H1       HT       0.417000       1.00800           0
     65957 TIP3     14525    TIP3     H2       HT       0.417000       1.00800           0
     65958 TIP3     14526    TIP3     OH2      OT      -0.834000       15.9994           0
     65959 TIP3     14526    TIP3     H1       HT       0.417000       1.00800           0
     65960 TIP3     14526    TIP3     H2       HT       0.417000       1.00800           0
     65961 TIP3     14527    TIP3     OH2      OT      -0.834000       15.9994           0
     65962 TIP3     14527    TIP3     H1       HT       0.417000       1.00800           0
     65963 TIP3     14527    TIP3     H2       HT       0.417000       1.00800           0
     65964 TIP3     14528    TIP3     OH2      OT      -0.834000       15.9994           0
     65965 TIP3     14528    TIP3     H1       HT       0.417000       1.00800           0
     65966 TIP3     14528    TIP3     H2       HT       0.417000       1.00800           0
     65967 TIP3     14529    TIP3     OH2      OT      -0.834000       15.9994           0
     65968 TIP3     14529    TIP3     H1       HT       0.417000       1.00800           0
     65969 TIP3     14529    TIP3     H2       HT       0.417000       1.00800           0
     65970 TIP3     14530    TIP3     OH2      OT      -0.834000       15.9994           0
     65971 TIP3     14530    TIP3     H1       HT       0.417000       1.00800           0
     65972 TIP3     14530    TIP3     H2       HT       0.417000       1.00800           0
     65973 TIP3     14531    TIP3     OH2      OT      -0.834000       15.9994           0
     65974 TIP3     14531    TIP3     H1       HT       0.417000       1.00800           0
     65975 TIP3     14531    TIP3     H2       HT       0.417000       1.00800           0
     65976 TIP3     14532    TIP3     OH2      OT      -0.834000       15.9994           0
     65977 TIP3     14532    TIP3     H1       HT       0.417000       1.00800           0
     65978 TIP3     14532    TIP3     H2       HT       0.417000       1.00800           0
     65979 TIP3     14533    TIP3     OH2      OT      -0.834000       15.9994           0
     65980 TIP3     14533    TIP3     H1       HT       0.417000       1.00800           0
     65981 TIP3     14533    TIP3     H2       HT       0.417000       1.00800           0
     65982 TIP3     14534    TIP3     OH2      OT      -0.834000       15.9994           0
     65983 TIP3     14534    TIP3     H1       HT       0.417000       1.00800           0
     65984 TIP3     14534    TIP3     H2       HT       0.417000       1.00800           0
     65985 TIP3     14535    TIP3     OH2      OT      -0.834000       15.9994           0
     65986 TIP3     14535    TIP3     H1       HT       0.417000       1.00800           0
     65987 TIP3     14535    TIP3     H2       HT       0.417000       1.00800           0
     65988 TIP3     14536    TIP3     OH2      OT      -0.834000       15.9994           0
     65989 TIP3     14536    TIP3     H1       HT       0.417000       1.00800           0
     65990 TIP3     14536    TIP3     H2       HT       0.417000       1.00800           0
     65991 TIP3     14537    TIP3     OH2      OT      -0.834000       15.9994           0
     65992 TIP3     14537    TIP3     H1       HT       0.417000       1.00800           0
     65993 TIP3     14537    TIP3     H2       HT       0.417000       1.00800           0
     65994 TIP3     14538    TIP3     OH2      OT      -0.834000       15.9994           0
     65995 TIP3     14538    TIP3     H1       HT       0.417000       1.00800           0
     65996 TIP3     14538    TIP3     H2       HT       0.417000       1.00800           0
     65997 TIP3     14539    TIP3     OH2      OT      -0.834000       15.9994           0
     65998 TIP3     14539    TIP3     H1       HT       0.417000       1.00800           0
     65999 TIP3     14539    TIP3     H2       HT       0.417000       1.00800           0
     66000 TIP3     14540    TIP3     OH2      OT      -0.834000       15.9994           0
     66001 TIP3     14540    TIP3     H1       HT       0.417000       1.00800           0
     66002 TIP3     14540    TIP3     H2       HT       0.417000       1.00800           0
     66003 TIP3     14541    TIP3     OH2      OT      -0.834000       15.9994           0
     66004 TIP3     14541    TIP3     H1       HT       0.417000       1.00800           0
     66005 TIP3     14541    TIP3     H2       HT       0.417000       1.00800           0
     66006 TIP3     14542    TIP3     OH2      OT      -0.834000       15.9994           0
     66007 TIP3     14542    TIP3     H1       HT       0.417000       1.00800           0
     66008 TIP3     14542    TIP3     H2       HT       0.417000       1.00800           0
     66009 TIP3     14543    TIP3     OH2      OT      -0.834000       15.9994           0
     66010 TIP3     14543    TIP3     H1       HT       0.417000       1.00800           0
     66011 TIP3     14543    TIP3     H2       HT       0.417000       1.00800           0
     66012 TIP3     14544    TIP3     OH2      OT      -0.834000       15.9994           0
     66013 TIP3     14544    TIP3     H1       HT       0.417000       1.00800           0
     66014 TIP3     14544    TIP3     H2       HT       0.417000       1.00800           0
     66015 TIP3     14545    TIP3     OH2      OT      -0.834000       15.9994           0
     66016 TIP3     14545    TIP3     H1       HT       0.417000       1.00800           0
     66017 TIP3     14545    TIP3     H2       HT       0.417000       1.00800           0
     66018 TIP3     14546    TIP3     OH2      OT      -0.834000       15.9994           0
     66019 TIP3     14546    TIP3     H1       HT       0.417000       1.00800           0
     66020 TIP3     14546    TIP3     H2       HT       0.417000       1.00800           0
     66021 TIP3     14547    TIP3     OH2      OT      -0.834000       15.9994           0
     66022 TIP3     14547    TIP3     H1       HT       0.417000       1.00800           0
     66023 TIP3     14547    TIP3     H2       HT       0.417000       1.00800           0
     66024 TIP3     14548    TIP3     OH2      OT      -0.834000       15.9994           0
     66025 TIP3     14548    TIP3     H1       HT       0.417000       1.00800           0
     66026 TIP3     14548    TIP3     H2       HT       0.417000       1.00800           0
     66027 TIP3     14549    TIP3     OH2      OT      -0.834000       15.9994           0
     66028 TIP3     14549    TIP3     H1       HT       0.417000       1.00800           0
     66029 TIP3     14549    TIP3     H2       HT       0.417000       1.00800           0
     66030 TIP3     14550    TIP3     OH2      OT      -0.834000       15.9994           0
     66031 TIP3     14550    TIP3     H1       HT       0.417000       1.00800           0
     66032 TIP3     14550    TIP3     H2       HT       0.417000       1.00800           0
     66033 TIP3     14551    TIP3     OH2      OT      -0.834000       15.9994           0
     66034 TIP3     14551    TIP3     H1       HT       0.417000       1.00800           0
     66035 TIP3     14551    TIP3     H2       HT       0.417000       1.00800           0
     66036 TIP3     14552    TIP3     OH2      OT      -0.834000       15.9994           0
     66037 TIP3     14552    TIP3     H1       HT       0.417000       1.00800           0
     66038 TIP3     14552    TIP3     H2       HT       0.417000       1.00800           0
     66039 TIP3     14553    TIP3     OH2      OT      -0.834000       15.9994           0
     66040 TIP3     14553    TIP3     H1       HT       0.417000       1.00800           0
     66041 TIP3     14553    TIP3     H2       HT       0.417000       1.00800           0
     66042 TIP3     14554    TIP3     OH2      OT      -0.834000       15.9994           0
     66043 TIP3     14554    TIP3     H1       HT       0.417000       1.00800           0
     66044 TIP3     14554    TIP3     H2       HT       0.417000       1.00800           0
     66045 TIP3     14555    TIP3     OH2      OT      -0.834000       15.9994           0
     66046 TIP3     14555    TIP3     H1       HT       0.417000       1.00800           0
     66047 TIP3     14555    TIP3     H2       HT       0.417000       1.00800           0
     66048 TIP3     14556    TIP3     OH2      OT      -0.834000       15.9994           0
     66049 TIP3     14556    TIP3     H1       HT       0.417000       1.00800           0
     66050 TIP3     14556    TIP3     H2       HT       0.417000       1.00800           0
     66051 TIP3     14557    TIP3     OH2      OT      -0.834000       15.9994           0
     66052 TIP3     14557    TIP3     H1       HT       0.417000       1.00800           0
     66053 TIP3     14557    TIP3     H2       HT       0.417000       1.00800           0
     66054 TIP3     14558    TIP3     OH2      OT      -0.834000       15.9994           0
     66055 TIP3     14558    TIP3     H1       HT       0.417000       1.00800           0
     66056 TIP3     14558    TIP3     H2       HT       0.417000       1.00800           0
     66057 TIP3     14559    TIP3     OH2      OT      -0.834000       15.9994           0
     66058 TIP3     14559    TIP3     H1       HT       0.417000       1.00800           0
     66059 TIP3     14559    TIP3     H2       HT       0.417000       1.00800           0
     66060 TIP3     14560    TIP3     OH2      OT      -0.834000       15.9994           0
     66061 TIP3     14560    TIP3     H1       HT       0.417000       1.00800           0
     66062 TIP3     14560    TIP3     H2       HT       0.417000       1.00800           0
     66063 TIP3     14561    TIP3     OH2      OT      -0.834000       15.9994           0
     66064 TIP3     14561    TIP3     H1       HT       0.417000       1.00800           0
     66065 TIP3     14561    TIP3     H2       HT       0.417000       1.00800           0
     66066 TIP3     14562    TIP3     OH2      OT      -0.834000       15.9994           0
     66067 TIP3     14562    TIP3     H1       HT       0.417000       1.00800           0
     66068 TIP3     14562    TIP3     H2       HT       0.417000       1.00800           0
     66069 TIP3     14563    TIP3     OH2      OT      -0.834000       15.9994           0
     66070 TIP3     14563    TIP3     H1       HT       0.417000       1.00800           0
     66071 TIP3     14563    TIP3     H2       HT       0.417000       1.00800           0
     66072 TIP3     14564    TIP3     OH2      OT      -0.834000       15.9994           0
     66073 TIP3     14564    TIP3     H1       HT       0.417000       1.00800           0
     66074 TIP3     14564    TIP3     H2       HT       0.417000       1.00800           0
     66075 TIP3     14565    TIP3     OH2      OT      -0.834000       15.9994           0
     66076 TIP3     14565    TIP3     H1       HT       0.417000       1.00800           0
     66077 TIP3     14565    TIP3     H2       HT       0.417000       1.00800           0
     66078 TIP3     14566    TIP3     OH2      OT      -0.834000       15.9994           0
     66079 TIP3     14566    TIP3     H1       HT       0.417000       1.00800           0
     66080 TIP3     14566    TIP3     H2       HT       0.417000       1.00800           0
     66081 TIP3     14567    TIP3     OH2      OT      -0.834000       15.9994           0
     66082 TIP3     14567    TIP3     H1       HT       0.417000       1.00800           0
     66083 TIP3     14567    TIP3     H2       HT       0.417000       1.00800           0
     66084 TIP3     14568    TIP3     OH2      OT      -0.834000       15.9994           0
     66085 TIP3     14568    TIP3     H1       HT       0.417000       1.00800           0
     66086 TIP3     14568    TIP3     H2       HT       0.417000       1.00800           0
     66087 TIP3     14569    TIP3     OH2      OT      -0.834000       15.9994           0
     66088 TIP3     14569    TIP3     H1       HT       0.417000       1.00800           0
     66089 TIP3     14569    TIP3     H2       HT       0.417000       1.00800           0
     66090 TIP3     14570    TIP3     OH2      OT      -0.834000       15.9994           0
     66091 TIP3     14570    TIP3     H1       HT       0.417000       1.00800           0
     66092 TIP3     14570    TIP3     H2       HT       0.417000       1.00800           0
     66093 TIP3     14571    TIP3     OH2      OT      -0.834000       15.9994           0
     66094 TIP3     14571    TIP3     H1       HT       0.417000       1.00800           0
     66095 TIP3     14571    TIP3     H2       HT       0.417000       1.00800           0
     66096 TIP3     14572    TIP3     OH2      OT      -0.834000       15.9994           0
     66097 TIP3     14572    TIP3     H1       HT       0.417000       1.00800           0
     66098 TIP3     14572    TIP3     H2       HT       0.417000       1.00800           0
     66099 TIP3     14573    TIP3     OH2      OT      -0.834000       15.9994           0
     66100 TIP3     14573    TIP3     H1       HT       0.417000       1.00800           0
     66101 TIP3     14573    TIP3     H2       HT       0.417000       1.00800           0
     66102 TIP3     14574    TIP3     OH2      OT      -0.834000       15.9994           0
     66103 TIP3     14574    TIP3     H1       HT       0.417000       1.00800           0
     66104 TIP3     14574    TIP3     H2       HT       0.417000       1.00800           0
     66105 TIP3     14575    TIP3     OH2      OT      -0.834000       15.9994           0
     66106 TIP3     14575    TIP3     H1       HT       0.417000       1.00800           0
     66107 TIP3     14575    TIP3     H2       HT       0.417000       1.00800           0
     66108 TIP3     14576    TIP3     OH2      OT      -0.834000       15.9994           0
     66109 TIP3     14576    TIP3     H1       HT       0.417000       1.00800           0
     66110 TIP3     14576    TIP3     H2       HT       0.417000       1.00800           0
     66111 TIP3     14577    TIP3     OH2      OT      -0.834000       15.9994           0
     66112 TIP3     14577    TIP3     H1       HT       0.417000       1.00800           0
     66113 TIP3     14577    TIP3     H2       HT       0.417000       1.00800           0
     66114 TIP3     14578    TIP3     OH2      OT      -0.834000       15.9994           0
     66115 TIP3     14578    TIP3     H1       HT       0.417000       1.00800           0
     66116 TIP3     14578    TIP3     H2       HT       0.417000       1.00800           0
     66117 TIP3     14579    TIP3     OH2      OT      -0.834000       15.9994           0
     66118 TIP3     14579    TIP3     H1       HT       0.417000       1.00800           0
     66119 TIP3     14579    TIP3     H2       HT       0.417000       1.00800           0
     66120 TIP3     14580    TIP3     OH2      OT      -0.834000       15.9994           0
     66121 TIP3     14580    TIP3     H1       HT       0.417000       1.00800           0
     66122 TIP3     14580    TIP3     H2       HT       0.417000       1.00800           0
     66123 TIP3     14581    TIP3     OH2      OT      -0.834000       15.9994           0
     66124 TIP3     14581    TIP3     H1       HT       0.417000       1.00800           0
     66125 TIP3     14581    TIP3     H2       HT       0.417000       1.00800           0
     66126 TIP3     14582    TIP3     OH2      OT      -0.834000       15.9994           0
     66127 TIP3     14582    TIP3     H1       HT       0.417000       1.00800           0
     66128 TIP3     14582    TIP3     H2       HT       0.417000       1.00800           0
     66129 TIP3     14583    TIP3     OH2      OT      -0.834000       15.9994           0
     66130 TIP3     14583    TIP3     H1       HT       0.417000       1.00800           0
     66131 TIP3     14583    TIP3     H2       HT       0.417000       1.00800           0
     66132 TIP3     14584    TIP3     OH2      OT      -0.834000       15.9994           0
     66133 TIP3     14584    TIP3     H1       HT       0.417000       1.00800           0
     66134 TIP3     14584    TIP3     H2       HT       0.417000       1.00800           0
     66135 TIP3     14585    TIP3     OH2      OT      -0.834000       15.9994           0
     66136 TIP3     14585    TIP3     H1       HT       0.417000       1.00800           0
     66137 TIP3     14585    TIP3     H2       HT       0.417000       1.00800           0
     66138 TIP3     14586    TIP3     OH2      OT      -0.834000       15.9994           0
     66139 TIP3     14586    TIP3     H1       HT       0.417000       1.00800           0
     66140 TIP3     14586    TIP3     H2       HT       0.417000       1.00800           0
     66141 TIP3     14587    TIP3     OH2      OT      -0.834000       15.9994           0
     66142 TIP3     14587    TIP3     H1       HT       0.417000       1.00800           0
     66143 TIP3     14587    TIP3     H2       HT       0.417000       1.00800           0
     66144 TIP3     14588    TIP3     OH2      OT      -0.834000       15.9994           0
     66145 TIP3     14588    TIP3     H1       HT       0.417000       1.00800           0
     66146 TIP3     14588    TIP3     H2       HT       0.417000       1.00800           0
     66147 TIP3     14589    TIP3     OH2      OT      -0.834000       15.9994           0
     66148 TIP3     14589    TIP3     H1       HT       0.417000       1.00800           0
     66149 TIP3     14589    TIP3     H2       HT       0.417000       1.00800           0
     66150 TIP3     14590    TIP3     OH2      OT      -0.834000       15.9994           0
     66151 TIP3     14590    TIP3     H1       HT       0.417000       1.00800           0
     66152 TIP3     14590    TIP3     H2       HT       0.417000       1.00800           0
     66153 TIP3     14591    TIP3     OH2      OT      -0.834000       15.9994           0
     66154 TIP3     14591    TIP3     H1       HT       0.417000       1.00800           0
     66155 TIP3     14591    TIP3     H2       HT       0.417000       1.00800           0
     66156 TIP3     14592    TIP3     OH2      OT      -0.834000       15.9994           0
     66157 TIP3     14592    TIP3     H1       HT       0.417000       1.00800           0
     66158 TIP3     14592    TIP3     H2       HT       0.417000       1.00800           0
     66159 TIP3     14593    TIP3     OH2      OT      -0.834000       15.9994           0
     66160 TIP3     14593    TIP3     H1       HT       0.417000       1.00800           0
     66161 TIP3     14593    TIP3     H2       HT       0.417000       1.00800           0
     66162 TIP3     14594    TIP3     OH2      OT      -0.834000       15.9994           0
     66163 TIP3     14594    TIP3     H1       HT       0.417000       1.00800           0
     66164 TIP3     14594    TIP3     H2       HT       0.417000       1.00800           0
     66165 TIP3     14595    TIP3     OH2      OT      -0.834000       15.9994           0
     66166 TIP3     14595    TIP3     H1       HT       0.417000       1.00800           0
     66167 TIP3     14595    TIP3     H2       HT       0.417000       1.00800           0
     66168 TIP3     14596    TIP3     OH2      OT      -0.834000       15.9994           0
     66169 TIP3     14596    TIP3     H1       HT       0.417000       1.00800           0
     66170 TIP3     14596    TIP3     H2       HT       0.417000       1.00800           0
     66171 TIP3     14597    TIP3     OH2      OT      -0.834000       15.9994           0
     66172 TIP3     14597    TIP3     H1       HT       0.417000       1.00800           0
     66173 TIP3     14597    TIP3     H2       HT       0.417000       1.00800           0
     66174 TIP3     14598    TIP3     OH2      OT      -0.834000       15.9994           0
     66175 TIP3     14598    TIP3     H1       HT       0.417000       1.00800           0
     66176 TIP3     14598    TIP3     H2       HT       0.417000       1.00800           0
     66177 TIP3     14599    TIP3     OH2      OT      -0.834000       15.9994           0
     66178 TIP3     14599    TIP3     H1       HT       0.417000       1.00800           0
     66179 TIP3     14599    TIP3     H2       HT       0.417000       1.00800           0
     66180 TIP3     14600    TIP3     OH2      OT      -0.834000       15.9994           0
     66181 TIP3     14600    TIP3     H1       HT       0.417000       1.00800           0
     66182 TIP3     14600    TIP3     H2       HT       0.417000       1.00800           0
     66183 TIP3     14601    TIP3     OH2      OT      -0.834000       15.9994           0
     66184 TIP3     14601    TIP3     H1       HT       0.417000       1.00800           0
     66185 TIP3     14601    TIP3     H2       HT       0.417000       1.00800           0
     66186 TIP3     14602    TIP3     OH2      OT      -0.834000       15.9994           0
     66187 TIP3     14602    TIP3     H1       HT       0.417000       1.00800           0
     66188 TIP3     14602    TIP3     H2       HT       0.417000       1.00800           0
     66189 TIP3     14603    TIP3     OH2      OT      -0.834000       15.9994           0
     66190 TIP3     14603    TIP3     H1       HT       0.417000       1.00800           0
     66191 TIP3     14603    TIP3     H2       HT       0.417000       1.00800           0
     66192 TIP3     14604    TIP3     OH2      OT      -0.834000       15.9994           0
     66193 TIP3     14604    TIP3     H1       HT       0.417000       1.00800           0
     66194 TIP3     14604    TIP3     H2       HT       0.417000       1.00800           0
     66195 TIP3     14605    TIP3     OH2      OT      -0.834000       15.9994           0
     66196 TIP3     14605    TIP3     H1       HT       0.417000       1.00800           0
     66197 TIP3     14605    TIP3     H2       HT       0.417000       1.00800           0
     66198 TIP3     14606    TIP3     OH2      OT      -0.834000       15.9994           0
     66199 TIP3     14606    TIP3     H1       HT       0.417000       1.00800           0
     66200 TIP3     14606    TIP3     H2       HT       0.417000       1.00800           0
     66201 TIP3     14607    TIP3     OH2      OT      -0.834000       15.9994           0
     66202 TIP3     14607    TIP3     H1       HT       0.417000       1.00800           0
     66203 TIP3     14607    TIP3     H2       HT       0.417000       1.00800           0
     66204 TIP3     14608    TIP3     OH2      OT      -0.834000       15.9994           0
     66205 TIP3     14608    TIP3     H1       HT       0.417000       1.00800           0
     66206 TIP3     14608    TIP3     H2       HT       0.417000       1.00800           0
     66207 TIP3     14609    TIP3     OH2      OT      -0.834000       15.9994           0
     66208 TIP3     14609    TIP3     H1       HT       0.417000       1.00800           0
     66209 TIP3     14609    TIP3     H2       HT       0.417000       1.00800           0
     66210 TIP3     14610    TIP3     OH2      OT      -0.834000       15.9994           0
     66211 TIP3     14610    TIP3     H1       HT       0.417000       1.00800           0
     66212 TIP3     14610    TIP3     H2       HT       0.417000       1.00800           0
     66213 TIP3     14611    TIP3     OH2      OT      -0.834000       15.9994           0
     66214 TIP3     14611    TIP3     H1       HT       0.417000       1.00800           0
     66215 TIP3     14611    TIP3     H2       HT       0.417000       1.00800           0
     66216 TIP3     14612    TIP3     OH2      OT      -0.834000       15.9994           0
     66217 TIP3     14612    TIP3     H1       HT       0.417000       1.00800           0
     66218 TIP3     14612    TIP3     H2       HT       0.417000       1.00800           0
     66219 TIP3     14613    TIP3     OH2      OT      -0.834000       15.9994           0
     66220 TIP3     14613    TIP3     H1       HT       0.417000       1.00800           0
     66221 TIP3     14613    TIP3     H2       HT       0.417000       1.00800           0
     66222 TIP3     14614    TIP3     OH2      OT      -0.834000       15.9994           0
     66223 TIP3     14614    TIP3     H1       HT       0.417000       1.00800           0
     66224 TIP3     14614    TIP3     H2       HT       0.417000       1.00800           0
     66225 TIP3     14615    TIP3     OH2      OT      -0.834000       15.9994           0
     66226 TIP3     14615    TIP3     H1       HT       0.417000       1.00800           0
     66227 TIP3     14615    TIP3     H2       HT       0.417000       1.00800           0
     66228 TIP3     14616    TIP3     OH2      OT      -0.834000       15.9994           0
     66229 TIP3     14616    TIP3     H1       HT       0.417000       1.00800           0
     66230 TIP3     14616    TIP3     H2       HT       0.417000       1.00800           0
     66231 TIP3     14617    TIP3     OH2      OT      -0.834000       15.9994           0
     66232 TIP3     14617    TIP3     H1       HT       0.417000       1.00800           0
     66233 TIP3     14617    TIP3     H2       HT       0.417000       1.00800           0
     66234 TIP3     14618    TIP3     OH2      OT      -0.834000       15.9994           0
     66235 TIP3     14618    TIP3     H1       HT       0.417000       1.00800           0
     66236 TIP3     14618    TIP3     H2       HT       0.417000       1.00800           0
     66237 TIP3     14619    TIP3     OH2      OT      -0.834000       15.9994           0
     66238 TIP3     14619    TIP3     H1       HT       0.417000       1.00800           0
     66239 TIP3     14619    TIP3     H2       HT       0.417000       1.00800           0
     66240 TIP3     14620    TIP3     OH2      OT      -0.834000       15.9994           0
     66241 TIP3     14620    TIP3     H1       HT       0.417000       1.00800           0
     66242 TIP3     14620    TIP3     H2       HT       0.417000       1.00800           0
     66243 TIP3     14621    TIP3     OH2      OT      -0.834000       15.9994           0
     66244 TIP3     14621    TIP3     H1       HT       0.417000       1.00800           0
     66245 TIP3     14621    TIP3     H2       HT       0.417000       1.00800           0
     66246 TIP3     14622    TIP3     OH2      OT      -0.834000       15.9994           0
     66247 TIP3     14622    TIP3     H1       HT       0.417000       1.00800           0
     66248 TIP3     14622    TIP3     H2       HT       0.417000       1.00800           0
     66249 TIP3     14623    TIP3     OH2      OT      -0.834000       15.9994           0
     66250 TIP3     14623    TIP3     H1       HT       0.417000       1.00800           0
     66251 TIP3     14623    TIP3     H2       HT       0.417000       1.00800           0
     66252 TIP3     14624    TIP3     OH2      OT      -0.834000       15.9994           0
     66253 TIP3     14624    TIP3     H1       HT       0.417000       1.00800           0
     66254 TIP3     14624    TIP3     H2       HT       0.417000       1.00800           0
     66255 TIP3     14625    TIP3     OH2      OT      -0.834000       15.9994           0
     66256 TIP3     14625    TIP3     H1       HT       0.417000       1.00800           0
     66257 TIP3     14625    TIP3     H2       HT       0.417000       1.00800           0
     66258 TIP3     14626    TIP3     OH2      OT      -0.834000       15.9994           0
     66259 TIP3     14626    TIP3     H1       HT       0.417000       1.00800           0
     66260 TIP3     14626    TIP3     H2       HT       0.417000       1.00800           0
     66261 TIP3     14627    TIP3     OH2      OT      -0.834000       15.9994           0
     66262 TIP3     14627    TIP3     H1       HT       0.417000       1.00800           0
     66263 TIP3     14627    TIP3     H2       HT       0.417000       1.00800           0
     66264 TIP3     14628    TIP3     OH2      OT      -0.834000       15.9994           0
     66265 TIP3     14628    TIP3     H1       HT       0.417000       1.00800           0
     66266 TIP3     14628    TIP3     H2       HT       0.417000       1.00800           0
     66267 TIP3     14629    TIP3     OH2      OT      -0.834000       15.9994           0
     66268 TIP3     14629    TIP3     H1       HT       0.417000       1.00800           0
     66269 TIP3     14629    TIP3     H2       HT       0.417000       1.00800           0
     66270 TIP3     14630    TIP3     OH2      OT      -0.834000       15.9994           0
     66271 TIP3     14630    TIP3     H1       HT       0.417000       1.00800           0
     66272 TIP3     14630    TIP3     H2       HT       0.417000       1.00800           0
     66273 TIP3     14631    TIP3     OH2      OT      -0.834000       15.9994           0
     66274 TIP3     14631    TIP3     H1       HT       0.417000       1.00800           0
     66275 TIP3     14631    TIP3     H2       HT       0.417000       1.00800           0
     66276 TIP3     14632    TIP3     OH2      OT      -0.834000       15.9994           0
     66277 TIP3     14632    TIP3     H1       HT       0.417000       1.00800           0
     66278 TIP3     14632    TIP3     H2       HT       0.417000       1.00800           0
     66279 TIP3     14633    TIP3     OH2      OT      -0.834000       15.9994           0
     66280 TIP3     14633    TIP3     H1       HT       0.417000       1.00800           0
     66281 TIP3     14633    TIP3     H2       HT       0.417000       1.00800           0
     66282 TIP3     14634    TIP3     OH2      OT      -0.834000       15.9994           0
     66283 TIP3     14634    TIP3     H1       HT       0.417000       1.00800           0
     66284 TIP3     14634    TIP3     H2       HT       0.417000       1.00800           0
     66285 TIP3     14635    TIP3     OH2      OT      -0.834000       15.9994           0
     66286 TIP3     14635    TIP3     H1       HT       0.417000       1.00800           0
     66287 TIP3     14635    TIP3     H2       HT       0.417000       1.00800           0
     66288 TIP3     14636    TIP3     OH2      OT      -0.834000       15.9994           0
     66289 TIP3     14636    TIP3     H1       HT       0.417000       1.00800           0
     66290 TIP3     14636    TIP3     H2       HT       0.417000       1.00800           0
     66291 TIP3     14637    TIP3     OH2      OT      -0.834000       15.9994           0
     66292 TIP3     14637    TIP3     H1       HT       0.417000       1.00800           0
     66293 TIP3     14637    TIP3     H2       HT       0.417000       1.00800           0
     66294 TIP3     14638    TIP3     OH2      OT      -0.834000       15.9994           0
     66295 TIP3     14638    TIP3     H1       HT       0.417000       1.00800           0
     66296 TIP3     14638    TIP3     H2       HT       0.417000       1.00800           0
     66297 TIP3     14639    TIP3     OH2      OT      -0.834000       15.9994           0
     66298 TIP3     14639    TIP3     H1       HT       0.417000       1.00800           0
     66299 TIP3     14639    TIP3     H2       HT       0.417000       1.00800           0
     66300 TIP3     14640    TIP3     OH2      OT      -0.834000       15.9994           0
     66301 TIP3     14640    TIP3     H1       HT       0.417000       1.00800           0
     66302 TIP3     14640    TIP3     H2       HT       0.417000       1.00800           0
     66303 TIP3     14641    TIP3     OH2      OT      -0.834000       15.9994           0
     66304 TIP3     14641    TIP3     H1       HT       0.417000       1.00800           0
     66305 TIP3     14641    TIP3     H2       HT       0.417000       1.00800           0
     66306 TIP3     14642    TIP3     OH2      OT      -0.834000       15.9994           0
     66307 TIP3     14642    TIP3     H1       HT       0.417000       1.00800           0
     66308 TIP3     14642    TIP3     H2       HT       0.417000       1.00800           0
     66309 TIP3     14643    TIP3     OH2      OT      -0.834000       15.9994           0
     66310 TIP3     14643    TIP3     H1       HT       0.417000       1.00800           0
     66311 TIP3     14643    TIP3     H2       HT       0.417000       1.00800           0
     66312 TIP3     14644    TIP3     OH2      OT      -0.834000       15.9994           0
     66313 TIP3     14644    TIP3     H1       HT       0.417000       1.00800           0
     66314 TIP3     14644    TIP3     H2       HT       0.417000       1.00800           0
     66315 TIP3     14645    TIP3     OH2      OT      -0.834000       15.9994           0
     66316 TIP3     14645    TIP3     H1       HT       0.417000       1.00800           0
     66317 TIP3     14645    TIP3     H2       HT       0.417000       1.00800           0
     66318 TIP3     14646    TIP3     OH2      OT      -0.834000       15.9994           0
     66319 TIP3     14646    TIP3     H1       HT       0.417000       1.00800           0
     66320 TIP3     14646    TIP3     H2       HT       0.417000       1.00800           0
     66321 TIP3     14647    TIP3     OH2      OT      -0.834000       15.9994           0
     66322 TIP3     14647    TIP3     H1       HT       0.417000       1.00800           0
     66323 TIP3     14647    TIP3     H2       HT       0.417000       1.00800           0
     66324 TIP3     14648    TIP3     OH2      OT      -0.834000       15.9994           0
     66325 TIP3     14648    TIP3     H1       HT       0.417000       1.00800           0
     66326 TIP3     14648    TIP3     H2       HT       0.417000       1.00800           0
     66327 TIP3     14649    TIP3     OH2      OT      -0.834000       15.9994           0
     66328 TIP3     14649    TIP3     H1       HT       0.417000       1.00800           0
     66329 TIP3     14649    TIP3     H2       HT       0.417000       1.00800           0
     66330 TIP3     14650    TIP3     OH2      OT      -0.834000       15.9994           0
     66331 TIP3     14650    TIP3     H1       HT       0.417000       1.00800           0
     66332 TIP3     14650    TIP3     H2       HT       0.417000       1.00800           0
     66333 TIP3     14651    TIP3     OH2      OT      -0.834000       15.9994           0
     66334 TIP3     14651    TIP3     H1       HT       0.417000       1.00800           0
     66335 TIP3     14651    TIP3     H2       HT       0.417000       1.00800           0
     66336 TIP3     14652    TIP3     OH2      OT      -0.834000       15.9994           0
     66337 TIP3     14652    TIP3     H1       HT       0.417000       1.00800           0
     66338 TIP3     14652    TIP3     H2       HT       0.417000       1.00800           0
     66339 TIP3     14653    TIP3     OH2      OT      -0.834000       15.9994           0
     66340 TIP3     14653    TIP3     H1       HT       0.417000       1.00800           0
     66341 TIP3     14653    TIP3     H2       HT       0.417000       1.00800           0
     66342 TIP3     14654    TIP3     OH2      OT      -0.834000       15.9994           0
     66343 TIP3     14654    TIP3     H1       HT       0.417000       1.00800           0
     66344 TIP3     14654    TIP3     H2       HT       0.417000       1.00800           0
     66345 TIP3     14655    TIP3     OH2      OT      -0.834000       15.9994           0
     66346 TIP3     14655    TIP3     H1       HT       0.417000       1.00800           0
     66347 TIP3     14655    TIP3     H2       HT       0.417000       1.00800           0
     66348 TIP3     14656    TIP3     OH2      OT      -0.834000       15.9994           0
     66349 TIP3     14656    TIP3     H1       HT       0.417000       1.00800           0
     66350 TIP3     14656    TIP3     H2       HT       0.417000       1.00800           0
     66351 TIP3     14657    TIP3     OH2      OT      -0.834000       15.9994           0
     66352 TIP3     14657    TIP3     H1       HT       0.417000       1.00800           0
     66353 TIP3     14657    TIP3     H2       HT       0.417000       1.00800           0
     66354 TIP3     14658    TIP3     OH2      OT      -0.834000       15.9994           0
     66355 TIP3     14658    TIP3     H1       HT       0.417000       1.00800           0
     66356 TIP3     14658    TIP3     H2       HT       0.417000       1.00800           0
     66357 TIP3     14659    TIP3     OH2      OT      -0.834000       15.9994           0
     66358 TIP3     14659    TIP3     H1       HT       0.417000       1.00800           0
     66359 TIP3     14659    TIP3     H2       HT       0.417000       1.00800           0
     66360 TIP3     14660    TIP3     OH2      OT      -0.834000       15.9994           0
     66361 TIP3     14660    TIP3     H1       HT       0.417000       1.00800           0
     66362 TIP3     14660    TIP3     H2       HT       0.417000       1.00800           0
     66363 TIP3     14661    TIP3     OH2      OT      -0.834000       15.9994           0
     66364 TIP3     14661    TIP3     H1       HT       0.417000       1.00800           0
     66365 TIP3     14661    TIP3     H2       HT       0.417000       1.00800           0
     66366 TIP3     14662    TIP3     OH2      OT      -0.834000       15.9994           0
     66367 TIP3     14662    TIP3     H1       HT       0.417000       1.00800           0
     66368 TIP3     14662    TIP3     H2       HT       0.417000       1.00800           0
     66369 TIP3     14663    TIP3     OH2      OT      -0.834000       15.9994           0
     66370 TIP3     14663    TIP3     H1       HT       0.417000       1.00800           0
     66371 TIP3     14663    TIP3     H2       HT       0.417000       1.00800           0
     66372 TIP3     14664    TIP3     OH2      OT      -0.834000       15.9994           0
     66373 TIP3     14664    TIP3     H1       HT       0.417000       1.00800           0
     66374 TIP3     14664    TIP3     H2       HT       0.417000       1.00800           0
     66375 TIP3     14665    TIP3     OH2      OT      -0.834000       15.9994           0
     66376 TIP3     14665    TIP3     H1       HT       0.417000       1.00800           0
     66377 TIP3     14665    TIP3     H2       HT       0.417000       1.00800           0
     66378 TIP3     14666    TIP3     OH2      OT      -0.834000       15.9994           0
     66379 TIP3     14666    TIP3     H1       HT       0.417000       1.00800           0
     66380 TIP3     14666    TIP3     H2       HT       0.417000       1.00800           0
     66381 TIP3     14667    TIP3     OH2      OT      -0.834000       15.9994           0
     66382 TIP3     14667    TIP3     H1       HT       0.417000       1.00800           0
     66383 TIP3     14667    TIP3     H2       HT       0.417000       1.00800           0
     66384 TIP3     14668    TIP3     OH2      OT      -0.834000       15.9994           0
     66385 TIP3     14668    TIP3     H1       HT       0.417000       1.00800           0
     66386 TIP3     14668    TIP3     H2       HT       0.417000       1.00800           0
     66387 TIP3     14669    TIP3     OH2      OT      -0.834000       15.9994           0
     66388 TIP3     14669    TIP3     H1       HT       0.417000       1.00800           0
     66389 TIP3     14669    TIP3     H2       HT       0.417000       1.00800           0
     66390 TIP3     14670    TIP3     OH2      OT      -0.834000       15.9994           0
     66391 TIP3     14670    TIP3     H1       HT       0.417000       1.00800           0
     66392 TIP3     14670    TIP3     H2       HT       0.417000       1.00800           0
     66393 TIP3     14671    TIP3     OH2      OT      -0.834000       15.9994           0
     66394 TIP3     14671    TIP3     H1       HT       0.417000       1.00800           0
     66395 TIP3     14671    TIP3     H2       HT       0.417000       1.00800           0
     66396 TIP3     14672    TIP3     OH2      OT      -0.834000       15.9994           0
     66397 TIP3     14672    TIP3     H1       HT       0.417000       1.00800           0
     66398 TIP3     14672    TIP3     H2       HT       0.417000       1.00800           0
     66399 TIP3     14673    TIP3     OH2      OT      -0.834000       15.9994           0
     66400 TIP3     14673    TIP3     H1       HT       0.417000       1.00800           0
     66401 TIP3     14673    TIP3     H2       HT       0.417000       1.00800           0
     66402 TIP3     14674    TIP3     OH2      OT      -0.834000       15.9994           0
     66403 TIP3     14674    TIP3     H1       HT       0.417000       1.00800           0
     66404 TIP3     14674    TIP3     H2       HT       0.417000       1.00800           0
     66405 TIP3     14675    TIP3     OH2      OT      -0.834000       15.9994           0
     66406 TIP3     14675    TIP3     H1       HT       0.417000       1.00800           0
     66407 TIP3     14675    TIP3     H2       HT       0.417000       1.00800           0
     66408 TIP3     14676    TIP3     OH2      OT      -0.834000       15.9994           0
     66409 TIP3     14676    TIP3     H1       HT       0.417000       1.00800           0
     66410 TIP3     14676    TIP3     H2       HT       0.417000       1.00800           0
     66411 TIP3     14677    TIP3     OH2      OT      -0.834000       15.9994           0
     66412 TIP3     14677    TIP3     H1       HT       0.417000       1.00800           0
     66413 TIP3     14677    TIP3     H2       HT       0.417000       1.00800           0
     66414 TIP3     14678    TIP3     OH2      OT      -0.834000       15.9994           0
     66415 TIP3     14678    TIP3     H1       HT       0.417000       1.00800           0
     66416 TIP3     14678    TIP3     H2       HT       0.417000       1.00800           0
     66417 TIP3     14679    TIP3     OH2      OT      -0.834000       15.9994           0
     66418 TIP3     14679    TIP3     H1       HT       0.417000       1.00800           0
     66419 TIP3     14679    TIP3     H2       HT       0.417000       1.00800           0
     66420 TIP3     14680    TIP3     OH2      OT      -0.834000       15.9994           0
     66421 TIP3     14680    TIP3     H1       HT       0.417000       1.00800           0
     66422 TIP3     14680    TIP3     H2       HT       0.417000       1.00800           0
     66423 TIP3     14681    TIP3     OH2      OT      -0.834000       15.9994           0
     66424 TIP3     14681    TIP3     H1       HT       0.417000       1.00800           0
     66425 TIP3     14681    TIP3     H2       HT       0.417000       1.00800           0
     66426 TIP3     14682    TIP3     OH2      OT      -0.834000       15.9994           0
     66427 TIP3     14682    TIP3     H1       HT       0.417000       1.00800           0
     66428 TIP3     14682    TIP3     H2       HT       0.417000       1.00800           0
     66429 TIP3     14683    TIP3     OH2      OT      -0.834000       15.9994           0
     66430 TIP3     14683    TIP3     H1       HT       0.417000       1.00800           0
     66431 TIP3     14683    TIP3     H2       HT       0.417000       1.00800           0
     66432 TIP3     14684    TIP3     OH2      OT      -0.834000       15.9994           0
     66433 TIP3     14684    TIP3     H1       HT       0.417000       1.00800           0
     66434 TIP3     14684    TIP3     H2       HT       0.417000       1.00800           0
     66435 TIP3     14685    TIP3     OH2      OT      -0.834000       15.9994           0
     66436 TIP3     14685    TIP3     H1       HT       0.417000       1.00800           0
     66437 TIP3     14685    TIP3     H2       HT       0.417000       1.00800           0
     66438 TIP3     14686    TIP3     OH2      OT      -0.834000       15.9994           0
     66439 TIP3     14686    TIP3     H1       HT       0.417000       1.00800           0
     66440 TIP3     14686    TIP3     H2       HT       0.417000       1.00800           0
     66441 TIP3     14687    TIP3     OH2      OT      -0.834000       15.9994           0
     66442 TIP3     14687    TIP3     H1       HT       0.417000       1.00800           0
     66443 TIP3     14687    TIP3     H2       HT       0.417000       1.00800           0
     66444 TIP3     14688    TIP3     OH2      OT      -0.834000       15.9994           0
     66445 TIP3     14688    TIP3     H1       HT       0.417000       1.00800           0
     66446 TIP3     14688    TIP3     H2       HT       0.417000       1.00800           0
     66447 TIP3     14689    TIP3     OH2      OT      -0.834000       15.9994           0
     66448 TIP3     14689    TIP3     H1       HT       0.417000       1.00800           0
     66449 TIP3     14689    TIP3     H2       HT       0.417000       1.00800           0
     66450 TIP3     14690    TIP3     OH2      OT      -0.834000       15.9994           0
     66451 TIP3     14690    TIP3     H1       HT       0.417000       1.00800           0
     66452 TIP3     14690    TIP3     H2       HT       0.417000       1.00800           0
     66453 TIP3     14691    TIP3     OH2      OT      -0.834000       15.9994           0
     66454 TIP3     14691    TIP3     H1       HT       0.417000       1.00800           0
     66455 TIP3     14691    TIP3     H2       HT       0.417000       1.00800           0
     66456 TIP3     14692    TIP3     OH2      OT      -0.834000       15.9994           0
     66457 TIP3     14692    TIP3     H1       HT       0.417000       1.00800           0
     66458 TIP3     14692    TIP3     H2       HT       0.417000       1.00800           0
     66459 TIP3     14693    TIP3     OH2      OT      -0.834000       15.9994           0
     66460 TIP3     14693    TIP3     H1       HT       0.417000       1.00800           0
     66461 TIP3     14693    TIP3     H2       HT       0.417000       1.00800           0
     66462 TIP3     14694    TIP3     OH2      OT      -0.834000       15.9994           0
     66463 TIP3     14694    TIP3     H1       HT       0.417000       1.00800           0
     66464 TIP3     14694    TIP3     H2       HT       0.417000       1.00800           0
     66465 TIP3     14695    TIP3     OH2      OT      -0.834000       15.9994           0
     66466 TIP3     14695    TIP3     H1       HT       0.417000       1.00800           0
     66467 TIP3     14695    TIP3     H2       HT       0.417000       1.00800           0
     66468 TIP3     14696    TIP3     OH2      OT      -0.834000       15.9994           0
     66469 TIP3     14696    TIP3     H1       HT       0.417000       1.00800           0
     66470 TIP3     14696    TIP3     H2       HT       0.417000       1.00800           0
     66471 TIP3     14697    TIP3     OH2      OT      -0.834000       15.9994           0
     66472 TIP3     14697    TIP3     H1       HT       0.417000       1.00800           0
     66473 TIP3     14697    TIP3     H2       HT       0.417000       1.00800           0
     66474 TIP3     14698    TIP3     OH2      OT      -0.834000       15.9994           0
     66475 TIP3     14698    TIP3     H1       HT       0.417000       1.00800           0
     66476 TIP3     14698    TIP3     H2       HT       0.417000       1.00800           0
     66477 TIP3     14699    TIP3     OH2      OT      -0.834000       15.9994           0
     66478 TIP3     14699    TIP3     H1       HT       0.417000       1.00800           0
     66479 TIP3     14699    TIP3     H2       HT       0.417000       1.00800           0
     66480 TIP3     14700    TIP3     OH2      OT      -0.834000       15.9994           0
     66481 TIP3     14700    TIP3     H1       HT       0.417000       1.00800           0
     66482 TIP3     14700    TIP3     H2       HT       0.417000       1.00800           0
     66483 TIP3     14701    TIP3     OH2      OT      -0.834000       15.9994           0
     66484 TIP3     14701    TIP3     H1       HT       0.417000       1.00800           0
     66485 TIP3     14701    TIP3     H2       HT       0.417000       1.00800           0
     66486 TIP3     14702    TIP3     OH2      OT      -0.834000       15.9994           0
     66487 TIP3     14702    TIP3     H1       HT       0.417000       1.00800           0
     66488 TIP3     14702    TIP3     H2       HT       0.417000       1.00800           0
     66489 TIP3     14703    TIP3     OH2      OT      -0.834000       15.9994           0
     66490 TIP3     14703    TIP3     H1       HT       0.417000       1.00800           0
     66491 TIP3     14703    TIP3     H2       HT       0.417000       1.00800           0
     66492 TIP3     14704    TIP3     OH2      OT      -0.834000       15.9994           0
     66493 TIP3     14704    TIP3     H1       HT       0.417000       1.00800           0
     66494 TIP3     14704    TIP3     H2       HT       0.417000       1.00800           0
     66495 TIP3     14705    TIP3     OH2      OT      -0.834000       15.9994           0
     66496 TIP3     14705    TIP3     H1       HT       0.417000       1.00800           0
     66497 TIP3     14705    TIP3     H2       HT       0.417000       1.00800           0
     66498 TIP3     14706    TIP3     OH2      OT      -0.834000       15.9994           0
     66499 TIP3     14706    TIP3     H1       HT       0.417000       1.00800           0
     66500 TIP3     14706    TIP3     H2       HT       0.417000       1.00800           0
     66501 TIP3     14707    TIP3     OH2      OT      -0.834000       15.9994           0
     66502 TIP3     14707    TIP3     H1       HT       0.417000       1.00800           0
     66503 TIP3     14707    TIP3     H2       HT       0.417000       1.00800           0
     66504 TIP3     14708    TIP3     OH2      OT      -0.834000       15.9994           0
     66505 TIP3     14708    TIP3     H1       HT       0.417000       1.00800           0
     66506 TIP3     14708    TIP3     H2       HT       0.417000       1.00800           0
     66507 TIP3     14709    TIP3     OH2      OT      -0.834000       15.9994           0
     66508 TIP3     14709    TIP3     H1       HT       0.417000       1.00800           0
     66509 TIP3     14709    TIP3     H2       HT       0.417000       1.00800           0
     66510 TIP3     14710    TIP3     OH2      OT      -0.834000       15.9994           0
     66511 TIP3     14710    TIP3     H1       HT       0.417000       1.00800           0
     66512 TIP3     14710    TIP3     H2       HT       0.417000       1.00800           0
     66513 TIP3     14711    TIP3     OH2      OT      -0.834000       15.9994           0
     66514 TIP3     14711    TIP3     H1       HT       0.417000       1.00800           0
     66515 TIP3     14711    TIP3     H2       HT       0.417000       1.00800           0
     66516 TIP3     14712    TIP3     OH2      OT      -0.834000       15.9994           0
     66517 TIP3     14712    TIP3     H1       HT       0.417000       1.00800           0
     66518 TIP3     14712    TIP3     H2       HT       0.417000       1.00800           0
     66519 TIP3     14713    TIP3     OH2      OT      -0.834000       15.9994           0
     66520 TIP3     14713    TIP3     H1       HT       0.417000       1.00800           0
     66521 TIP3     14713    TIP3     H2       HT       0.417000       1.00800           0
     66522 TIP3     14714    TIP3     OH2      OT      -0.834000       15.9994           0
     66523 TIP3     14714    TIP3     H1       HT       0.417000       1.00800           0
     66524 TIP3     14714    TIP3     H2       HT       0.417000       1.00800           0
     66525 TIP3     14715    TIP3     OH2      OT      -0.834000       15.9994           0
     66526 TIP3     14715    TIP3     H1       HT       0.417000       1.00800           0
     66527 TIP3     14715    TIP3     H2       HT       0.417000       1.00800           0
     66528 TIP3     14716    TIP3     OH2      OT      -0.834000       15.9994           0
     66529 TIP3     14716    TIP3     H1       HT       0.417000       1.00800           0
     66530 TIP3     14716    TIP3     H2       HT       0.417000       1.00800           0
     66531 TIP3     14717    TIP3     OH2      OT      -0.834000       15.9994           0
     66532 TIP3     14717    TIP3     H1       HT       0.417000       1.00800           0
     66533 TIP3     14717    TIP3     H2       HT       0.417000       1.00800           0
     66534 TIP3     14718    TIP3     OH2      OT      -0.834000       15.9994           0
     66535 TIP3     14718    TIP3     H1       HT       0.417000       1.00800           0
     66536 TIP3     14718    TIP3     H2       HT       0.417000       1.00800           0
     66537 TIP3     14719    TIP3     OH2      OT      -0.834000       15.9994           0
     66538 TIP3     14719    TIP3     H1       HT       0.417000       1.00800           0
     66539 TIP3     14719    TIP3     H2       HT       0.417000       1.00800           0
     66540 TIP3     14720    TIP3     OH2      OT      -0.834000       15.9994           0
     66541 TIP3     14720    TIP3     H1       HT       0.417000       1.00800           0
     66542 TIP3     14720    TIP3     H2       HT       0.417000       1.00800           0
     66543 TIP3     14721    TIP3     OH2      OT      -0.834000       15.9994           0
     66544 TIP3     14721    TIP3     H1       HT       0.417000       1.00800           0
     66545 TIP3     14721    TIP3     H2       HT       0.417000       1.00800           0
     66546 TIP3     14722    TIP3     OH2      OT      -0.834000       15.9994           0
     66547 TIP3     14722    TIP3     H1       HT       0.417000       1.00800           0
     66548 TIP3     14722    TIP3     H2       HT       0.417000       1.00800           0
     66549 TIP3     14723    TIP3     OH2      OT      -0.834000       15.9994           0
     66550 TIP3     14723    TIP3     H1       HT       0.417000       1.00800           0
     66551 TIP3     14723    TIP3     H2       HT       0.417000       1.00800           0
     66552 TIP3     14724    TIP3     OH2      OT      -0.834000       15.9994           0
     66553 TIP3     14724    TIP3     H1       HT       0.417000       1.00800           0
     66554 TIP3     14724    TIP3     H2       HT       0.417000       1.00800           0
     66555 TIP3     14725    TIP3     OH2      OT      -0.834000       15.9994           0
     66556 TIP3     14725    TIP3     H1       HT       0.417000       1.00800           0
     66557 TIP3     14725    TIP3     H2       HT       0.417000       1.00800           0
     66558 TIP3     14726    TIP3     OH2      OT      -0.834000       15.9994           0
     66559 TIP3     14726    TIP3     H1       HT       0.417000       1.00800           0
     66560 TIP3     14726    TIP3     H2       HT       0.417000       1.00800           0
     66561 TIP3     14727    TIP3     OH2      OT      -0.834000       15.9994           0
     66562 TIP3     14727    TIP3     H1       HT       0.417000       1.00800           0
     66563 TIP3     14727    TIP3     H2       HT       0.417000       1.00800           0
     66564 TIP3     14728    TIP3     OH2      OT      -0.834000       15.9994           0
     66565 TIP3     14728    TIP3     H1       HT       0.417000       1.00800           0
     66566 TIP3     14728    TIP3     H2       HT       0.417000       1.00800           0
     66567 TIP3     14729    TIP3     OH2      OT      -0.834000       15.9994           0
     66568 TIP3     14729    TIP3     H1       HT       0.417000       1.00800           0
     66569 TIP3     14729    TIP3     H2       HT       0.417000       1.00800           0
     66570 TIP3     14730    TIP3     OH2      OT      -0.834000       15.9994           0
     66571 TIP3     14730    TIP3     H1       HT       0.417000       1.00800           0
     66572 TIP3     14730    TIP3     H2       HT       0.417000       1.00800           0
     66573 TIP3     14731    TIP3     OH2      OT      -0.834000       15.9994           0
     66574 TIP3     14731    TIP3     H1       HT       0.417000       1.00800           0
     66575 TIP3     14731    TIP3     H2       HT       0.417000       1.00800           0
     66576 TIP3     14732    TIP3     OH2      OT      -0.834000       15.9994           0
     66577 TIP3     14732    TIP3     H1       HT       0.417000       1.00800           0
     66578 TIP3     14732    TIP3     H2       HT       0.417000       1.00800           0
     66579 TIP3     14733    TIP3     OH2      OT      -0.834000       15.9994           0
     66580 TIP3     14733    TIP3     H1       HT       0.417000       1.00800           0
     66581 TIP3     14733    TIP3     H2       HT       0.417000       1.00800           0
     66582 TIP3     14734    TIP3     OH2      OT      -0.834000       15.9994           0
     66583 TIP3     14734    TIP3     H1       HT       0.417000       1.00800           0
     66584 TIP3     14734    TIP3     H2       HT       0.417000       1.00800           0
     66585 TIP3     14735    TIP3     OH2      OT      -0.834000       15.9994           0
     66586 TIP3     14735    TIP3     H1       HT       0.417000       1.00800           0
     66587 TIP3     14735    TIP3     H2       HT       0.417000       1.00800           0
     66588 TIP3     14736    TIP3     OH2      OT      -0.834000       15.9994           0
     66589 TIP3     14736    TIP3     H1       HT       0.417000       1.00800           0
     66590 TIP3     14736    TIP3     H2       HT       0.417000       1.00800           0
     66591 TIP3     14737    TIP3     OH2      OT      -0.834000       15.9994           0
     66592 TIP3     14737    TIP3     H1       HT       0.417000       1.00800           0
     66593 TIP3     14737    TIP3     H2       HT       0.417000       1.00800           0
     66594 TIP3     14738    TIP3     OH2      OT      -0.834000       15.9994           0
     66595 TIP3     14738    TIP3     H1       HT       0.417000       1.00800           0
     66596 TIP3     14738    TIP3     H2       HT       0.417000       1.00800           0
     66597 TIP3     14739    TIP3     OH2      OT      -0.834000       15.9994           0
     66598 TIP3     14739    TIP3     H1       HT       0.417000       1.00800           0
     66599 TIP3     14739    TIP3     H2       HT       0.417000       1.00800           0
     66600 TIP3     14740    TIP3     OH2      OT      -0.834000       15.9994           0
     66601 TIP3     14740    TIP3     H1       HT       0.417000       1.00800           0
     66602 TIP3     14740    TIP3     H2       HT       0.417000       1.00800           0
     66603 TIP3     14741    TIP3     OH2      OT      -0.834000       15.9994           0
     66604 TIP3     14741    TIP3     H1       HT       0.417000       1.00800           0
     66605 TIP3     14741    TIP3     H2       HT       0.417000       1.00800           0
     66606 TIP3     14742    TIP3     OH2      OT      -0.834000       15.9994           0
     66607 TIP3     14742    TIP3     H1       HT       0.417000       1.00800           0
     66608 TIP3     14742    TIP3     H2       HT       0.417000       1.00800           0
     66609 TIP3     14743    TIP3     OH2      OT      -0.834000       15.9994           0
     66610 TIP3     14743    TIP3     H1       HT       0.417000       1.00800           0
     66611 TIP3     14743    TIP3     H2       HT       0.417000       1.00800           0
     66612 TIP3     14744    TIP3     OH2      OT      -0.834000       15.9994           0
     66613 TIP3     14744    TIP3     H1       HT       0.417000       1.00800           0
     66614 TIP3     14744    TIP3     H2       HT       0.417000       1.00800           0
     66615 TIP3     14745    TIP3     OH2      OT      -0.834000       15.9994           0
     66616 TIP3     14745    TIP3     H1       HT       0.417000       1.00800           0
     66617 TIP3     14745    TIP3     H2       HT       0.417000       1.00800           0
     66618 TIP3     14746    TIP3     OH2      OT      -0.834000       15.9994           0
     66619 TIP3     14746    TIP3     H1       HT       0.417000       1.00800           0
     66620 TIP3     14746    TIP3     H2       HT       0.417000       1.00800           0
     66621 TIP3     14747    TIP3     OH2      OT      -0.834000       15.9994           0
     66622 TIP3     14747    TIP3     H1       HT       0.417000       1.00800           0
     66623 TIP3     14747    TIP3     H2       HT       0.417000       1.00800           0
     66624 TIP3     14748    TIP3     OH2      OT      -0.834000       15.9994           0
     66625 TIP3     14748    TIP3     H1       HT       0.417000       1.00800           0
     66626 TIP3     14748    TIP3     H2       HT       0.417000       1.00800           0
     66627 TIP3     14749    TIP3     OH2      OT      -0.834000       15.9994           0
     66628 TIP3     14749    TIP3     H1       HT       0.417000       1.00800           0
     66629 TIP3     14749    TIP3     H2       HT       0.417000       1.00800           0
     66630 TIP3     14750    TIP3     OH2      OT      -0.834000       15.9994           0
     66631 TIP3     14750    TIP3     H1       HT       0.417000       1.00800           0
     66632 TIP3     14750    TIP3     H2       HT       0.417000       1.00800           0
     66633 TIP3     14751    TIP3     OH2      OT      -0.834000       15.9994           0
     66634 TIP3     14751    TIP3     H1       HT       0.417000       1.00800           0
     66635 TIP3     14751    TIP3     H2       HT       0.417000       1.00800           0
     66636 TIP3     14752    TIP3     OH2      OT      -0.834000       15.9994           0
     66637 TIP3     14752    TIP3     H1       HT       0.417000       1.00800           0
     66638 TIP3     14752    TIP3     H2       HT       0.417000       1.00800           0
     66639 TIP3     14753    TIP3     OH2      OT      -0.834000       15.9994           0
     66640 TIP3     14753    TIP3     H1       HT       0.417000       1.00800           0
     66641 TIP3     14753    TIP3     H2       HT       0.417000       1.00800           0
     66642 TIP3     14754    TIP3     OH2      OT      -0.834000       15.9994           0
     66643 TIP3     14754    TIP3     H1       HT       0.417000       1.00800           0
     66644 TIP3     14754    TIP3     H2       HT       0.417000       1.00800           0
     66645 TIP3     14755    TIP3     OH2      OT      -0.834000       15.9994           0
     66646 TIP3     14755    TIP3     H1       HT       0.417000       1.00800           0
     66647 TIP3     14755    TIP3     H2       HT       0.417000       1.00800           0
     66648 TIP3     14756    TIP3     OH2      OT      -0.834000       15.9994           0
     66649 TIP3     14756    TIP3     H1       HT       0.417000       1.00800           0
     66650 TIP3     14756    TIP3     H2       HT       0.417000       1.00800           0
     66651 TIP3     14757    TIP3     OH2      OT      -0.834000       15.9994           0
     66652 TIP3     14757    TIP3     H1       HT       0.417000       1.00800           0
     66653 TIP3     14757    TIP3     H2       HT       0.417000       1.00800           0
     66654 TIP3     14758    TIP3     OH2      OT      -0.834000       15.9994           0
     66655 TIP3     14758    TIP3     H1       HT       0.417000       1.00800           0
     66656 TIP3     14758    TIP3     H2       HT       0.417000       1.00800           0
     66657 TIP3     14759    TIP3     OH2      OT      -0.834000       15.9994           0
     66658 TIP3     14759    TIP3     H1       HT       0.417000       1.00800           0
     66659 TIP3     14759    TIP3     H2       HT       0.417000       1.00800           0
     66660 TIP3     14760    TIP3     OH2      OT      -0.834000       15.9994           0
     66661 TIP3     14760    TIP3     H1       HT       0.417000       1.00800           0
     66662 TIP3     14760    TIP3     H2       HT       0.417000       1.00800           0
     66663 TIP3     14761    TIP3     OH2      OT      -0.834000       15.9994           0
     66664 TIP3     14761    TIP3     H1       HT       0.417000       1.00800           0
     66665 TIP3     14761    TIP3     H2       HT       0.417000       1.00800           0
     66666 TIP3     14762    TIP3     OH2      OT      -0.834000       15.9994           0
     66667 TIP3     14762    TIP3     H1       HT       0.417000       1.00800           0
     66668 TIP3     14762    TIP3     H2       HT       0.417000       1.00800           0
     66669 TIP3     14763    TIP3     OH2      OT      -0.834000       15.9994           0
     66670 TIP3     14763    TIP3     H1       HT       0.417000       1.00800           0
     66671 TIP3     14763    TIP3     H2       HT       0.417000       1.00800           0
     66672 TIP3     14764    TIP3     OH2      OT      -0.834000       15.9994           0
     66673 TIP3     14764    TIP3     H1       HT       0.417000       1.00800           0
     66674 TIP3     14764    TIP3     H2       HT       0.417000       1.00800           0
     66675 TIP3     14765    TIP3     OH2      OT      -0.834000       15.9994           0
     66676 TIP3     14765    TIP3     H1       HT       0.417000       1.00800           0
     66677 TIP3     14765    TIP3     H2       HT       0.417000       1.00800           0
     66678 TIP3     14766    TIP3     OH2      OT      -0.834000       15.9994           0
     66679 TIP3     14766    TIP3     H1       HT       0.417000       1.00800           0
     66680 TIP3     14766    TIP3     H2       HT       0.417000       1.00800           0
     66681 TIP3     14767    TIP3     OH2      OT      -0.834000       15.9994           0
     66682 TIP3     14767    TIP3     H1       HT       0.417000       1.00800           0
     66683 TIP3     14767    TIP3     H2       HT       0.417000       1.00800           0
     66684 TIP3     14768    TIP3     OH2      OT      -0.834000       15.9994           0
     66685 TIP3     14768    TIP3     H1       HT       0.417000       1.00800           0
     66686 TIP3     14768    TIP3     H2       HT       0.417000       1.00800           0
     66687 TIP3     14769    TIP3     OH2      OT      -0.834000       15.9994           0
     66688 TIP3     14769    TIP3     H1       HT       0.417000       1.00800           0
     66689 TIP3     14769    TIP3     H2       HT       0.417000       1.00800           0
     66690 TIP3     14770    TIP3     OH2      OT      -0.834000       15.9994           0
     66691 TIP3     14770    TIP3     H1       HT       0.417000       1.00800           0
     66692 TIP3     14770    TIP3     H2       HT       0.417000       1.00800           0
     66693 TIP3     14771    TIP3     OH2      OT      -0.834000       15.9994           0
     66694 TIP3     14771    TIP3     H1       HT       0.417000       1.00800           0
     66695 TIP3     14771    TIP3     H2       HT       0.417000       1.00800           0
     66696 TIP3     14772    TIP3     OH2      OT      -0.834000       15.9994           0
     66697 TIP3     14772    TIP3     H1       HT       0.417000       1.00800           0
     66698 TIP3     14772    TIP3     H2       HT       0.417000       1.00800           0
     66699 TIP3     14773    TIP3     OH2      OT      -0.834000       15.9994           0
     66700 TIP3     14773    TIP3     H1       HT       0.417000       1.00800           0
     66701 TIP3     14773    TIP3     H2       HT       0.417000       1.00800           0
     66702 TIP3     14774    TIP3     OH2      OT      -0.834000       15.9994           0
     66703 TIP3     14774    TIP3     H1       HT       0.417000       1.00800           0
     66704 TIP3     14774    TIP3     H2       HT       0.417000       1.00800           0
     66705 TIP3     14775    TIP3     OH2      OT      -0.834000       15.9994           0
     66706 TIP3     14775    TIP3     H1       HT       0.417000       1.00800           0
     66707 TIP3     14775    TIP3     H2       HT       0.417000       1.00800           0
     66708 TIP3     14776    TIP3     OH2      OT      -0.834000       15.9994           0
     66709 TIP3     14776    TIP3     H1       HT       0.417000       1.00800           0
     66710 TIP3     14776    TIP3     H2       HT       0.417000       1.00800           0
     66711 TIP3     14777    TIP3     OH2      OT      -0.834000       15.9994           0
     66712 TIP3     14777    TIP3     H1       HT       0.417000       1.00800           0
     66713 TIP3     14777    TIP3     H2       HT       0.417000       1.00800           0
     66714 TIP3     14778    TIP3     OH2      OT      -0.834000       15.9994           0
     66715 TIP3     14778    TIP3     H1       HT       0.417000       1.00800           0
     66716 TIP3     14778    TIP3     H2       HT       0.417000       1.00800           0
     66717 TIP3     14779    TIP3     OH2      OT      -0.834000       15.9994           0
     66718 TIP3     14779    TIP3     H1       HT       0.417000       1.00800           0
     66719 TIP3     14779    TIP3     H2       HT       0.417000       1.00800           0
     66720 TIP3     14780    TIP3     OH2      OT      -0.834000       15.9994           0
     66721 TIP3     14780    TIP3     H1       HT       0.417000       1.00800           0
     66722 TIP3     14780    TIP3     H2       HT       0.417000       1.00800           0
     66723 TIP3     14781    TIP3     OH2      OT      -0.834000       15.9994           0
     66724 TIP3     14781    TIP3     H1       HT       0.417000       1.00800           0
     66725 TIP3     14781    TIP3     H2       HT       0.417000       1.00800           0
     66726 TIP3     14782    TIP3     OH2      OT      -0.834000       15.9994           0
     66727 TIP3     14782    TIP3     H1       HT       0.417000       1.00800           0
     66728 TIP3     14782    TIP3     H2       HT       0.417000       1.00800           0
     66729 TIP3     14783    TIP3     OH2      OT      -0.834000       15.9994           0
     66730 TIP3     14783    TIP3     H1       HT       0.417000       1.00800           0
     66731 TIP3     14783    TIP3     H2       HT       0.417000       1.00800           0
     66732 TIP3     14784    TIP3     OH2      OT      -0.834000       15.9994           0
     66733 TIP3     14784    TIP3     H1       HT       0.417000       1.00800           0
     66734 TIP3     14784    TIP3     H2       HT       0.417000       1.00800           0
     66735 TIP3     14785    TIP3     OH2      OT      -0.834000       15.9994           0
     66736 TIP3     14785    TIP3     H1       HT       0.417000       1.00800           0
     66737 TIP3     14785    TIP3     H2       HT       0.417000       1.00800           0
     66738 TIP3     14786    TIP3     OH2      OT      -0.834000       15.9994           0
     66739 TIP3     14786    TIP3     H1       HT       0.417000       1.00800           0
     66740 TIP3     14786    TIP3     H2       HT       0.417000       1.00800           0
     66741 TIP3     14787    TIP3     OH2      OT      -0.834000       15.9994           0
     66742 TIP3     14787    TIP3     H1       HT       0.417000       1.00800           0
     66743 TIP3     14787    TIP3     H2       HT       0.417000       1.00800           0
     66744 TIP3     14788    TIP3     OH2      OT      -0.834000       15.9994           0
     66745 TIP3     14788    TIP3     H1       HT       0.417000       1.00800           0
     66746 TIP3     14788    TIP3     H2       HT       0.417000       1.00800           0
     66747 TIP3     14789    TIP3     OH2      OT      -0.834000       15.9994           0
     66748 TIP3     14789    TIP3     H1       HT       0.417000       1.00800           0
     66749 TIP3     14789    TIP3     H2       HT       0.417000       1.00800           0
     66750 TIP3     14790    TIP3     OH2      OT      -0.834000       15.9994           0
     66751 TIP3     14790    TIP3     H1       HT       0.417000       1.00800           0
     66752 TIP3     14790    TIP3     H2       HT       0.417000       1.00800           0
     66753 TIP3     14791    TIP3     OH2      OT      -0.834000       15.9994           0
     66754 TIP3     14791    TIP3     H1       HT       0.417000       1.00800           0
     66755 TIP3     14791    TIP3     H2       HT       0.417000       1.00800           0
     66756 TIP3     14792    TIP3     OH2      OT      -0.834000       15.9994           0
     66757 TIP3     14792    TIP3     H1       HT       0.417000       1.00800           0
     66758 TIP3     14792    TIP3     H2       HT       0.417000       1.00800           0
     66759 TIP3     14793    TIP3     OH2      OT      -0.834000       15.9994           0
     66760 TIP3     14793    TIP3     H1       HT       0.417000       1.00800           0
     66761 TIP3     14793    TIP3     H2       HT       0.417000       1.00800           0
     66762 TIP3     14794    TIP3     OH2      OT      -0.834000       15.9994           0
     66763 TIP3     14794    TIP3     H1       HT       0.417000       1.00800           0
     66764 TIP3     14794    TIP3     H2       HT       0.417000       1.00800           0
     66765 TIP3     14795    TIP3     OH2      OT      -0.834000       15.9994           0
     66766 TIP3     14795    TIP3     H1       HT       0.417000       1.00800           0
     66767 TIP3     14795    TIP3     H2       HT       0.417000       1.00800           0
     66768 TIP3     14796    TIP3     OH2      OT      -0.834000       15.9994           0
     66769 TIP3     14796    TIP3     H1       HT       0.417000       1.00800           0
     66770 TIP3     14796    TIP3     H2       HT       0.417000       1.00800           0
     66771 TIP3     14797    TIP3     OH2      OT      -0.834000       15.9994           0
     66772 TIP3     14797    TIP3     H1       HT       0.417000       1.00800           0
     66773 TIP3     14797    TIP3     H2       HT       0.417000       1.00800           0
     66774 TIP3     14798    TIP3     OH2      OT      -0.834000       15.9994           0
     66775 TIP3     14798    TIP3     H1       HT       0.417000       1.00800           0
     66776 TIP3     14798    TIP3     H2       HT       0.417000       1.00800           0
     66777 TIP3     14799    TIP3     OH2      OT      -0.834000       15.9994           0
     66778 TIP3     14799    TIP3     H1       HT       0.417000       1.00800           0
     66779 TIP3     14799    TIP3     H2       HT       0.417000       1.00800           0
     66780 TIP3     14800    TIP3     OH2      OT      -0.834000       15.9994           0
     66781 TIP3     14800    TIP3     H1       HT       0.417000       1.00800           0
     66782 TIP3     14800    TIP3     H2       HT       0.417000       1.00800           0
     66783 TIP3     14801    TIP3     OH2      OT      -0.834000       15.9994           0
     66784 TIP3     14801    TIP3     H1       HT       0.417000       1.00800           0
     66785 TIP3     14801    TIP3     H2       HT       0.417000       1.00800           0
     66786 TIP3     14802    TIP3     OH2      OT      -0.834000       15.9994           0
     66787 TIP3     14802    TIP3     H1       HT       0.417000       1.00800           0
     66788 TIP3     14802    TIP3     H2       HT       0.417000       1.00800           0
     66789 TIP3     14803    TIP3     OH2      OT      -0.834000       15.9994           0
     66790 TIP3     14803    TIP3     H1       HT       0.417000       1.00800           0
     66791 TIP3     14803    TIP3     H2       HT       0.417000       1.00800           0
     66792 TIP3     14804    TIP3     OH2      OT      -0.834000       15.9994           0
     66793 TIP3     14804    TIP3     H1       HT       0.417000       1.00800           0
     66794 TIP3     14804    TIP3     H2       HT       0.417000       1.00800           0
     66795 TIP3     14805    TIP3     OH2      OT      -0.834000       15.9994           0
     66796 TIP3     14805    TIP3     H1       HT       0.417000       1.00800           0
     66797 TIP3     14805    TIP3     H2       HT       0.417000       1.00800           0
     66798 TIP3     14806    TIP3     OH2      OT      -0.834000       15.9994           0
     66799 TIP3     14806    TIP3     H1       HT       0.417000       1.00800           0
     66800 TIP3     14806    TIP3     H2       HT       0.417000       1.00800           0
     66801 TIP3     14807    TIP3     OH2      OT      -0.834000       15.9994           0
     66802 TIP3     14807    TIP3     H1       HT       0.417000       1.00800           0
     66803 TIP3     14807    TIP3     H2       HT       0.417000       1.00800           0
     66804 TIP3     14808    TIP3     OH2      OT      -0.834000       15.9994           0
     66805 TIP3     14808    TIP3     H1       HT       0.417000       1.00800           0
     66806 TIP3     14808    TIP3     H2       HT       0.417000       1.00800           0
     66807 TIP3     14809    TIP3     OH2      OT      -0.834000       15.9994           0
     66808 TIP3     14809    TIP3     H1       HT       0.417000       1.00800           0
     66809 TIP3     14809    TIP3     H2       HT       0.417000       1.00800           0
     66810 TIP3     14810    TIP3     OH2      OT      -0.834000       15.9994           0
     66811 TIP3     14810    TIP3     H1       HT       0.417000       1.00800           0
     66812 TIP3     14810    TIP3     H2       HT       0.417000       1.00800           0
     66813 TIP3     14811    TIP3     OH2      OT      -0.834000       15.9994           0
     66814 TIP3     14811    TIP3     H1       HT       0.417000       1.00800           0
     66815 TIP3     14811    TIP3     H2       HT       0.417000       1.00800           0
     66816 TIP3     14812    TIP3     OH2      OT      -0.834000       15.9994           0
     66817 TIP3     14812    TIP3     H1       HT       0.417000       1.00800           0
     66818 TIP3     14812    TIP3     H2       HT       0.417000       1.00800           0
     66819 TIP3     14813    TIP3     OH2      OT      -0.834000       15.9994           0
     66820 TIP3     14813    TIP3     H1       HT       0.417000       1.00800           0
     66821 TIP3     14813    TIP3     H2       HT       0.417000       1.00800           0
     66822 TIP3     14814    TIP3     OH2      OT      -0.834000       15.9994           0
     66823 TIP3     14814    TIP3     H1       HT       0.417000       1.00800           0
     66824 TIP3     14814    TIP3     H2       HT       0.417000       1.00800           0
     66825 TIP3     14815    TIP3     OH2      OT      -0.834000       15.9994           0
     66826 TIP3     14815    TIP3     H1       HT       0.417000       1.00800           0
     66827 TIP3     14815    TIP3     H2       HT       0.417000       1.00800           0
     66828 TIP3     14816    TIP3     OH2      OT      -0.834000       15.9994           0
     66829 TIP3     14816    TIP3     H1       HT       0.417000       1.00800           0
     66830 TIP3     14816    TIP3     H2       HT       0.417000       1.00800           0
     66831 TIP3     14817    TIP3     OH2      OT      -0.834000       15.9994           0
     66832 TIP3     14817    TIP3     H1       HT       0.417000       1.00800           0
     66833 TIP3     14817    TIP3     H2       HT       0.417000       1.00800           0
     66834 TIP3     14818    TIP3     OH2      OT      -0.834000       15.9994           0
     66835 TIP3     14818    TIP3     H1       HT       0.417000       1.00800           0
     66836 TIP3     14818    TIP3     H2       HT       0.417000       1.00800           0
     66837 TIP3     14819    TIP3     OH2      OT      -0.834000       15.9994           0
     66838 TIP3     14819    TIP3     H1       HT       0.417000       1.00800           0
     66839 TIP3     14819    TIP3     H2       HT       0.417000       1.00800           0
     66840 TIP3     14820    TIP3     OH2      OT      -0.834000       15.9994           0
     66841 TIP3     14820    TIP3     H1       HT       0.417000       1.00800           0
     66842 TIP3     14820    TIP3     H2       HT       0.417000       1.00800           0
     66843 TIP3     14821    TIP3     OH2      OT      -0.834000       15.9994           0
     66844 TIP3     14821    TIP3     H1       HT       0.417000       1.00800           0
     66845 TIP3     14821    TIP3     H2       HT       0.417000       1.00800           0
     66846 TIP3     14822    TIP3     OH2      OT      -0.834000       15.9994           0
     66847 TIP3     14822    TIP3     H1       HT       0.417000       1.00800           0
     66848 TIP3     14822    TIP3     H2       HT       0.417000       1.00800           0
     66849 TIP3     14823    TIP3     OH2      OT      -0.834000       15.9994           0
     66850 TIP3     14823    TIP3     H1       HT       0.417000       1.00800           0
     66851 TIP3     14823    TIP3     H2       HT       0.417000       1.00800           0
     66852 TIP3     14824    TIP3     OH2      OT      -0.834000       15.9994           0
     66853 TIP3     14824    TIP3     H1       HT       0.417000       1.00800           0
     66854 TIP3     14824    TIP3     H2       HT       0.417000       1.00800           0
     66855 TIP3     14825    TIP3     OH2      OT      -0.834000       15.9994           0
     66856 TIP3     14825    TIP3     H1       HT       0.417000       1.00800           0
     66857 TIP3     14825    TIP3     H2       HT       0.417000       1.00800           0
     66858 TIP3     14826    TIP3     OH2      OT      -0.834000       15.9994           0
     66859 TIP3     14826    TIP3     H1       HT       0.417000       1.00800           0
     66860 TIP3     14826    TIP3     H2       HT       0.417000       1.00800           0
     66861 TIP3     14827    TIP3     OH2      OT      -0.834000       15.9994           0
     66862 TIP3     14827    TIP3     H1       HT       0.417000       1.00800           0
     66863 TIP3     14827    TIP3     H2       HT       0.417000       1.00800           0
     66864 TIP3     14828    TIP3     OH2      OT      -0.834000       15.9994           0
     66865 TIP3     14828    TIP3     H1       HT       0.417000       1.00800           0
     66866 TIP3     14828    TIP3     H2       HT       0.417000       1.00800           0
     66867 TIP3     14829    TIP3     OH2      OT      -0.834000       15.9994           0
     66868 TIP3     14829    TIP3     H1       HT       0.417000       1.00800           0
     66869 TIP3     14829    TIP3     H2       HT       0.417000       1.00800           0
     66870 TIP3     14830    TIP3     OH2      OT      -0.834000       15.9994           0
     66871 TIP3     14830    TIP3     H1       HT       0.417000       1.00800           0
     66872 TIP3     14830    TIP3     H2       HT       0.417000       1.00800           0
     66873 TIP3     14831    TIP3     OH2      OT      -0.834000       15.9994           0
     66874 TIP3     14831    TIP3     H1       HT       0.417000       1.00800           0
     66875 TIP3     14831    TIP3     H2       HT       0.417000       1.00800           0
     66876 TIP3     14832    TIP3     OH2      OT      -0.834000       15.9994           0
     66877 TIP3     14832    TIP3     H1       HT       0.417000       1.00800           0
     66878 TIP3     14832    TIP3     H2       HT       0.417000       1.00800           0
     66879 TIP3     14833    TIP3     OH2      OT      -0.834000       15.9994           0
     66880 TIP3     14833    TIP3     H1       HT       0.417000       1.00800           0
     66881 TIP3     14833    TIP3     H2       HT       0.417000       1.00800           0
     66882 TIP3     14834    TIP3     OH2      OT      -0.834000       15.9994           0
     66883 TIP3     14834    TIP3     H1       HT       0.417000       1.00800           0
     66884 TIP3     14834    TIP3     H2       HT       0.417000       1.00800           0
     66885 TIP3     14835    TIP3     OH2      OT      -0.834000       15.9994           0
     66886 TIP3     14835    TIP3     H1       HT       0.417000       1.00800           0
     66887 TIP3     14835    TIP3     H2       HT       0.417000       1.00800           0
     66888 TIP3     14836    TIP3     OH2      OT      -0.834000       15.9994           0
     66889 TIP3     14836    TIP3     H1       HT       0.417000       1.00800           0
     66890 TIP3     14836    TIP3     H2       HT       0.417000       1.00800           0
     66891 TIP3     14837    TIP3     OH2      OT      -0.834000       15.9994           0
     66892 TIP3     14837    TIP3     H1       HT       0.417000       1.00800           0
     66893 TIP3     14837    TIP3     H2       HT       0.417000       1.00800           0
     66894 TIP3     14838    TIP3     OH2      OT      -0.834000       15.9994           0
     66895 TIP3     14838    TIP3     H1       HT       0.417000       1.00800           0
     66896 TIP3     14838    TIP3     H2       HT       0.417000       1.00800           0
     66897 TIP3     14839    TIP3     OH2      OT      -0.834000       15.9994           0
     66898 TIP3     14839    TIP3     H1       HT       0.417000       1.00800           0
     66899 TIP3     14839    TIP3     H2       HT       0.417000       1.00800           0
     66900 TIP3     14840    TIP3     OH2      OT      -0.834000       15.9994           0
     66901 TIP3     14840    TIP3     H1       HT       0.417000       1.00800           0
     66902 TIP3     14840    TIP3     H2       HT       0.417000       1.00800           0
     66903 TIP3     14841    TIP3     OH2      OT      -0.834000       15.9994           0
     66904 TIP3     14841    TIP3     H1       HT       0.417000       1.00800           0
     66905 TIP3     14841    TIP3     H2       HT       0.417000       1.00800           0
     66906 TIP3     14842    TIP3     OH2      OT      -0.834000       15.9994           0
     66907 TIP3     14842    TIP3     H1       HT       0.417000       1.00800           0
     66908 TIP3     14842    TIP3     H2       HT       0.417000       1.00800           0
     66909 TIP3     14843    TIP3     OH2      OT      -0.834000       15.9994           0
     66910 TIP3     14843    TIP3     H1       HT       0.417000       1.00800           0
     66911 TIP3     14843    TIP3     H2       HT       0.417000       1.00800           0
     66912 TIP3     14844    TIP3     OH2      OT      -0.834000       15.9994           0
     66913 TIP3     14844    TIP3     H1       HT       0.417000       1.00800           0
     66914 TIP3     14844    TIP3     H2       HT       0.417000       1.00800           0
     66915 TIP3     14845    TIP3     OH2      OT      -0.834000       15.9994           0
     66916 TIP3     14845    TIP3     H1       HT       0.417000       1.00800           0
     66917 TIP3     14845    TIP3     H2       HT       0.417000       1.00800           0
     66918 TIP3     14846    TIP3     OH2      OT      -0.834000       15.9994           0
     66919 TIP3     14846    TIP3     H1       HT       0.417000       1.00800           0
     66920 TIP3     14846    TIP3     H2       HT       0.417000       1.00800           0
     66921 TIP3     14847    TIP3     OH2      OT      -0.834000       15.9994           0
     66922 TIP3     14847    TIP3     H1       HT       0.417000       1.00800           0
     66923 TIP3     14847    TIP3     H2       HT       0.417000       1.00800           0
     66924 TIP3     14848    TIP3     OH2      OT      -0.834000       15.9994           0
     66925 TIP3     14848    TIP3     H1       HT       0.417000       1.00800           0
     66926 TIP3     14848    TIP3     H2       HT       0.417000       1.00800           0
     66927 TIP3     14849    TIP3     OH2      OT      -0.834000       15.9994           0
     66928 TIP3     14849    TIP3     H1       HT       0.417000       1.00800           0
     66929 TIP3     14849    TIP3     H2       HT       0.417000       1.00800           0
     66930 TIP3     14850    TIP3     OH2      OT      -0.834000       15.9994           0
     66931 TIP3     14850    TIP3     H1       HT       0.417000       1.00800           0
     66932 TIP3     14850    TIP3     H2       HT       0.417000       1.00800           0
     66933 TIP3     14851    TIP3     OH2      OT      -0.834000       15.9994           0
     66934 TIP3     14851    TIP3     H1       HT       0.417000       1.00800           0
     66935 TIP3     14851    TIP3     H2       HT       0.417000       1.00800           0
     66936 TIP3     14852    TIP3     OH2      OT      -0.834000       15.9994           0
     66937 TIP3     14852    TIP3     H1       HT       0.417000       1.00800           0
     66938 TIP3     14852    TIP3     H2       HT       0.417000       1.00800           0
     66939 TIP3     14853    TIP3     OH2      OT      -0.834000       15.9994           0
     66940 TIP3     14853    TIP3     H1       HT       0.417000       1.00800           0
     66941 TIP3     14853    TIP3     H2       HT       0.417000       1.00800           0
     66942 TIP3     14854    TIP3     OH2      OT      -0.834000       15.9994           0
     66943 TIP3     14854    TIP3     H1       HT       0.417000       1.00800           0
     66944 TIP3     14854    TIP3     H2       HT       0.417000       1.00800           0
     66945 TIP3     14855    TIP3     OH2      OT      -0.834000       15.9994           0
     66946 TIP3     14855    TIP3     H1       HT       0.417000       1.00800           0
     66947 TIP3     14855    TIP3     H2       HT       0.417000       1.00800           0
     66948 TIP3     14856    TIP3     OH2      OT      -0.834000       15.9994           0
     66949 TIP3     14856    TIP3     H1       HT       0.417000       1.00800           0
     66950 TIP3     14856    TIP3     H2       HT       0.417000       1.00800           0
     66951 TIP3     14857    TIP3     OH2      OT      -0.834000       15.9994           0
     66952 TIP3     14857    TIP3     H1       HT       0.417000       1.00800           0
     66953 TIP3     14857    TIP3     H2       HT       0.417000       1.00800           0
     66954 TIP3     14858    TIP3     OH2      OT      -0.834000       15.9994           0
     66955 TIP3     14858    TIP3     H1       HT       0.417000       1.00800           0
     66956 TIP3     14858    TIP3     H2       HT       0.417000       1.00800           0
     66957 TIP3     14859    TIP3     OH2      OT      -0.834000       15.9994           0
     66958 TIP3     14859    TIP3     H1       HT       0.417000       1.00800           0
     66959 TIP3     14859    TIP3     H2       HT       0.417000       1.00800           0
     66960 TIP3     14860    TIP3     OH2      OT      -0.834000       15.9994           0
     66961 TIP3     14860    TIP3     H1       HT       0.417000       1.00800           0
     66962 TIP3     14860    TIP3     H2       HT       0.417000       1.00800           0
     66963 TIP3     14861    TIP3     OH2      OT      -0.834000       15.9994           0
     66964 TIP3     14861    TIP3     H1       HT       0.417000       1.00800           0
     66965 TIP3     14861    TIP3     H2       HT       0.417000       1.00800           0
     66966 TIP3     14862    TIP3     OH2      OT      -0.834000       15.9994           0
     66967 TIP3     14862    TIP3     H1       HT       0.417000       1.00800           0
     66968 TIP3     14862    TIP3     H2       HT       0.417000       1.00800           0
     66969 TIP3     14863    TIP3     OH2      OT      -0.834000       15.9994           0
     66970 TIP3     14863    TIP3     H1       HT       0.417000       1.00800           0
     66971 TIP3     14863    TIP3     H2       HT       0.417000       1.00800           0
     66972 TIP3     14864    TIP3     OH2      OT      -0.834000       15.9994           0
     66973 TIP3     14864    TIP3     H1       HT       0.417000       1.00800           0
     66974 TIP3     14864    TIP3     H2       HT       0.417000       1.00800           0
     66975 TIP3     14865    TIP3     OH2      OT      -0.834000       15.9994           0
     66976 TIP3     14865    TIP3     H1       HT       0.417000       1.00800           0
     66977 TIP3     14865    TIP3     H2       HT       0.417000       1.00800           0
     66978 TIP3     14866    TIP3     OH2      OT      -0.834000       15.9994           0
     66979 TIP3     14866    TIP3     H1       HT       0.417000       1.00800           0
     66980 TIP3     14866    TIP3     H2       HT       0.417000       1.00800           0
     66981 TIP3     14867    TIP3     OH2      OT      -0.834000       15.9994           0
     66982 TIP3     14867    TIP3     H1       HT       0.417000       1.00800           0
     66983 TIP3     14867    TIP3     H2       HT       0.417000       1.00800           0
     66984 TIP3     14868    TIP3     OH2      OT      -0.834000       15.9994           0
     66985 TIP3     14868    TIP3     H1       HT       0.417000       1.00800           0
     66986 TIP3     14868    TIP3     H2       HT       0.417000       1.00800           0
     66987 TIP3     14869    TIP3     OH2      OT      -0.834000       15.9994           0
     66988 TIP3     14869    TIP3     H1       HT       0.417000       1.00800           0
     66989 TIP3     14869    TIP3     H2       HT       0.417000       1.00800           0
     66990 TIP3     14870    TIP3     OH2      OT      -0.834000       15.9994           0
     66991 TIP3     14870    TIP3     H1       HT       0.417000       1.00800           0
     66992 TIP3     14870    TIP3     H2       HT       0.417000       1.00800           0
     66993 TIP3     14871    TIP3     OH2      OT      -0.834000       15.9994           0
     66994 TIP3     14871    TIP3     H1       HT       0.417000       1.00800           0
     66995 TIP3     14871    TIP3     H2       HT       0.417000       1.00800           0
     66996 TIP3     14872    TIP3     OH2      OT      -0.834000       15.9994           0
     66997 TIP3     14872    TIP3     H1       HT       0.417000       1.00800           0
     66998 TIP3     14872    TIP3     H2       HT       0.417000       1.00800           0
     66999 TIP3     14873    TIP3     OH2      OT      -0.834000       15.9994           0
     67000 TIP3     14873    TIP3     H1       HT       0.417000       1.00800           0
     67001 TIP3     14873    TIP3     H2       HT       0.417000       1.00800           0
     67002 TIP3     14874    TIP3     OH2      OT      -0.834000       15.9994           0
     67003 TIP3     14874    TIP3     H1       HT       0.417000       1.00800           0
     67004 TIP3     14874    TIP3     H2       HT       0.417000       1.00800           0
     67005 TIP3     14875    TIP3     OH2      OT      -0.834000       15.9994           0
     67006 TIP3     14875    TIP3     H1       HT       0.417000       1.00800           0
     67007 TIP3     14875    TIP3     H2       HT       0.417000       1.00800           0
     67008 TIP3     14876    TIP3     OH2      OT      -0.834000       15.9994           0
     67009 TIP3     14876    TIP3     H1       HT       0.417000       1.00800           0
     67010 TIP3     14876    TIP3     H2       HT       0.417000       1.00800           0
     67011 TIP3     14877    TIP3     OH2      OT      -0.834000       15.9994           0
     67012 TIP3     14877    TIP3     H1       HT       0.417000       1.00800           0
     67013 TIP3     14877    TIP3     H2       HT       0.417000       1.00800           0
     67014 TIP3     14878    TIP3     OH2      OT      -0.834000       15.9994           0
     67015 TIP3     14878    TIP3     H1       HT       0.417000       1.00800           0
     67016 TIP3     14878    TIP3     H2       HT       0.417000       1.00800           0
     67017 TIP3     14879    TIP3     OH2      OT      -0.834000       15.9994           0
     67018 TIP3     14879    TIP3     H1       HT       0.417000       1.00800           0
     67019 TIP3     14879    TIP3     H2       HT       0.417000       1.00800           0
     67020 TIP3     14880    TIP3     OH2      OT      -0.834000       15.9994           0
     67021 TIP3     14880    TIP3     H1       HT       0.417000       1.00800           0
     67022 TIP3     14880    TIP3     H2       HT       0.417000       1.00800           0
     67023 TIP3     14881    TIP3     OH2      OT      -0.834000       15.9994           0
     67024 TIP3     14881    TIP3     H1       HT       0.417000       1.00800           0
     67025 TIP3     14881    TIP3     H2       HT       0.417000       1.00800           0
     67026 TIP3     14882    TIP3     OH2      OT      -0.834000       15.9994           0
     67027 TIP3     14882    TIP3     H1       HT       0.417000       1.00800           0
     67028 TIP3     14882    TIP3     H2       HT       0.417000       1.00800           0
     67029 TIP3     14883    TIP3     OH2      OT      -0.834000       15.9994           0
     67030 TIP3     14883    TIP3     H1       HT       0.417000       1.00800           0
     67031 TIP3     14883    TIP3     H2       HT       0.417000       1.00800           0
     67032 TIP3     14884    TIP3     OH2      OT      -0.834000       15.9994           0
     67033 TIP3     14884    TIP3     H1       HT       0.417000       1.00800           0
     67034 TIP3     14884    TIP3     H2       HT       0.417000       1.00800           0
     67035 TIP3     14885    TIP3     OH2      OT      -0.834000       15.9994           0
     67036 TIP3     14885    TIP3     H1       HT       0.417000       1.00800           0
     67037 TIP3     14885    TIP3     H2       HT       0.417000       1.00800           0
     67038 TIP3     14886    TIP3     OH2      OT      -0.834000       15.9994           0
     67039 TIP3     14886    TIP3     H1       HT       0.417000       1.00800           0
     67040 TIP3     14886    TIP3     H2       HT       0.417000       1.00800           0
     67041 TIP3     14887    TIP3     OH2      OT      -0.834000       15.9994           0
     67042 TIP3     14887    TIP3     H1       HT       0.417000       1.00800           0
     67043 TIP3     14887    TIP3     H2       HT       0.417000       1.00800           0
     67044 TIP3     14888    TIP3     OH2      OT      -0.834000       15.9994           0
     67045 TIP3     14888    TIP3     H1       HT       0.417000       1.00800           0
     67046 TIP3     14888    TIP3     H2       HT       0.417000       1.00800           0
     67047 TIP3     14889    TIP3     OH2      OT      -0.834000       15.9994           0
     67048 TIP3     14889    TIP3     H1       HT       0.417000       1.00800           0
     67049 TIP3     14889    TIP3     H2       HT       0.417000       1.00800           0
     67050 TIP3     14890    TIP3     OH2      OT      -0.834000       15.9994           0
     67051 TIP3     14890    TIP3     H1       HT       0.417000       1.00800           0
     67052 TIP3     14890    TIP3     H2       HT       0.417000       1.00800           0
     67053 TIP3     14891    TIP3     OH2      OT      -0.834000       15.9994           0
     67054 TIP3     14891    TIP3     H1       HT       0.417000       1.00800           0
     67055 TIP3     14891    TIP3     H2       HT       0.417000       1.00800           0
     67056 TIP3     14892    TIP3     OH2      OT      -0.834000       15.9994           0
     67057 TIP3     14892    TIP3     H1       HT       0.417000       1.00800           0
     67058 TIP3     14892    TIP3     H2       HT       0.417000       1.00800           0
     67059 TIP3     14893    TIP3     OH2      OT      -0.834000       15.9994           0
     67060 TIP3     14893    TIP3     H1       HT       0.417000       1.00800           0
     67061 TIP3     14893    TIP3     H2       HT       0.417000       1.00800           0
     67062 TIP3     14894    TIP3     OH2      OT      -0.834000       15.9994           0
     67063 TIP3     14894    TIP3     H1       HT       0.417000       1.00800           0
     67064 TIP3     14894    TIP3     H2       HT       0.417000       1.00800           0
     67065 TIP3     14895    TIP3     OH2      OT      -0.834000       15.9994           0
     67066 TIP3     14895    TIP3     H1       HT       0.417000       1.00800           0
     67067 TIP3     14895    TIP3     H2       HT       0.417000       1.00800           0
     67068 TIP3     14896    TIP3     OH2      OT      -0.834000       15.9994           0
     67069 TIP3     14896    TIP3     H1       HT       0.417000       1.00800           0
     67070 TIP3     14896    TIP3     H2       HT       0.417000       1.00800           0
     67071 TIP3     14897    TIP3     OH2      OT      -0.834000       15.9994           0
     67072 TIP3     14897    TIP3     H1       HT       0.417000       1.00800           0
     67073 TIP3     14897    TIP3     H2       HT       0.417000       1.00800           0
     67074 TIP3     14898    TIP3     OH2      OT      -0.834000       15.9994           0
     67075 TIP3     14898    TIP3     H1       HT       0.417000       1.00800           0
     67076 TIP3     14898    TIP3     H2       HT       0.417000       1.00800           0
     67077 TIP3     14899    TIP3     OH2      OT      -0.834000       15.9994           0
     67078 TIP3     14899    TIP3     H1       HT       0.417000       1.00800           0
     67079 TIP3     14899    TIP3     H2       HT       0.417000       1.00800           0
     67080 TIP3     14900    TIP3     OH2      OT      -0.834000       15.9994           0
     67081 TIP3     14900    TIP3     H1       HT       0.417000       1.00800           0
     67082 TIP3     14900    TIP3     H2       HT       0.417000       1.00800           0
     67083 TIP3     14901    TIP3     OH2      OT      -0.834000       15.9994           0
     67084 TIP3     14901    TIP3     H1       HT       0.417000       1.00800           0
     67085 TIP3     14901    TIP3     H2       HT       0.417000       1.00800           0
     67086 TIP3     14902    TIP3     OH2      OT      -0.834000       15.9994           0
     67087 TIP3     14902    TIP3     H1       HT       0.417000       1.00800           0
     67088 TIP3     14902    TIP3     H2       HT       0.417000       1.00800           0
     67089 TIP3     14903    TIP3     OH2      OT      -0.834000       15.9994           0
     67090 TIP3     14903    TIP3     H1       HT       0.417000       1.00800           0
     67091 TIP3     14903    TIP3     H2       HT       0.417000       1.00800           0
     67092 TIP3     14904    TIP3     OH2      OT      -0.834000       15.9994           0
     67093 TIP3     14904    TIP3     H1       HT       0.417000       1.00800           0
     67094 TIP3     14904    TIP3     H2       HT       0.417000       1.00800           0
     67095 TIP3     14905    TIP3     OH2      OT      -0.834000       15.9994           0
     67096 TIP3     14905    TIP3     H1       HT       0.417000       1.00800           0
     67097 TIP3     14905    TIP3     H2       HT       0.417000       1.00800           0
     67098 TIP3     14906    TIP3     OH2      OT      -0.834000       15.9994           0
     67099 TIP3     14906    TIP3     H1       HT       0.417000       1.00800           0
     67100 TIP3     14906    TIP3     H2       HT       0.417000       1.00800           0
     67101 TIP3     14907    TIP3     OH2      OT      -0.834000       15.9994           0
     67102 TIP3     14907    TIP3     H1       HT       0.417000       1.00800           0
     67103 TIP3     14907    TIP3     H2       HT       0.417000       1.00800           0
     67104 TIP3     14908    TIP3     OH2      OT      -0.834000       15.9994           0
     67105 TIP3     14908    TIP3     H1       HT       0.417000       1.00800           0
     67106 TIP3     14908    TIP3     H2       HT       0.417000       1.00800           0
     67107 TIP3     14909    TIP3     OH2      OT      -0.834000       15.9994           0
     67108 TIP3     14909    TIP3     H1       HT       0.417000       1.00800           0
     67109 TIP3     14909    TIP3     H2       HT       0.417000       1.00800           0
     67110 TIP3     14910    TIP3     OH2      OT      -0.834000       15.9994           0
     67111 TIP3     14910    TIP3     H1       HT       0.417000       1.00800           0
     67112 TIP3     14910    TIP3     H2       HT       0.417000       1.00800           0
     67113 TIP3     14911    TIP3     OH2      OT      -0.834000       15.9994           0
     67114 TIP3     14911    TIP3     H1       HT       0.417000       1.00800           0
     67115 TIP3     14911    TIP3     H2       HT       0.417000       1.00800           0
     67116 TIP3     14912    TIP3     OH2      OT      -0.834000       15.9994           0
     67117 TIP3     14912    TIP3     H1       HT       0.417000       1.00800           0
     67118 TIP3     14912    TIP3     H2       HT       0.417000       1.00800           0
     67119 TIP3     14913    TIP3     OH2      OT      -0.834000       15.9994           0
     67120 TIP3     14913    TIP3     H1       HT       0.417000       1.00800           0
     67121 TIP3     14913    TIP3     H2       HT       0.417000       1.00800           0
     67122 TIP3     14914    TIP3     OH2      OT      -0.834000       15.9994           0
     67123 TIP3     14914    TIP3     H1       HT       0.417000       1.00800           0
     67124 TIP3     14914    TIP3     H2       HT       0.417000       1.00800           0
     67125 TIP3     14915    TIP3     OH2      OT      -0.834000       15.9994           0
     67126 TIP3     14915    TIP3     H1       HT       0.417000       1.00800           0
     67127 TIP3     14915    TIP3     H2       HT       0.417000       1.00800           0
     67128 TIP3     14916    TIP3     OH2      OT      -0.834000       15.9994           0
     67129 TIP3     14916    TIP3     H1       HT       0.417000       1.00800           0
     67130 TIP3     14916    TIP3     H2       HT       0.417000       1.00800           0
     67131 TIP3     14917    TIP3     OH2      OT      -0.834000       15.9994           0
     67132 TIP3     14917    TIP3     H1       HT       0.417000       1.00800           0
     67133 TIP3     14917    TIP3     H2       HT       0.417000       1.00800           0
     67134 TIP3     14918    TIP3     OH2      OT      -0.834000       15.9994           0
     67135 TIP3     14918    TIP3     H1       HT       0.417000       1.00800           0
     67136 TIP3     14918    TIP3     H2       HT       0.417000       1.00800           0
     67137 TIP3     14919    TIP3     OH2      OT      -0.834000       15.9994           0
     67138 TIP3     14919    TIP3     H1       HT       0.417000       1.00800           0
     67139 TIP3     14919    TIP3     H2       HT       0.417000       1.00800           0
     67140 TIP3     14920    TIP3     OH2      OT      -0.834000       15.9994           0
     67141 TIP3     14920    TIP3     H1       HT       0.417000       1.00800           0
     67142 TIP3     14920    TIP3     H2       HT       0.417000       1.00800           0
     67143 TIP3     14921    TIP3     OH2      OT      -0.834000       15.9994           0
     67144 TIP3     14921    TIP3     H1       HT       0.417000       1.00800           0
     67145 TIP3     14921    TIP3     H2       HT       0.417000       1.00800           0
     67146 TIP3     14922    TIP3     OH2      OT      -0.834000       15.9994           0
     67147 TIP3     14922    TIP3     H1       HT       0.417000       1.00800           0
     67148 TIP3     14922    TIP3     H2       HT       0.417000       1.00800           0
     67149 TIP3     14923    TIP3     OH2      OT      -0.834000       15.9994           0
     67150 TIP3     14923    TIP3     H1       HT       0.417000       1.00800           0
     67151 TIP3     14923    TIP3     H2       HT       0.417000       1.00800           0
     67152 TIP3     14924    TIP3     OH2      OT      -0.834000       15.9994           0
     67153 TIP3     14924    TIP3     H1       HT       0.417000       1.00800           0
     67154 TIP3     14924    TIP3     H2       HT       0.417000       1.00800           0
     67155 TIP3     14925    TIP3     OH2      OT      -0.834000       15.9994           0
     67156 TIP3     14925    TIP3     H1       HT       0.417000       1.00800           0
     67157 TIP3     14925    TIP3     H2       HT       0.417000       1.00800           0
     67158 TIP3     14926    TIP3     OH2      OT      -0.834000       15.9994           0
     67159 TIP3     14926    TIP3     H1       HT       0.417000       1.00800           0
     67160 TIP3     14926    TIP3     H2       HT       0.417000       1.00800           0
     67161 TIP3     14927    TIP3     OH2      OT      -0.834000       15.9994           0
     67162 TIP3     14927    TIP3     H1       HT       0.417000       1.00800           0
     67163 TIP3     14927    TIP3     H2       HT       0.417000       1.00800           0
     67164 TIP3     14928    TIP3     OH2      OT      -0.834000       15.9994           0
     67165 TIP3     14928    TIP3     H1       HT       0.417000       1.00800           0
     67166 TIP3     14928    TIP3     H2       HT       0.417000       1.00800           0
     67167 TIP3     14929    TIP3     OH2      OT      -0.834000       15.9994           0
     67168 TIP3     14929    TIP3     H1       HT       0.417000       1.00800           0
     67169 TIP3     14929    TIP3     H2       HT       0.417000       1.00800           0
     67170 TIP3     14930    TIP3     OH2      OT      -0.834000       15.9994           0
     67171 TIP3     14930    TIP3     H1       HT       0.417000       1.00800           0
     67172 TIP3     14930    TIP3     H2       HT       0.417000       1.00800           0
     67173 TIP3     14931    TIP3     OH2      OT      -0.834000       15.9994           0
     67174 TIP3     14931    TIP3     H1       HT       0.417000       1.00800           0
     67175 TIP3     14931    TIP3     H2       HT       0.417000       1.00800           0
     67176 TIP3     14932    TIP3     OH2      OT      -0.834000       15.9994           0
     67177 TIP3     14932    TIP3     H1       HT       0.417000       1.00800           0
     67178 TIP3     14932    TIP3     H2       HT       0.417000       1.00800           0
     67179 TIP3     14933    TIP3     OH2      OT      -0.834000       15.9994           0
     67180 TIP3     14933    TIP3     H1       HT       0.417000       1.00800           0
     67181 TIP3     14933    TIP3     H2       HT       0.417000       1.00800           0
     67182 TIP3     14934    TIP3     OH2      OT      -0.834000       15.9994           0
     67183 TIP3     14934    TIP3     H1       HT       0.417000       1.00800           0
     67184 TIP3     14934    TIP3     H2       HT       0.417000       1.00800           0
     67185 TIP3     14935    TIP3     OH2      OT      -0.834000       15.9994           0
     67186 TIP3     14935    TIP3     H1       HT       0.417000       1.00800           0
     67187 TIP3     14935    TIP3     H2       HT       0.417000       1.00800           0
     67188 TIP3     14936    TIP3     OH2      OT      -0.834000       15.9994           0
     67189 TIP3     14936    TIP3     H1       HT       0.417000       1.00800           0
     67190 TIP3     14936    TIP3     H2       HT       0.417000       1.00800           0
     67191 TIP3     14937    TIP3     OH2      OT      -0.834000       15.9994           0
     67192 TIP3     14937    TIP3     H1       HT       0.417000       1.00800           0
     67193 TIP3     14937    TIP3     H2       HT       0.417000       1.00800           0
     67194 TIP3     14938    TIP3     OH2      OT      -0.834000       15.9994           0
     67195 TIP3     14938    TIP3     H1       HT       0.417000       1.00800           0
     67196 TIP3     14938    TIP3     H2       HT       0.417000       1.00800           0
     67197 TIP3     14939    TIP3     OH2      OT      -0.834000       15.9994           0
     67198 TIP3     14939    TIP3     H1       HT       0.417000       1.00800           0
     67199 TIP3     14939    TIP3     H2       HT       0.417000       1.00800           0
     67200 TIP3     14940    TIP3     OH2      OT      -0.834000       15.9994           0
     67201 TIP3     14940    TIP3     H1       HT       0.417000       1.00800           0
     67202 TIP3     14940    TIP3     H2       HT       0.417000       1.00800           0
     67203 TIP3     14941    TIP3     OH2      OT      -0.834000       15.9994           0
     67204 TIP3     14941    TIP3     H1       HT       0.417000       1.00800           0
     67205 TIP3     14941    TIP3     H2       HT       0.417000       1.00800           0
     67206 TIP3     14942    TIP3     OH2      OT      -0.834000       15.9994           0
     67207 TIP3     14942    TIP3     H1       HT       0.417000       1.00800           0
     67208 TIP3     14942    TIP3     H2       HT       0.417000       1.00800           0
     67209 TIP3     14943    TIP3     OH2      OT      -0.834000       15.9994           0
     67210 TIP3     14943    TIP3     H1       HT       0.417000       1.00800           0
     67211 TIP3     14943    TIP3     H2       HT       0.417000       1.00800           0
     67212 TIP3     14944    TIP3     OH2      OT      -0.834000       15.9994           0
     67213 TIP3     14944    TIP3     H1       HT       0.417000       1.00800           0
     67214 TIP3     14944    TIP3     H2       HT       0.417000       1.00800           0
     67215 TIP3     14945    TIP3     OH2      OT      -0.834000       15.9994           0
     67216 TIP3     14945    TIP3     H1       HT       0.417000       1.00800           0
     67217 TIP3     14945    TIP3     H2       HT       0.417000       1.00800           0
     67218 TIP3     14946    TIP3     OH2      OT      -0.834000       15.9994           0
     67219 TIP3     14946    TIP3     H1       HT       0.417000       1.00800           0
     67220 TIP3     14946    TIP3     H2       HT       0.417000       1.00800           0
     67221 TIP3     14947    TIP3     OH2      OT      -0.834000       15.9994           0
     67222 TIP3     14947    TIP3     H1       HT       0.417000       1.00800           0
     67223 TIP3     14947    TIP3     H2       HT       0.417000       1.00800           0
     67224 TIP3     14948    TIP3     OH2      OT      -0.834000       15.9994           0
     67225 TIP3     14948    TIP3     H1       HT       0.417000       1.00800           0
     67226 TIP3     14948    TIP3     H2       HT       0.417000       1.00800           0
     67227 TIP3     14949    TIP3     OH2      OT      -0.834000       15.9994           0
     67228 TIP3     14949    TIP3     H1       HT       0.417000       1.00800           0
     67229 TIP3     14949    TIP3     H2       HT       0.417000       1.00800           0
     67230 TIP3     14950    TIP3     OH2      OT      -0.834000       15.9994           0
     67231 TIP3     14950    TIP3     H1       HT       0.417000       1.00800           0
     67232 TIP3     14950    TIP3     H2       HT       0.417000       1.00800           0
     67233 TIP3     14951    TIP3     OH2      OT      -0.834000       15.9994           0
     67234 TIP3     14951    TIP3     H1       HT       0.417000       1.00800           0
     67235 TIP3     14951    TIP3     H2       HT       0.417000       1.00800           0
     67236 TIP3     14952    TIP3     OH2      OT      -0.834000       15.9994           0
     67237 TIP3     14952    TIP3     H1       HT       0.417000       1.00800           0
     67238 TIP3     14952    TIP3     H2       HT       0.417000       1.00800           0
     67239 TIP3     14953    TIP3     OH2      OT      -0.834000       15.9994           0
     67240 TIP3     14953    TIP3     H1       HT       0.417000       1.00800           0
     67241 TIP3     14953    TIP3     H2       HT       0.417000       1.00800           0
     67242 TIP3     14954    TIP3     OH2      OT      -0.834000       15.9994           0
     67243 TIP3     14954    TIP3     H1       HT       0.417000       1.00800           0
     67244 TIP3     14954    TIP3     H2       HT       0.417000       1.00800           0
     67245 TIP3     14955    TIP3     OH2      OT      -0.834000       15.9994           0
     67246 TIP3     14955    TIP3     H1       HT       0.417000       1.00800           0
     67247 TIP3     14955    TIP3     H2       HT       0.417000       1.00800           0
     67248 TIP3     14956    TIP3     OH2      OT      -0.834000       15.9994           0
     67249 TIP3     14956    TIP3     H1       HT       0.417000       1.00800           0
     67250 TIP3     14956    TIP3     H2       HT       0.417000       1.00800           0
     67251 TIP3     14957    TIP3     OH2      OT      -0.834000       15.9994           0
     67252 TIP3     14957    TIP3     H1       HT       0.417000       1.00800           0
     67253 TIP3     14957    TIP3     H2       HT       0.417000       1.00800           0
     67254 TIP3     14958    TIP3     OH2      OT      -0.834000       15.9994           0
     67255 TIP3     14958    TIP3     H1       HT       0.417000       1.00800           0
     67256 TIP3     14958    TIP3     H2       HT       0.417000       1.00800           0
     67257 TIP3     14959    TIP3     OH2      OT      -0.834000       15.9994           0
     67258 TIP3     14959    TIP3     H1       HT       0.417000       1.00800           0
     67259 TIP3     14959    TIP3     H2       HT       0.417000       1.00800           0
     67260 TIP3     14960    TIP3     OH2      OT      -0.834000       15.9994           0
     67261 TIP3     14960    TIP3     H1       HT       0.417000       1.00800           0
     67262 TIP3     14960    TIP3     H2       HT       0.417000       1.00800           0
     67263 TIP3     14961    TIP3     OH2      OT      -0.834000       15.9994           0
     67264 TIP3     14961    TIP3     H1       HT       0.417000       1.00800           0
     67265 TIP3     14961    TIP3     H2       HT       0.417000       1.00800           0
     67266 TIP3     14962    TIP3     OH2      OT      -0.834000       15.9994           0
     67267 TIP3     14962    TIP3     H1       HT       0.417000       1.00800           0
     67268 TIP3     14962    TIP3     H2       HT       0.417000       1.00800           0
     67269 TIP3     14963    TIP3     OH2      OT      -0.834000       15.9994           0
     67270 TIP3     14963    TIP3     H1       HT       0.417000       1.00800           0
     67271 TIP3     14963    TIP3     H2       HT       0.417000       1.00800           0
     67272 TIP3     14964    TIP3     OH2      OT      -0.834000       15.9994           0
     67273 TIP3     14964    TIP3     H1       HT       0.417000       1.00800           0
     67274 TIP3     14964    TIP3     H2       HT       0.417000       1.00800           0
     67275 TIP3     14965    TIP3     OH2      OT      -0.834000       15.9994           0
     67276 TIP3     14965    TIP3     H1       HT       0.417000       1.00800           0
     67277 TIP3     14965    TIP3     H2       HT       0.417000       1.00800           0
     67278 TIP3     14966    TIP3     OH2      OT      -0.834000       15.9994           0
     67279 TIP3     14966    TIP3     H1       HT       0.417000       1.00800           0
     67280 TIP3     14966    TIP3     H2       HT       0.417000       1.00800           0
     67281 TIP3     14967    TIP3     OH2      OT      -0.834000       15.9994           0
     67282 TIP3     14967    TIP3     H1       HT       0.417000       1.00800           0
     67283 TIP3     14967    TIP3     H2       HT       0.417000       1.00800           0
     67284 TIP3     14968    TIP3     OH2      OT      -0.834000       15.9994           0
     67285 TIP3     14968    TIP3     H1       HT       0.417000       1.00800           0
     67286 TIP3     14968    TIP3     H2       HT       0.417000       1.00800           0
     67287 TIP3     14969    TIP3     OH2      OT      -0.834000       15.9994           0
     67288 TIP3     14969    TIP3     H1       HT       0.417000       1.00800           0
     67289 TIP3     14969    TIP3     H2       HT       0.417000       1.00800           0
     67290 TIP3     14970    TIP3     OH2      OT      -0.834000       15.9994           0
     67291 TIP3     14970    TIP3     H1       HT       0.417000       1.00800           0
     67292 TIP3     14970    TIP3     H2       HT       0.417000       1.00800           0
     67293 TIP3     14971    TIP3     OH2      OT      -0.834000       15.9994           0
     67294 TIP3     14971    TIP3     H1       HT       0.417000       1.00800           0
     67295 TIP3     14971    TIP3     H2       HT       0.417000       1.00800           0
     67296 TIP3     14972    TIP3     OH2      OT      -0.834000       15.9994           0
     67297 TIP3     14972    TIP3     H1       HT       0.417000       1.00800           0
     67298 TIP3     14972    TIP3     H2       HT       0.417000       1.00800           0
     67299 TIP3     14973    TIP3     OH2      OT      -0.834000       15.9994           0
     67300 TIP3     14973    TIP3     H1       HT       0.417000       1.00800           0
     67301 TIP3     14973    TIP3     H2       HT       0.417000       1.00800           0
     67302 TIP3     14974    TIP3     OH2      OT      -0.834000       15.9994           0
     67303 TIP3     14974    TIP3     H1       HT       0.417000       1.00800           0
     67304 TIP3     14974    TIP3     H2       HT       0.417000       1.00800           0
     67305 TIP3     14975    TIP3     OH2      OT      -0.834000       15.9994           0
     67306 TIP3     14975    TIP3     H1       HT       0.417000       1.00800           0
     67307 TIP3     14975    TIP3     H2       HT       0.417000       1.00800           0
     67308 TIP3     14976    TIP3     OH2      OT      -0.834000       15.9994           0
     67309 TIP3     14976    TIP3     H1       HT       0.417000       1.00800           0
     67310 TIP3     14976    TIP3     H2       HT       0.417000       1.00800           0
     67311 TIP3     14977    TIP3     OH2      OT      -0.834000       15.9994           0
     67312 TIP3     14977    TIP3     H1       HT       0.417000       1.00800           0
     67313 TIP3     14977    TIP3     H2       HT       0.417000       1.00800           0
     67314 TIP3     14978    TIP3     OH2      OT      -0.834000       15.9994           0
     67315 TIP3     14978    TIP3     H1       HT       0.417000       1.00800           0
     67316 TIP3     14978    TIP3     H2       HT       0.417000       1.00800           0
     67317 TIP3     14979    TIP3     OH2      OT      -0.834000       15.9994           0
     67318 TIP3     14979    TIP3     H1       HT       0.417000       1.00800           0
     67319 TIP3     14979    TIP3     H2       HT       0.417000       1.00800           0
     67320 TIP3     14980    TIP3     OH2      OT      -0.834000       15.9994           0
     67321 TIP3     14980    TIP3     H1       HT       0.417000       1.00800           0
     67322 TIP3     14980    TIP3     H2       HT       0.417000       1.00800           0
     67323 TIP3     14981    TIP3     OH2      OT      -0.834000       15.9994           0
     67324 TIP3     14981    TIP3     H1       HT       0.417000       1.00800           0
     67325 TIP3     14981    TIP3     H2       HT       0.417000       1.00800           0
     67326 TIP3     14982    TIP3     OH2      OT      -0.834000       15.9994           0
     67327 TIP3     14982    TIP3     H1       HT       0.417000       1.00800           0
     67328 TIP3     14982    TIP3     H2       HT       0.417000       1.00800           0
     67329 TIP3     14983    TIP3     OH2      OT      -0.834000       15.9994           0
     67330 TIP3     14983    TIP3     H1       HT       0.417000       1.00800           0
     67331 TIP3     14983    TIP3     H2       HT       0.417000       1.00800           0
     67332 TIP3     14984    TIP3     OH2      OT      -0.834000       15.9994           0
     67333 TIP3     14984    TIP3     H1       HT       0.417000       1.00800           0
     67334 TIP3     14984    TIP3     H2       HT       0.417000       1.00800           0
     67335 TIP3     14985    TIP3     OH2      OT      -0.834000       15.9994           0
     67336 TIP3     14985    TIP3     H1       HT       0.417000       1.00800           0
     67337 TIP3     14985    TIP3     H2       HT       0.417000       1.00800           0
     67338 TIP3     14986    TIP3     OH2      OT      -0.834000       15.9994           0
     67339 TIP3     14986    TIP3     H1       HT       0.417000       1.00800           0
     67340 TIP3     14986    TIP3     H2       HT       0.417000       1.00800           0
     67341 TIP3     14987    TIP3     OH2      OT      -0.834000       15.9994           0
     67342 TIP3     14987    TIP3     H1       HT       0.417000       1.00800           0
     67343 TIP3     14987    TIP3     H2       HT       0.417000       1.00800           0
     67344 TIP3     14988    TIP3     OH2      OT      -0.834000       15.9994           0
     67345 TIP3     14988    TIP3     H1       HT       0.417000       1.00800           0
     67346 TIP3     14988    TIP3     H2       HT       0.417000       1.00800           0
     67347 TIP3     14989    TIP3     OH2      OT      -0.834000       15.9994           0
     67348 TIP3     14989    TIP3     H1       HT       0.417000       1.00800           0
     67349 TIP3     14989    TIP3     H2       HT       0.417000       1.00800           0
     67350 TIP3     14990    TIP3     OH2      OT      -0.834000       15.9994           0
     67351 TIP3     14990    TIP3     H1       HT       0.417000       1.00800           0
     67352 TIP3     14990    TIP3     H2       HT       0.417000       1.00800           0
     67353 TIP3     14991    TIP3     OH2      OT      -0.834000       15.9994           0
     67354 TIP3     14991    TIP3     H1       HT       0.417000       1.00800           0
     67355 TIP3     14991    TIP3     H2       HT       0.417000       1.00800           0
     67356 TIP3     14992    TIP3     OH2      OT      -0.834000       15.9994           0
     67357 TIP3     14992    TIP3     H1       HT       0.417000       1.00800           0
     67358 TIP3     14992    TIP3     H2       HT       0.417000       1.00800           0
     67359 TIP3     14993    TIP3     OH2      OT      -0.834000       15.9994           0
     67360 TIP3     14993    TIP3     H1       HT       0.417000       1.00800           0
     67361 TIP3     14993    TIP3     H2       HT       0.417000       1.00800           0
     67362 TIP3     14994    TIP3     OH2      OT      -0.834000       15.9994           0
     67363 TIP3     14994    TIP3     H1       HT       0.417000       1.00800           0
     67364 TIP3     14994    TIP3     H2       HT       0.417000       1.00800           0
     67365 TIP3     14995    TIP3     OH2      OT      -0.834000       15.9994           0
     67366 TIP3     14995    TIP3     H1       HT       0.417000       1.00800           0
     67367 TIP3     14995    TIP3     H2       HT       0.417000       1.00800           0
     67368 TIP3     14996    TIP3     OH2      OT      -0.834000       15.9994           0
     67369 TIP3     14996    TIP3     H1       HT       0.417000       1.00800           0
     67370 TIP3     14996    TIP3     H2       HT       0.417000       1.00800           0
     67371 TIP3     14997    TIP3     OH2      OT      -0.834000       15.9994           0
     67372 TIP3     14997    TIP3     H1       HT       0.417000       1.00800           0
     67373 TIP3     14997    TIP3     H2       HT       0.417000       1.00800           0
     67374 TIP3     14998    TIP3     OH2      OT      -0.834000       15.9994           0
     67375 TIP3     14998    TIP3     H1       HT       0.417000       1.00800           0
     67376 TIP3     14998    TIP3     H2       HT       0.417000       1.00800           0
     67377 TIP3     14999    TIP3     OH2      OT      -0.834000       15.9994           0
     67378 TIP3     14999    TIP3     H1       HT       0.417000       1.00800           0
     67379 TIP3     14999    TIP3     H2       HT       0.417000       1.00800           0
     67380 TIP3     15000    TIP3     OH2      OT      -0.834000       15.9994           0
     67381 TIP3     15000    TIP3     H1       HT       0.417000       1.00800           0
     67382 TIP3     15000    TIP3     H2       HT       0.417000       1.00800           0
     67383 TIP3     15001    TIP3     OH2      OT      -0.834000       15.9994           0
     67384 TIP3     15001    TIP3     H1       HT       0.417000       1.00800           0
     67385 TIP3     15001    TIP3     H2       HT       0.417000       1.00800           0
     67386 TIP3     15002    TIP3     OH2      OT      -0.834000       15.9994           0
     67387 TIP3     15002    TIP3     H1       HT       0.417000       1.00800           0
     67388 TIP3     15002    TIP3     H2       HT       0.417000       1.00800           0
     67389 TIP3     15003    TIP3     OH2      OT      -0.834000       15.9994           0
     67390 TIP3     15003    TIP3     H1       HT       0.417000       1.00800           0
     67391 TIP3     15003    TIP3     H2       HT       0.417000       1.00800           0
     67392 TIP3     15004    TIP3     OH2      OT      -0.834000       15.9994           0
     67393 TIP3     15004    TIP3     H1       HT       0.417000       1.00800           0
     67394 TIP3     15004    TIP3     H2       HT       0.417000       1.00800           0
     67395 TIP3     15005    TIP3     OH2      OT      -0.834000       15.9994           0
     67396 TIP3     15005    TIP3     H1       HT       0.417000       1.00800           0
     67397 TIP3     15005    TIP3     H2       HT       0.417000       1.00800           0
     67398 TIP3     15006    TIP3     OH2      OT      -0.834000       15.9994           0
     67399 TIP3     15006    TIP3     H1       HT       0.417000       1.00800           0
     67400 TIP3     15006    TIP3     H2       HT       0.417000       1.00800           0
     67401 TIP3     15007    TIP3     OH2      OT      -0.834000       15.9994           0
     67402 TIP3     15007    TIP3     H1       HT       0.417000       1.00800           0
     67403 TIP3     15007    TIP3     H2       HT       0.417000       1.00800           0
     67404 TIP3     15008    TIP3     OH2      OT      -0.834000       15.9994           0
     67405 TIP3     15008    TIP3     H1       HT       0.417000       1.00800           0
     67406 TIP3     15008    TIP3     H2       HT       0.417000       1.00800           0
     67407 TIP3     15009    TIP3     OH2      OT      -0.834000       15.9994           0
     67408 TIP3     15009    TIP3     H1       HT       0.417000       1.00800           0
     67409 TIP3     15009    TIP3     H2       HT       0.417000       1.00800           0
     67410 TIP3     15010    TIP3     OH2      OT      -0.834000       15.9994           0
     67411 TIP3     15010    TIP3     H1       HT       0.417000       1.00800           0
     67412 TIP3     15010    TIP3     H2       HT       0.417000       1.00800           0
     67413 TIP3     15011    TIP3     OH2      OT      -0.834000       15.9994           0
     67414 TIP3     15011    TIP3     H1       HT       0.417000       1.00800           0
     67415 TIP3     15011    TIP3     H2       HT       0.417000       1.00800           0
     67416 TIP3     15012    TIP3     OH2      OT      -0.834000       15.9994           0
     67417 TIP3     15012    TIP3     H1       HT       0.417000       1.00800           0
     67418 TIP3     15012    TIP3     H2       HT       0.417000       1.00800           0
     67419 TIP3     15013    TIP3     OH2      OT      -0.834000       15.9994           0
     67420 TIP3     15013    TIP3     H1       HT       0.417000       1.00800           0
     67421 TIP3     15013    TIP3     H2       HT       0.417000       1.00800           0
     67422 TIP3     15014    TIP3     OH2      OT      -0.834000       15.9994           0
     67423 TIP3     15014    TIP3     H1       HT       0.417000       1.00800           0
     67424 TIP3     15014    TIP3     H2       HT       0.417000       1.00800           0
     67425 TIP3     15015    TIP3     OH2      OT      -0.834000       15.9994           0
     67426 TIP3     15015    TIP3     H1       HT       0.417000       1.00800           0
     67427 TIP3     15015    TIP3     H2       HT       0.417000       1.00800           0
     67428 TIP3     15016    TIP3     OH2      OT      -0.834000       15.9994           0
     67429 TIP3     15016    TIP3     H1       HT       0.417000       1.00800           0
     67430 TIP3     15016    TIP3     H2       HT       0.417000       1.00800           0
     67431 TIP3     15017    TIP3     OH2      OT      -0.834000       15.9994           0
     67432 TIP3     15017    TIP3     H1       HT       0.417000       1.00800           0
     67433 TIP3     15017    TIP3     H2       HT       0.417000       1.00800           0
     67434 TIP3     15018    TIP3     OH2      OT      -0.834000       15.9994           0
     67435 TIP3     15018    TIP3     H1       HT       0.417000       1.00800           0
     67436 TIP3     15018    TIP3     H2       HT       0.417000       1.00800           0
     67437 TIP3     15019    TIP3     OH2      OT      -0.834000       15.9994           0
     67438 TIP3     15019    TIP3     H1       HT       0.417000       1.00800           0
     67439 TIP3     15019    TIP3     H2       HT       0.417000       1.00800           0
     67440 TIP3     15020    TIP3     OH2      OT      -0.834000       15.9994           0
     67441 TIP3     15020    TIP3     H1       HT       0.417000       1.00800           0
     67442 TIP3     15020    TIP3     H2       HT       0.417000       1.00800           0
     67443 TIP3     15021    TIP3     OH2      OT      -0.834000       15.9994           0
     67444 TIP3     15021    TIP3     H1       HT       0.417000       1.00800           0
     67445 TIP3     15021    TIP3     H2       HT       0.417000       1.00800           0
     67446 TIP3     15022    TIP3     OH2      OT      -0.834000       15.9994           0
     67447 TIP3     15022    TIP3     H1       HT       0.417000       1.00800           0
     67448 TIP3     15022    TIP3     H2       HT       0.417000       1.00800           0
     67449 TIP3     15023    TIP3     OH2      OT      -0.834000       15.9994           0
     67450 TIP3     15023    TIP3     H1       HT       0.417000       1.00800           0
     67451 TIP3     15023    TIP3     H2       HT       0.417000       1.00800           0
     67452 TIP3     15024    TIP3     OH2      OT      -0.834000       15.9994           0
     67453 TIP3     15024    TIP3     H1       HT       0.417000       1.00800           0
     67454 TIP3     15024    TIP3     H2       HT       0.417000       1.00800           0
     67455 TIP3     15025    TIP3     OH2      OT      -0.834000       15.9994           0
     67456 TIP3     15025    TIP3     H1       HT       0.417000       1.00800           0
     67457 TIP3     15025    TIP3     H2       HT       0.417000       1.00800           0
     67458 TIP3     15026    TIP3     OH2      OT      -0.834000       15.9994           0
     67459 TIP3     15026    TIP3     H1       HT       0.417000       1.00800           0
     67460 TIP3     15026    TIP3     H2       HT       0.417000       1.00800           0
     67461 TIP3     15027    TIP3     OH2      OT      -0.834000       15.9994           0
     67462 TIP3     15027    TIP3     H1       HT       0.417000       1.00800           0
     67463 TIP3     15027    TIP3     H2       HT       0.417000       1.00800           0
     67464 TIP3     15028    TIP3     OH2      OT      -0.834000       15.9994           0
     67465 TIP3     15028    TIP3     H1       HT       0.417000       1.00800           0
     67466 TIP3     15028    TIP3     H2       HT       0.417000       1.00800           0
     67467 TIP3     15029    TIP3     OH2      OT      -0.834000       15.9994           0
     67468 TIP3     15029    TIP3     H1       HT       0.417000       1.00800           0
     67469 TIP3     15029    TIP3     H2       HT       0.417000       1.00800           0
     67470 TIP3     15030    TIP3     OH2      OT      -0.834000       15.9994           0
     67471 TIP3     15030    TIP3     H1       HT       0.417000       1.00800           0
     67472 TIP3     15030    TIP3     H2       HT       0.417000       1.00800           0
     67473 TIP3     15031    TIP3     OH2      OT      -0.834000       15.9994           0
     67474 TIP3     15031    TIP3     H1       HT       0.417000       1.00800           0
     67475 TIP3     15031    TIP3     H2       HT       0.417000       1.00800           0
     67476 TIP3     15032    TIP3     OH2      OT      -0.834000       15.9994           0
     67477 TIP3     15032    TIP3     H1       HT       0.417000       1.00800           0
     67478 TIP3     15032    TIP3     H2       HT       0.417000       1.00800           0
     67479 TIP3     15033    TIP3     OH2      OT      -0.834000       15.9994           0
     67480 TIP3     15033    TIP3     H1       HT       0.417000       1.00800           0
     67481 TIP3     15033    TIP3     H2       HT       0.417000       1.00800           0
     67482 TIP3     15034    TIP3     OH2      OT      -0.834000       15.9994           0
     67483 TIP3     15034    TIP3     H1       HT       0.417000       1.00800           0
     67484 TIP3     15034    TIP3     H2       HT       0.417000       1.00800           0
     67485 TIP3     15035    TIP3     OH2      OT      -0.834000       15.9994           0
     67486 TIP3     15035    TIP3     H1       HT       0.417000       1.00800           0
     67487 TIP3     15035    TIP3     H2       HT       0.417000       1.00800           0
     67488 TIP3     15036    TIP3     OH2      OT      -0.834000       15.9994           0
     67489 TIP3     15036    TIP3     H1       HT       0.417000       1.00800           0
     67490 TIP3     15036    TIP3     H2       HT       0.417000       1.00800           0
     67491 TIP3     15037    TIP3     OH2      OT      -0.834000       15.9994           0
     67492 TIP3     15037    TIP3     H1       HT       0.417000       1.00800           0
     67493 TIP3     15037    TIP3     H2       HT       0.417000       1.00800           0
     67494 TIP3     15038    TIP3     OH2      OT      -0.834000       15.9994           0
     67495 TIP3     15038    TIP3     H1       HT       0.417000       1.00800           0
     67496 TIP3     15038    TIP3     H2       HT       0.417000       1.00800           0
     67497 TIP3     15039    TIP3     OH2      OT      -0.834000       15.9994           0
     67498 TIP3     15039    TIP3     H1       HT       0.417000       1.00800           0
     67499 TIP3     15039    TIP3     H2       HT       0.417000       1.00800           0
     67500 TIP3     15040    TIP3     OH2      OT      -0.834000       15.9994           0
     67501 TIP3     15040    TIP3     H1       HT       0.417000       1.00800           0
     67502 TIP3     15040    TIP3     H2       HT       0.417000       1.00800           0
     67503 TIP3     15041    TIP3     OH2      OT      -0.834000       15.9994           0
     67504 TIP3     15041    TIP3     H1       HT       0.417000       1.00800           0
     67505 TIP3     15041    TIP3     H2       HT       0.417000       1.00800           0
     67506 TIP3     15042    TIP3     OH2      OT      -0.834000       15.9994           0
     67507 TIP3     15042    TIP3     H1       HT       0.417000       1.00800           0
     67508 TIP3     15042    TIP3     H2       HT       0.417000       1.00800           0
     67509 TIP3     15043    TIP3     OH2      OT      -0.834000       15.9994           0
     67510 TIP3     15043    TIP3     H1       HT       0.417000       1.00800           0
     67511 TIP3     15043    TIP3     H2       HT       0.417000       1.00800           0
     67512 TIP3     15044    TIP3     OH2      OT      -0.834000       15.9994           0
     67513 TIP3     15044    TIP3     H1       HT       0.417000       1.00800           0
     67514 TIP3     15044    TIP3     H2       HT       0.417000       1.00800           0
     67515 TIP3     15045    TIP3     OH2      OT      -0.834000       15.9994           0
     67516 TIP3     15045    TIP3     H1       HT       0.417000       1.00800           0
     67517 TIP3     15045    TIP3     H2       HT       0.417000       1.00800           0
     67518 TIP3     15046    TIP3     OH2      OT      -0.834000       15.9994           0
     67519 TIP3     15046    TIP3     H1       HT       0.417000       1.00800           0
     67520 TIP3     15046    TIP3     H2       HT       0.417000       1.00800           0
     67521 TIP3     15047    TIP3     OH2      OT      -0.834000       15.9994           0
     67522 TIP3     15047    TIP3     H1       HT       0.417000       1.00800           0
     67523 TIP3     15047    TIP3     H2       HT       0.417000       1.00800           0
     67524 TIP3     15048    TIP3     OH2      OT      -0.834000       15.9994           0
     67525 TIP3     15048    TIP3     H1       HT       0.417000       1.00800           0
     67526 TIP3     15048    TIP3     H2       HT       0.417000       1.00800           0
     67527 TIP3     15049    TIP3     OH2      OT      -0.834000       15.9994           0
     67528 TIP3     15049    TIP3     H1       HT       0.417000       1.00800           0
     67529 TIP3     15049    TIP3     H2       HT       0.417000       1.00800           0
     67530 TIP3     15050    TIP3     OH2      OT      -0.834000       15.9994           0
     67531 TIP3     15050    TIP3     H1       HT       0.417000       1.00800           0
     67532 TIP3     15050    TIP3     H2       HT       0.417000       1.00800           0
     67533 TIP3     15051    TIP3     OH2      OT      -0.834000       15.9994           0
     67534 TIP3     15051    TIP3     H1       HT       0.417000       1.00800           0
     67535 TIP3     15051    TIP3     H2       HT       0.417000       1.00800           0
     67536 TIP3     15052    TIP3     OH2      OT      -0.834000       15.9994           0
     67537 TIP3     15052    TIP3     H1       HT       0.417000       1.00800           0
     67538 TIP3     15052    TIP3     H2       HT       0.417000       1.00800           0
     67539 TIP3     15053    TIP3     OH2      OT      -0.834000       15.9994           0
     67540 TIP3     15053    TIP3     H1       HT       0.417000       1.00800           0
     67541 TIP3     15053    TIP3     H2       HT       0.417000       1.00800           0
     67542 TIP3     15054    TIP3     OH2      OT      -0.834000       15.9994           0
     67543 TIP3     15054    TIP3     H1       HT       0.417000       1.00800           0
     67544 TIP3     15054    TIP3     H2       HT       0.417000       1.00800           0
     67545 TIP3     15055    TIP3     OH2      OT      -0.834000       15.9994           0
     67546 TIP3     15055    TIP3     H1       HT       0.417000       1.00800           0
     67547 TIP3     15055    TIP3     H2       HT       0.417000       1.00800           0
     67548 TIP3     15056    TIP3     OH2      OT      -0.834000       15.9994           0
     67549 TIP3     15056    TIP3     H1       HT       0.417000       1.00800           0
     67550 TIP3     15056    TIP3     H2       HT       0.417000       1.00800           0
     67551 TIP3     15057    TIP3     OH2      OT      -0.834000       15.9994           0
     67552 TIP3     15057    TIP3     H1       HT       0.417000       1.00800           0
     67553 TIP3     15057    TIP3     H2       HT       0.417000       1.00800           0
     67554 TIP3     15058    TIP3     OH2      OT      -0.834000       15.9994           0
     67555 TIP3     15058    TIP3     H1       HT       0.417000       1.00800           0
     67556 TIP3     15058    TIP3     H2       HT       0.417000       1.00800           0
     67557 TIP3     15059    TIP3     OH2      OT      -0.834000       15.9994           0
     67558 TIP3     15059    TIP3     H1       HT       0.417000       1.00800           0
     67559 TIP3     15059    TIP3     H2       HT       0.417000       1.00800           0
     67560 TIP3     15060    TIP3     OH2      OT      -0.834000       15.9994           0
     67561 TIP3     15060    TIP3     H1       HT       0.417000       1.00800           0
     67562 TIP3     15060    TIP3     H2       HT       0.417000       1.00800           0
     67563 TIP3     15061    TIP3     OH2      OT      -0.834000       15.9994           0
     67564 TIP3     15061    TIP3     H1       HT       0.417000       1.00800           0
     67565 TIP3     15061    TIP3     H2       HT       0.417000       1.00800           0
     67566 TIP3     15062    TIP3     OH2      OT      -0.834000       15.9994           0
     67567 TIP3     15062    TIP3     H1       HT       0.417000       1.00800           0
     67568 TIP3     15062    TIP3     H2       HT       0.417000       1.00800           0
     67569 TIP3     15063    TIP3     OH2      OT      -0.834000       15.9994           0
     67570 TIP3     15063    TIP3     H1       HT       0.417000       1.00800           0
     67571 TIP3     15063    TIP3     H2       HT       0.417000       1.00800           0
     67572 TIP3     15064    TIP3     OH2      OT      -0.834000       15.9994           0
     67573 TIP3     15064    TIP3     H1       HT       0.417000       1.00800           0
     67574 TIP3     15064    TIP3     H2       HT       0.417000       1.00800           0
     67575 TIP3     15065    TIP3     OH2      OT      -0.834000       15.9994           0
     67576 TIP3     15065    TIP3     H1       HT       0.417000       1.00800           0
     67577 TIP3     15065    TIP3     H2       HT       0.417000       1.00800           0
     67578 TIP3     15066    TIP3     OH2      OT      -0.834000       15.9994           0
     67579 TIP3     15066    TIP3     H1       HT       0.417000       1.00800           0
     67580 TIP3     15066    TIP3     H2       HT       0.417000       1.00800           0
     67581 TIP3     15067    TIP3     OH2      OT      -0.834000       15.9994           0
     67582 TIP3     15067    TIP3     H1       HT       0.417000       1.00800           0
     67583 TIP3     15067    TIP3     H2       HT       0.417000       1.00800           0
     67584 TIP3     15068    TIP3     OH2      OT      -0.834000       15.9994           0
     67585 TIP3     15068    TIP3     H1       HT       0.417000       1.00800           0
     67586 TIP3     15068    TIP3     H2       HT       0.417000       1.00800           0
     67587 TIP3     15069    TIP3     OH2      OT      -0.834000       15.9994           0
     67588 TIP3     15069    TIP3     H1       HT       0.417000       1.00800           0
     67589 TIP3     15069    TIP3     H2       HT       0.417000       1.00800           0
     67590 TIP3     15070    TIP3     OH2      OT      -0.834000       15.9994           0
     67591 TIP3     15070    TIP3     H1       HT       0.417000       1.00800           0
     67592 TIP3     15070    TIP3     H2       HT       0.417000       1.00800           0
     67593 TIP3     15071    TIP3     OH2      OT      -0.834000       15.9994           0
     67594 TIP3     15071    TIP3     H1       HT       0.417000       1.00800           0
     67595 TIP3     15071    TIP3     H2       HT       0.417000       1.00800           0
     67596 TIP3     15072    TIP3     OH2      OT      -0.834000       15.9994           0
     67597 TIP3     15072    TIP3     H1       HT       0.417000       1.00800           0
     67598 TIP3     15072    TIP3     H2       HT       0.417000       1.00800           0
     67599 TIP3     15073    TIP3     OH2      OT      -0.834000       15.9994           0
     67600 TIP3     15073    TIP3     H1       HT       0.417000       1.00800           0
     67601 TIP3     15073    TIP3     H2       HT       0.417000       1.00800           0
     67602 TIP3     15074    TIP3     OH2      OT      -0.834000       15.9994           0
     67603 TIP3     15074    TIP3     H1       HT       0.417000       1.00800           0
     67604 TIP3     15074    TIP3     H2       HT       0.417000       1.00800           0
     67605 TIP3     15075    TIP3     OH2      OT      -0.834000       15.9994           0
     67606 TIP3     15075    TIP3     H1       HT       0.417000       1.00800           0
     67607 TIP3     15075    TIP3     H2       HT       0.417000       1.00800           0
     67608 TIP3     15076    TIP3     OH2      OT      -0.834000       15.9994           0
     67609 TIP3     15076    TIP3     H1       HT       0.417000       1.00800           0
     67610 TIP3     15076    TIP3     H2       HT       0.417000       1.00800           0
     67611 TIP3     15077    TIP3     OH2      OT      -0.834000       15.9994           0
     67612 TIP3     15077    TIP3     H1       HT       0.417000       1.00800           0
     67613 TIP3     15077    TIP3     H2       HT       0.417000       1.00800           0
     67614 TIP3     15078    TIP3     OH2      OT      -0.834000       15.9994           0
     67615 TIP3     15078    TIP3     H1       HT       0.417000       1.00800           0
     67616 TIP3     15078    TIP3     H2       HT       0.417000       1.00800           0
     67617 TIP3     15079    TIP3     OH2      OT      -0.834000       15.9994           0
     67618 TIP3     15079    TIP3     H1       HT       0.417000       1.00800           0
     67619 TIP3     15079    TIP3     H2       HT       0.417000       1.00800           0
     67620 TIP3     15080    TIP3     OH2      OT      -0.834000       15.9994           0
     67621 TIP3     15080    TIP3     H1       HT       0.417000       1.00800           0
     67622 TIP3     15080    TIP3     H2       HT       0.417000       1.00800           0
     67623 TIP3     15081    TIP3     OH2      OT      -0.834000       15.9994           0
     67624 TIP3     15081    TIP3     H1       HT       0.417000       1.00800           0
     67625 TIP3     15081    TIP3     H2       HT       0.417000       1.00800           0
     67626 TIP3     15082    TIP3     OH2      OT      -0.834000       15.9994           0
     67627 TIP3     15082    TIP3     H1       HT       0.417000       1.00800           0
     67628 TIP3     15082    TIP3     H2       HT       0.417000       1.00800           0
     67629 TIP3     15083    TIP3     OH2      OT      -0.834000       15.9994           0
     67630 TIP3     15083    TIP3     H1       HT       0.417000       1.00800           0
     67631 TIP3     15083    TIP3     H2       HT       0.417000       1.00800           0
     67632 TIP3     15084    TIP3     OH2      OT      -0.834000       15.9994           0
     67633 TIP3     15084    TIP3     H1       HT       0.417000       1.00800           0
     67634 TIP3     15084    TIP3     H2       HT       0.417000       1.00800           0
     67635 TIP3     15085    TIP3     OH2      OT      -0.834000       15.9994           0
     67636 TIP3     15085    TIP3     H1       HT       0.417000       1.00800           0
     67637 TIP3     15085    TIP3     H2       HT       0.417000       1.00800           0
     67638 TIP3     15086    TIP3     OH2      OT      -0.834000       15.9994           0
     67639 TIP3     15086    TIP3     H1       HT       0.417000       1.00800           0
     67640 TIP3     15086    TIP3     H2       HT       0.417000       1.00800           0
     67641 TIP3     15087    TIP3     OH2      OT      -0.834000       15.9994           0
     67642 TIP3     15087    TIP3     H1       HT       0.417000       1.00800           0
     67643 TIP3     15087    TIP3     H2       HT       0.417000       1.00800           0
     67644 TIP3     15088    TIP3     OH2      OT      -0.834000       15.9994           0
     67645 TIP3     15088    TIP3     H1       HT       0.417000       1.00800           0
     67646 TIP3     15088    TIP3     H2       HT       0.417000       1.00800           0
     67647 TIP3     15089    TIP3     OH2      OT      -0.834000       15.9994           0
     67648 TIP3     15089    TIP3     H1       HT       0.417000       1.00800           0
     67649 TIP3     15089    TIP3     H2       HT       0.417000       1.00800           0
     67650 TIP3     15090    TIP3     OH2      OT      -0.834000       15.9994           0
     67651 TIP3     15090    TIP3     H1       HT       0.417000       1.00800           0
     67652 TIP3     15090    TIP3     H2       HT       0.417000       1.00800           0
     67653 TIP3     15091    TIP3     OH2      OT      -0.834000       15.9994           0
     67654 TIP3     15091    TIP3     H1       HT       0.417000       1.00800           0
     67655 TIP3     15091    TIP3     H2       HT       0.417000       1.00800           0
     67656 TIP3     15092    TIP3     OH2      OT      -0.834000       15.9994           0
     67657 TIP3     15092    TIP3     H1       HT       0.417000       1.00800           0
     67658 TIP3     15092    TIP3     H2       HT       0.417000       1.00800           0
     67659 TIP3     15093    TIP3     OH2      OT      -0.834000       15.9994           0
     67660 TIP3     15093    TIP3     H1       HT       0.417000       1.00800           0
     67661 TIP3     15093    TIP3     H2       HT       0.417000       1.00800           0
     67662 TIP3     15094    TIP3     OH2      OT      -0.834000       15.9994           0
     67663 TIP3     15094    TIP3     H1       HT       0.417000       1.00800           0
     67664 TIP3     15094    TIP3     H2       HT       0.417000       1.00800           0
     67665 TIP3     15095    TIP3     OH2      OT      -0.834000       15.9994           0
     67666 TIP3     15095    TIP3     H1       HT       0.417000       1.00800           0
     67667 TIP3     15095    TIP3     H2       HT       0.417000       1.00800           0
     67668 TIP3     15096    TIP3     OH2      OT      -0.834000       15.9994           0
     67669 TIP3     15096    TIP3     H1       HT       0.417000       1.00800           0
     67670 TIP3     15096    TIP3     H2       HT       0.417000       1.00800           0
     67671 TIP3     15097    TIP3     OH2      OT      -0.834000       15.9994           0
     67672 TIP3     15097    TIP3     H1       HT       0.417000       1.00800           0
     67673 TIP3     15097    TIP3     H2       HT       0.417000       1.00800           0
     67674 TIP3     15098    TIP3     OH2      OT      -0.834000       15.9994           0
     67675 TIP3     15098    TIP3     H1       HT       0.417000       1.00800           0
     67676 TIP3     15098    TIP3     H2       HT       0.417000       1.00800           0
     67677 TIP3     15099    TIP3     OH2      OT      -0.834000       15.9994           0
     67678 TIP3     15099    TIP3     H1       HT       0.417000       1.00800           0
     67679 TIP3     15099    TIP3     H2       HT       0.417000       1.00800           0
     67680 TIP3     15100    TIP3     OH2      OT      -0.834000       15.9994           0
     67681 TIP3     15100    TIP3     H1       HT       0.417000       1.00800           0
     67682 TIP3     15100    TIP3     H2       HT       0.417000       1.00800           0
     67683 TIP3     15101    TIP3     OH2      OT      -0.834000       15.9994           0
     67684 TIP3     15101    TIP3     H1       HT       0.417000       1.00800           0
     67685 TIP3     15101    TIP3     H2       HT       0.417000       1.00800           0
     67686 TIP3     15102    TIP3     OH2      OT      -0.834000       15.9994           0
     67687 TIP3     15102    TIP3     H1       HT       0.417000       1.00800           0
     67688 TIP3     15102    TIP3     H2       HT       0.417000       1.00800           0
     67689 TIP3     15103    TIP3     OH2      OT      -0.834000       15.9994           0
     67690 TIP3     15103    TIP3     H1       HT       0.417000       1.00800           0
     67691 TIP3     15103    TIP3     H2       HT       0.417000       1.00800           0
     67692 TIP3     15104    TIP3     OH2      OT      -0.834000       15.9994           0
     67693 TIP3     15104    TIP3     H1       HT       0.417000       1.00800           0
     67694 TIP3     15104    TIP3     H2       HT       0.417000       1.00800           0
     67695 TIP3     15105    TIP3     OH2      OT      -0.834000       15.9994           0
     67696 TIP3     15105    TIP3     H1       HT       0.417000       1.00800           0
     67697 TIP3     15105    TIP3     H2       HT       0.417000       1.00800           0
     67698 TIP3     15106    TIP3     OH2      OT      -0.834000       15.9994           0
     67699 TIP3     15106    TIP3     H1       HT       0.417000       1.00800           0
     67700 TIP3     15106    TIP3     H2       HT       0.417000       1.00800           0
     67701 TIP3     15107    TIP3     OH2      OT      -0.834000       15.9994           0
     67702 TIP3     15107    TIP3     H1       HT       0.417000       1.00800           0
     67703 TIP3     15107    TIP3     H2       HT       0.417000       1.00800           0
     67704 TIP3     15108    TIP3     OH2      OT      -0.834000       15.9994           0
     67705 TIP3     15108    TIP3     H1       HT       0.417000       1.00800           0
     67706 TIP3     15108    TIP3     H2       HT       0.417000       1.00800           0
     67707 TIP3     15109    TIP3     OH2      OT      -0.834000       15.9994           0
     67708 TIP3     15109    TIP3     H1       HT       0.417000       1.00800           0
     67709 TIP3     15109    TIP3     H2       HT       0.417000       1.00800           0
     67710 TIP3     15110    TIP3     OH2      OT      -0.834000       15.9994           0
     67711 TIP3     15110    TIP3     H1       HT       0.417000       1.00800           0
     67712 TIP3     15110    TIP3     H2       HT       0.417000       1.00800           0
     67713 TIP3     15111    TIP3     OH2      OT      -0.834000       15.9994           0
     67714 TIP3     15111    TIP3     H1       HT       0.417000       1.00800           0
     67715 TIP3     15111    TIP3     H2       HT       0.417000       1.00800           0
     67716 TIP3     15112    TIP3     OH2      OT      -0.834000       15.9994           0
     67717 TIP3     15112    TIP3     H1       HT       0.417000       1.00800           0
     67718 TIP3     15112    TIP3     H2       HT       0.417000       1.00800           0
     67719 TIP3     15113    TIP3     OH2      OT      -0.834000       15.9994           0
     67720 TIP3     15113    TIP3     H1       HT       0.417000       1.00800           0
     67721 TIP3     15113    TIP3     H2       HT       0.417000       1.00800           0
     67722 TIP3     15114    TIP3     OH2      OT      -0.834000       15.9994           0
     67723 TIP3     15114    TIP3     H1       HT       0.417000       1.00800           0
     67724 TIP3     15114    TIP3     H2       HT       0.417000       1.00800           0
     67725 TIP3     15115    TIP3     OH2      OT      -0.834000       15.9994           0
     67726 TIP3     15115    TIP3     H1       HT       0.417000       1.00800           0
     67727 TIP3     15115    TIP3     H2       HT       0.417000       1.00800           0
     67728 TIP3     15116    TIP3     OH2      OT      -0.834000       15.9994           0
     67729 TIP3     15116    TIP3     H1       HT       0.417000       1.00800           0
     67730 TIP3     15116    TIP3     H2       HT       0.417000       1.00800           0
     67731 TIP3     15117    TIP3     OH2      OT      -0.834000       15.9994           0
     67732 TIP3     15117    TIP3     H1       HT       0.417000       1.00800           0
     67733 TIP3     15117    TIP3     H2       HT       0.417000       1.00800           0
     67734 TIP3     15118    TIP3     OH2      OT      -0.834000       15.9994           0
     67735 TIP3     15118    TIP3     H1       HT       0.417000       1.00800           0
     67736 TIP3     15118    TIP3     H2       HT       0.417000       1.00800           0
     67737 TIP3     15119    TIP3     OH2      OT      -0.834000       15.9994           0
     67738 TIP3     15119    TIP3     H1       HT       0.417000       1.00800           0
     67739 TIP3     15119    TIP3     H2       HT       0.417000       1.00800           0
     67740 TIP3     15120    TIP3     OH2      OT      -0.834000       15.9994           0
     67741 TIP3     15120    TIP3     H1       HT       0.417000       1.00800           0
     67742 TIP3     15120    TIP3     H2       HT       0.417000       1.00800           0
     67743 TIP3     15121    TIP3     OH2      OT      -0.834000       15.9994           0
     67744 TIP3     15121    TIP3     H1       HT       0.417000       1.00800           0
     67745 TIP3     15121    TIP3     H2       HT       0.417000       1.00800           0
     67746 TIP3     15122    TIP3     OH2      OT      -0.834000       15.9994           0
     67747 TIP3     15122    TIP3     H1       HT       0.417000       1.00800           0
     67748 TIP3     15122    TIP3     H2       HT       0.417000       1.00800           0
     67749 TIP3     15123    TIP3     OH2      OT      -0.834000       15.9994           0
     67750 TIP3     15123    TIP3     H1       HT       0.417000       1.00800           0
     67751 TIP3     15123    TIP3     H2       HT       0.417000       1.00800           0
     67752 TIP3     15124    TIP3     OH2      OT      -0.834000       15.9994           0
     67753 TIP3     15124    TIP3     H1       HT       0.417000       1.00800           0
     67754 TIP3     15124    TIP3     H2       HT       0.417000       1.00800           0
     67755 TIP3     15125    TIP3     OH2      OT      -0.834000       15.9994           0
     67756 TIP3     15125    TIP3     H1       HT       0.417000       1.00800           0
     67757 TIP3     15125    TIP3     H2       HT       0.417000       1.00800           0
     67758 TIP3     15126    TIP3     OH2      OT      -0.834000       15.9994           0
     67759 TIP3     15126    TIP3     H1       HT       0.417000       1.00800           0
     67760 TIP3     15126    TIP3     H2       HT       0.417000       1.00800           0
     67761 TIP3     15127    TIP3     OH2      OT      -0.834000       15.9994           0
     67762 TIP3     15127    TIP3     H1       HT       0.417000       1.00800           0
     67763 TIP3     15127    TIP3     H2       HT       0.417000       1.00800           0
     67764 TIP3     15128    TIP3     OH2      OT      -0.834000       15.9994           0
     67765 TIP3     15128    TIP3     H1       HT       0.417000       1.00800           0
     67766 TIP3     15128    TIP3     H2       HT       0.417000       1.00800           0
     67767 TIP3     15129    TIP3     OH2      OT      -0.834000       15.9994           0
     67768 TIP3     15129    TIP3     H1       HT       0.417000       1.00800           0
     67769 TIP3     15129    TIP3     H2       HT       0.417000       1.00800           0
     67770 TIP3     15130    TIP3     OH2      OT      -0.834000       15.9994           0
     67771 TIP3     15130    TIP3     H1       HT       0.417000       1.00800           0
     67772 TIP3     15130    TIP3     H2       HT       0.417000       1.00800           0
     67773 TIP3     15131    TIP3     OH2      OT      -0.834000       15.9994           0
     67774 TIP3     15131    TIP3     H1       HT       0.417000       1.00800           0
     67775 TIP3     15131    TIP3     H2       HT       0.417000       1.00800           0
     67776 TIP3     15132    TIP3     OH2      OT      -0.834000       15.9994           0
     67777 TIP3     15132    TIP3     H1       HT       0.417000       1.00800           0
     67778 TIP3     15132    TIP3     H2       HT       0.417000       1.00800           0
     67779 TIP3     15133    TIP3     OH2      OT      -0.834000       15.9994           0
     67780 TIP3     15133    TIP3     H1       HT       0.417000       1.00800           0
     67781 TIP3     15133    TIP3     H2       HT       0.417000       1.00800           0
     67782 TIP3     15134    TIP3     OH2      OT      -0.834000       15.9994           0
     67783 TIP3     15134    TIP3     H1       HT       0.417000       1.00800           0
     67784 TIP3     15134    TIP3     H2       HT       0.417000       1.00800           0
     67785 TIP3     15135    TIP3     OH2      OT      -0.834000       15.9994           0
     67786 TIP3     15135    TIP3     H1       HT       0.417000       1.00800           0
     67787 TIP3     15135    TIP3     H2       HT       0.417000       1.00800           0
     67788 TIP3     15136    TIP3     OH2      OT      -0.834000       15.9994           0
     67789 TIP3     15136    TIP3     H1       HT       0.417000       1.00800           0
     67790 TIP3     15136    TIP3     H2       HT       0.417000       1.00800           0
     67791 TIP3     15137    TIP3     OH2      OT      -0.834000       15.9994           0
     67792 TIP3     15137    TIP3     H1       HT       0.417000       1.00800           0
     67793 TIP3     15137    TIP3     H2       HT       0.417000       1.00800           0
     67794 TIP3     15138    TIP3     OH2      OT      -0.834000       15.9994           0
     67795 TIP3     15138    TIP3     H1       HT       0.417000       1.00800           0
     67796 TIP3     15138    TIP3     H2       HT       0.417000       1.00800           0
     67797 TIP3     15139    TIP3     OH2      OT      -0.834000       15.9994           0
     67798 TIP3     15139    TIP3     H1       HT       0.417000       1.00800           0
     67799 TIP3     15139    TIP3     H2       HT       0.417000       1.00800           0
     67800 TIP3     15140    TIP3     OH2      OT      -0.834000       15.9994           0
     67801 TIP3     15140    TIP3     H1       HT       0.417000       1.00800           0
     67802 TIP3     15140    TIP3     H2       HT       0.417000       1.00800           0
     67803 TIP3     15141    TIP3     OH2      OT      -0.834000       15.9994           0
     67804 TIP3     15141    TIP3     H1       HT       0.417000       1.00800           0
     67805 TIP3     15141    TIP3     H2       HT       0.417000       1.00800           0
     67806 TIP3     15142    TIP3     OH2      OT      -0.834000       15.9994           0
     67807 TIP3     15142    TIP3     H1       HT       0.417000       1.00800           0
     67808 TIP3     15142    TIP3     H2       HT       0.417000       1.00800           0
     67809 TIP3     15143    TIP3     OH2      OT      -0.834000       15.9994           0
     67810 TIP3     15143    TIP3     H1       HT       0.417000       1.00800           0
     67811 TIP3     15143    TIP3     H2       HT       0.417000       1.00800           0
     67812 TIP3     15144    TIP3     OH2      OT      -0.834000       15.9994           0
     67813 TIP3     15144    TIP3     H1       HT       0.417000       1.00800           0
     67814 TIP3     15144    TIP3     H2       HT       0.417000       1.00800           0
     67815 TIP3     15145    TIP3     OH2      OT      -0.834000       15.9994           0
     67816 TIP3     15145    TIP3     H1       HT       0.417000       1.00800           0
     67817 TIP3     15145    TIP3     H2       HT       0.417000       1.00800           0
     67818 TIP3     15146    TIP3     OH2      OT      -0.834000       15.9994           0
     67819 TIP3     15146    TIP3     H1       HT       0.417000       1.00800           0
     67820 TIP3     15146    TIP3     H2       HT       0.417000       1.00800           0
     67821 TIP3     15147    TIP3     OH2      OT      -0.834000       15.9994           0
     67822 TIP3     15147    TIP3     H1       HT       0.417000       1.00800           0
     67823 TIP3     15147    TIP3     H2       HT       0.417000       1.00800           0
     67824 TIP3     15148    TIP3     OH2      OT      -0.834000       15.9994           0
     67825 TIP3     15148    TIP3     H1       HT       0.417000       1.00800           0
     67826 TIP3     15148    TIP3     H2       HT       0.417000       1.00800           0
     67827 TIP3     15149    TIP3     OH2      OT      -0.834000       15.9994           0
     67828 TIP3     15149    TIP3     H1       HT       0.417000       1.00800           0
     67829 TIP3     15149    TIP3     H2       HT       0.417000       1.00800           0
     67830 TIP3     15150    TIP3     OH2      OT      -0.834000       15.9994           0
     67831 TIP3     15150    TIP3     H1       HT       0.417000       1.00800           0
     67832 TIP3     15150    TIP3     H2       HT       0.417000       1.00800           0
     67833 TIP3     15151    TIP3     OH2      OT      -0.834000       15.9994           0
     67834 TIP3     15151    TIP3     H1       HT       0.417000       1.00800           0
     67835 TIP3     15151    TIP3     H2       HT       0.417000       1.00800           0
     67836 TIP3     15152    TIP3     OH2      OT      -0.834000       15.9994           0
     67837 TIP3     15152    TIP3     H1       HT       0.417000       1.00800           0
     67838 TIP3     15152    TIP3     H2       HT       0.417000       1.00800           0
     67839 TIP3     15153    TIP3     OH2      OT      -0.834000       15.9994           0
     67840 TIP3     15153    TIP3     H1       HT       0.417000       1.00800           0
     67841 TIP3     15153    TIP3     H2       HT       0.417000       1.00800           0
     67842 TIP3     15154    TIP3     OH2      OT      -0.834000       15.9994           0
     67843 TIP3     15154    TIP3     H1       HT       0.417000       1.00800           0
     67844 TIP3     15154    TIP3     H2       HT       0.417000       1.00800           0
     67845 TIP3     15155    TIP3     OH2      OT      -0.834000       15.9994           0
     67846 TIP3     15155    TIP3     H1       HT       0.417000       1.00800           0
     67847 TIP3     15155    TIP3     H2       HT       0.417000       1.00800           0
     67848 TIP3     15156    TIP3     OH2      OT      -0.834000       15.9994           0
     67849 TIP3     15156    TIP3     H1       HT       0.417000       1.00800           0
     67850 TIP3     15156    TIP3     H2       HT       0.417000       1.00800           0
     67851 TIP3     15157    TIP3     OH2      OT      -0.834000       15.9994           0
     67852 TIP3     15157    TIP3     H1       HT       0.417000       1.00800           0
     67853 TIP3     15157    TIP3     H2       HT       0.417000       1.00800           0
     67854 TIP3     15158    TIP3     OH2      OT      -0.834000       15.9994           0
     67855 TIP3     15158    TIP3     H1       HT       0.417000       1.00800           0
     67856 TIP3     15158    TIP3     H2       HT       0.417000       1.00800           0
     67857 TIP3     15159    TIP3     OH2      OT      -0.834000       15.9994           0
     67858 TIP3     15159    TIP3     H1       HT       0.417000       1.00800           0
     67859 TIP3     15159    TIP3     H2       HT       0.417000       1.00800           0
     67860 TIP3     15160    TIP3     OH2      OT      -0.834000       15.9994           0
     67861 TIP3     15160    TIP3     H1       HT       0.417000       1.00800           0
     67862 TIP3     15160    TIP3     H2       HT       0.417000       1.00800           0
     67863 TIP3     15161    TIP3     OH2      OT      -0.834000       15.9994           0
     67864 TIP3     15161    TIP3     H1       HT       0.417000       1.00800           0
     67865 TIP3     15161    TIP3     H2       HT       0.417000       1.00800           0
     67866 TIP3     15162    TIP3     OH2      OT      -0.834000       15.9994           0
     67867 TIP3     15162    TIP3     H1       HT       0.417000       1.00800           0
     67868 TIP3     15162    TIP3     H2       HT       0.417000       1.00800           0
     67869 TIP3     15163    TIP3     OH2      OT      -0.834000       15.9994           0
     67870 TIP3     15163    TIP3     H1       HT       0.417000       1.00800           0
     67871 TIP3     15163    TIP3     H2       HT       0.417000       1.00800           0
     67872 TIP3     15164    TIP3     OH2      OT      -0.834000       15.9994           0
     67873 TIP3     15164    TIP3     H1       HT       0.417000       1.00800           0
     67874 TIP3     15164    TIP3     H2       HT       0.417000       1.00800           0
     67875 TIP3     15165    TIP3     OH2      OT      -0.834000       15.9994           0
     67876 TIP3     15165    TIP3     H1       HT       0.417000       1.00800           0
     67877 TIP3     15165    TIP3     H2       HT       0.417000       1.00800           0
     67878 TIP3     15166    TIP3     OH2      OT      -0.834000       15.9994           0
     67879 TIP3     15166    TIP3     H1       HT       0.417000       1.00800           0
     67880 TIP3     15166    TIP3     H2       HT       0.417000       1.00800           0
     67881 TIP3     15167    TIP3     OH2      OT      -0.834000       15.9994           0
     67882 TIP3     15167    TIP3     H1       HT       0.417000       1.00800           0
     67883 TIP3     15167    TIP3     H2       HT       0.417000       1.00800           0
     67884 TIP3     15168    TIP3     OH2      OT      -0.834000       15.9994           0
     67885 TIP3     15168    TIP3     H1       HT       0.417000       1.00800           0
     67886 TIP3     15168    TIP3     H2       HT       0.417000       1.00800           0
     67887 TIP3     15169    TIP3     OH2      OT      -0.834000       15.9994           0
     67888 TIP3     15169    TIP3     H1       HT       0.417000       1.00800           0
     67889 TIP3     15169    TIP3     H2       HT       0.417000       1.00800           0
     67890 TIP3     15170    TIP3     OH2      OT      -0.834000       15.9994           0
     67891 TIP3     15170    TIP3     H1       HT       0.417000       1.00800           0
     67892 TIP3     15170    TIP3     H2       HT       0.417000       1.00800           0
     67893 TIP3     15171    TIP3     OH2      OT      -0.834000       15.9994           0
     67894 TIP3     15171    TIP3     H1       HT       0.417000       1.00800           0
     67895 TIP3     15171    TIP3     H2       HT       0.417000       1.00800           0
     67896 TIP3     15172    TIP3     OH2      OT      -0.834000       15.9994           0
     67897 TIP3     15172    TIP3     H1       HT       0.417000       1.00800           0
     67898 TIP3     15172    TIP3     H2       HT       0.417000       1.00800           0
     67899 TIP3     15173    TIP3     OH2      OT      -0.834000       15.9994           0
     67900 TIP3     15173    TIP3     H1       HT       0.417000       1.00800           0
     67901 TIP3     15173    TIP3     H2       HT       0.417000       1.00800           0
     67902 TIP3     15174    TIP3     OH2      OT      -0.834000       15.9994           0
     67903 TIP3     15174    TIP3     H1       HT       0.417000       1.00800           0
     67904 TIP3     15174    TIP3     H2       HT       0.417000       1.00800           0
     67905 TIP3     15175    TIP3     OH2      OT      -0.834000       15.9994           0
     67906 TIP3     15175    TIP3     H1       HT       0.417000       1.00800           0
     67907 TIP3     15175    TIP3     H2       HT       0.417000       1.00800           0
     67908 TIP3     15176    TIP3     OH2      OT      -0.834000       15.9994           0
     67909 TIP3     15176    TIP3     H1       HT       0.417000       1.00800           0
     67910 TIP3     15176    TIP3     H2       HT       0.417000       1.00800           0
     67911 TIP3     15177    TIP3     OH2      OT      -0.834000       15.9994           0
     67912 TIP3     15177    TIP3     H1       HT       0.417000       1.00800           0
     67913 TIP3     15177    TIP3     H2       HT       0.417000       1.00800           0
     67914 TIP3     15178    TIP3     OH2      OT      -0.834000       15.9994           0
     67915 TIP3     15178    TIP3     H1       HT       0.417000       1.00800           0
     67916 TIP3     15178    TIP3     H2       HT       0.417000       1.00800           0
     67917 TIP3     15179    TIP3     OH2      OT      -0.834000       15.9994           0
     67918 TIP3     15179    TIP3     H1       HT       0.417000       1.00800           0
     67919 TIP3     15179    TIP3     H2       HT       0.417000       1.00800           0
     67920 TIP3     15180    TIP3     OH2      OT      -0.834000       15.9994           0
     67921 TIP3     15180    TIP3     H1       HT       0.417000       1.00800           0
     67922 TIP3     15180    TIP3     H2       HT       0.417000       1.00800           0
     67923 TIP3     15181    TIP3     OH2      OT      -0.834000       15.9994           0
     67924 TIP3     15181    TIP3     H1       HT       0.417000       1.00800           0
     67925 TIP3     15181    TIP3     H2       HT       0.417000       1.00800           0
     67926 TIP3     15182    TIP3     OH2      OT      -0.834000       15.9994           0
     67927 TIP3     15182    TIP3     H1       HT       0.417000       1.00800           0
     67928 TIP3     15182    TIP3     H2       HT       0.417000       1.00800           0
     67929 TIP3     15183    TIP3     OH2      OT      -0.834000       15.9994           0
     67930 TIP3     15183    TIP3     H1       HT       0.417000       1.00800           0
     67931 TIP3     15183    TIP3     H2       HT       0.417000       1.00800           0
     67932 TIP3     15184    TIP3     OH2      OT      -0.834000       15.9994           0
     67933 TIP3     15184    TIP3     H1       HT       0.417000       1.00800           0
     67934 TIP3     15184    TIP3     H2       HT       0.417000       1.00800           0
     67935 TIP3     15185    TIP3     OH2      OT      -0.834000       15.9994           0
     67936 TIP3     15185    TIP3     H1       HT       0.417000       1.00800           0
     67937 TIP3     15185    TIP3     H2       HT       0.417000       1.00800           0
     67938 TIP3     15186    TIP3     OH2      OT      -0.834000       15.9994           0
     67939 TIP3     15186    TIP3     H1       HT       0.417000       1.00800           0
     67940 TIP3     15186    TIP3     H2       HT       0.417000       1.00800           0
     67941 TIP3     15187    TIP3     OH2      OT      -0.834000       15.9994           0
     67942 TIP3     15187    TIP3     H1       HT       0.417000       1.00800           0
     67943 TIP3     15187    TIP3     H2       HT       0.417000       1.00800           0
     67944 TIP3     15188    TIP3     OH2      OT      -0.834000       15.9994           0
     67945 TIP3     15188    TIP3     H1       HT       0.417000       1.00800           0
     67946 TIP3     15188    TIP3     H2       HT       0.417000       1.00800           0
     67947 TIP3     15189    TIP3     OH2      OT      -0.834000       15.9994           0
     67948 TIP3     15189    TIP3     H1       HT       0.417000       1.00800           0
     67949 TIP3     15189    TIP3     H2       HT       0.417000       1.00800           0
     67950 TIP3     15190    TIP3     OH2      OT      -0.834000       15.9994           0
     67951 TIP3     15190    TIP3     H1       HT       0.417000       1.00800           0
     67952 TIP3     15190    TIP3     H2       HT       0.417000       1.00800           0
     67953 TIP3     15191    TIP3     OH2      OT      -0.834000       15.9994           0
     67954 TIP3     15191    TIP3     H1       HT       0.417000       1.00800           0
     67955 TIP3     15191    TIP3     H2       HT       0.417000       1.00800           0
     67956 TIP3     15192    TIP3     OH2      OT      -0.834000       15.9994           0
     67957 TIP3     15192    TIP3     H1       HT       0.417000       1.00800           0
     67958 TIP3     15192    TIP3     H2       HT       0.417000       1.00800           0
     67959 TIP3     15193    TIP3     OH2      OT      -0.834000       15.9994           0
     67960 TIP3     15193    TIP3     H1       HT       0.417000       1.00800           0
     67961 TIP3     15193    TIP3     H2       HT       0.417000       1.00800           0
     67962 TIP3     15194    TIP3     OH2      OT      -0.834000       15.9994           0
     67963 TIP3     15194    TIP3     H1       HT       0.417000       1.00800           0
     67964 TIP3     15194    TIP3     H2       HT       0.417000       1.00800           0
     67965 TIP3     15195    TIP3     OH2      OT      -0.834000       15.9994           0
     67966 TIP3     15195    TIP3     H1       HT       0.417000       1.00800           0
     67967 TIP3     15195    TIP3     H2       HT       0.417000       1.00800           0
     67968 TIP3     15196    TIP3     OH2      OT      -0.834000       15.9994           0
     67969 TIP3     15196    TIP3     H1       HT       0.417000       1.00800           0
     67970 TIP3     15196    TIP3     H2       HT       0.417000       1.00800           0
     67971 TIP3     15197    TIP3     OH2      OT      -0.834000       15.9994           0
     67972 TIP3     15197    TIP3     H1       HT       0.417000       1.00800           0
     67973 TIP3     15197    TIP3     H2       HT       0.417000       1.00800           0
     67974 TIP3     15198    TIP3     OH2      OT      -0.834000       15.9994           0
     67975 TIP3     15198    TIP3     H1       HT       0.417000       1.00800           0
     67976 TIP3     15198    TIP3     H2       HT       0.417000       1.00800           0
     67977 TIP3     15199    TIP3     OH2      OT      -0.834000       15.9994           0
     67978 TIP3     15199    TIP3     H1       HT       0.417000       1.00800           0
     67979 TIP3     15199    TIP3     H2       HT       0.417000       1.00800           0
     67980 TIP3     15200    TIP3     OH2      OT      -0.834000       15.9994           0
     67981 TIP3     15200    TIP3     H1       HT       0.417000       1.00800           0
     67982 TIP3     15200    TIP3     H2       HT       0.417000       1.00800           0
     67983 TIP3     15201    TIP3     OH2      OT      -0.834000       15.9994           0
     67984 TIP3     15201    TIP3     H1       HT       0.417000       1.00800           0
     67985 TIP3     15201    TIP3     H2       HT       0.417000       1.00800           0
     67986 TIP3     15202    TIP3     OH2      OT      -0.834000       15.9994           0
     67987 TIP3     15202    TIP3     H1       HT       0.417000       1.00800           0
     67988 TIP3     15202    TIP3     H2       HT       0.417000       1.00800           0
     67989 TIP3     15203    TIP3     OH2      OT      -0.834000       15.9994           0
     67990 TIP3     15203    TIP3     H1       HT       0.417000       1.00800           0
     67991 TIP3     15203    TIP3     H2       HT       0.417000       1.00800           0
     67992 TIP3     15204    TIP3     OH2      OT      -0.834000       15.9994           0
     67993 TIP3     15204    TIP3     H1       HT       0.417000       1.00800           0
     67994 TIP3     15204    TIP3     H2       HT       0.417000       1.00800           0
     67995 TIP3     15205    TIP3     OH2      OT      -0.834000       15.9994           0
     67996 TIP3     15205    TIP3     H1       HT       0.417000       1.00800           0
     67997 TIP3     15205    TIP3     H2       HT       0.417000       1.00800           0
     67998 TIP3     15206    TIP3     OH2      OT      -0.834000       15.9994           0
     67999 TIP3     15206    TIP3     H1       HT       0.417000       1.00800           0
     68000 TIP3     15206    TIP3     H2       HT       0.417000       1.00800           0
     68001 TIP3     15207    TIP3     OH2      OT      -0.834000       15.9994           0
     68002 TIP3     15207    TIP3     H1       HT       0.417000       1.00800           0
     68003 TIP3     15207    TIP3     H2       HT       0.417000       1.00800           0
     68004 TIP3     15208    TIP3     OH2      OT      -0.834000       15.9994           0
     68005 TIP3     15208    TIP3     H1       HT       0.417000       1.00800           0
     68006 TIP3     15208    TIP3     H2       HT       0.417000       1.00800           0
     68007 TIP3     15209    TIP3     OH2      OT      -0.834000       15.9994           0
     68008 TIP3     15209    TIP3     H1       HT       0.417000       1.00800           0
     68009 TIP3     15209    TIP3     H2       HT       0.417000       1.00800           0
     68010 TIP3     15210    TIP3     OH2      OT      -0.834000       15.9994           0
     68011 TIP3     15210    TIP3     H1       HT       0.417000       1.00800           0
     68012 TIP3     15210    TIP3     H2       HT       0.417000       1.00800           0
     68013 TIP3     15211    TIP3     OH2      OT      -0.834000       15.9994           0
     68014 TIP3     15211    TIP3     H1       HT       0.417000       1.00800           0
     68015 TIP3     15211    TIP3     H2       HT       0.417000       1.00800           0
     68016 TIP3     15212    TIP3     OH2      OT      -0.834000       15.9994           0
     68017 TIP3     15212    TIP3     H1       HT       0.417000       1.00800           0
     68018 TIP3     15212    TIP3     H2       HT       0.417000       1.00800           0
     68019 TIP3     15213    TIP3     OH2      OT      -0.834000       15.9994           0
     68020 TIP3     15213    TIP3     H1       HT       0.417000       1.00800           0
     68021 TIP3     15213    TIP3     H2       HT       0.417000       1.00800           0
     68022 TIP3     15214    TIP3     OH2      OT      -0.834000       15.9994           0
     68023 TIP3     15214    TIP3     H1       HT       0.417000       1.00800           0
     68024 TIP3     15214    TIP3     H2       HT       0.417000       1.00800           0
     68025 TIP3     15215    TIP3     OH2      OT      -0.834000       15.9994           0
     68026 TIP3     15215    TIP3     H1       HT       0.417000       1.00800           0
     68027 TIP3     15215    TIP3     H2       HT       0.417000       1.00800           0
     68028 TIP3     15216    TIP3     OH2      OT      -0.834000       15.9994           0
     68029 TIP3     15216    TIP3     H1       HT       0.417000       1.00800           0
     68030 TIP3     15216    TIP3     H2       HT       0.417000       1.00800           0
     68031 TIP3     15217    TIP3     OH2      OT      -0.834000       15.9994           0
     68032 TIP3     15217    TIP3     H1       HT       0.417000       1.00800           0
     68033 TIP3     15217    TIP3     H2       HT       0.417000       1.00800           0
     68034 TIP3     15218    TIP3     OH2      OT      -0.834000       15.9994           0
     68035 TIP3     15218    TIP3     H1       HT       0.417000       1.00800           0
     68036 TIP3     15218    TIP3     H2       HT       0.417000       1.00800           0
     68037 TIP3     15219    TIP3     OH2      OT      -0.834000       15.9994           0
     68038 TIP3     15219    TIP3     H1       HT       0.417000       1.00800           0
     68039 TIP3     15219    TIP3     H2       HT       0.417000       1.00800           0
     68040 TIP3     15220    TIP3     OH2      OT      -0.834000       15.9994           0
     68041 TIP3     15220    TIP3     H1       HT       0.417000       1.00800           0
     68042 TIP3     15220    TIP3     H2       HT       0.417000       1.00800           0
     68043 TIP3     15221    TIP3     OH2      OT      -0.834000       15.9994           0
     68044 TIP3     15221    TIP3     H1       HT       0.417000       1.00800           0
     68045 TIP3     15221    TIP3     H2       HT       0.417000       1.00800           0
     68046 TIP3     15222    TIP3     OH2      OT      -0.834000       15.9994           0
     68047 TIP3     15222    TIP3     H1       HT       0.417000       1.00800           0
     68048 TIP3     15222    TIP3     H2       HT       0.417000       1.00800           0
     68049 TIP3     15223    TIP3     OH2      OT      -0.834000       15.9994           0
     68050 TIP3     15223    TIP3     H1       HT       0.417000       1.00800           0
     68051 TIP3     15223    TIP3     H2       HT       0.417000       1.00800           0
     68052 TIP3     15224    TIP3     OH2      OT      -0.834000       15.9994           0
     68053 TIP3     15224    TIP3     H1       HT       0.417000       1.00800           0
     68054 TIP3     15224    TIP3     H2       HT       0.417000       1.00800           0
     68055 TIP3     15225    TIP3     OH2      OT      -0.834000       15.9994           0
     68056 TIP3     15225    TIP3     H1       HT       0.417000       1.00800           0
     68057 TIP3     15225    TIP3     H2       HT       0.417000       1.00800           0
     68058 TIP3     15226    TIP3     OH2      OT      -0.834000       15.9994           0
     68059 TIP3     15226    TIP3     H1       HT       0.417000       1.00800           0
     68060 TIP3     15226    TIP3     H2       HT       0.417000       1.00800           0
     68061 TIP3     15227    TIP3     OH2      OT      -0.834000       15.9994           0
     68062 TIP3     15227    TIP3     H1       HT       0.417000       1.00800           0
     68063 TIP3     15227    TIP3     H2       HT       0.417000       1.00800           0
     68064 TIP3     15228    TIP3     OH2      OT      -0.834000       15.9994           0
     68065 TIP3     15228    TIP3     H1       HT       0.417000       1.00800           0
     68066 TIP3     15228    TIP3     H2       HT       0.417000       1.00800           0
     68067 TIP3     15229    TIP3     OH2      OT      -0.834000       15.9994           0
     68068 TIP3     15229    TIP3     H1       HT       0.417000       1.00800           0
     68069 TIP3     15229    TIP3     H2       HT       0.417000       1.00800           0
     68070 TIP3     15230    TIP3     OH2      OT      -0.834000       15.9994           0
     68071 TIP3     15230    TIP3     H1       HT       0.417000       1.00800           0
     68072 TIP3     15230    TIP3     H2       HT       0.417000       1.00800           0
     68073 TIP3     15231    TIP3     OH2      OT      -0.834000       15.9994           0
     68074 TIP3     15231    TIP3     H1       HT       0.417000       1.00800           0
     68075 TIP3     15231    TIP3     H2       HT       0.417000       1.00800           0
     68076 TIP3     15232    TIP3     OH2      OT      -0.834000       15.9994           0
     68077 TIP3     15232    TIP3     H1       HT       0.417000       1.00800           0
     68078 TIP3     15232    TIP3     H2       HT       0.417000       1.00800           0
     68079 TIP3     15233    TIP3     OH2      OT      -0.834000       15.9994           0
     68080 TIP3     15233    TIP3     H1       HT       0.417000       1.00800           0
     68081 TIP3     15233    TIP3     H2       HT       0.417000       1.00800           0
     68082 TIP3     15234    TIP3     OH2      OT      -0.834000       15.9994           0
     68083 TIP3     15234    TIP3     H1       HT       0.417000       1.00800           0
     68084 TIP3     15234    TIP3     H2       HT       0.417000       1.00800           0
     68085 TIP3     15235    TIP3     OH2      OT      -0.834000       15.9994           0
     68086 TIP3     15235    TIP3     H1       HT       0.417000       1.00800           0
     68087 TIP3     15235    TIP3     H2       HT       0.417000       1.00800           0
     68088 TIP3     15236    TIP3     OH2      OT      -0.834000       15.9994           0
     68089 TIP3     15236    TIP3     H1       HT       0.417000       1.00800           0
     68090 TIP3     15236    TIP3     H2       HT       0.417000       1.00800           0
     68091 TIP3     15237    TIP3     OH2      OT      -0.834000       15.9994           0
     68092 TIP3     15237    TIP3     H1       HT       0.417000       1.00800           0
     68093 TIP3     15237    TIP3     H2       HT       0.417000       1.00800           0
     68094 TIP3     15238    TIP3     OH2      OT      -0.834000       15.9994           0
     68095 TIP3     15238    TIP3     H1       HT       0.417000       1.00800           0
     68096 TIP3     15238    TIP3     H2       HT       0.417000       1.00800           0
     68097 TIP3     15239    TIP3     OH2      OT      -0.834000       15.9994           0
     68098 TIP3     15239    TIP3     H1       HT       0.417000       1.00800           0
     68099 TIP3     15239    TIP3     H2       HT       0.417000       1.00800           0
     68100 TIP3     15240    TIP3     OH2      OT      -0.834000       15.9994           0
     68101 TIP3     15240    TIP3     H1       HT       0.417000       1.00800           0
     68102 TIP3     15240    TIP3     H2       HT       0.417000       1.00800           0
     68103 TIP3     15241    TIP3     OH2      OT      -0.834000       15.9994           0
     68104 TIP3     15241    TIP3     H1       HT       0.417000       1.00800           0
     68105 TIP3     15241    TIP3     H2       HT       0.417000       1.00800           0
     68106 TIP3     15242    TIP3     OH2      OT      -0.834000       15.9994           0
     68107 TIP3     15242    TIP3     H1       HT       0.417000       1.00800           0
     68108 TIP3     15242    TIP3     H2       HT       0.417000       1.00800           0
     68109 TIP3     15243    TIP3     OH2      OT      -0.834000       15.9994           0
     68110 TIP3     15243    TIP3     H1       HT       0.417000       1.00800           0
     68111 TIP3     15243    TIP3     H2       HT       0.417000       1.00800           0
     68112 TIP3     15244    TIP3     OH2      OT      -0.834000       15.9994           0
     68113 TIP3     15244    TIP3     H1       HT       0.417000       1.00800           0
     68114 TIP3     15244    TIP3     H2       HT       0.417000       1.00800           0
     68115 TIP3     15245    TIP3     OH2      OT      -0.834000       15.9994           0
     68116 TIP3     15245    TIP3     H1       HT       0.417000       1.00800           0
     68117 TIP3     15245    TIP3     H2       HT       0.417000       1.00800           0
     68118 TIP3     15246    TIP3     OH2      OT      -0.834000       15.9994           0
     68119 TIP3     15246    TIP3     H1       HT       0.417000       1.00800           0
     68120 TIP3     15246    TIP3     H2       HT       0.417000       1.00800           0
     68121 TIP3     15247    TIP3     OH2      OT      -0.834000       15.9994           0
     68122 TIP3     15247    TIP3     H1       HT       0.417000       1.00800           0
     68123 TIP3     15247    TIP3     H2       HT       0.417000       1.00800           0
     68124 TIP3     15248    TIP3     OH2      OT      -0.834000       15.9994           0
     68125 TIP3     15248    TIP3     H1       HT       0.417000       1.00800           0
     68126 TIP3     15248    TIP3     H2       HT       0.417000       1.00800           0
     68127 TIP3     15249    TIP3     OH2      OT      -0.834000       15.9994           0
     68128 TIP3     15249    TIP3     H1       HT       0.417000       1.00800           0
     68129 TIP3     15249    TIP3     H2       HT       0.417000       1.00800           0
     68130 TIP3     15250    TIP3     OH2      OT      -0.834000       15.9994           0
     68131 TIP3     15250    TIP3     H1       HT       0.417000       1.00800           0
     68132 TIP3     15250    TIP3     H2       HT       0.417000       1.00800           0
     68133 TIP3     15251    TIP3     OH2      OT      -0.834000       15.9994           0
     68134 TIP3     15251    TIP3     H1       HT       0.417000       1.00800           0
     68135 TIP3     15251    TIP3     H2       HT       0.417000       1.00800           0
     68136 TIP3     15252    TIP3     OH2      OT      -0.834000       15.9994           0
     68137 TIP3     15252    TIP3     H1       HT       0.417000       1.00800           0
     68138 TIP3     15252    TIP3     H2       HT       0.417000       1.00800           0
     68139 TIP3     15253    TIP3     OH2      OT      -0.834000       15.9994           0
     68140 TIP3     15253    TIP3     H1       HT       0.417000       1.00800           0
     68141 TIP3     15253    TIP3     H2       HT       0.417000       1.00800           0
     68142 TIP3     15254    TIP3     OH2      OT      -0.834000       15.9994           0
     68143 TIP3     15254    TIP3     H1       HT       0.417000       1.00800           0
     68144 TIP3     15254    TIP3     H2       HT       0.417000       1.00800           0
     68145 TIP3     15255    TIP3     OH2      OT      -0.834000       15.9994           0
     68146 TIP3     15255    TIP3     H1       HT       0.417000       1.00800           0
     68147 TIP3     15255    TIP3     H2       HT       0.417000       1.00800           0
     68148 TIP3     15256    TIP3     OH2      OT      -0.834000       15.9994           0
     68149 TIP3     15256    TIP3     H1       HT       0.417000       1.00800           0
     68150 TIP3     15256    TIP3     H2       HT       0.417000       1.00800           0
     68151 TIP3     15257    TIP3     OH2      OT      -0.834000       15.9994           0
     68152 TIP3     15257    TIP3     H1       HT       0.417000       1.00800           0
     68153 TIP3     15257    TIP3     H2       HT       0.417000       1.00800           0
     68154 TIP3     15258    TIP3     OH2      OT      -0.834000       15.9994           0
     68155 TIP3     15258    TIP3     H1       HT       0.417000       1.00800           0
     68156 TIP3     15258    TIP3     H2       HT       0.417000       1.00800           0
     68157 TIP3     15259    TIP3     OH2      OT      -0.834000       15.9994           0
     68158 TIP3     15259    TIP3     H1       HT       0.417000       1.00800           0
     68159 TIP3     15259    TIP3     H2       HT       0.417000       1.00800           0
     68160 TIP3     15260    TIP3     OH2      OT      -0.834000       15.9994           0
     68161 TIP3     15260    TIP3     H1       HT       0.417000       1.00800           0
     68162 TIP3     15260    TIP3     H2       HT       0.417000       1.00800           0
     68163 TIP3     15261    TIP3     OH2      OT      -0.834000       15.9994           0
     68164 TIP3     15261    TIP3     H1       HT       0.417000       1.00800           0
     68165 TIP3     15261    TIP3     H2       HT       0.417000       1.00800           0
     68166 TIP3     15262    TIP3     OH2      OT      -0.834000       15.9994           0
     68167 TIP3     15262    TIP3     H1       HT       0.417000       1.00800           0
     68168 TIP3     15262    TIP3     H2       HT       0.417000       1.00800           0
     68169 TIP3     15263    TIP3     OH2      OT      -0.834000       15.9994           0
     68170 TIP3     15263    TIP3     H1       HT       0.417000       1.00800           0
     68171 TIP3     15263    TIP3     H2       HT       0.417000       1.00800           0
     68172 TIP3     15264    TIP3     OH2      OT      -0.834000       15.9994           0
     68173 TIP3     15264    TIP3     H1       HT       0.417000       1.00800           0
     68174 TIP3     15264    TIP3     H2       HT       0.417000       1.00800           0
     68175 TIP3     15265    TIP3     OH2      OT      -0.834000       15.9994           0
     68176 TIP3     15265    TIP3     H1       HT       0.417000       1.00800           0
     68177 TIP3     15265    TIP3     H2       HT       0.417000       1.00800           0
     68178 TIP3     15266    TIP3     OH2      OT      -0.834000       15.9994           0
     68179 TIP3     15266    TIP3     H1       HT       0.417000       1.00800           0
     68180 TIP3     15266    TIP3     H2       HT       0.417000       1.00800           0
     68181 TIP3     15267    TIP3     OH2      OT      -0.834000       15.9994           0
     68182 TIP3     15267    TIP3     H1       HT       0.417000       1.00800           0
     68183 TIP3     15267    TIP3     H2       HT       0.417000       1.00800           0
     68184 TIP3     15268    TIP3     OH2      OT      -0.834000       15.9994           0
     68185 TIP3     15268    TIP3     H1       HT       0.417000       1.00800           0
     68186 TIP3     15268    TIP3     H2       HT       0.417000       1.00800           0
     68187 TIP3     15269    TIP3     OH2      OT      -0.834000       15.9994           0
     68188 TIP3     15269    TIP3     H1       HT       0.417000       1.00800           0
     68189 TIP3     15269    TIP3     H2       HT       0.417000       1.00800           0
     68190 TIP3     15270    TIP3     OH2      OT      -0.834000       15.9994           0
     68191 TIP3     15270    TIP3     H1       HT       0.417000       1.00800           0
     68192 TIP3     15270    TIP3     H2       HT       0.417000       1.00800           0
     68193 TIP3     15271    TIP3     OH2      OT      -0.834000       15.9994           0
     68194 TIP3     15271    TIP3     H1       HT       0.417000       1.00800           0
     68195 TIP3     15271    TIP3     H2       HT       0.417000       1.00800           0
     68196 TIP3     15272    TIP3     OH2      OT      -0.834000       15.9994           0
     68197 TIP3     15272    TIP3     H1       HT       0.417000       1.00800           0
     68198 TIP3     15272    TIP3     H2       HT       0.417000       1.00800           0
     68199 TIP3     15273    TIP3     OH2      OT      -0.834000       15.9994           0
     68200 TIP3     15273    TIP3     H1       HT       0.417000       1.00800           0
     68201 TIP3     15273    TIP3     H2       HT       0.417000       1.00800           0
     68202 TIP3     15274    TIP3     OH2      OT      -0.834000       15.9994           0
     68203 TIP3     15274    TIP3     H1       HT       0.417000       1.00800           0
     68204 TIP3     15274    TIP3     H2       HT       0.417000       1.00800           0
     68205 TIP3     15275    TIP3     OH2      OT      -0.834000       15.9994           0
     68206 TIP3     15275    TIP3     H1       HT       0.417000       1.00800           0
     68207 TIP3     15275    TIP3     H2       HT       0.417000       1.00800           0
     68208 TIP3     15276    TIP3     OH2      OT      -0.834000       15.9994           0
     68209 TIP3     15276    TIP3     H1       HT       0.417000       1.00800           0
     68210 TIP3     15276    TIP3     H2       HT       0.417000       1.00800           0
     68211 TIP3     15277    TIP3     OH2      OT      -0.834000       15.9994           0
     68212 TIP3     15277    TIP3     H1       HT       0.417000       1.00800           0
     68213 TIP3     15277    TIP3     H2       HT       0.417000       1.00800           0
     68214 TIP3     15278    TIP3     OH2      OT      -0.834000       15.9994           0
     68215 TIP3     15278    TIP3     H1       HT       0.417000       1.00800           0
     68216 TIP3     15278    TIP3     H2       HT       0.417000       1.00800           0
     68217 TIP3     15279    TIP3     OH2      OT      -0.834000       15.9994           0
     68218 TIP3     15279    TIP3     H1       HT       0.417000       1.00800           0
     68219 TIP3     15279    TIP3     H2       HT       0.417000       1.00800           0
     68220 TIP3     15280    TIP3     OH2      OT      -0.834000       15.9994           0
     68221 TIP3     15280    TIP3     H1       HT       0.417000       1.00800           0
     68222 TIP3     15280    TIP3     H2       HT       0.417000       1.00800           0
     68223 TIP3     15281    TIP3     OH2      OT      -0.834000       15.9994           0
     68224 TIP3     15281    TIP3     H1       HT       0.417000       1.00800           0
     68225 TIP3     15281    TIP3     H2       HT       0.417000       1.00800           0
     68226 TIP3     15282    TIP3     OH2      OT      -0.834000       15.9994           0
     68227 TIP3     15282    TIP3     H1       HT       0.417000       1.00800           0
     68228 TIP3     15282    TIP3     H2       HT       0.417000       1.00800           0
     68229 TIP3     15283    TIP3     OH2      OT      -0.834000       15.9994           0
     68230 TIP3     15283    TIP3     H1       HT       0.417000       1.00800           0
     68231 TIP3     15283    TIP3     H2       HT       0.417000       1.00800           0
     68232 TIP3     15284    TIP3     OH2      OT      -0.834000       15.9994           0
     68233 TIP3     15284    TIP3     H1       HT       0.417000       1.00800           0
     68234 TIP3     15284    TIP3     H2       HT       0.417000       1.00800           0
     68235 TIP3     15285    TIP3     OH2      OT      -0.834000       15.9994           0
     68236 TIP3     15285    TIP3     H1       HT       0.417000       1.00800           0
     68237 TIP3     15285    TIP3     H2       HT       0.417000       1.00800           0
     68238 TIP3     15286    TIP3     OH2      OT      -0.834000       15.9994           0
     68239 TIP3     15286    TIP3     H1       HT       0.417000       1.00800           0
     68240 TIP3     15286    TIP3     H2       HT       0.417000       1.00800           0
     68241 TIP3     15287    TIP3     OH2      OT      -0.834000       15.9994           0
     68242 TIP3     15287    TIP3     H1       HT       0.417000       1.00800           0
     68243 TIP3     15287    TIP3     H2       HT       0.417000       1.00800           0
     68244 TIP3     15288    TIP3     OH2      OT      -0.834000       15.9994           0
     68245 TIP3     15288    TIP3     H1       HT       0.417000       1.00800           0
     68246 TIP3     15288    TIP3     H2       HT       0.417000       1.00800           0
     68247 TIP3     15289    TIP3     OH2      OT      -0.834000       15.9994           0
     68248 TIP3     15289    TIP3     H1       HT       0.417000       1.00800           0
     68249 TIP3     15289    TIP3     H2       HT       0.417000       1.00800           0
     68250 TIP3     15290    TIP3     OH2      OT      -0.834000       15.9994           0
     68251 TIP3     15290    TIP3     H1       HT       0.417000       1.00800           0
     68252 TIP3     15290    TIP3     H2       HT       0.417000       1.00800           0
     68253 TIP3     15291    TIP3     OH2      OT      -0.834000       15.9994           0
     68254 TIP3     15291    TIP3     H1       HT       0.417000       1.00800           0
     68255 TIP3     15291    TIP3     H2       HT       0.417000       1.00800           0
     68256 TIP3     15292    TIP3     OH2      OT      -0.834000       15.9994           0
     68257 TIP3     15292    TIP3     H1       HT       0.417000       1.00800           0
     68258 TIP3     15292    TIP3     H2       HT       0.417000       1.00800           0
     68259 TIP3     15293    TIP3     OH2      OT      -0.834000       15.9994           0
     68260 TIP3     15293    TIP3     H1       HT       0.417000       1.00800           0
     68261 TIP3     15293    TIP3     H2       HT       0.417000       1.00800           0
     68262 TIP3     15294    TIP3     OH2      OT      -0.834000       15.9994           0
     68263 TIP3     15294    TIP3     H1       HT       0.417000       1.00800           0
     68264 TIP3     15294    TIP3     H2       HT       0.417000       1.00800           0
     68265 TIP3     15295    TIP3     OH2      OT      -0.834000       15.9994           0
     68266 TIP3     15295    TIP3     H1       HT       0.417000       1.00800           0
     68267 TIP3     15295    TIP3     H2       HT       0.417000       1.00800           0
     68268 TIP3     15296    TIP3     OH2      OT      -0.834000       15.9994           0
     68269 TIP3     15296    TIP3     H1       HT       0.417000       1.00800           0
     68270 TIP3     15296    TIP3     H2       HT       0.417000       1.00800           0
     68271 TIP3     15297    TIP3     OH2      OT      -0.834000       15.9994           0
     68272 TIP3     15297    TIP3     H1       HT       0.417000       1.00800           0
     68273 TIP3     15297    TIP3     H2       HT       0.417000       1.00800           0
     68274 TIP3     15298    TIP3     OH2      OT      -0.834000       15.9994           0
     68275 TIP3     15298    TIP3     H1       HT       0.417000       1.00800           0
     68276 TIP3     15298    TIP3     H2       HT       0.417000       1.00800           0
     68277 TIP3     15299    TIP3     OH2      OT      -0.834000       15.9994           0
     68278 TIP3     15299    TIP3     H1       HT       0.417000       1.00800           0
     68279 TIP3     15299    TIP3     H2       HT       0.417000       1.00800           0
     68280 TIP3     15300    TIP3     OH2      OT      -0.834000       15.9994           0
     68281 TIP3     15300    TIP3     H1       HT       0.417000       1.00800           0
     68282 TIP3     15300    TIP3     H2       HT       0.417000       1.00800           0
     68283 TIP3     15301    TIP3     OH2      OT      -0.834000       15.9994           0
     68284 TIP3     15301    TIP3     H1       HT       0.417000       1.00800           0
     68285 TIP3     15301    TIP3     H2       HT       0.417000       1.00800           0
     68286 TIP3     15302    TIP3     OH2      OT      -0.834000       15.9994           0
     68287 TIP3     15302    TIP3     H1       HT       0.417000       1.00800           0
     68288 TIP3     15302    TIP3     H2       HT       0.417000       1.00800           0
     68289 TIP3     15303    TIP3     OH2      OT      -0.834000       15.9994           0
     68290 TIP3     15303    TIP3     H1       HT       0.417000       1.00800           0
     68291 TIP3     15303    TIP3     H2       HT       0.417000       1.00800           0
     68292 TIP3     15304    TIP3     OH2      OT      -0.834000       15.9994           0
     68293 TIP3     15304    TIP3     H1       HT       0.417000       1.00800           0
     68294 TIP3     15304    TIP3     H2       HT       0.417000       1.00800           0
     68295 TIP3     15305    TIP3     OH2      OT      -0.834000       15.9994           0
     68296 TIP3     15305    TIP3     H1       HT       0.417000       1.00800           0
     68297 TIP3     15305    TIP3     H2       HT       0.417000       1.00800           0
     68298 TIP3     15306    TIP3     OH2      OT      -0.834000       15.9994           0
     68299 TIP3     15306    TIP3     H1       HT       0.417000       1.00800           0
     68300 TIP3     15306    TIP3     H2       HT       0.417000       1.00800           0
     68301 TIP3     15307    TIP3     OH2      OT      -0.834000       15.9994           0
     68302 TIP3     15307    TIP3     H1       HT       0.417000       1.00800           0
     68303 TIP3     15307    TIP3     H2       HT       0.417000       1.00800           0
     68304 TIP3     15308    TIP3     OH2      OT      -0.834000       15.9994           0
     68305 TIP3     15308    TIP3     H1       HT       0.417000       1.00800           0
     68306 TIP3     15308    TIP3     H2       HT       0.417000       1.00800           0
     68307 TIP3     15309    TIP3     OH2      OT      -0.834000       15.9994           0
     68308 TIP3     15309    TIP3     H1       HT       0.417000       1.00800           0
     68309 TIP3     15309    TIP3     H2       HT       0.417000       1.00800           0
     68310 TIP3     15310    TIP3     OH2      OT      -0.834000       15.9994           0
     68311 TIP3     15310    TIP3     H1       HT       0.417000       1.00800           0
     68312 TIP3     15310    TIP3     H2       HT       0.417000       1.00800           0
     68313 TIP3     15311    TIP3     OH2      OT      -0.834000       15.9994           0
     68314 TIP3     15311    TIP3     H1       HT       0.417000       1.00800           0
     68315 TIP3     15311    TIP3     H2       HT       0.417000       1.00800           0
     68316 TIP3     15312    TIP3     OH2      OT      -0.834000       15.9994           0
     68317 TIP3     15312    TIP3     H1       HT       0.417000       1.00800           0
     68318 TIP3     15312    TIP3     H2       HT       0.417000       1.00800           0
     68319 TIP3     15313    TIP3     OH2      OT      -0.834000       15.9994           0
     68320 TIP3     15313    TIP3     H1       HT       0.417000       1.00800           0
     68321 TIP3     15313    TIP3     H2       HT       0.417000       1.00800           0
     68322 TIP3     15314    TIP3     OH2      OT      -0.834000       15.9994           0
     68323 TIP3     15314    TIP3     H1       HT       0.417000       1.00800           0
     68324 TIP3     15314    TIP3     H2       HT       0.417000       1.00800           0
     68325 TIP3     15315    TIP3     OH2      OT      -0.834000       15.9994           0
     68326 TIP3     15315    TIP3     H1       HT       0.417000       1.00800           0
     68327 TIP3     15315    TIP3     H2       HT       0.417000       1.00800           0
     68328 TIP3     15316    TIP3     OH2      OT      -0.834000       15.9994           0
     68329 TIP3     15316    TIP3     H1       HT       0.417000       1.00800           0
     68330 TIP3     15316    TIP3     H2       HT       0.417000       1.00800           0
     68331 TIP3     15317    TIP3     OH2      OT      -0.834000       15.9994           0
     68332 TIP3     15317    TIP3     H1       HT       0.417000       1.00800           0
     68333 TIP3     15317    TIP3     H2       HT       0.417000       1.00800           0
     68334 TIP3     15318    TIP3     OH2      OT      -0.834000       15.9994           0
     68335 TIP3     15318    TIP3     H1       HT       0.417000       1.00800           0
     68336 TIP3     15318    TIP3     H2       HT       0.417000       1.00800           0
     68337 TIP3     15319    TIP3     OH2      OT      -0.834000       15.9994           0
     68338 TIP3     15319    TIP3     H1       HT       0.417000       1.00800           0
     68339 TIP3     15319    TIP3     H2       HT       0.417000       1.00800           0
     68340 TIP3     15320    TIP3     OH2      OT      -0.834000       15.9994           0
     68341 TIP3     15320    TIP3     H1       HT       0.417000       1.00800           0
     68342 TIP3     15320    TIP3     H2       HT       0.417000       1.00800           0
     68343 TIP3     15321    TIP3     OH2      OT      -0.834000       15.9994           0
     68344 TIP3     15321    TIP3     H1       HT       0.417000       1.00800           0
     68345 TIP3     15321    TIP3     H2       HT       0.417000       1.00800           0
     68346 TIP3     15322    TIP3     OH2      OT      -0.834000       15.9994           0
     68347 TIP3     15322    TIP3     H1       HT       0.417000       1.00800           0
     68348 TIP3     15322    TIP3     H2       HT       0.417000       1.00800           0
     68349 TIP3     15323    TIP3     OH2      OT      -0.834000       15.9994           0
     68350 TIP3     15323    TIP3     H1       HT       0.417000       1.00800           0
     68351 TIP3     15323    TIP3     H2       HT       0.417000       1.00800           0
     68352 TIP3     15324    TIP3     OH2      OT      -0.834000       15.9994           0
     68353 TIP3     15324    TIP3     H1       HT       0.417000       1.00800           0
     68354 TIP3     15324    TIP3     H2       HT       0.417000       1.00800           0
     68355 TIP3     15325    TIP3     OH2      OT      -0.834000       15.9994           0
     68356 TIP3     15325    TIP3     H1       HT       0.417000       1.00800           0
     68357 TIP3     15325    TIP3     H2       HT       0.417000       1.00800           0
     68358 TIP3     15326    TIP3     OH2      OT      -0.834000       15.9994           0
     68359 TIP3     15326    TIP3     H1       HT       0.417000       1.00800           0
     68360 TIP3     15326    TIP3     H2       HT       0.417000       1.00800           0
     68361 TIP3     15327    TIP3     OH2      OT      -0.834000       15.9994           0
     68362 TIP3     15327    TIP3     H1       HT       0.417000       1.00800           0
     68363 TIP3     15327    TIP3     H2       HT       0.417000       1.00800           0
     68364 TIP3     15328    TIP3     OH2      OT      -0.834000       15.9994           0
     68365 TIP3     15328    TIP3     H1       HT       0.417000       1.00800           0
     68366 TIP3     15328    TIP3     H2       HT       0.417000       1.00800           0
     68367 TIP3     15329    TIP3     OH2      OT      -0.834000       15.9994           0
     68368 TIP3     15329    TIP3     H1       HT       0.417000       1.00800           0
     68369 TIP3     15329    TIP3     H2       HT       0.417000       1.00800           0
     68370 TIP3     15330    TIP3     OH2      OT      -0.834000       15.9994           0
     68371 TIP3     15330    TIP3     H1       HT       0.417000       1.00800           0
     68372 TIP3     15330    TIP3     H2       HT       0.417000       1.00800           0
     68373 TIP3     15331    TIP3     OH2      OT      -0.834000       15.9994           0
     68374 TIP3     15331    TIP3     H1       HT       0.417000       1.00800           0
     68375 TIP3     15331    TIP3     H2       HT       0.417000       1.00800           0
     68376 TIP3     15332    TIP3     OH2      OT      -0.834000       15.9994           0
     68377 TIP3     15332    TIP3     H1       HT       0.417000       1.00800           0
     68378 TIP3     15332    TIP3     H2       HT       0.417000       1.00800           0
     68379 TIP3     15333    TIP3     OH2      OT      -0.834000       15.9994           0
     68380 TIP3     15333    TIP3     H1       HT       0.417000       1.00800           0
     68381 TIP3     15333    TIP3     H2       HT       0.417000       1.00800           0
     68382 TIP3     15334    TIP3     OH2      OT      -0.834000       15.9994           0
     68383 TIP3     15334    TIP3     H1       HT       0.417000       1.00800           0
     68384 TIP3     15334    TIP3     H2       HT       0.417000       1.00800           0
     68385 TIP3     15335    TIP3     OH2      OT      -0.834000       15.9994           0
     68386 TIP3     15335    TIP3     H1       HT       0.417000       1.00800           0
     68387 TIP3     15335    TIP3     H2       HT       0.417000       1.00800           0
     68388 TIP3     15336    TIP3     OH2      OT      -0.834000       15.9994           0
     68389 TIP3     15336    TIP3     H1       HT       0.417000       1.00800           0
     68390 TIP3     15336    TIP3     H2       HT       0.417000       1.00800           0
     68391 TIP3     15337    TIP3     OH2      OT      -0.834000       15.9994           0
     68392 TIP3     15337    TIP3     H1       HT       0.417000       1.00800           0
     68393 TIP3     15337    TIP3     H2       HT       0.417000       1.00800           0
     68394 TIP3     15338    TIP3     OH2      OT      -0.834000       15.9994           0
     68395 TIP3     15338    TIP3     H1       HT       0.417000       1.00800           0
     68396 TIP3     15338    TIP3     H2       HT       0.417000       1.00800           0
     68397 TIP3     15339    TIP3     OH2      OT      -0.834000       15.9994           0
     68398 TIP3     15339    TIP3     H1       HT       0.417000       1.00800           0
     68399 TIP3     15339    TIP3     H2       HT       0.417000       1.00800           0
     68400 TIP3     15340    TIP3     OH2      OT      -0.834000       15.9994           0
     68401 TIP3     15340    TIP3     H1       HT       0.417000       1.00800           0
     68402 TIP3     15340    TIP3     H2       HT       0.417000       1.00800           0
     68403 TIP3     15341    TIP3     OH2      OT      -0.834000       15.9994           0
     68404 TIP3     15341    TIP3     H1       HT       0.417000       1.00800           0
     68405 TIP3     15341    TIP3     H2       HT       0.417000       1.00800           0
     68406 TIP3     15342    TIP3     OH2      OT      -0.834000       15.9994           0
     68407 TIP3     15342    TIP3     H1       HT       0.417000       1.00800           0
     68408 TIP3     15342    TIP3     H2       HT       0.417000       1.00800           0
     68409 TIP3     15343    TIP3     OH2      OT      -0.834000       15.9994           0
     68410 TIP3     15343    TIP3     H1       HT       0.417000       1.00800           0
     68411 TIP3     15343    TIP3     H2       HT       0.417000       1.00800           0
     68412 TIP3     15344    TIP3     OH2      OT      -0.834000       15.9994           0
     68413 TIP3     15344    TIP3     H1       HT       0.417000       1.00800           0
     68414 TIP3     15344    TIP3     H2       HT       0.417000       1.00800           0
     68415 TIP3     15345    TIP3     OH2      OT      -0.834000       15.9994           0
     68416 TIP3     15345    TIP3     H1       HT       0.417000       1.00800           0
     68417 TIP3     15345    TIP3     H2       HT       0.417000       1.00800           0
     68418 TIP3     15346    TIP3     OH2      OT      -0.834000       15.9994           0
     68419 TIP3     15346    TIP3     H1       HT       0.417000       1.00800           0
     68420 TIP3     15346    TIP3     H2       HT       0.417000       1.00800           0
     68421 TIP3     15347    TIP3     OH2      OT      -0.834000       15.9994           0
     68422 TIP3     15347    TIP3     H1       HT       0.417000       1.00800           0
     68423 TIP3     15347    TIP3     H2       HT       0.417000       1.00800           0
     68424 TIP3     15348    TIP3     OH2      OT      -0.834000       15.9994           0
     68425 TIP3     15348    TIP3     H1       HT       0.417000       1.00800           0
     68426 TIP3     15348    TIP3     H2       HT       0.417000       1.00800           0
     68427 TIP3     15349    TIP3     OH2      OT      -0.834000       15.9994           0
     68428 TIP3     15349    TIP3     H1       HT       0.417000       1.00800           0
     68429 TIP3     15349    TIP3     H2       HT       0.417000       1.00800           0
     68430 TIP3     15350    TIP3     OH2      OT      -0.834000       15.9994           0
     68431 TIP3     15350    TIP3     H1       HT       0.417000       1.00800           0
     68432 TIP3     15350    TIP3     H2       HT       0.417000       1.00800           0
     68433 TIP3     15351    TIP3     OH2      OT      -0.834000       15.9994           0
     68434 TIP3     15351    TIP3     H1       HT       0.417000       1.00800           0
     68435 TIP3     15351    TIP3     H2       HT       0.417000       1.00800           0
     68436 TIP3     15352    TIP3     OH2      OT      -0.834000       15.9994           0
     68437 TIP3     15352    TIP3     H1       HT       0.417000       1.00800           0
     68438 TIP3     15352    TIP3     H2       HT       0.417000       1.00800           0
     68439 TIP3     15353    TIP3     OH2      OT      -0.834000       15.9994           0
     68440 TIP3     15353    TIP3     H1       HT       0.417000       1.00800           0
     68441 TIP3     15353    TIP3     H2       HT       0.417000       1.00800           0
     68442 TIP3     15354    TIP3     OH2      OT      -0.834000       15.9994           0
     68443 TIP3     15354    TIP3     H1       HT       0.417000       1.00800           0
     68444 TIP3     15354    TIP3     H2       HT       0.417000       1.00800           0
     68445 TIP3     15355    TIP3     OH2      OT      -0.834000       15.9994           0
     68446 TIP3     15355    TIP3     H1       HT       0.417000       1.00800           0
     68447 TIP3     15355    TIP3     H2       HT       0.417000       1.00800           0
     68448 TIP3     15356    TIP3     OH2      OT      -0.834000       15.9994           0
     68449 TIP3     15356    TIP3     H1       HT       0.417000       1.00800           0
     68450 TIP3     15356    TIP3     H2       HT       0.417000       1.00800           0
     68451 TIP3     15357    TIP3     OH2      OT      -0.834000       15.9994           0
     68452 TIP3     15357    TIP3     H1       HT       0.417000       1.00800           0
     68453 TIP3     15357    TIP3     H2       HT       0.417000       1.00800           0
     68454 TIP3     15358    TIP3     OH2      OT      -0.834000       15.9994           0
     68455 TIP3     15358    TIP3     H1       HT       0.417000       1.00800           0
     68456 TIP3     15358    TIP3     H2       HT       0.417000       1.00800           0
     68457 TIP3     15359    TIP3     OH2      OT      -0.834000       15.9994           0
     68458 TIP3     15359    TIP3     H1       HT       0.417000       1.00800           0
     68459 TIP3     15359    TIP3     H2       HT       0.417000       1.00800           0
     68460 TIP3     15360    TIP3     OH2      OT      -0.834000       15.9994           0
     68461 TIP3     15360    TIP3     H1       HT       0.417000       1.00800           0
     68462 TIP3     15360    TIP3     H2       HT       0.417000       1.00800           0
     68463 TIP3     15361    TIP3     OH2      OT      -0.834000       15.9994           0
     68464 TIP3     15361    TIP3     H1       HT       0.417000       1.00800           0
     68465 TIP3     15361    TIP3     H2       HT       0.417000       1.00800           0
     68466 TIP3     15362    TIP3     OH2      OT      -0.834000       15.9994           0
     68467 TIP3     15362    TIP3     H1       HT       0.417000       1.00800           0
     68468 TIP3     15362    TIP3     H2       HT       0.417000       1.00800           0
     68469 TIP3     15363    TIP3     OH2      OT      -0.834000       15.9994           0
     68470 TIP3     15363    TIP3     H1       HT       0.417000       1.00800           0
     68471 TIP3     15363    TIP3     H2       HT       0.417000       1.00800           0
     68472 TIP3     15364    TIP3     OH2      OT      -0.834000       15.9994           0
     68473 TIP3     15364    TIP3     H1       HT       0.417000       1.00800           0
     68474 TIP3     15364    TIP3     H2       HT       0.417000       1.00800           0
     68475 TIP3     15365    TIP3     OH2      OT      -0.834000       15.9994           0
     68476 TIP3     15365    TIP3     H1       HT       0.417000       1.00800           0
     68477 TIP3     15365    TIP3     H2       HT       0.417000       1.00800           0
     68478 TIP3     15366    TIP3     OH2      OT      -0.834000       15.9994           0
     68479 TIP3     15366    TIP3     H1       HT       0.417000       1.00800           0
     68480 TIP3     15366    TIP3     H2       HT       0.417000       1.00800           0
     68481 TIP3     15367    TIP3     OH2      OT      -0.834000       15.9994           0
     68482 TIP3     15367    TIP3     H1       HT       0.417000       1.00800           0
     68483 TIP3     15367    TIP3     H2       HT       0.417000       1.00800           0
     68484 TIP3     15368    TIP3     OH2      OT      -0.834000       15.9994           0
     68485 TIP3     15368    TIP3     H1       HT       0.417000       1.00800           0
     68486 TIP3     15368    TIP3     H2       HT       0.417000       1.00800           0
     68487 TIP3     15369    TIP3     OH2      OT      -0.834000       15.9994           0
     68488 TIP3     15369    TIP3     H1       HT       0.417000       1.00800           0
     68489 TIP3     15369    TIP3     H2       HT       0.417000       1.00800           0
     68490 TIP3     15370    TIP3     OH2      OT      -0.834000       15.9994           0
     68491 TIP3     15370    TIP3     H1       HT       0.417000       1.00800           0
     68492 TIP3     15370    TIP3     H2       HT       0.417000       1.00800           0
     68493 TIP3     15371    TIP3     OH2      OT      -0.834000       15.9994           0
     68494 TIP3     15371    TIP3     H1       HT       0.417000       1.00800           0
     68495 TIP3     15371    TIP3     H2       HT       0.417000       1.00800           0
     68496 TIP3     15372    TIP3     OH2      OT      -0.834000       15.9994           0
     68497 TIP3     15372    TIP3     H1       HT       0.417000       1.00800           0
     68498 TIP3     15372    TIP3     H2       HT       0.417000       1.00800           0
     68499 TIP3     15373    TIP3     OH2      OT      -0.834000       15.9994           0
     68500 TIP3     15373    TIP3     H1       HT       0.417000       1.00800           0
     68501 TIP3     15373    TIP3     H2       HT       0.417000       1.00800           0
     68502 TIP3     15374    TIP3     OH2      OT      -0.834000       15.9994           0
     68503 TIP3     15374    TIP3     H1       HT       0.417000       1.00800           0
     68504 TIP3     15374    TIP3     H2       HT       0.417000       1.00800           0
     68505 TIP3     15375    TIP3     OH2      OT      -0.834000       15.9994           0
     68506 TIP3     15375    TIP3     H1       HT       0.417000       1.00800           0
     68507 TIP3     15375    TIP3     H2       HT       0.417000       1.00800           0
     68508 TIP3     15376    TIP3     OH2      OT      -0.834000       15.9994           0
     68509 TIP3     15376    TIP3     H1       HT       0.417000       1.00800           0
     68510 TIP3     15376    TIP3     H2       HT       0.417000       1.00800           0
     68511 TIP3     15377    TIP3     OH2      OT      -0.834000       15.9994           0
     68512 TIP3     15377    TIP3     H1       HT       0.417000       1.00800           0
     68513 TIP3     15377    TIP3     H2       HT       0.417000       1.00800           0
     68514 TIP3     15378    TIP3     OH2      OT      -0.834000       15.9994           0
     68515 TIP3     15378    TIP3     H1       HT       0.417000       1.00800           0
     68516 TIP3     15378    TIP3     H2       HT       0.417000       1.00800           0
     68517 TIP3     15379    TIP3     OH2      OT      -0.834000       15.9994           0
     68518 TIP3     15379    TIP3     H1       HT       0.417000       1.00800           0
     68519 TIP3     15379    TIP3     H2       HT       0.417000       1.00800           0
     68520 TIP3     15380    TIP3     OH2      OT      -0.834000       15.9994           0
     68521 TIP3     15380    TIP3     H1       HT       0.417000       1.00800           0
     68522 TIP3     15380    TIP3     H2       HT       0.417000       1.00800           0
     68523 TIP3     15381    TIP3     OH2      OT      -0.834000       15.9994           0
     68524 TIP3     15381    TIP3     H1       HT       0.417000       1.00800           0
     68525 TIP3     15381    TIP3     H2       HT       0.417000       1.00800           0
     68526 TIP3     15382    TIP3     OH2      OT      -0.834000       15.9994           0
     68527 TIP3     15382    TIP3     H1       HT       0.417000       1.00800           0
     68528 TIP3     15382    TIP3     H2       HT       0.417000       1.00800           0
     68529 TIP3     15383    TIP3     OH2      OT      -0.834000       15.9994           0
     68530 TIP3     15383    TIP3     H1       HT       0.417000       1.00800           0
     68531 TIP3     15383    TIP3     H2       HT       0.417000       1.00800           0
     68532 TIP3     15384    TIP3     OH2      OT      -0.834000       15.9994           0
     68533 TIP3     15384    TIP3     H1       HT       0.417000       1.00800           0
     68534 TIP3     15384    TIP3     H2       HT       0.417000       1.00800           0
     68535 TIP3     15385    TIP3     OH2      OT      -0.834000       15.9994           0
     68536 TIP3     15385    TIP3     H1       HT       0.417000       1.00800           0
     68537 TIP3     15385    TIP3     H2       HT       0.417000       1.00800           0
     68538 TIP3     15386    TIP3     OH2      OT      -0.834000       15.9994           0
     68539 TIP3     15386    TIP3     H1       HT       0.417000       1.00800           0
     68540 TIP3     15386    TIP3     H2       HT       0.417000       1.00800           0
     68541 TIP3     15387    TIP3     OH2      OT      -0.834000       15.9994           0
     68542 TIP3     15387    TIP3     H1       HT       0.417000       1.00800           0
     68543 TIP3     15387    TIP3     H2       HT       0.417000       1.00800           0
     68544 TIP3     15388    TIP3     OH2      OT      -0.834000       15.9994           0
     68545 TIP3     15388    TIP3     H1       HT       0.417000       1.00800           0
     68546 TIP3     15388    TIP3     H2       HT       0.417000       1.00800           0
     68547 TIP3     15389    TIP3     OH2      OT      -0.834000       15.9994           0
     68548 TIP3     15389    TIP3     H1       HT       0.417000       1.00800           0
     68549 TIP3     15389    TIP3     H2       HT       0.417000       1.00800           0
     68550 TIP3     15390    TIP3     OH2      OT      -0.834000       15.9994           0
     68551 TIP3     15390    TIP3     H1       HT       0.417000       1.00800           0
     68552 TIP3     15390    TIP3     H2       HT       0.417000       1.00800           0
     68553 TIP3     15391    TIP3     OH2      OT      -0.834000       15.9994           0
     68554 TIP3     15391    TIP3     H1       HT       0.417000       1.00800           0
     68555 TIP3     15391    TIP3     H2       HT       0.417000       1.00800           0
     68556 TIP3     15392    TIP3     OH2      OT      -0.834000       15.9994           0
     68557 TIP3     15392    TIP3     H1       HT       0.417000       1.00800           0
     68558 TIP3     15392    TIP3     H2       HT       0.417000       1.00800           0
     68559 TIP3     15393    TIP3     OH2      OT      -0.834000       15.9994           0
     68560 TIP3     15393    TIP3     H1       HT       0.417000       1.00800           0
     68561 TIP3     15393    TIP3     H2       HT       0.417000       1.00800           0
     68562 TIP3     15394    TIP3     OH2      OT      -0.834000       15.9994           0
     68563 TIP3     15394    TIP3     H1       HT       0.417000       1.00800           0
     68564 TIP3     15394    TIP3     H2       HT       0.417000       1.00800           0
     68565 TIP3     15395    TIP3     OH2      OT      -0.834000       15.9994           0
     68566 TIP3     15395    TIP3     H1       HT       0.417000       1.00800           0
     68567 TIP3     15395    TIP3     H2       HT       0.417000       1.00800           0
     68568 TIP3     15396    TIP3     OH2      OT      -0.834000       15.9994           0
     68569 TIP3     15396    TIP3     H1       HT       0.417000       1.00800           0
     68570 TIP3     15396    TIP3     H2       HT       0.417000       1.00800           0
     68571 TIP3     15397    TIP3     OH2      OT      -0.834000       15.9994           0
     68572 TIP3     15397    TIP3     H1       HT       0.417000       1.00800           0
     68573 TIP3     15397    TIP3     H2       HT       0.417000       1.00800           0
     68574 TIP3     15398    TIP3     OH2      OT      -0.834000       15.9994           0
     68575 TIP3     15398    TIP3     H1       HT       0.417000       1.00800           0
     68576 TIP3     15398    TIP3     H2       HT       0.417000       1.00800           0
     68577 TIP3     15399    TIP3     OH2      OT      -0.834000       15.9994           0
     68578 TIP3     15399    TIP3     H1       HT       0.417000       1.00800           0
     68579 TIP3     15399    TIP3     H2       HT       0.417000       1.00800           0
     68580 TIP3     15400    TIP3     OH2      OT      -0.834000       15.9994           0
     68581 TIP3     15400    TIP3     H1       HT       0.417000       1.00800           0
     68582 TIP3     15400    TIP3     H2       HT       0.417000       1.00800           0
     68583 TIP3     15401    TIP3     OH2      OT      -0.834000       15.9994           0
     68584 TIP3     15401    TIP3     H1       HT       0.417000       1.00800           0
     68585 TIP3     15401    TIP3     H2       HT       0.417000       1.00800           0
     68586 TIP3     15402    TIP3     OH2      OT      -0.834000       15.9994           0
     68587 TIP3     15402    TIP3     H1       HT       0.417000       1.00800           0
     68588 TIP3     15402    TIP3     H2       HT       0.417000       1.00800           0
     68589 TIP3     15403    TIP3     OH2      OT      -0.834000       15.9994           0
     68590 TIP3     15403    TIP3     H1       HT       0.417000       1.00800           0
     68591 TIP3     15403    TIP3     H2       HT       0.417000       1.00800           0
     68592 TIP3     15404    TIP3     OH2      OT      -0.834000       15.9994           0
     68593 TIP3     15404    TIP3     H1       HT       0.417000       1.00800           0
     68594 TIP3     15404    TIP3     H2       HT       0.417000       1.00800           0
     68595 TIP3     15405    TIP3     OH2      OT      -0.834000       15.9994           0
     68596 TIP3     15405    TIP3     H1       HT       0.417000       1.00800           0
     68597 TIP3     15405    TIP3     H2       HT       0.417000       1.00800           0
     68598 TIP3     15406    TIP3     OH2      OT      -0.834000       15.9994           0
     68599 TIP3     15406    TIP3     H1       HT       0.417000       1.00800           0
     68600 TIP3     15406    TIP3     H2       HT       0.417000       1.00800           0
     68601 TIP3     15407    TIP3     OH2      OT      -0.834000       15.9994           0
     68602 TIP3     15407    TIP3     H1       HT       0.417000       1.00800           0
     68603 TIP3     15407    TIP3     H2       HT       0.417000       1.00800           0
     68604 TIP3     15408    TIP3     OH2      OT      -0.834000       15.9994           0
     68605 TIP3     15408    TIP3     H1       HT       0.417000       1.00800           0
     68606 TIP3     15408    TIP3     H2       HT       0.417000       1.00800           0
     68607 TIP3     15409    TIP3     OH2      OT      -0.834000       15.9994           0
     68608 TIP3     15409    TIP3     H1       HT       0.417000       1.00800           0
     68609 TIP3     15409    TIP3     H2       HT       0.417000       1.00800           0
     68610 TIP3     15410    TIP3     OH2      OT      -0.834000       15.9994           0
     68611 TIP3     15410    TIP3     H1       HT       0.417000       1.00800           0
     68612 TIP3     15410    TIP3     H2       HT       0.417000       1.00800           0
     68613 TIP3     15411    TIP3     OH2      OT      -0.834000       15.9994           0
     68614 TIP3     15411    TIP3     H1       HT       0.417000       1.00800           0
     68615 TIP3     15411    TIP3     H2       HT       0.417000       1.00800           0
     68616 TIP3     15412    TIP3     OH2      OT      -0.834000       15.9994           0
     68617 TIP3     15412    TIP3     H1       HT       0.417000       1.00800           0
     68618 TIP3     15412    TIP3     H2       HT       0.417000       1.00800           0
     68619 TIP3     15413    TIP3     OH2      OT      -0.834000       15.9994           0
     68620 TIP3     15413    TIP3     H1       HT       0.417000       1.00800           0
     68621 TIP3     15413    TIP3     H2       HT       0.417000       1.00800           0
     68622 TIP3     15414    TIP3     OH2      OT      -0.834000       15.9994           0
     68623 TIP3     15414    TIP3     H1       HT       0.417000       1.00800           0
     68624 TIP3     15414    TIP3     H2       HT       0.417000       1.00800           0
     68625 TIP3     15415    TIP3     OH2      OT      -0.834000       15.9994           0
     68626 TIP3     15415    TIP3     H1       HT       0.417000       1.00800           0
     68627 TIP3     15415    TIP3     H2       HT       0.417000       1.00800           0
     68628 TIP3     15416    TIP3     OH2      OT      -0.834000       15.9994           0
     68629 TIP3     15416    TIP3     H1       HT       0.417000       1.00800           0
     68630 TIP3     15416    TIP3     H2       HT       0.417000       1.00800           0
     68631 TIP3     15417    TIP3     OH2      OT      -0.834000       15.9994           0
     68632 TIP3     15417    TIP3     H1       HT       0.417000       1.00800           0
     68633 TIP3     15417    TIP3     H2       HT       0.417000       1.00800           0
     68634 TIP3     15418    TIP3     OH2      OT      -0.834000       15.9994           0
     68635 TIP3     15418    TIP3     H1       HT       0.417000       1.00800           0
     68636 TIP3     15418    TIP3     H2       HT       0.417000       1.00800           0
     68637 TIP3     15419    TIP3     OH2      OT      -0.834000       15.9994           0
     68638 TIP3     15419    TIP3     H1       HT       0.417000       1.00800           0
     68639 TIP3     15419    TIP3     H2       HT       0.417000       1.00800           0
     68640 TIP3     15420    TIP3     OH2      OT      -0.834000       15.9994           0
     68641 TIP3     15420    TIP3     H1       HT       0.417000       1.00800           0
     68642 TIP3     15420    TIP3     H2       HT       0.417000       1.00800           0
     68643 TIP3     15421    TIP3     OH2      OT      -0.834000       15.9994           0
     68644 TIP3     15421    TIP3     H1       HT       0.417000       1.00800           0
     68645 TIP3     15421    TIP3     H2       HT       0.417000       1.00800           0
     68646 TIP3     15422    TIP3     OH2      OT      -0.834000       15.9994           0
     68647 TIP3     15422    TIP3     H1       HT       0.417000       1.00800           0
     68648 TIP3     15422    TIP3     H2       HT       0.417000       1.00800           0
     68649 TIP3     15423    TIP3     OH2      OT      -0.834000       15.9994           0
     68650 TIP3     15423    TIP3     H1       HT       0.417000       1.00800           0
     68651 TIP3     15423    TIP3     H2       HT       0.417000       1.00800           0
     68652 TIP3     15424    TIP3     OH2      OT      -0.834000       15.9994           0
     68653 TIP3     15424    TIP3     H1       HT       0.417000       1.00800           0
     68654 TIP3     15424    TIP3     H2       HT       0.417000       1.00800           0
     68655 TIP3     15425    TIP3     OH2      OT      -0.834000       15.9994           0
     68656 TIP3     15425    TIP3     H1       HT       0.417000       1.00800           0
     68657 TIP3     15425    TIP3     H2       HT       0.417000       1.00800           0
     68658 TIP3     15426    TIP3     OH2      OT      -0.834000       15.9994           0
     68659 TIP3     15426    TIP3     H1       HT       0.417000       1.00800           0
     68660 TIP3     15426    TIP3     H2       HT       0.417000       1.00800           0
     68661 TIP3     15427    TIP3     OH2      OT      -0.834000       15.9994           0
     68662 TIP3     15427    TIP3     H1       HT       0.417000       1.00800           0
     68663 TIP3     15427    TIP3     H2       HT       0.417000       1.00800           0
     68664 TIP3     15428    TIP3     OH2      OT      -0.834000       15.9994           0
     68665 TIP3     15428    TIP3     H1       HT       0.417000       1.00800           0
     68666 TIP3     15428    TIP3     H2       HT       0.417000       1.00800           0
     68667 TIP3     15429    TIP3     OH2      OT      -0.834000       15.9994           0
     68668 TIP3     15429    TIP3     H1       HT       0.417000       1.00800           0
     68669 TIP3     15429    TIP3     H2       HT       0.417000       1.00800           0
     68670 TIP3     15430    TIP3     OH2      OT      -0.834000       15.9994           0
     68671 TIP3     15430    TIP3     H1       HT       0.417000       1.00800           0
     68672 TIP3     15430    TIP3     H2       HT       0.417000       1.00800           0
     68673 TIP3     15431    TIP3     OH2      OT      -0.834000       15.9994           0
     68674 TIP3     15431    TIP3     H1       HT       0.417000       1.00800           0
     68675 TIP3     15431    TIP3     H2       HT       0.417000       1.00800           0
     68676 TIP3     15432    TIP3     OH2      OT      -0.834000       15.9994           0
     68677 TIP3     15432    TIP3     H1       HT       0.417000       1.00800           0
     68678 TIP3     15432    TIP3     H2       HT       0.417000       1.00800           0
     68679 TIP3     15433    TIP3     OH2      OT      -0.834000       15.9994           0
     68680 TIP3     15433    TIP3     H1       HT       0.417000       1.00800           0
     68681 TIP3     15433    TIP3     H2       HT       0.417000       1.00800           0
     68682 TIP3     15434    TIP3     OH2      OT      -0.834000       15.9994           0
     68683 TIP3     15434    TIP3     H1       HT       0.417000       1.00800           0
     68684 TIP3     15434    TIP3     H2       HT       0.417000       1.00800           0
     68685 TIP3     15435    TIP3     OH2      OT      -0.834000       15.9994           0
     68686 TIP3     15435    TIP3     H1       HT       0.417000       1.00800           0
     68687 TIP3     15435    TIP3     H2       HT       0.417000       1.00800           0
     68688 TIP3     15436    TIP3     OH2      OT      -0.834000       15.9994           0
     68689 TIP3     15436    TIP3     H1       HT       0.417000       1.00800           0
     68690 TIP3     15436    TIP3     H2       HT       0.417000       1.00800           0
     68691 TIP3     15437    TIP3     OH2      OT      -0.834000       15.9994           0
     68692 TIP3     15437    TIP3     H1       HT       0.417000       1.00800           0
     68693 TIP3     15437    TIP3     H2       HT       0.417000       1.00800           0
     68694 TIP3     15438    TIP3     OH2      OT      -0.834000       15.9994           0
     68695 TIP3     15438    TIP3     H1       HT       0.417000       1.00800           0
     68696 TIP3     15438    TIP3     H2       HT       0.417000       1.00800           0
     68697 TIP3     15439    TIP3     OH2      OT      -0.834000       15.9994           0
     68698 TIP3     15439    TIP3     H1       HT       0.417000       1.00800           0
     68699 TIP3     15439    TIP3     H2       HT       0.417000       1.00800           0
     68700 TIP3     15440    TIP3     OH2      OT      -0.834000       15.9994           0
     68701 TIP3     15440    TIP3     H1       HT       0.417000       1.00800           0
     68702 TIP3     15440    TIP3     H2       HT       0.417000       1.00800           0
     68703 TIP3     15441    TIP3     OH2      OT      -0.834000       15.9994           0
     68704 TIP3     15441    TIP3     H1       HT       0.417000       1.00800           0
     68705 TIP3     15441    TIP3     H2       HT       0.417000       1.00800           0
     68706 TIP3     15442    TIP3     OH2      OT      -0.834000       15.9994           0
     68707 TIP3     15442    TIP3     H1       HT       0.417000       1.00800           0
     68708 TIP3     15442    TIP3     H2       HT       0.417000       1.00800           0
     68709 TIP3     15443    TIP3     OH2      OT      -0.834000       15.9994           0
     68710 TIP3     15443    TIP3     H1       HT       0.417000       1.00800           0
     68711 TIP3     15443    TIP3     H2       HT       0.417000       1.00800           0
     68712 TIP3     15444    TIP3     OH2      OT      -0.834000       15.9994           0
     68713 TIP3     15444    TIP3     H1       HT       0.417000       1.00800           0
     68714 TIP3     15444    TIP3     H2       HT       0.417000       1.00800           0
     68715 TIP3     15445    TIP3     OH2      OT      -0.834000       15.9994           0
     68716 TIP3     15445    TIP3     H1       HT       0.417000       1.00800           0
     68717 TIP3     15445    TIP3     H2       HT       0.417000       1.00800           0
     68718 TIP3     15446    TIP3     OH2      OT      -0.834000       15.9994           0
     68719 TIP3     15446    TIP3     H1       HT       0.417000       1.00800           0
     68720 TIP3     15446    TIP3     H2       HT       0.417000       1.00800           0
     68721 TIP3     15447    TIP3     OH2      OT      -0.834000       15.9994           0
     68722 TIP3     15447    TIP3     H1       HT       0.417000       1.00800           0
     68723 TIP3     15447    TIP3     H2       HT       0.417000       1.00800           0
     68724 TIP3     15448    TIP3     OH2      OT      -0.834000       15.9994           0
     68725 TIP3     15448    TIP3     H1       HT       0.417000       1.00800           0
     68726 TIP3     15448    TIP3     H2       HT       0.417000       1.00800           0
     68727 TIP3     15449    TIP3     OH2      OT      -0.834000       15.9994           0
     68728 TIP3     15449    TIP3     H1       HT       0.417000       1.00800           0
     68729 TIP3     15449    TIP3     H2       HT       0.417000       1.00800           0
     68730 TIP3     15450    TIP3     OH2      OT      -0.834000       15.9994           0
     68731 TIP3     15450    TIP3     H1       HT       0.417000       1.00800           0
     68732 TIP3     15450    TIP3     H2       HT       0.417000       1.00800           0
     68733 TIP3     15451    TIP3     OH2      OT      -0.834000       15.9994           0
     68734 TIP3     15451    TIP3     H1       HT       0.417000       1.00800           0
     68735 TIP3     15451    TIP3     H2       HT       0.417000       1.00800           0
     68736 TIP3     15452    TIP3     OH2      OT      -0.834000       15.9994           0
     68737 TIP3     15452    TIP3     H1       HT       0.417000       1.00800           0
     68738 TIP3     15452    TIP3     H2       HT       0.417000       1.00800           0
     68739 TIP3     15453    TIP3     OH2      OT      -0.834000       15.9994           0
     68740 TIP3     15453    TIP3     H1       HT       0.417000       1.00800           0
     68741 TIP3     15453    TIP3     H2       HT       0.417000       1.00800           0
     68742 TIP3     15454    TIP3     OH2      OT      -0.834000       15.9994           0
     68743 TIP3     15454    TIP3     H1       HT       0.417000       1.00800           0
     68744 TIP3     15454    TIP3     H2       HT       0.417000       1.00800           0
     68745 TIP3     15455    TIP3     OH2      OT      -0.834000       15.9994           0
     68746 TIP3     15455    TIP3     H1       HT       0.417000       1.00800           0
     68747 TIP3     15455    TIP3     H2       HT       0.417000       1.00800           0
     68748 TIP3     15456    TIP3     OH2      OT      -0.834000       15.9994           0
     68749 TIP3     15456    TIP3     H1       HT       0.417000       1.00800           0
     68750 TIP3     15456    TIP3     H2       HT       0.417000       1.00800           0
     68751 TIP3     15457    TIP3     OH2      OT      -0.834000       15.9994           0
     68752 TIP3     15457    TIP3     H1       HT       0.417000       1.00800           0
     68753 TIP3     15457    TIP3     H2       HT       0.417000       1.00800           0
     68754 TIP3     15458    TIP3     OH2      OT      -0.834000       15.9994           0
     68755 TIP3     15458    TIP3     H1       HT       0.417000       1.00800           0
     68756 TIP3     15458    TIP3     H2       HT       0.417000       1.00800           0
     68757 TIP3     15459    TIP3     OH2      OT      -0.834000       15.9994           0
     68758 TIP3     15459    TIP3     H1       HT       0.417000       1.00800           0
     68759 TIP3     15459    TIP3     H2       HT       0.417000       1.00800           0
     68760 TIP3     15460    TIP3     OH2      OT      -0.834000       15.9994           0
     68761 TIP3     15460    TIP3     H1       HT       0.417000       1.00800           0
     68762 TIP3     15460    TIP3     H2       HT       0.417000       1.00800           0
     68763 TIP3     15461    TIP3     OH2      OT      -0.834000       15.9994           0
     68764 TIP3     15461    TIP3     H1       HT       0.417000       1.00800           0
     68765 TIP3     15461    TIP3     H2       HT       0.417000       1.00800           0
     68766 TIP3     15462    TIP3     OH2      OT      -0.834000       15.9994           0
     68767 TIP3     15462    TIP3     H1       HT       0.417000       1.00800           0
     68768 TIP3     15462    TIP3     H2       HT       0.417000       1.00800           0
     68769 TIP3     15463    TIP3     OH2      OT      -0.834000       15.9994           0
     68770 TIP3     15463    TIP3     H1       HT       0.417000       1.00800           0
     68771 TIP3     15463    TIP3     H2       HT       0.417000       1.00800           0
     68772 TIP3     15464    TIP3     OH2      OT      -0.834000       15.9994           0
     68773 TIP3     15464    TIP3     H1       HT       0.417000       1.00800           0
     68774 TIP3     15464    TIP3     H2       HT       0.417000       1.00800           0
     68775 TIP3     15465    TIP3     OH2      OT      -0.834000       15.9994           0
     68776 TIP3     15465    TIP3     H1       HT       0.417000       1.00800           0
     68777 TIP3     15465    TIP3     H2       HT       0.417000       1.00800           0
     68778 TIP3     15466    TIP3     OH2      OT      -0.834000       15.9994           0
     68779 TIP3     15466    TIP3     H1       HT       0.417000       1.00800           0
     68780 TIP3     15466    TIP3     H2       HT       0.417000       1.00800           0
     68781 TIP3     15467    TIP3     OH2      OT      -0.834000       15.9994           0
     68782 TIP3     15467    TIP3     H1       HT       0.417000       1.00800           0
     68783 TIP3     15467    TIP3     H2       HT       0.417000       1.00800           0
     68784 TIP3     15468    TIP3     OH2      OT      -0.834000       15.9994           0
     68785 TIP3     15468    TIP3     H1       HT       0.417000       1.00800           0
     68786 TIP3     15468    TIP3     H2       HT       0.417000       1.00800           0
     68787 TIP3     15469    TIP3     OH2      OT      -0.834000       15.9994           0
     68788 TIP3     15469    TIP3     H1       HT       0.417000       1.00800           0
     68789 TIP3     15469    TIP3     H2       HT       0.417000       1.00800           0
     68790 TIP3     15470    TIP3     OH2      OT      -0.834000       15.9994           0
     68791 TIP3     15470    TIP3     H1       HT       0.417000       1.00800           0
     68792 TIP3     15470    TIP3     H2       HT       0.417000       1.00800           0
     68793 TIP3     15471    TIP3     OH2      OT      -0.834000       15.9994           0
     68794 TIP3     15471    TIP3     H1       HT       0.417000       1.00800           0
     68795 TIP3     15471    TIP3     H2       HT       0.417000       1.00800           0
     68796 TIP3     15472    TIP3     OH2      OT      -0.834000       15.9994           0
     68797 TIP3     15472    TIP3     H1       HT       0.417000       1.00800           0
     68798 TIP3     15472    TIP3     H2       HT       0.417000       1.00800           0
     68799 TIP3     15473    TIP3     OH2      OT      -0.834000       15.9994           0
     68800 TIP3     15473    TIP3     H1       HT       0.417000       1.00800           0
     68801 TIP3     15473    TIP3     H2       HT       0.417000       1.00800           0
     68802 TIP3     15474    TIP3     OH2      OT      -0.834000       15.9994           0
     68803 TIP3     15474    TIP3     H1       HT       0.417000       1.00800           0
     68804 TIP3     15474    TIP3     H2       HT       0.417000       1.00800           0
     68805 TIP3     15475    TIP3     OH2      OT      -0.834000       15.9994           0
     68806 TIP3     15475    TIP3     H1       HT       0.417000       1.00800           0
     68807 TIP3     15475    TIP3     H2       HT       0.417000       1.00800           0
     68808 TIP3     15476    TIP3     OH2      OT      -0.834000       15.9994           0
     68809 TIP3     15476    TIP3     H1       HT       0.417000       1.00800           0
     68810 TIP3     15476    TIP3     H2       HT       0.417000       1.00800           0
     68811 TIP3     15477    TIP3     OH2      OT      -0.834000       15.9994           0
     68812 TIP3     15477    TIP3     H1       HT       0.417000       1.00800           0
     68813 TIP3     15477    TIP3     H2       HT       0.417000       1.00800           0
     68814 TIP3     15478    TIP3     OH2      OT      -0.834000       15.9994           0
     68815 TIP3     15478    TIP3     H1       HT       0.417000       1.00800           0
     68816 TIP3     15478    TIP3     H2       HT       0.417000       1.00800           0
     68817 TIP3     15479    TIP3     OH2      OT      -0.834000       15.9994           0
     68818 TIP3     15479    TIP3     H1       HT       0.417000       1.00800           0
     68819 TIP3     15479    TIP3     H2       HT       0.417000       1.00800           0
     68820 TIP3     15480    TIP3     OH2      OT      -0.834000       15.9994           0
     68821 TIP3     15480    TIP3     H1       HT       0.417000       1.00800           0
     68822 TIP3     15480    TIP3     H2       HT       0.417000       1.00800           0
     68823 TIP3     15481    TIP3     OH2      OT      -0.834000       15.9994           0
     68824 TIP3     15481    TIP3     H1       HT       0.417000       1.00800           0
     68825 TIP3     15481    TIP3     H2       HT       0.417000       1.00800           0
     68826 TIP3     15482    TIP3     OH2      OT      -0.834000       15.9994           0
     68827 TIP3     15482    TIP3     H1       HT       0.417000       1.00800           0
     68828 TIP3     15482    TIP3     H2       HT       0.417000       1.00800           0
     68829 TIP3     15483    TIP3     OH2      OT      -0.834000       15.9994           0
     68830 TIP3     15483    TIP3     H1       HT       0.417000       1.00800           0
     68831 TIP3     15483    TIP3     H2       HT       0.417000       1.00800           0
     68832 TIP3     15484    TIP3     OH2      OT      -0.834000       15.9994           0
     68833 TIP3     15484    TIP3     H1       HT       0.417000       1.00800           0
     68834 TIP3     15484    TIP3     H2       HT       0.417000       1.00800           0
     68835 TIP3     15485    TIP3     OH2      OT      -0.834000       15.9994           0
     68836 TIP3     15485    TIP3     H1       HT       0.417000       1.00800           0
     68837 TIP3     15485    TIP3     H2       HT       0.417000       1.00800           0
     68838 TIP3     15486    TIP3     OH2      OT      -0.834000       15.9994           0
     68839 TIP3     15486    TIP3     H1       HT       0.417000       1.00800           0
     68840 TIP3     15486    TIP3     H2       HT       0.417000       1.00800           0
     68841 TIP3     15487    TIP3     OH2      OT      -0.834000       15.9994           0
     68842 TIP3     15487    TIP3     H1       HT       0.417000       1.00800           0
     68843 TIP3     15487    TIP3     H2       HT       0.417000       1.00800           0
     68844 TIP3     15488    TIP3     OH2      OT      -0.834000       15.9994           0
     68845 TIP3     15488    TIP3     H1       HT       0.417000       1.00800           0
     68846 TIP3     15488    TIP3     H2       HT       0.417000       1.00800           0
     68847 TIP3     15489    TIP3     OH2      OT      -0.834000       15.9994           0
     68848 TIP3     15489    TIP3     H1       HT       0.417000       1.00800           0
     68849 TIP3     15489    TIP3     H2       HT       0.417000       1.00800           0
     68850 TIP3     15490    TIP3     OH2      OT      -0.834000       15.9994           0
     68851 TIP3     15490    TIP3     H1       HT       0.417000       1.00800           0
     68852 TIP3     15490    TIP3     H2       HT       0.417000       1.00800           0
     68853 TIP3     15491    TIP3     OH2      OT      -0.834000       15.9994           0
     68854 TIP3     15491    TIP3     H1       HT       0.417000       1.00800           0
     68855 TIP3     15491    TIP3     H2       HT       0.417000       1.00800           0
     68856 TIP3     15492    TIP3     OH2      OT      -0.834000       15.9994           0
     68857 TIP3     15492    TIP3     H1       HT       0.417000       1.00800           0
     68858 TIP3     15492    TIP3     H2       HT       0.417000       1.00800           0
     68859 TIP3     15493    TIP3     OH2      OT      -0.834000       15.9994           0
     68860 TIP3     15493    TIP3     H1       HT       0.417000       1.00800           0
     68861 TIP3     15493    TIP3     H2       HT       0.417000       1.00800           0
     68862 TIP3     15494    TIP3     OH2      OT      -0.834000       15.9994           0
     68863 TIP3     15494    TIP3     H1       HT       0.417000       1.00800           0
     68864 TIP3     15494    TIP3     H2       HT       0.417000       1.00800           0
     68865 TIP3     15495    TIP3     OH2      OT      -0.834000       15.9994           0
     68866 TIP3     15495    TIP3     H1       HT       0.417000       1.00800           0
     68867 TIP3     15495    TIP3     H2       HT       0.417000       1.00800           0
     68868 TIP3     15496    TIP3     OH2      OT      -0.834000       15.9994           0
     68869 TIP3     15496    TIP3     H1       HT       0.417000       1.00800           0
     68870 TIP3     15496    TIP3     H2       HT       0.417000       1.00800           0
     68871 TIP3     15497    TIP3     OH2      OT      -0.834000       15.9994           0
     68872 TIP3     15497    TIP3     H1       HT       0.417000       1.00800           0
     68873 TIP3     15497    TIP3     H2       HT       0.417000       1.00800           0
     68874 TIP3     15498    TIP3     OH2      OT      -0.834000       15.9994           0
     68875 TIP3     15498    TIP3     H1       HT       0.417000       1.00800           0
     68876 TIP3     15498    TIP3     H2       HT       0.417000       1.00800           0
     68877 TIP3     15499    TIP3     OH2      OT      -0.834000       15.9994           0
     68878 TIP3     15499    TIP3     H1       HT       0.417000       1.00800           0
     68879 TIP3     15499    TIP3     H2       HT       0.417000       1.00800           0
     68880 TIP3     15500    TIP3     OH2      OT      -0.834000       15.9994           0
     68881 TIP3     15500    TIP3     H1       HT       0.417000       1.00800           0
     68882 TIP3     15500    TIP3     H2       HT       0.417000       1.00800           0
     68883 TIP3     15501    TIP3     OH2      OT      -0.834000       15.9994           0
     68884 TIP3     15501    TIP3     H1       HT       0.417000       1.00800           0
     68885 TIP3     15501    TIP3     H2       HT       0.417000       1.00800           0
     68886 TIP3     15502    TIP3     OH2      OT      -0.834000       15.9994           0
     68887 TIP3     15502    TIP3     H1       HT       0.417000       1.00800           0
     68888 TIP3     15502    TIP3     H2       HT       0.417000       1.00800           0
     68889 TIP3     15503    TIP3     OH2      OT      -0.834000       15.9994           0
     68890 TIP3     15503    TIP3     H1       HT       0.417000       1.00800           0
     68891 TIP3     15503    TIP3     H2       HT       0.417000       1.00800           0
     68892 TIP3     15504    TIP3     OH2      OT      -0.834000       15.9994           0
     68893 TIP3     15504    TIP3     H1       HT       0.417000       1.00800           0
     68894 TIP3     15504    TIP3     H2       HT       0.417000       1.00800           0
     68895 TIP3     15505    TIP3     OH2      OT      -0.834000       15.9994           0
     68896 TIP3     15505    TIP3     H1       HT       0.417000       1.00800           0
     68897 TIP3     15505    TIP3     H2       HT       0.417000       1.00800           0
     68898 TIP3     15506    TIP3     OH2      OT      -0.834000       15.9994           0
     68899 TIP3     15506    TIP3     H1       HT       0.417000       1.00800           0
     68900 TIP3     15506    TIP3     H2       HT       0.417000       1.00800           0
     68901 TIP3     15507    TIP3     OH2      OT      -0.834000       15.9994           0
     68902 TIP3     15507    TIP3     H1       HT       0.417000       1.00800           0
     68903 TIP3     15507    TIP3     H2       HT       0.417000       1.00800           0
     68904 TIP3     15508    TIP3     OH2      OT      -0.834000       15.9994           0
     68905 TIP3     15508    TIP3     H1       HT       0.417000       1.00800           0
     68906 TIP3     15508    TIP3     H2       HT       0.417000       1.00800           0
     68907 TIP3     15509    TIP3     OH2      OT      -0.834000       15.9994           0
     68908 TIP3     15509    TIP3     H1       HT       0.417000       1.00800           0
     68909 TIP3     15509    TIP3     H2       HT       0.417000       1.00800           0
     68910 TIP3     15510    TIP3     OH2      OT      -0.834000       15.9994           0
     68911 TIP3     15510    TIP3     H1       HT       0.417000       1.00800           0
     68912 TIP3     15510    TIP3     H2       HT       0.417000       1.00800           0
     68913 TIP3     15511    TIP3     OH2      OT      -0.834000       15.9994           0
     68914 TIP3     15511    TIP3     H1       HT       0.417000       1.00800           0
     68915 TIP3     15511    TIP3     H2       HT       0.417000       1.00800           0
     68916 TIP3     15512    TIP3     OH2      OT      -0.834000       15.9994           0
     68917 TIP3     15512    TIP3     H1       HT       0.417000       1.00800           0
     68918 TIP3     15512    TIP3     H2       HT       0.417000       1.00800           0
     68919 TIP3     15513    TIP3     OH2      OT      -0.834000       15.9994           0
     68920 TIP3     15513    TIP3     H1       HT       0.417000       1.00800           0
     68921 TIP3     15513    TIP3     H2       HT       0.417000       1.00800           0
     68922 TIP3     15514    TIP3     OH2      OT      -0.834000       15.9994           0
     68923 TIP3     15514    TIP3     H1       HT       0.417000       1.00800           0
     68924 TIP3     15514    TIP3     H2       HT       0.417000       1.00800           0
     68925 TIP3     15515    TIP3     OH2      OT      -0.834000       15.9994           0
     68926 TIP3     15515    TIP3     H1       HT       0.417000       1.00800           0
     68927 TIP3     15515    TIP3     H2       HT       0.417000       1.00800           0
     68928 TIP3     15516    TIP3     OH2      OT      -0.834000       15.9994           0
     68929 TIP3     15516    TIP3     H1       HT       0.417000       1.00800           0
     68930 TIP3     15516    TIP3     H2       HT       0.417000       1.00800           0
     68931 TIP3     15517    TIP3     OH2      OT      -0.834000       15.9994           0
     68932 TIP3     15517    TIP3     H1       HT       0.417000       1.00800           0
     68933 TIP3     15517    TIP3     H2       HT       0.417000       1.00800           0
     68934 TIP3     15518    TIP3     OH2      OT      -0.834000       15.9994           0
     68935 TIP3     15518    TIP3     H1       HT       0.417000       1.00800           0
     68936 TIP3     15518    TIP3     H2       HT       0.417000       1.00800           0
     68937 TIP3     15519    TIP3     OH2      OT      -0.834000       15.9994           0
     68938 TIP3     15519    TIP3     H1       HT       0.417000       1.00800           0
     68939 TIP3     15519    TIP3     H2       HT       0.417000       1.00800           0
     68940 TIP3     15520    TIP3     OH2      OT      -0.834000       15.9994           0
     68941 TIP3     15520    TIP3     H1       HT       0.417000       1.00800           0
     68942 TIP3     15520    TIP3     H2       HT       0.417000       1.00800           0
     68943 TIP3     15521    TIP3     OH2      OT      -0.834000       15.9994           0
     68944 TIP3     15521    TIP3     H1       HT       0.417000       1.00800           0
     68945 TIP3     15521    TIP3     H2       HT       0.417000       1.00800           0
     68946 TIP3     15522    TIP3     OH2      OT      -0.834000       15.9994           0
     68947 TIP3     15522    TIP3     H1       HT       0.417000       1.00800           0
     68948 TIP3     15522    TIP3     H2       HT       0.417000       1.00800           0
     68949 TIP3     15523    TIP3     OH2      OT      -0.834000       15.9994           0
     68950 TIP3     15523    TIP3     H1       HT       0.417000       1.00800           0
     68951 TIP3     15523    TIP3     H2       HT       0.417000       1.00800           0
     68952 TIP3     15524    TIP3     OH2      OT      -0.834000       15.9994           0
     68953 TIP3     15524    TIP3     H1       HT       0.417000       1.00800           0
     68954 TIP3     15524    TIP3     H2       HT       0.417000       1.00800           0
     68955 TIP3     15525    TIP3     OH2      OT      -0.834000       15.9994           0
     68956 TIP3     15525    TIP3     H1       HT       0.417000       1.00800           0
     68957 TIP3     15525    TIP3     H2       HT       0.417000       1.00800           0
     68958 TIP3     15526    TIP3     OH2      OT      -0.834000       15.9994           0
     68959 TIP3     15526    TIP3     H1       HT       0.417000       1.00800           0
     68960 TIP3     15526    TIP3     H2       HT       0.417000       1.00800           0
     68961 TIP3     15527    TIP3     OH2      OT      -0.834000       15.9994           0
     68962 TIP3     15527    TIP3     H1       HT       0.417000       1.00800           0
     68963 TIP3     15527    TIP3     H2       HT       0.417000       1.00800           0
     68964 TIP3     15528    TIP3     OH2      OT      -0.834000       15.9994           0
     68965 TIP3     15528    TIP3     H1       HT       0.417000       1.00800           0
     68966 TIP3     15528    TIP3     H2       HT       0.417000       1.00800           0
     68967 TIP3     15529    TIP3     OH2      OT      -0.834000       15.9994           0
     68968 TIP3     15529    TIP3     H1       HT       0.417000       1.00800           0
     68969 TIP3     15529    TIP3     H2       HT       0.417000       1.00800           0
     68970 TIP3     15530    TIP3     OH2      OT      -0.834000       15.9994           0
     68971 TIP3     15530    TIP3     H1       HT       0.417000       1.00800           0
     68972 TIP3     15530    TIP3     H2       HT       0.417000       1.00800           0
     68973 TIP3     15531    TIP3     OH2      OT      -0.834000       15.9994           0
     68974 TIP3     15531    TIP3     H1       HT       0.417000       1.00800           0
     68975 TIP3     15531    TIP3     H2       HT       0.417000       1.00800           0
     68976 TIP3     15532    TIP3     OH2      OT      -0.834000       15.9994           0
     68977 TIP3     15532    TIP3     H1       HT       0.417000       1.00800           0
     68978 TIP3     15532    TIP3     H2       HT       0.417000       1.00800           0
     68979 TIP3     15533    TIP3     OH2      OT      -0.834000       15.9994           0
     68980 TIP3     15533    TIP3     H1       HT       0.417000       1.00800           0
     68981 TIP3     15533    TIP3     H2       HT       0.417000       1.00800           0
     68982 TIP3     15534    TIP3     OH2      OT      -0.834000       15.9994           0
     68983 TIP3     15534    TIP3     H1       HT       0.417000       1.00800           0
     68984 TIP3     15534    TIP3     H2       HT       0.417000       1.00800           0
     68985 TIP3     15535    TIP3     OH2      OT      -0.834000       15.9994           0
     68986 TIP3     15535    TIP3     H1       HT       0.417000       1.00800           0
     68987 TIP3     15535    TIP3     H2       HT       0.417000       1.00800           0
     68988 TIP3     15536    TIP3     OH2      OT      -0.834000       15.9994           0
     68989 TIP3     15536    TIP3     H1       HT       0.417000       1.00800           0
     68990 TIP3     15536    TIP3     H2       HT       0.417000       1.00800           0
     68991 TIP3     15537    TIP3     OH2      OT      -0.834000       15.9994           0
     68992 TIP3     15537    TIP3     H1       HT       0.417000       1.00800           0
     68993 TIP3     15537    TIP3     H2       HT       0.417000       1.00800           0
     68994 TIP3     15538    TIP3     OH2      OT      -0.834000       15.9994           0
     68995 TIP3     15538    TIP3     H1       HT       0.417000       1.00800           0
     68996 TIP3     15538    TIP3     H2       HT       0.417000       1.00800           0
     68997 TIP3     15539    TIP3     OH2      OT      -0.834000       15.9994           0
     68998 TIP3     15539    TIP3     H1       HT       0.417000       1.00800           0
     68999 TIP3     15539    TIP3     H2       HT       0.417000       1.00800           0
     69000 TIP3     15540    TIP3     OH2      OT      -0.834000       15.9994           0
     69001 TIP3     15540    TIP3     H1       HT       0.417000       1.00800           0
     69002 TIP3     15540    TIP3     H2       HT       0.417000       1.00800           0
     69003 TIP3     15541    TIP3     OH2      OT      -0.834000       15.9994           0
     69004 TIP3     15541    TIP3     H1       HT       0.417000       1.00800           0
     69005 TIP3     15541    TIP3     H2       HT       0.417000       1.00800           0
     69006 TIP3     15542    TIP3     OH2      OT      -0.834000       15.9994           0
     69007 TIP3     15542    TIP3     H1       HT       0.417000       1.00800           0
     69008 TIP3     15542    TIP3     H2       HT       0.417000       1.00800           0
     69009 TIP3     15543    TIP3     OH2      OT      -0.834000       15.9994           0
     69010 TIP3     15543    TIP3     H1       HT       0.417000       1.00800           0
     69011 TIP3     15543    TIP3     H2       HT       0.417000       1.00800           0
     69012 TIP3     15544    TIP3     OH2      OT      -0.834000       15.9994           0
     69013 TIP3     15544    TIP3     H1       HT       0.417000       1.00800           0
     69014 TIP3     15544    TIP3     H2       HT       0.417000       1.00800           0
     69015 TIP3     15545    TIP3     OH2      OT      -0.834000       15.9994           0
     69016 TIP3     15545    TIP3     H1       HT       0.417000       1.00800           0
     69017 TIP3     15545    TIP3     H2       HT       0.417000       1.00800           0
     69018 TIP3     15546    TIP3     OH2      OT      -0.834000       15.9994           0
     69019 TIP3     15546    TIP3     H1       HT       0.417000       1.00800           0
     69020 TIP3     15546    TIP3     H2       HT       0.417000       1.00800           0
     69021 TIP3     15547    TIP3     OH2      OT      -0.834000       15.9994           0
     69022 TIP3     15547    TIP3     H1       HT       0.417000       1.00800           0
     69023 TIP3     15547    TIP3     H2       HT       0.417000       1.00800           0
     69024 TIP3     15548    TIP3     OH2      OT      -0.834000       15.9994           0
     69025 TIP3     15548    TIP3     H1       HT       0.417000       1.00800           0
     69026 TIP3     15548    TIP3     H2       HT       0.417000       1.00800           0
     69027 TIP3     15549    TIP3     OH2      OT      -0.834000       15.9994           0
     69028 TIP3     15549    TIP3     H1       HT       0.417000       1.00800           0
     69029 TIP3     15549    TIP3     H2       HT       0.417000       1.00800           0
     69030 TIP3     15550    TIP3     OH2      OT      -0.834000       15.9994           0
     69031 TIP3     15550    TIP3     H1       HT       0.417000       1.00800           0
     69032 TIP3     15550    TIP3     H2       HT       0.417000       1.00800           0
     69033 TIP3     15551    TIP3     OH2      OT      -0.834000       15.9994           0
     69034 TIP3     15551    TIP3     H1       HT       0.417000       1.00800           0
     69035 TIP3     15551    TIP3     H2       HT       0.417000       1.00800           0
     69036 TIP3     15552    TIP3     OH2      OT      -0.834000       15.9994           0
     69037 TIP3     15552    TIP3     H1       HT       0.417000       1.00800           0
     69038 TIP3     15552    TIP3     H2       HT       0.417000       1.00800           0
     69039 TIP3     15553    TIP3     OH2      OT      -0.834000       15.9994           0
     69040 TIP3     15553    TIP3     H1       HT       0.417000       1.00800           0
     69041 TIP3     15553    TIP3     H2       HT       0.417000       1.00800           0
     69042 TIP3     15554    TIP3     OH2      OT      -0.834000       15.9994           0
     69043 TIP3     15554    TIP3     H1       HT       0.417000       1.00800           0
     69044 TIP3     15554    TIP3     H2       HT       0.417000       1.00800           0
     69045 TIP3     15555    TIP3     OH2      OT      -0.834000       15.9994           0
     69046 TIP3     15555    TIP3     H1       HT       0.417000       1.00800           0
     69047 TIP3     15555    TIP3     H2       HT       0.417000       1.00800           0
     69048 TIP3     15556    TIP3     OH2      OT      -0.834000       15.9994           0
     69049 TIP3     15556    TIP3     H1       HT       0.417000       1.00800           0
     69050 TIP3     15556    TIP3     H2       HT       0.417000       1.00800           0
     69051 TIP3     15557    TIP3     OH2      OT      -0.834000       15.9994           0
     69052 TIP3     15557    TIP3     H1       HT       0.417000       1.00800           0
     69053 TIP3     15557    TIP3     H2       HT       0.417000       1.00800           0
     69054 TIP3     15558    TIP3     OH2      OT      -0.834000       15.9994           0
     69055 TIP3     15558    TIP3     H1       HT       0.417000       1.00800           0
     69056 TIP3     15558    TIP3     H2       HT       0.417000       1.00800           0
     69057 TIP3     15559    TIP3     OH2      OT      -0.834000       15.9994           0
     69058 TIP3     15559    TIP3     H1       HT       0.417000       1.00800           0
     69059 TIP3     15559    TIP3     H2       HT       0.417000       1.00800           0
     69060 TIP3     15560    TIP3     OH2      OT      -0.834000       15.9994           0
     69061 TIP3     15560    TIP3     H1       HT       0.417000       1.00800           0
     69062 TIP3     15560    TIP3     H2       HT       0.417000       1.00800           0
     69063 TIP3     15561    TIP3     OH2      OT      -0.834000       15.9994           0
     69064 TIP3     15561    TIP3     H1       HT       0.417000       1.00800           0
     69065 TIP3     15561    TIP3     H2       HT       0.417000       1.00800           0
     69066 TIP3     15562    TIP3     OH2      OT      -0.834000       15.9994           0
     69067 TIP3     15562    TIP3     H1       HT       0.417000       1.00800           0
     69068 TIP3     15562    TIP3     H2       HT       0.417000       1.00800           0
     69069 TIP3     15563    TIP3     OH2      OT      -0.834000       15.9994           0
     69070 TIP3     15563    TIP3     H1       HT       0.417000       1.00800           0
     69071 TIP3     15563    TIP3     H2       HT       0.417000       1.00800           0
     69072 TIP3     15564    TIP3     OH2      OT      -0.834000       15.9994           0
     69073 TIP3     15564    TIP3     H1       HT       0.417000       1.00800           0
     69074 TIP3     15564    TIP3     H2       HT       0.417000       1.00800           0
     69075 TIP3     15565    TIP3     OH2      OT      -0.834000       15.9994           0
     69076 TIP3     15565    TIP3     H1       HT       0.417000       1.00800           0
     69077 TIP3     15565    TIP3     H2       HT       0.417000       1.00800           0
     69078 TIP3     15566    TIP3     OH2      OT      -0.834000       15.9994           0
     69079 TIP3     15566    TIP3     H1       HT       0.417000       1.00800           0
     69080 TIP3     15566    TIP3     H2       HT       0.417000       1.00800           0
     69081 TIP3     15567    TIP3     OH2      OT      -0.834000       15.9994           0
     69082 TIP3     15567    TIP3     H1       HT       0.417000       1.00800           0
     69083 TIP3     15567    TIP3     H2       HT       0.417000       1.00800           0
     69084 TIP3     15568    TIP3     OH2      OT      -0.834000       15.9994           0
     69085 TIP3     15568    TIP3     H1       HT       0.417000       1.00800           0
     69086 TIP3     15568    TIP3     H2       HT       0.417000       1.00800           0
     69087 TIP3     15569    TIP3     OH2      OT      -0.834000       15.9994           0
     69088 TIP3     15569    TIP3     H1       HT       0.417000       1.00800           0
     69089 TIP3     15569    TIP3     H2       HT       0.417000       1.00800           0
     69090 TIP3     15570    TIP3     OH2      OT      -0.834000       15.9994           0
     69091 TIP3     15570    TIP3     H1       HT       0.417000       1.00800           0
     69092 TIP3     15570    TIP3     H2       HT       0.417000       1.00800           0
     69093 TIP3     15571    TIP3     OH2      OT      -0.834000       15.9994           0
     69094 TIP3     15571    TIP3     H1       HT       0.417000       1.00800           0
     69095 TIP3     15571    TIP3     H2       HT       0.417000       1.00800           0
     69096 TIP3     15572    TIP3     OH2      OT      -0.834000       15.9994           0
     69097 TIP3     15572    TIP3     H1       HT       0.417000       1.00800           0
     69098 TIP3     15572    TIP3     H2       HT       0.417000       1.00800           0
     69099 TIP3     15573    TIP3     OH2      OT      -0.834000       15.9994           0
     69100 TIP3     15573    TIP3     H1       HT       0.417000       1.00800           0
     69101 TIP3     15573    TIP3     H2       HT       0.417000       1.00800           0
     69102 TIP3     15574    TIP3     OH2      OT      -0.834000       15.9994           0
     69103 TIP3     15574    TIP3     H1       HT       0.417000       1.00800           0
     69104 TIP3     15574    TIP3     H2       HT       0.417000       1.00800           0
     69105 TIP3     15575    TIP3     OH2      OT      -0.834000       15.9994           0
     69106 TIP3     15575    TIP3     H1       HT       0.417000       1.00800           0
     69107 TIP3     15575    TIP3     H2       HT       0.417000       1.00800           0
     69108 TIP3     15576    TIP3     OH2      OT      -0.834000       15.9994           0
     69109 TIP3     15576    TIP3     H1       HT       0.417000       1.00800           0
     69110 TIP3     15576    TIP3     H2       HT       0.417000       1.00800           0
     69111 TIP3     15577    TIP3     OH2      OT      -0.834000       15.9994           0
     69112 TIP3     15577    TIP3     H1       HT       0.417000       1.00800           0
     69113 TIP3     15577    TIP3     H2       HT       0.417000       1.00800           0
     69114 TIP3     15578    TIP3     OH2      OT      -0.834000       15.9994           0
     69115 TIP3     15578    TIP3     H1       HT       0.417000       1.00800           0
     69116 TIP3     15578    TIP3     H2       HT       0.417000       1.00800           0
     69117 TIP3     15579    TIP3     OH2      OT      -0.834000       15.9994           0
     69118 TIP3     15579    TIP3     H1       HT       0.417000       1.00800           0
     69119 TIP3     15579    TIP3     H2       HT       0.417000       1.00800           0
     69120 TIP3     15580    TIP3     OH2      OT      -0.834000       15.9994           0
     69121 TIP3     15580    TIP3     H1       HT       0.417000       1.00800           0
     69122 TIP3     15580    TIP3     H2       HT       0.417000       1.00800           0
     69123 TIP3     15581    TIP3     OH2      OT      -0.834000       15.9994           0
     69124 TIP3     15581    TIP3     H1       HT       0.417000       1.00800           0
     69125 TIP3     15581    TIP3     H2       HT       0.417000       1.00800           0
     69126 TIP3     15582    TIP3     OH2      OT      -0.834000       15.9994           0
     69127 TIP3     15582    TIP3     H1       HT       0.417000       1.00800           0
     69128 TIP3     15582    TIP3     H2       HT       0.417000       1.00800           0
     69129 TIP3     15583    TIP3     OH2      OT      -0.834000       15.9994           0
     69130 TIP3     15583    TIP3     H1       HT       0.417000       1.00800           0
     69131 TIP3     15583    TIP3     H2       HT       0.417000       1.00800           0
     69132 TIP3     15584    TIP3     OH2      OT      -0.834000       15.9994           0
     69133 TIP3     15584    TIP3     H1       HT       0.417000       1.00800           0
     69134 TIP3     15584    TIP3     H2       HT       0.417000       1.00800           0
     69135 TIP3     15585    TIP3     OH2      OT      -0.834000       15.9994           0
     69136 TIP3     15585    TIP3     H1       HT       0.417000       1.00800           0
     69137 TIP3     15585    TIP3     H2       HT       0.417000       1.00800           0
     69138 TIP3     15586    TIP3     OH2      OT      -0.834000       15.9994           0
     69139 TIP3     15586    TIP3     H1       HT       0.417000       1.00800           0
     69140 TIP3     15586    TIP3     H2       HT       0.417000       1.00800           0
     69141 TIP3     15587    TIP3     OH2      OT      -0.834000       15.9994           0
     69142 TIP3     15587    TIP3     H1       HT       0.417000       1.00800           0
     69143 TIP3     15587    TIP3     H2       HT       0.417000       1.00800           0
     69144 TIP3     15588    TIP3     OH2      OT      -0.834000       15.9994           0
     69145 TIP3     15588    TIP3     H1       HT       0.417000       1.00800           0
     69146 TIP3     15588    TIP3     H2       HT       0.417000       1.00800           0
     69147 TIP3     15589    TIP3     OH2      OT      -0.834000       15.9994           0
     69148 TIP3     15589    TIP3     H1       HT       0.417000       1.00800           0
     69149 TIP3     15589    TIP3     H2       HT       0.417000       1.00800           0
     69150 TIP3     15590    TIP3     OH2      OT      -0.834000       15.9994           0
     69151 TIP3     15590    TIP3     H1       HT       0.417000       1.00800           0
     69152 TIP3     15590    TIP3     H2       HT       0.417000       1.00800           0
     69153 TIP3     15591    TIP3     OH2      OT      -0.834000       15.9994           0
     69154 TIP3     15591    TIP3     H1       HT       0.417000       1.00800           0
     69155 TIP3     15591    TIP3     H2       HT       0.417000       1.00800           0
     69156 TIP3     15592    TIP3     OH2      OT      -0.834000       15.9994           0
     69157 TIP3     15592    TIP3     H1       HT       0.417000       1.00800           0
     69158 TIP3     15592    TIP3     H2       HT       0.417000       1.00800           0
     69159 TIP3     15593    TIP3     OH2      OT      -0.834000       15.9994           0
     69160 TIP3     15593    TIP3     H1       HT       0.417000       1.00800           0
     69161 TIP3     15593    TIP3     H2       HT       0.417000       1.00800           0
     69162 TIP3     15594    TIP3     OH2      OT      -0.834000       15.9994           0
     69163 TIP3     15594    TIP3     H1       HT       0.417000       1.00800           0
     69164 TIP3     15594    TIP3     H2       HT       0.417000       1.00800           0
     69165 TIP3     15595    TIP3     OH2      OT      -0.834000       15.9994           0
     69166 TIP3     15595    TIP3     H1       HT       0.417000       1.00800           0
     69167 TIP3     15595    TIP3     H2       HT       0.417000       1.00800           0
     69168 TIP3     15596    TIP3     OH2      OT      -0.834000       15.9994           0
     69169 TIP3     15596    TIP3     H1       HT       0.417000       1.00800           0
     69170 TIP3     15596    TIP3     H2       HT       0.417000       1.00800           0
     69171 TIP3     15597    TIP3     OH2      OT      -0.834000       15.9994           0
     69172 TIP3     15597    TIP3     H1       HT       0.417000       1.00800           0
     69173 TIP3     15597    TIP3     H2       HT       0.417000       1.00800           0
     69174 TIP3     15598    TIP3     OH2      OT      -0.834000       15.9994           0
     69175 TIP3     15598    TIP3     H1       HT       0.417000       1.00800           0
     69176 TIP3     15598    TIP3     H2       HT       0.417000       1.00800           0
     69177 TIP3     15599    TIP3     OH2      OT      -0.834000       15.9994           0
     69178 TIP3     15599    TIP3     H1       HT       0.417000       1.00800           0
     69179 TIP3     15599    TIP3     H2       HT       0.417000       1.00800           0
     69180 TIP3     15600    TIP3     OH2      OT      -0.834000       15.9994           0
     69181 TIP3     15600    TIP3     H1       HT       0.417000       1.00800           0
     69182 TIP3     15600    TIP3     H2       HT       0.417000       1.00800           0
     69183 TIP3     15601    TIP3     OH2      OT      -0.834000       15.9994           0
     69184 TIP3     15601    TIP3     H1       HT       0.417000       1.00800           0
     69185 TIP3     15601    TIP3     H2       HT       0.417000       1.00800           0
     69186 TIP3     15602    TIP3     OH2      OT      -0.834000       15.9994           0
     69187 TIP3     15602    TIP3     H1       HT       0.417000       1.00800           0
     69188 TIP3     15602    TIP3     H2       HT       0.417000       1.00800           0
     69189 TIP3     15603    TIP3     OH2      OT      -0.834000       15.9994           0
     69190 TIP3     15603    TIP3     H1       HT       0.417000       1.00800           0
     69191 TIP3     15603    TIP3     H2       HT       0.417000       1.00800           0
     69192 TIP3     15604    TIP3     OH2      OT      -0.834000       15.9994           0
     69193 TIP3     15604    TIP3     H1       HT       0.417000       1.00800           0
     69194 TIP3     15604    TIP3     H2       HT       0.417000       1.00800           0
     69195 TIP3     15605    TIP3     OH2      OT      -0.834000       15.9994           0
     69196 TIP3     15605    TIP3     H1       HT       0.417000       1.00800           0
     69197 TIP3     15605    TIP3     H2       HT       0.417000       1.00800           0
     69198 TIP3     15606    TIP3     OH2      OT      -0.834000       15.9994           0
     69199 TIP3     15606    TIP3     H1       HT       0.417000       1.00800           0
     69200 TIP3     15606    TIP3     H2       HT       0.417000       1.00800           0
     69201 TIP3     15607    TIP3     OH2      OT      -0.834000       15.9994           0
     69202 TIP3     15607    TIP3     H1       HT       0.417000       1.00800           0
     69203 TIP3     15607    TIP3     H2       HT       0.417000       1.00800           0
     69204 TIP3     15608    TIP3     OH2      OT      -0.834000       15.9994           0
     69205 TIP3     15608    TIP3     H1       HT       0.417000       1.00800           0
     69206 TIP3     15608    TIP3     H2       HT       0.417000       1.00800           0
     69207 TIP3     15609    TIP3     OH2      OT      -0.834000       15.9994           0
     69208 TIP3     15609    TIP3     H1       HT       0.417000       1.00800           0
     69209 TIP3     15609    TIP3     H2       HT       0.417000       1.00800           0
     69210 TIP3     15610    TIP3     OH2      OT      -0.834000       15.9994           0
     69211 TIP3     15610    TIP3     H1       HT       0.417000       1.00800           0
     69212 TIP3     15610    TIP3     H2       HT       0.417000       1.00800           0
     69213 TIP3     15611    TIP3     OH2      OT      -0.834000       15.9994           0
     69214 TIP3     15611    TIP3     H1       HT       0.417000       1.00800           0
     69215 TIP3     15611    TIP3     H2       HT       0.417000       1.00800           0
     69216 TIP3     15612    TIP3     OH2      OT      -0.834000       15.9994           0
     69217 TIP3     15612    TIP3     H1       HT       0.417000       1.00800           0
     69218 TIP3     15612    TIP3     H2       HT       0.417000       1.00800           0
     69219 TIP3     15613    TIP3     OH2      OT      -0.834000       15.9994           0
     69220 TIP3     15613    TIP3     H1       HT       0.417000       1.00800           0
     69221 TIP3     15613    TIP3     H2       HT       0.417000       1.00800           0
     69222 TIP3     15614    TIP3     OH2      OT      -0.834000       15.9994           0
     69223 TIP3     15614    TIP3     H1       HT       0.417000       1.00800           0
     69224 TIP3     15614    TIP3     H2       HT       0.417000       1.00800           0
     69225 TIP3     15615    TIP3     OH2      OT      -0.834000       15.9994           0
     69226 TIP3     15615    TIP3     H1       HT       0.417000       1.00800           0
     69227 TIP3     15615    TIP3     H2       HT       0.417000       1.00800           0
     69228 TIP3     15616    TIP3     OH2      OT      -0.834000       15.9994           0
     69229 TIP3     15616    TIP3     H1       HT       0.417000       1.00800           0
     69230 TIP3     15616    TIP3     H2       HT       0.417000       1.00800           0
     69231 TIP3     15617    TIP3     OH2      OT      -0.834000       15.9994           0
     69232 TIP3     15617    TIP3     H1       HT       0.417000       1.00800           0
     69233 TIP3     15617    TIP3     H2       HT       0.417000       1.00800           0
     69234 TIP3     15618    TIP3     OH2      OT      -0.834000       15.9994           0
     69235 TIP3     15618    TIP3     H1       HT       0.417000       1.00800           0
     69236 TIP3     15618    TIP3     H2       HT       0.417000       1.00800           0
     69237 TIP3     15619    TIP3     OH2      OT      -0.834000       15.9994           0
     69238 TIP3     15619    TIP3     H1       HT       0.417000       1.00800           0
     69239 TIP3     15619    TIP3     H2       HT       0.417000       1.00800           0
     69240 TIP3     15620    TIP3     OH2      OT      -0.834000       15.9994           0
     69241 TIP3     15620    TIP3     H1       HT       0.417000       1.00800           0
     69242 TIP3     15620    TIP3     H2       HT       0.417000       1.00800           0
     69243 TIP3     15621    TIP3     OH2      OT      -0.834000       15.9994           0
     69244 TIP3     15621    TIP3     H1       HT       0.417000       1.00800           0
     69245 TIP3     15621    TIP3     H2       HT       0.417000       1.00800           0
     69246 TIP3     15622    TIP3     OH2      OT      -0.834000       15.9994           0
     69247 TIP3     15622    TIP3     H1       HT       0.417000       1.00800           0
     69248 TIP3     15622    TIP3     H2       HT       0.417000       1.00800           0
     69249 TIP3     15623    TIP3     OH2      OT      -0.834000       15.9994           0
     69250 TIP3     15623    TIP3     H1       HT       0.417000       1.00800           0
     69251 TIP3     15623    TIP3     H2       HT       0.417000       1.00800           0
     69252 TIP3     15624    TIP3     OH2      OT      -0.834000       15.9994           0
     69253 TIP3     15624    TIP3     H1       HT       0.417000       1.00800           0
     69254 TIP3     15624    TIP3     H2       HT       0.417000       1.00800           0
     69255 TIP3     15625    TIP3     OH2      OT      -0.834000       15.9994           0
     69256 TIP3     15625    TIP3     H1       HT       0.417000       1.00800           0
     69257 TIP3     15625    TIP3     H2       HT       0.417000       1.00800           0
     69258 TIP3     15626    TIP3     OH2      OT      -0.834000       15.9994           0
     69259 TIP3     15626    TIP3     H1       HT       0.417000       1.00800           0
     69260 TIP3     15626    TIP3     H2       HT       0.417000       1.00800           0
     69261 TIP3     15627    TIP3     OH2      OT      -0.834000       15.9994           0
     69262 TIP3     15627    TIP3     H1       HT       0.417000       1.00800           0
     69263 TIP3     15627    TIP3     H2       HT       0.417000       1.00800           0
     69264 TIP3     15628    TIP3     OH2      OT      -0.834000       15.9994           0
     69265 TIP3     15628    TIP3     H1       HT       0.417000       1.00800           0
     69266 TIP3     15628    TIP3     H2       HT       0.417000       1.00800           0
     69267 TIP3     15629    TIP3     OH2      OT      -0.834000       15.9994           0
     69268 TIP3     15629    TIP3     H1       HT       0.417000       1.00800           0
     69269 TIP3     15629    TIP3     H2       HT       0.417000       1.00800           0
     69270 TIP3     15630    TIP3     OH2      OT      -0.834000       15.9994           0
     69271 TIP3     15630    TIP3     H1       HT       0.417000       1.00800           0
     69272 TIP3     15630    TIP3     H2       HT       0.417000       1.00800           0
     69273 TIP3     15631    TIP3     OH2      OT      -0.834000       15.9994           0
     69274 TIP3     15631    TIP3     H1       HT       0.417000       1.00800           0
     69275 TIP3     15631    TIP3     H2       HT       0.417000       1.00800           0
     69276 TIP3     15632    TIP3     OH2      OT      -0.834000       15.9994           0
     69277 TIP3     15632    TIP3     H1       HT       0.417000       1.00800           0
     69278 TIP3     15632    TIP3     H2       HT       0.417000       1.00800           0
     69279 TIP3     15633    TIP3     OH2      OT      -0.834000       15.9994           0
     69280 TIP3     15633    TIP3     H1       HT       0.417000       1.00800           0
     69281 TIP3     15633    TIP3     H2       HT       0.417000       1.00800           0
     69282 TIP3     15634    TIP3     OH2      OT      -0.834000       15.9994           0
     69283 TIP3     15634    TIP3     H1       HT       0.417000       1.00800           0
     69284 TIP3     15634    TIP3     H2       HT       0.417000       1.00800           0
     69285 TIP3     15635    TIP3     OH2      OT      -0.834000       15.9994           0
     69286 TIP3     15635    TIP3     H1       HT       0.417000       1.00800           0
     69287 TIP3     15635    TIP3     H2       HT       0.417000       1.00800           0
     69288 TIP3     15636    TIP3     OH2      OT      -0.834000       15.9994           0
     69289 TIP3     15636    TIP3     H1       HT       0.417000       1.00800           0
     69290 TIP3     15636    TIP3     H2       HT       0.417000       1.00800           0
     69291 TIP3     15637    TIP3     OH2      OT      -0.834000       15.9994           0
     69292 TIP3     15637    TIP3     H1       HT       0.417000       1.00800           0
     69293 TIP3     15637    TIP3     H2       HT       0.417000       1.00800           0
     69294 TIP3     15638    TIP3     OH2      OT      -0.834000       15.9994           0
     69295 TIP3     15638    TIP3     H1       HT       0.417000       1.00800           0
     69296 TIP3     15638    TIP3     H2       HT       0.417000       1.00800           0
     69297 TIP3     15639    TIP3     OH2      OT      -0.834000       15.9994           0
     69298 TIP3     15639    TIP3     H1       HT       0.417000       1.00800           0
     69299 TIP3     15639    TIP3     H2       HT       0.417000       1.00800           0
     69300 TIP3     15640    TIP3     OH2      OT      -0.834000       15.9994           0
     69301 TIP3     15640    TIP3     H1       HT       0.417000       1.00800           0
     69302 TIP3     15640    TIP3     H2       HT       0.417000       1.00800           0
     69303 TIP3     15641    TIP3     OH2      OT      -0.834000       15.9994           0
     69304 TIP3     15641    TIP3     H1       HT       0.417000       1.00800           0
     69305 TIP3     15641    TIP3     H2       HT       0.417000       1.00800           0
     69306 TIP3     15642    TIP3     OH2      OT      -0.834000       15.9994           0
     69307 TIP3     15642    TIP3     H1       HT       0.417000       1.00800           0
     69308 TIP3     15642    TIP3     H2       HT       0.417000       1.00800           0
     69309 TIP3     15643    TIP3     OH2      OT      -0.834000       15.9994           0
     69310 TIP3     15643    TIP3     H1       HT       0.417000       1.00800           0
     69311 TIP3     15643    TIP3     H2       HT       0.417000       1.00800           0
     69312 TIP3     15644    TIP3     OH2      OT      -0.834000       15.9994           0
     69313 TIP3     15644    TIP3     H1       HT       0.417000       1.00800           0
     69314 TIP3     15644    TIP3     H2       HT       0.417000       1.00800           0
     69315 TIP3     15645    TIP3     OH2      OT      -0.834000       15.9994           0
     69316 TIP3     15645    TIP3     H1       HT       0.417000       1.00800           0
     69317 TIP3     15645    TIP3     H2       HT       0.417000       1.00800           0
     69318 TIP3     15646    TIP3     OH2      OT      -0.834000       15.9994           0
     69319 TIP3     15646    TIP3     H1       HT       0.417000       1.00800           0
     69320 TIP3     15646    TIP3     H2       HT       0.417000       1.00800           0
     69321 TIP3     15647    TIP3     OH2      OT      -0.834000       15.9994           0
     69322 TIP3     15647    TIP3     H1       HT       0.417000       1.00800           0
     69323 TIP3     15647    TIP3     H2       HT       0.417000       1.00800           0
     69324 TIP3     15648    TIP3     OH2      OT      -0.834000       15.9994           0
     69325 TIP3     15648    TIP3     H1       HT       0.417000       1.00800           0
     69326 TIP3     15648    TIP3     H2       HT       0.417000       1.00800           0
     69327 TIP3     15649    TIP3     OH2      OT      -0.834000       15.9994           0
     69328 TIP3     15649    TIP3     H1       HT       0.417000       1.00800           0
     69329 TIP3     15649    TIP3     H2       HT       0.417000       1.00800           0
     69330 TIP3     15650    TIP3     OH2      OT      -0.834000       15.9994           0
     69331 TIP3     15650    TIP3     H1       HT       0.417000       1.00800           0
     69332 TIP3     15650    TIP3     H2       HT       0.417000       1.00800           0
     69333 TIP3     15651    TIP3     OH2      OT      -0.834000       15.9994           0
     69334 TIP3     15651    TIP3     H1       HT       0.417000       1.00800           0
     69335 TIP3     15651    TIP3     H2       HT       0.417000       1.00800           0
     69336 TIP3     15652    TIP3     OH2      OT      -0.834000       15.9994           0
     69337 TIP3     15652    TIP3     H1       HT       0.417000       1.00800           0
     69338 TIP3     15652    TIP3     H2       HT       0.417000       1.00800           0
     69339 TIP3     15653    TIP3     OH2      OT      -0.834000       15.9994           0
     69340 TIP3     15653    TIP3     H1       HT       0.417000       1.00800           0
     69341 TIP3     15653    TIP3     H2       HT       0.417000       1.00800           0
     69342 TIP3     15654    TIP3     OH2      OT      -0.834000       15.9994           0
     69343 TIP3     15654    TIP3     H1       HT       0.417000       1.00800           0
     69344 TIP3     15654    TIP3     H2       HT       0.417000       1.00800           0
     69345 TIP3     15655    TIP3     OH2      OT      -0.834000       15.9994           0
     69346 TIP3     15655    TIP3     H1       HT       0.417000       1.00800           0
     69347 TIP3     15655    TIP3     H2       HT       0.417000       1.00800           0
     69348 TIP3     15656    TIP3     OH2      OT      -0.834000       15.9994           0
     69349 TIP3     15656    TIP3     H1       HT       0.417000       1.00800           0
     69350 TIP3     15656    TIP3     H2       HT       0.417000       1.00800           0
     69351 TIP3     15657    TIP3     OH2      OT      -0.834000       15.9994           0
     69352 TIP3     15657    TIP3     H1       HT       0.417000       1.00800           0
     69353 TIP3     15657    TIP3     H2       HT       0.417000       1.00800           0
     69354 TIP3     15658    TIP3     OH2      OT      -0.834000       15.9994           0
     69355 TIP3     15658    TIP3     H1       HT       0.417000       1.00800           0
     69356 TIP3     15658    TIP3     H2       HT       0.417000       1.00800           0
     69357 TIP3     15659    TIP3     OH2      OT      -0.834000       15.9994           0
     69358 TIP3     15659    TIP3     H1       HT       0.417000       1.00800           0
     69359 TIP3     15659    TIP3     H2       HT       0.417000       1.00800           0
     69360 TIP3     15660    TIP3     OH2      OT      -0.834000       15.9994           0
     69361 TIP3     15660    TIP3     H1       HT       0.417000       1.00800           0
     69362 TIP3     15660    TIP3     H2       HT       0.417000       1.00800           0
     69363 TIP3     15661    TIP3     OH2      OT      -0.834000       15.9994           0
     69364 TIP3     15661    TIP3     H1       HT       0.417000       1.00800           0
     69365 TIP3     15661    TIP3     H2       HT       0.417000       1.00800           0
     69366 TIP3     15662    TIP3     OH2      OT      -0.834000       15.9994           0
     69367 TIP3     15662    TIP3     H1       HT       0.417000       1.00800           0
     69368 TIP3     15662    TIP3     H2       HT       0.417000       1.00800           0
     69369 TIP3     15663    TIP3     OH2      OT      -0.834000       15.9994           0
     69370 TIP3     15663    TIP3     H1       HT       0.417000       1.00800           0
     69371 TIP3     15663    TIP3     H2       HT       0.417000       1.00800           0
     69372 TIP3     15664    TIP3     OH2      OT      -0.834000       15.9994           0
     69373 TIP3     15664    TIP3     H1       HT       0.417000       1.00800           0
     69374 TIP3     15664    TIP3     H2       HT       0.417000       1.00800           0
     69375 TIP3     15665    TIP3     OH2      OT      -0.834000       15.9994           0
     69376 TIP3     15665    TIP3     H1       HT       0.417000       1.00800           0
     69377 TIP3     15665    TIP3     H2       HT       0.417000       1.00800           0
     69378 TIP3     15666    TIP3     OH2      OT      -0.834000       15.9994           0
     69379 TIP3     15666    TIP3     H1       HT       0.417000       1.00800           0
     69380 TIP3     15666    TIP3     H2       HT       0.417000       1.00800           0
     69381 TIP3     15667    TIP3     OH2      OT      -0.834000       15.9994           0
     69382 TIP3     15667    TIP3     H1       HT       0.417000       1.00800           0
     69383 TIP3     15667    TIP3     H2       HT       0.417000       1.00800           0
     69384 TIP3     15668    TIP3     OH2      OT      -0.834000       15.9994           0
     69385 TIP3     15668    TIP3     H1       HT       0.417000       1.00800           0
     69386 TIP3     15668    TIP3     H2       HT       0.417000       1.00800           0
     69387 TIP3     15669    TIP3     OH2      OT      -0.834000       15.9994           0
     69388 TIP3     15669    TIP3     H1       HT       0.417000       1.00800           0
     69389 TIP3     15669    TIP3     H2       HT       0.417000       1.00800           0
     69390 TIP3     15670    TIP3     OH2      OT      -0.834000       15.9994           0
     69391 TIP3     15670    TIP3     H1       HT       0.417000       1.00800           0
     69392 TIP3     15670    TIP3     H2       HT       0.417000       1.00800           0
     69393 TIP3     15671    TIP3     OH2      OT      -0.834000       15.9994           0
     69394 TIP3     15671    TIP3     H1       HT       0.417000       1.00800           0
     69395 TIP3     15671    TIP3     H2       HT       0.417000       1.00800           0
     69396 TIP3     15672    TIP3     OH2      OT      -0.834000       15.9994           0
     69397 TIP3     15672    TIP3     H1       HT       0.417000       1.00800           0
     69398 TIP3     15672    TIP3     H2       HT       0.417000       1.00800           0
     69399 TIP3     15673    TIP3     OH2      OT      -0.834000       15.9994           0
     69400 TIP3     15673    TIP3     H1       HT       0.417000       1.00800           0
     69401 TIP3     15673    TIP3     H2       HT       0.417000       1.00800           0
     69402 TIP3     15674    TIP3     OH2      OT      -0.834000       15.9994           0
     69403 TIP3     15674    TIP3     H1       HT       0.417000       1.00800           0
     69404 TIP3     15674    TIP3     H2       HT       0.417000       1.00800           0
     69405 TIP3     15675    TIP3     OH2      OT      -0.834000       15.9994           0
     69406 TIP3     15675    TIP3     H1       HT       0.417000       1.00800           0
     69407 TIP3     15675    TIP3     H2       HT       0.417000       1.00800           0
     69408 TIP3     15676    TIP3     OH2      OT      -0.834000       15.9994           0
     69409 TIP3     15676    TIP3     H1       HT       0.417000       1.00800           0
     69410 TIP3     15676    TIP3     H2       HT       0.417000       1.00800           0
     69411 TIP3     15677    TIP3     OH2      OT      -0.834000       15.9994           0
     69412 TIP3     15677    TIP3     H1       HT       0.417000       1.00800           0
     69413 TIP3     15677    TIP3     H2       HT       0.417000       1.00800           0
     69414 TIP3     15678    TIP3     OH2      OT      -0.834000       15.9994           0
     69415 TIP3     15678    TIP3     H1       HT       0.417000       1.00800           0
     69416 TIP3     15678    TIP3     H2       HT       0.417000       1.00800           0
     69417 TIP3     15679    TIP3     OH2      OT      -0.834000       15.9994           0
     69418 TIP3     15679    TIP3     H1       HT       0.417000       1.00800           0
     69419 TIP3     15679    TIP3     H2       HT       0.417000       1.00800           0
     69420 TIP3     15680    TIP3     OH2      OT      -0.834000       15.9994           0
     69421 TIP3     15680    TIP3     H1       HT       0.417000       1.00800           0
     69422 TIP3     15680    TIP3     H2       HT       0.417000       1.00800           0
     69423 TIP3     15681    TIP3     OH2      OT      -0.834000       15.9994           0
     69424 TIP3     15681    TIP3     H1       HT       0.417000       1.00800           0
     69425 TIP3     15681    TIP3     H2       HT       0.417000       1.00800           0
     69426 TIP3     15682    TIP3     OH2      OT      -0.834000       15.9994           0
     69427 TIP3     15682    TIP3     H1       HT       0.417000       1.00800           0
     69428 TIP3     15682    TIP3     H2       HT       0.417000       1.00800           0
     69429 TIP3     15683    TIP3     OH2      OT      -0.834000       15.9994           0
     69430 TIP3     15683    TIP3     H1       HT       0.417000       1.00800           0
     69431 TIP3     15683    TIP3     H2       HT       0.417000       1.00800           0
     69432 TIP3     15684    TIP3     OH2      OT      -0.834000       15.9994           0
     69433 TIP3     15684    TIP3     H1       HT       0.417000       1.00800           0
     69434 TIP3     15684    TIP3     H2       HT       0.417000       1.00800           0
     69435 TIP3     15685    TIP3     OH2      OT      -0.834000       15.9994           0
     69436 TIP3     15685    TIP3     H1       HT       0.417000       1.00800           0
     69437 TIP3     15685    TIP3     H2       HT       0.417000       1.00800           0
     69438 TIP3     15686    TIP3     OH2      OT      -0.834000       15.9994           0
     69439 TIP3     15686    TIP3     H1       HT       0.417000       1.00800           0
     69440 TIP3     15686    TIP3     H2       HT       0.417000       1.00800           0
     69441 TIP3     15687    TIP3     OH2      OT      -0.834000       15.9994           0
     69442 TIP3     15687    TIP3     H1       HT       0.417000       1.00800           0
     69443 TIP3     15687    TIP3     H2       HT       0.417000       1.00800           0
     69444 TIP3     15688    TIP3     OH2      OT      -0.834000       15.9994           0
     69445 TIP3     15688    TIP3     H1       HT       0.417000       1.00800           0
     69446 TIP3     15688    TIP3     H2       HT       0.417000       1.00800           0
     69447 TIP3     15689    TIP3     OH2      OT      -0.834000       15.9994           0
     69448 TIP3     15689    TIP3     H1       HT       0.417000       1.00800           0
     69449 TIP3     15689    TIP3     H2       HT       0.417000       1.00800           0
     69450 TIP3     15690    TIP3     OH2      OT      -0.834000       15.9994           0
     69451 TIP3     15690    TIP3     H1       HT       0.417000       1.00800           0
     69452 TIP3     15690    TIP3     H2       HT       0.417000       1.00800           0
     69453 TIP3     15691    TIP3     OH2      OT      -0.834000       15.9994           0
     69454 TIP3     15691    TIP3     H1       HT       0.417000       1.00800           0
     69455 TIP3     15691    TIP3     H2       HT       0.417000       1.00800           0
     69456 TIP3     15692    TIP3     OH2      OT      -0.834000       15.9994           0
     69457 TIP3     15692    TIP3     H1       HT       0.417000       1.00800           0
     69458 TIP3     15692    TIP3     H2       HT       0.417000       1.00800           0
     69459 TIP3     15693    TIP3     OH2      OT      -0.834000       15.9994           0
     69460 TIP3     15693    TIP3     H1       HT       0.417000       1.00800           0
     69461 TIP3     15693    TIP3     H2       HT       0.417000       1.00800           0
     69462 TIP3     15694    TIP3     OH2      OT      -0.834000       15.9994           0
     69463 TIP3     15694    TIP3     H1       HT       0.417000       1.00800           0
     69464 TIP3     15694    TIP3     H2       HT       0.417000       1.00800           0
     69465 TIP3     15695    TIP3     OH2      OT      -0.834000       15.9994           0
     69466 TIP3     15695    TIP3     H1       HT       0.417000       1.00800           0
     69467 TIP3     15695    TIP3     H2       HT       0.417000       1.00800           0
     69468 TIP3     15696    TIP3     OH2      OT      -0.834000       15.9994           0
     69469 TIP3     15696    TIP3     H1       HT       0.417000       1.00800           0
     69470 TIP3     15696    TIP3     H2       HT       0.417000       1.00800           0
     69471 TIP3     15697    TIP3     OH2      OT      -0.834000       15.9994           0
     69472 TIP3     15697    TIP3     H1       HT       0.417000       1.00800           0
     69473 TIP3     15697    TIP3     H2       HT       0.417000       1.00800           0
     69474 TIP3     15698    TIP3     OH2      OT      -0.834000       15.9994           0
     69475 TIP3     15698    TIP3     H1       HT       0.417000       1.00800           0
     69476 TIP3     15698    TIP3     H2       HT       0.417000       1.00800           0
     69477 TIP3     15699    TIP3     OH2      OT      -0.834000       15.9994           0
     69478 TIP3     15699    TIP3     H1       HT       0.417000       1.00800           0
     69479 TIP3     15699    TIP3     H2       HT       0.417000       1.00800           0
     69480 TIP3     15700    TIP3     OH2      OT      -0.834000       15.9994           0
     69481 TIP3     15700    TIP3     H1       HT       0.417000       1.00800           0
     69482 TIP3     15700    TIP3     H2       HT       0.417000       1.00800           0
     69483 TIP3     15701    TIP3     OH2      OT      -0.834000       15.9994           0
     69484 TIP3     15701    TIP3     H1       HT       0.417000       1.00800           0
     69485 TIP3     15701    TIP3     H2       HT       0.417000       1.00800           0
     69486 TIP3     15702    TIP3     OH2      OT      -0.834000       15.9994           0
     69487 TIP3     15702    TIP3     H1       HT       0.417000       1.00800           0
     69488 TIP3     15702    TIP3     H2       HT       0.417000       1.00800           0
     69489 TIP3     15703    TIP3     OH2      OT      -0.834000       15.9994           0
     69490 TIP3     15703    TIP3     H1       HT       0.417000       1.00800           0
     69491 TIP3     15703    TIP3     H2       HT       0.417000       1.00800           0
     69492 TIP3     15704    TIP3     OH2      OT      -0.834000       15.9994           0
     69493 TIP3     15704    TIP3     H1       HT       0.417000       1.00800           0
     69494 TIP3     15704    TIP3     H2       HT       0.417000       1.00800           0
     69495 TIP3     15705    TIP3     OH2      OT      -0.834000       15.9994           0
     69496 TIP3     15705    TIP3     H1       HT       0.417000       1.00800           0
     69497 TIP3     15705    TIP3     H2       HT       0.417000       1.00800           0
     69498 TIP3     15706    TIP3     OH2      OT      -0.834000       15.9994           0
     69499 TIP3     15706    TIP3     H1       HT       0.417000       1.00800           0
     69500 TIP3     15706    TIP3     H2       HT       0.417000       1.00800           0
     69501 TIP3     15707    TIP3     OH2      OT      -0.834000       15.9994           0
     69502 TIP3     15707    TIP3     H1       HT       0.417000       1.00800           0
     69503 TIP3     15707    TIP3     H2       HT       0.417000       1.00800           0
     69504 TIP3     15708    TIP3     OH2      OT      -0.834000       15.9994           0
     69505 TIP3     15708    TIP3     H1       HT       0.417000       1.00800           0
     69506 TIP3     15708    TIP3     H2       HT       0.417000       1.00800           0
     69507 TIP3     15709    TIP3     OH2      OT      -0.834000       15.9994           0
     69508 TIP3     15709    TIP3     H1       HT       0.417000       1.00800           0
     69509 TIP3     15709    TIP3     H2       HT       0.417000       1.00800           0
     69510 TIP3     15710    TIP3     OH2      OT      -0.834000       15.9994           0
     69511 TIP3     15710    TIP3     H1       HT       0.417000       1.00800           0
     69512 TIP3     15710    TIP3     H2       HT       0.417000       1.00800           0
     69513 TIP3     15711    TIP3     OH2      OT      -0.834000       15.9994           0
     69514 TIP3     15711    TIP3     H1       HT       0.417000       1.00800           0
     69515 TIP3     15711    TIP3     H2       HT       0.417000       1.00800           0
     69516 TIP3     15712    TIP3     OH2      OT      -0.834000       15.9994           0
     69517 TIP3     15712    TIP3     H1       HT       0.417000       1.00800           0
     69518 TIP3     15712    TIP3     H2       HT       0.417000       1.00800           0
     69519 TIP3     15713    TIP3     OH2      OT      -0.834000       15.9994           0
     69520 TIP3     15713    TIP3     H1       HT       0.417000       1.00800           0
     69521 TIP3     15713    TIP3     H2       HT       0.417000       1.00800           0
     69522 TIP3     15714    TIP3     OH2      OT      -0.834000       15.9994           0
     69523 TIP3     15714    TIP3     H1       HT       0.417000       1.00800           0
     69524 TIP3     15714    TIP3     H2       HT       0.417000       1.00800           0
     69525 TIP3     15715    TIP3     OH2      OT      -0.834000       15.9994           0
     69526 TIP3     15715    TIP3     H1       HT       0.417000       1.00800           0
     69527 TIP3     15715    TIP3     H2       HT       0.417000       1.00800           0
     69528 TIP3     15716    TIP3     OH2      OT      -0.834000       15.9994           0
     69529 TIP3     15716    TIP3     H1       HT       0.417000       1.00800           0
     69530 TIP3     15716    TIP3     H2       HT       0.417000       1.00800           0
     69531 TIP3     15717    TIP3     OH2      OT      -0.834000       15.9994           0
     69532 TIP3     15717    TIP3     H1       HT       0.417000       1.00800           0
     69533 TIP3     15717    TIP3     H2       HT       0.417000       1.00800           0
     69534 TIP3     15718    TIP3     OH2      OT      -0.834000       15.9994           0
     69535 TIP3     15718    TIP3     H1       HT       0.417000       1.00800           0
     69536 TIP3     15718    TIP3     H2       HT       0.417000       1.00800           0
     69537 TIP3     15719    TIP3     OH2      OT      -0.834000       15.9994           0
     69538 TIP3     15719    TIP3     H1       HT       0.417000       1.00800           0
     69539 TIP3     15719    TIP3     H2       HT       0.417000       1.00800           0
     69540 TIP3     15720    TIP3     OH2      OT      -0.834000       15.9994           0
     69541 TIP3     15720    TIP3     H1       HT       0.417000       1.00800           0
     69542 TIP3     15720    TIP3     H2       HT       0.417000       1.00800           0
     69543 TIP3     15721    TIP3     OH2      OT      -0.834000       15.9994           0
     69544 TIP3     15721    TIP3     H1       HT       0.417000       1.00800           0
     69545 TIP3     15721    TIP3     H2       HT       0.417000       1.00800           0
     69546 TIP3     15722    TIP3     OH2      OT      -0.834000       15.9994           0
     69547 TIP3     15722    TIP3     H1       HT       0.417000       1.00800           0
     69548 TIP3     15722    TIP3     H2       HT       0.417000       1.00800           0
     69549 TIP3     15723    TIP3     OH2      OT      -0.834000       15.9994           0
     69550 TIP3     15723    TIP3     H1       HT       0.417000       1.00800           0
     69551 TIP3     15723    TIP3     H2       HT       0.417000       1.00800           0
     69552 TIP3     15724    TIP3     OH2      OT      -0.834000       15.9994           0
     69553 TIP3     15724    TIP3     H1       HT       0.417000       1.00800           0
     69554 TIP3     15724    TIP3     H2       HT       0.417000       1.00800           0
     69555 TIP3     15725    TIP3     OH2      OT      -0.834000       15.9994           0
     69556 TIP3     15725    TIP3     H1       HT       0.417000       1.00800           0
     69557 TIP3     15725    TIP3     H2       HT       0.417000       1.00800           0
     69558 TIP3     15726    TIP3     OH2      OT      -0.834000       15.9994           0
     69559 TIP3     15726    TIP3     H1       HT       0.417000       1.00800           0
     69560 TIP3     15726    TIP3     H2       HT       0.417000       1.00800           0
     69561 TIP3     15727    TIP3     OH2      OT      -0.834000       15.9994           0
     69562 TIP3     15727    TIP3     H1       HT       0.417000       1.00800           0
     69563 TIP3     15727    TIP3     H2       HT       0.417000       1.00800           0
     69564 TIP3     15728    TIP3     OH2      OT      -0.834000       15.9994           0
     69565 TIP3     15728    TIP3     H1       HT       0.417000       1.00800           0
     69566 TIP3     15728    TIP3     H2       HT       0.417000       1.00800           0
     69567 TIP3     15729    TIP3     OH2      OT      -0.834000       15.9994           0
     69568 TIP3     15729    TIP3     H1       HT       0.417000       1.00800           0
     69569 TIP3     15729    TIP3     H2       HT       0.417000       1.00800           0
     69570 TIP3     15730    TIP3     OH2      OT      -0.834000       15.9994           0
     69571 TIP3     15730    TIP3     H1       HT       0.417000       1.00800           0
     69572 TIP3     15730    TIP3     H2       HT       0.417000       1.00800           0
     69573 TIP3     15731    TIP3     OH2      OT      -0.834000       15.9994           0
     69574 TIP3     15731    TIP3     H1       HT       0.417000       1.00800           0
     69575 TIP3     15731    TIP3     H2       HT       0.417000       1.00800           0
     69576 TIP3     15732    TIP3     OH2      OT      -0.834000       15.9994           0
     69577 TIP3     15732    TIP3     H1       HT       0.417000       1.00800           0
     69578 TIP3     15732    TIP3     H2       HT       0.417000       1.00800           0
     69579 TIP3     15733    TIP3     OH2      OT      -0.834000       15.9994           0
     69580 TIP3     15733    TIP3     H1       HT       0.417000       1.00800           0
     69581 TIP3     15733    TIP3     H2       HT       0.417000       1.00800           0
     69582 TIP3     15734    TIP3     OH2      OT      -0.834000       15.9994           0
     69583 TIP3     15734    TIP3     H1       HT       0.417000       1.00800           0
     69584 TIP3     15734    TIP3     H2       HT       0.417000       1.00800           0
     69585 TIP3     15735    TIP3     OH2      OT      -0.834000       15.9994           0
     69586 TIP3     15735    TIP3     H1       HT       0.417000       1.00800           0
     69587 TIP3     15735    TIP3     H2       HT       0.417000       1.00800           0
     69588 TIP3     15736    TIP3     OH2      OT      -0.834000       15.9994           0
     69589 TIP3     15736    TIP3     H1       HT       0.417000       1.00800           0
     69590 TIP3     15736    TIP3     H2       HT       0.417000       1.00800           0
     69591 TIP3     15737    TIP3     OH2      OT      -0.834000       15.9994           0
     69592 TIP3     15737    TIP3     H1       HT       0.417000       1.00800           0
     69593 TIP3     15737    TIP3     H2       HT       0.417000       1.00800           0
     69594 TIP3     15738    TIP3     OH2      OT      -0.834000       15.9994           0
     69595 TIP3     15738    TIP3     H1       HT       0.417000       1.00800           0
     69596 TIP3     15738    TIP3     H2       HT       0.417000       1.00800           0
     69597 TIP3     15739    TIP3     OH2      OT      -0.834000       15.9994           0
     69598 TIP3     15739    TIP3     H1       HT       0.417000       1.00800           0
     69599 TIP3     15739    TIP3     H2       HT       0.417000       1.00800           0
     69600 TIP3     15740    TIP3     OH2      OT      -0.834000       15.9994           0
     69601 TIP3     15740    TIP3     H1       HT       0.417000       1.00800           0
     69602 TIP3     15740    TIP3     H2       HT       0.417000       1.00800           0
     69603 TIP3     15741    TIP3     OH2      OT      -0.834000       15.9994           0
     69604 TIP3     15741    TIP3     H1       HT       0.417000       1.00800           0
     69605 TIP3     15741    TIP3     H2       HT       0.417000       1.00800           0
     69606 TIP3     15742    TIP3     OH2      OT      -0.834000       15.9994           0
     69607 TIP3     15742    TIP3     H1       HT       0.417000       1.00800           0
     69608 TIP3     15742    TIP3     H2       HT       0.417000       1.00800           0
     69609 TIP3     15743    TIP3     OH2      OT      -0.834000       15.9994           0
     69610 TIP3     15743    TIP3     H1       HT       0.417000       1.00800           0
     69611 TIP3     15743    TIP3     H2       HT       0.417000       1.00800           0
     69612 TIP3     15744    TIP3     OH2      OT      -0.834000       15.9994           0
     69613 TIP3     15744    TIP3     H1       HT       0.417000       1.00800           0
     69614 TIP3     15744    TIP3     H2       HT       0.417000       1.00800           0
     69615 TIP3     15745    TIP3     OH2      OT      -0.834000       15.9994           0
     69616 TIP3     15745    TIP3     H1       HT       0.417000       1.00800           0
     69617 TIP3     15745    TIP3     H2       HT       0.417000       1.00800           0
     69618 TIP3     15746    TIP3     OH2      OT      -0.834000       15.9994           0
     69619 TIP3     15746    TIP3     H1       HT       0.417000       1.00800           0
     69620 TIP3     15746    TIP3     H2       HT       0.417000       1.00800           0
     69621 TIP3     15747    TIP3     OH2      OT      -0.834000       15.9994           0
     69622 TIP3     15747    TIP3     H1       HT       0.417000       1.00800           0
     69623 TIP3     15747    TIP3     H2       HT       0.417000       1.00800           0
     69624 TIP3     15748    TIP3     OH2      OT      -0.834000       15.9994           0
     69625 TIP3     15748    TIP3     H1       HT       0.417000       1.00800           0
     69626 TIP3     15748    TIP3     H2       HT       0.417000       1.00800           0
     69627 TIP3     15749    TIP3     OH2      OT      -0.834000       15.9994           0
     69628 TIP3     15749    TIP3     H1       HT       0.417000       1.00800           0
     69629 TIP3     15749    TIP3     H2       HT       0.417000       1.00800           0
     69630 TIP3     15750    TIP3     OH2      OT      -0.834000       15.9994           0
     69631 TIP3     15750    TIP3     H1       HT       0.417000       1.00800           0
     69632 TIP3     15750    TIP3     H2       HT       0.417000       1.00800           0
     69633 TIP3     15751    TIP3     OH2      OT      -0.834000       15.9994           0
     69634 TIP3     15751    TIP3     H1       HT       0.417000       1.00800           0
     69635 TIP3     15751    TIP3     H2       HT       0.417000       1.00800           0
     69636 TIP3     15752    TIP3     OH2      OT      -0.834000       15.9994           0
     69637 TIP3     15752    TIP3     H1       HT       0.417000       1.00800           0
     69638 TIP3     15752    TIP3     H2       HT       0.417000       1.00800           0
     69639 TIP3     15753    TIP3     OH2      OT      -0.834000       15.9994           0
     69640 TIP3     15753    TIP3     H1       HT       0.417000       1.00800           0
     69641 TIP3     15753    TIP3     H2       HT       0.417000       1.00800           0
     69642 TIP3     15754    TIP3     OH2      OT      -0.834000       15.9994           0
     69643 TIP3     15754    TIP3     H1       HT       0.417000       1.00800           0
     69644 TIP3     15754    TIP3     H2       HT       0.417000       1.00800           0
     69645 TIP3     15755    TIP3     OH2      OT      -0.834000       15.9994           0
     69646 TIP3     15755    TIP3     H1       HT       0.417000       1.00800           0
     69647 TIP3     15755    TIP3     H2       HT       0.417000       1.00800           0
     69648 TIP3     15756    TIP3     OH2      OT      -0.834000       15.9994           0
     69649 TIP3     15756    TIP3     H1       HT       0.417000       1.00800           0
     69650 TIP3     15756    TIP3     H2       HT       0.417000       1.00800           0
     69651 TIP3     15757    TIP3     OH2      OT      -0.834000       15.9994           0
     69652 TIP3     15757    TIP3     H1       HT       0.417000       1.00800           0
     69653 TIP3     15757    TIP3     H2       HT       0.417000       1.00800           0
     69654 TIP3     15758    TIP3     OH2      OT      -0.834000       15.9994           0
     69655 TIP3     15758    TIP3     H1       HT       0.417000       1.00800           0
     69656 TIP3     15758    TIP3     H2       HT       0.417000       1.00800           0
     69657 TIP3     15759    TIP3     OH2      OT      -0.834000       15.9994           0
     69658 TIP3     15759    TIP3     H1       HT       0.417000       1.00800           0
     69659 TIP3     15759    TIP3     H2       HT       0.417000       1.00800           0
     69660 TIP3     15760    TIP3     OH2      OT      -0.834000       15.9994           0
     69661 TIP3     15760    TIP3     H1       HT       0.417000       1.00800           0
     69662 TIP3     15760    TIP3     H2       HT       0.417000       1.00800           0
     69663 TIP3     15761    TIP3     OH2      OT      -0.834000       15.9994           0
     69664 TIP3     15761    TIP3     H1       HT       0.417000       1.00800           0
     69665 TIP3     15761    TIP3     H2       HT       0.417000       1.00800           0
     69666 TIP3     15762    TIP3     OH2      OT      -0.834000       15.9994           0
     69667 TIP3     15762    TIP3     H1       HT       0.417000       1.00800           0
     69668 TIP3     15762    TIP3     H2       HT       0.417000       1.00800           0
     69669 TIP3     15763    TIP3     OH2      OT      -0.834000       15.9994           0
     69670 TIP3     15763    TIP3     H1       HT       0.417000       1.00800           0
     69671 TIP3     15763    TIP3     H2       HT       0.417000       1.00800           0
     69672 TIP3     15764    TIP3     OH2      OT      -0.834000       15.9994           0
     69673 TIP3     15764    TIP3     H1       HT       0.417000       1.00800           0
     69674 TIP3     15764    TIP3     H2       HT       0.417000       1.00800           0
     69675 TIP3     15765    TIP3     OH2      OT      -0.834000       15.9994           0
     69676 TIP3     15765    TIP3     H1       HT       0.417000       1.00800           0
     69677 TIP3     15765    TIP3     H2       HT       0.417000       1.00800           0
     69678 TIP3     15766    TIP3     OH2      OT      -0.834000       15.9994           0
     69679 TIP3     15766    TIP3     H1       HT       0.417000       1.00800           0
     69680 TIP3     15766    TIP3     H2       HT       0.417000       1.00800           0
     69681 TIP3     15767    TIP3     OH2      OT      -0.834000       15.9994           0
     69682 TIP3     15767    TIP3     H1       HT       0.417000       1.00800           0
     69683 TIP3     15767    TIP3     H2       HT       0.417000       1.00800           0
     69684 TIP3     15768    TIP3     OH2      OT      -0.834000       15.9994           0
     69685 TIP3     15768    TIP3     H1       HT       0.417000       1.00800           0
     69686 TIP3     15768    TIP3     H2       HT       0.417000       1.00800           0
     69687 TIP3     15769    TIP3     OH2      OT      -0.834000       15.9994           0
     69688 TIP3     15769    TIP3     H1       HT       0.417000       1.00800           0
     69689 TIP3     15769    TIP3     H2       HT       0.417000       1.00800           0
     69690 TIP3     15770    TIP3     OH2      OT      -0.834000       15.9994           0
     69691 TIP3     15770    TIP3     H1       HT       0.417000       1.00800           0
     69692 TIP3     15770    TIP3     H2       HT       0.417000       1.00800           0
     69693 TIP3     15771    TIP3     OH2      OT      -0.834000       15.9994           0
     69694 TIP3     15771    TIP3     H1       HT       0.417000       1.00800           0
     69695 TIP3     15771    TIP3     H2       HT       0.417000       1.00800           0
     69696 TIP3     15772    TIP3     OH2      OT      -0.834000       15.9994           0
     69697 TIP3     15772    TIP3     H1       HT       0.417000       1.00800           0
     69698 TIP3     15772    TIP3     H2       HT       0.417000       1.00800           0
     69699 TIP3     15773    TIP3     OH2      OT      -0.834000       15.9994           0
     69700 TIP3     15773    TIP3     H1       HT       0.417000       1.00800           0
     69701 TIP3     15773    TIP3     H2       HT       0.417000       1.00800           0
     69702 TIP3     15774    TIP3     OH2      OT      -0.834000       15.9994           0
     69703 TIP3     15774    TIP3     H1       HT       0.417000       1.00800           0
     69704 TIP3     15774    TIP3     H2       HT       0.417000       1.00800           0
     69705 TIP3     15775    TIP3     OH2      OT      -0.834000       15.9994           0
     69706 TIP3     15775    TIP3     H1       HT       0.417000       1.00800           0
     69707 TIP3     15775    TIP3     H2       HT       0.417000       1.00800           0
     69708 TIP3     15776    TIP3     OH2      OT      -0.834000       15.9994           0
     69709 TIP3     15776    TIP3     H1       HT       0.417000       1.00800           0
     69710 TIP3     15776    TIP3     H2       HT       0.417000       1.00800           0
     69711 TIP3     15777    TIP3     OH2      OT      -0.834000       15.9994           0
     69712 TIP3     15777    TIP3     H1       HT       0.417000       1.00800           0
     69713 TIP3     15777    TIP3     H2       HT       0.417000       1.00800           0
     69714 TIP3     15778    TIP3     OH2      OT      -0.834000       15.9994           0
     69715 TIP3     15778    TIP3     H1       HT       0.417000       1.00800           0
     69716 TIP3     15778    TIP3     H2       HT       0.417000       1.00800           0
     69717 TIP3     15779    TIP3     OH2      OT      -0.834000       15.9994           0
     69718 TIP3     15779    TIP3     H1       HT       0.417000       1.00800           0
     69719 TIP3     15779    TIP3     H2       HT       0.417000       1.00800           0
     69720 TIP3     15780    TIP3     OH2      OT      -0.834000       15.9994           0
     69721 TIP3     15780    TIP3     H1       HT       0.417000       1.00800           0
     69722 TIP3     15780    TIP3     H2       HT       0.417000       1.00800           0
     69723 TIP3     15781    TIP3     OH2      OT      -0.834000       15.9994           0
     69724 TIP3     15781    TIP3     H1       HT       0.417000       1.00800           0
     69725 TIP3     15781    TIP3     H2       HT       0.417000       1.00800           0
     69726 TIP3     15782    TIP3     OH2      OT      -0.834000       15.9994           0
     69727 TIP3     15782    TIP3     H1       HT       0.417000       1.00800           0
     69728 TIP3     15782    TIP3     H2       HT       0.417000       1.00800           0
     69729 TIP3     15783    TIP3     OH2      OT      -0.834000       15.9994           0
     69730 TIP3     15783    TIP3     H1       HT       0.417000       1.00800           0
     69731 TIP3     15783    TIP3     H2       HT       0.417000       1.00800           0
     69732 TIP3     15784    TIP3     OH2      OT      -0.834000       15.9994           0
     69733 TIP3     15784    TIP3     H1       HT       0.417000       1.00800           0
     69734 TIP3     15784    TIP3     H2       HT       0.417000       1.00800           0
     69735 TIP3     15785    TIP3     OH2      OT      -0.834000       15.9994           0
     69736 TIP3     15785    TIP3     H1       HT       0.417000       1.00800           0
     69737 TIP3     15785    TIP3     H2       HT       0.417000       1.00800           0
     69738 TIP3     15786    TIP3     OH2      OT      -0.834000       15.9994           0
     69739 TIP3     15786    TIP3     H1       HT       0.417000       1.00800           0
     69740 TIP3     15786    TIP3     H2       HT       0.417000       1.00800           0
     69741 TIP3     15787    TIP3     OH2      OT      -0.834000       15.9994           0
     69742 TIP3     15787    TIP3     H1       HT       0.417000       1.00800           0
     69743 TIP3     15787    TIP3     H2       HT       0.417000       1.00800           0
     69744 TIP3     15788    TIP3     OH2      OT      -0.834000       15.9994           0
     69745 TIP3     15788    TIP3     H1       HT       0.417000       1.00800           0
     69746 TIP3     15788    TIP3     H2       HT       0.417000       1.00800           0
     69747 TIP3     15789    TIP3     OH2      OT      -0.834000       15.9994           0
     69748 TIP3     15789    TIP3     H1       HT       0.417000       1.00800           0
     69749 TIP3     15789    TIP3     H2       HT       0.417000       1.00800           0
     69750 TIP3     15790    TIP3     OH2      OT      -0.834000       15.9994           0
     69751 TIP3     15790    TIP3     H1       HT       0.417000       1.00800           0
     69752 TIP3     15790    TIP3     H2       HT       0.417000       1.00800           0
     69753 TIP3     15791    TIP3     OH2      OT      -0.834000       15.9994           0
     69754 TIP3     15791    TIP3     H1       HT       0.417000       1.00800           0
     69755 TIP3     15791    TIP3     H2       HT       0.417000       1.00800           0
     69756 TIP3     15792    TIP3     OH2      OT      -0.834000       15.9994           0
     69757 TIP3     15792    TIP3     H1       HT       0.417000       1.00800           0
     69758 TIP3     15792    TIP3     H2       HT       0.417000       1.00800           0
     69759 TIP3     15793    TIP3     OH2      OT      -0.834000       15.9994           0
     69760 TIP3     15793    TIP3     H1       HT       0.417000       1.00800           0
     69761 TIP3     15793    TIP3     H2       HT       0.417000       1.00800           0
     69762 TIP3     15794    TIP3     OH2      OT      -0.834000       15.9994           0
     69763 TIP3     15794    TIP3     H1       HT       0.417000       1.00800           0
     69764 TIP3     15794    TIP3     H2       HT       0.417000       1.00800           0
     69765 TIP3     15795    TIP3     OH2      OT      -0.834000       15.9994           0
     69766 TIP3     15795    TIP3     H1       HT       0.417000       1.00800           0
     69767 TIP3     15795    TIP3     H2       HT       0.417000       1.00800           0
     69768 TIP3     15796    TIP3     OH2      OT      -0.834000       15.9994           0
     69769 TIP3     15796    TIP3     H1       HT       0.417000       1.00800           0
     69770 TIP3     15796    TIP3     H2       HT       0.417000       1.00800           0
     69771 TIP3     15797    TIP3     OH2      OT      -0.834000       15.9994           0
     69772 TIP3     15797    TIP3     H1       HT       0.417000       1.00800           0
     69773 TIP3     15797    TIP3     H2       HT       0.417000       1.00800           0
     69774 TIP3     15798    TIP3     OH2      OT      -0.834000       15.9994           0
     69775 TIP3     15798    TIP3     H1       HT       0.417000       1.00800           0
     69776 TIP3     15798    TIP3     H2       HT       0.417000       1.00800           0
     69777 TIP3     15799    TIP3     OH2      OT      -0.834000       15.9994           0
     69778 TIP3     15799    TIP3     H1       HT       0.417000       1.00800           0
     69779 TIP3     15799    TIP3     H2       HT       0.417000       1.00800           0
     69780 TIP3     15800    TIP3     OH2      OT      -0.834000       15.9994           0
     69781 TIP3     15800    TIP3     H1       HT       0.417000       1.00800           0
     69782 TIP3     15800    TIP3     H2       HT       0.417000       1.00800           0
     69783 TIP3     15801    TIP3     OH2      OT      -0.834000       15.9994           0
     69784 TIP3     15801    TIP3     H1       HT       0.417000       1.00800           0
     69785 TIP3     15801    TIP3     H2       HT       0.417000       1.00800           0
     69786 TIP3     15802    TIP3     OH2      OT      -0.834000       15.9994           0
     69787 TIP3     15802    TIP3     H1       HT       0.417000       1.00800           0
     69788 TIP3     15802    TIP3     H2       HT       0.417000       1.00800           0
     69789 TIP3     15803    TIP3     OH2      OT      -0.834000       15.9994           0
     69790 TIP3     15803    TIP3     H1       HT       0.417000       1.00800           0
     69791 TIP3     15803    TIP3     H2       HT       0.417000       1.00800           0
     69792 TIP3     15804    TIP3     OH2      OT      -0.834000       15.9994           0
     69793 TIP3     15804    TIP3     H1       HT       0.417000       1.00800           0
     69794 TIP3     15804    TIP3     H2       HT       0.417000       1.00800           0
     69795 TIP3     15805    TIP3     OH2      OT      -0.834000       15.9994           0
     69796 TIP3     15805    TIP3     H1       HT       0.417000       1.00800           0
     69797 TIP3     15805    TIP3     H2       HT       0.417000       1.00800           0
     69798 TIP3     15806    TIP3     OH2      OT      -0.834000       15.9994           0
     69799 TIP3     15806    TIP3     H1       HT       0.417000       1.00800           0
     69800 TIP3     15806    TIP3     H2       HT       0.417000       1.00800           0
     69801 TIP3     15807    TIP3     OH2      OT      -0.834000       15.9994           0
     69802 TIP3     15807    TIP3     H1       HT       0.417000       1.00800           0
     69803 TIP3     15807    TIP3     H2       HT       0.417000       1.00800           0
     69804 TIP3     15808    TIP3     OH2      OT      -0.834000       15.9994           0
     69805 TIP3     15808    TIP3     H1       HT       0.417000       1.00800           0
     69806 TIP3     15808    TIP3     H2       HT       0.417000       1.00800           0
     69807 TIP3     15809    TIP3     OH2      OT      -0.834000       15.9994           0
     69808 TIP3     15809    TIP3     H1       HT       0.417000       1.00800           0
     69809 TIP3     15809    TIP3     H2       HT       0.417000       1.00800           0
     69810 TIP3     15810    TIP3     OH2      OT      -0.834000       15.9994           0
     69811 TIP3     15810    TIP3     H1       HT       0.417000       1.00800           0
     69812 TIP3     15810    TIP3     H2       HT       0.417000       1.00800           0
     69813 TIP3     15811    TIP3     OH2      OT      -0.834000       15.9994           0
     69814 TIP3     15811    TIP3     H1       HT       0.417000       1.00800           0
     69815 TIP3     15811    TIP3     H2       HT       0.417000       1.00800           0
     69816 TIP3     15812    TIP3     OH2      OT      -0.834000       15.9994           0
     69817 TIP3     15812    TIP3     H1       HT       0.417000       1.00800           0
     69818 TIP3     15812    TIP3     H2       HT       0.417000       1.00800           0
     69819 TIP3     15813    TIP3     OH2      OT      -0.834000       15.9994           0
     69820 TIP3     15813    TIP3     H1       HT       0.417000       1.00800           0
     69821 TIP3     15813    TIP3     H2       HT       0.417000       1.00800           0
     69822 TIP3     15814    TIP3     OH2      OT      -0.834000       15.9994           0
     69823 TIP3     15814    TIP3     H1       HT       0.417000       1.00800           0
     69824 TIP3     15814    TIP3     H2       HT       0.417000       1.00800           0
     69825 TIP3     15815    TIP3     OH2      OT      -0.834000       15.9994           0
     69826 TIP3     15815    TIP3     H1       HT       0.417000       1.00800           0
     69827 TIP3     15815    TIP3     H2       HT       0.417000       1.00800           0
     69828 TIP3     15816    TIP3     OH2      OT      -0.834000       15.9994           0
     69829 TIP3     15816    TIP3     H1       HT       0.417000       1.00800           0
     69830 TIP3     15816    TIP3     H2       HT       0.417000       1.00800           0
     69831 TIP3     15817    TIP3     OH2      OT      -0.834000       15.9994           0
     69832 TIP3     15817    TIP3     H1       HT       0.417000       1.00800           0
     69833 TIP3     15817    TIP3     H2       HT       0.417000       1.00800           0
     69834 TIP3     15818    TIP3     OH2      OT      -0.834000       15.9994           0
     69835 TIP3     15818    TIP3     H1       HT       0.417000       1.00800           0
     69836 TIP3     15818    TIP3     H2       HT       0.417000       1.00800           0
     69837 TIP3     15819    TIP3     OH2      OT      -0.834000       15.9994           0
     69838 TIP3     15819    TIP3     H1       HT       0.417000       1.00800           0
     69839 TIP3     15819    TIP3     H2       HT       0.417000       1.00800           0
     69840 TIP3     15820    TIP3     OH2      OT      -0.834000       15.9994           0
     69841 TIP3     15820    TIP3     H1       HT       0.417000       1.00800           0
     69842 TIP3     15820    TIP3     H2       HT       0.417000       1.00800           0
     69843 TIP3     15821    TIP3     OH2      OT      -0.834000       15.9994           0
     69844 TIP3     15821    TIP3     H1       HT       0.417000       1.00800           0
     69845 TIP3     15821    TIP3     H2       HT       0.417000       1.00800           0
     69846 TIP3     15822    TIP3     OH2      OT      -0.834000       15.9994           0
     69847 TIP3     15822    TIP3     H1       HT       0.417000       1.00800           0
     69848 TIP3     15822    TIP3     H2       HT       0.417000       1.00800           0
     69849 TIP3     15823    TIP3     OH2      OT      -0.834000       15.9994           0
     69850 TIP3     15823    TIP3     H1       HT       0.417000       1.00800           0
     69851 TIP3     15823    TIP3     H2       HT       0.417000       1.00800           0
     69852 TIP3     15824    TIP3     OH2      OT      -0.834000       15.9994           0
     69853 TIP3     15824    TIP3     H1       HT       0.417000       1.00800           0
     69854 TIP3     15824    TIP3     H2       HT       0.417000       1.00800           0
     69855 TIP3     15825    TIP3     OH2      OT      -0.834000       15.9994           0
     69856 TIP3     15825    TIP3     H1       HT       0.417000       1.00800           0
     69857 TIP3     15825    TIP3     H2       HT       0.417000       1.00800           0
     69858 TIP3     15826    TIP3     OH2      OT      -0.834000       15.9994           0
     69859 TIP3     15826    TIP3     H1       HT       0.417000       1.00800           0
     69860 TIP3     15826    TIP3     H2       HT       0.417000       1.00800           0
     69861 TIP3     15827    TIP3     OH2      OT      -0.834000       15.9994           0
     69862 TIP3     15827    TIP3     H1       HT       0.417000       1.00800           0
     69863 TIP3     15827    TIP3     H2       HT       0.417000       1.00800           0
     69864 TIP3     15828    TIP3     OH2      OT      -0.834000       15.9994           0
     69865 TIP3     15828    TIP3     H1       HT       0.417000       1.00800           0
     69866 TIP3     15828    TIP3     H2       HT       0.417000       1.00800           0
     69867 TIP3     15829    TIP3     OH2      OT      -0.834000       15.9994           0
     69868 TIP3     15829    TIP3     H1       HT       0.417000       1.00800           0
     69869 TIP3     15829    TIP3     H2       HT       0.417000       1.00800           0
     69870 TIP3     15830    TIP3     OH2      OT      -0.834000       15.9994           0
     69871 TIP3     15830    TIP3     H1       HT       0.417000       1.00800           0
     69872 TIP3     15830    TIP3     H2       HT       0.417000       1.00800           0
     69873 TIP3     15831    TIP3     OH2      OT      -0.834000       15.9994           0
     69874 TIP3     15831    TIP3     H1       HT       0.417000       1.00800           0
     69875 TIP3     15831    TIP3     H2       HT       0.417000       1.00800           0
     69876 TIP3     15832    TIP3     OH2      OT      -0.834000       15.9994           0
     69877 TIP3     15832    TIP3     H1       HT       0.417000       1.00800           0
     69878 TIP3     15832    TIP3     H2       HT       0.417000       1.00800           0
     69879 TIP3     15833    TIP3     OH2      OT      -0.834000       15.9994           0
     69880 TIP3     15833    TIP3     H1       HT       0.417000       1.00800           0
     69881 TIP3     15833    TIP3     H2       HT       0.417000       1.00800           0
     69882 TIP3     15834    TIP3     OH2      OT      -0.834000       15.9994           0
     69883 TIP3     15834    TIP3     H1       HT       0.417000       1.00800           0
     69884 TIP3     15834    TIP3     H2       HT       0.417000       1.00800           0
     69885 TIP3     15835    TIP3     OH2      OT      -0.834000       15.9994           0
     69886 TIP3     15835    TIP3     H1       HT       0.417000       1.00800           0
     69887 TIP3     15835    TIP3     H2       HT       0.417000       1.00800           0
     69888 TIP3     15836    TIP3     OH2      OT      -0.834000       15.9994           0
     69889 TIP3     15836    TIP3     H1       HT       0.417000       1.00800           0
     69890 TIP3     15836    TIP3     H2       HT       0.417000       1.00800           0
     69891 TIP3     15837    TIP3     OH2      OT      -0.834000       15.9994           0
     69892 TIP3     15837    TIP3     H1       HT       0.417000       1.00800           0
     69893 TIP3     15837    TIP3     H2       HT       0.417000       1.00800           0
     69894 TIP3     15838    TIP3     OH2      OT      -0.834000       15.9994           0
     69895 TIP3     15838    TIP3     H1       HT       0.417000       1.00800           0
     69896 TIP3     15838    TIP3     H2       HT       0.417000       1.00800           0
     69897 TIP3     15839    TIP3     OH2      OT      -0.834000       15.9994           0
     69898 TIP3     15839    TIP3     H1       HT       0.417000       1.00800           0
     69899 TIP3     15839    TIP3     H2       HT       0.417000       1.00800           0
     69900 TIP3     15840    TIP3     OH2      OT      -0.834000       15.9994           0
     69901 TIP3     15840    TIP3     H1       HT       0.417000       1.00800           0
     69902 TIP3     15840    TIP3     H2       HT       0.417000       1.00800           0
     69903 TIP3     15841    TIP3     OH2      OT      -0.834000       15.9994           0
     69904 TIP3     15841    TIP3     H1       HT       0.417000       1.00800           0
     69905 TIP3     15841    TIP3     H2       HT       0.417000       1.00800           0
     69906 TIP3     15842    TIP3     OH2      OT      -0.834000       15.9994           0
     69907 TIP3     15842    TIP3     H1       HT       0.417000       1.00800           0
     69908 TIP3     15842    TIP3     H2       HT       0.417000       1.00800           0
     69909 TIP3     15843    TIP3     OH2      OT      -0.834000       15.9994           0
     69910 TIP3     15843    TIP3     H1       HT       0.417000       1.00800           0
     69911 TIP3     15843    TIP3     H2       HT       0.417000       1.00800           0
     69912 TIP3     15844    TIP3     OH2      OT      -0.834000       15.9994           0
     69913 TIP3     15844    TIP3     H1       HT       0.417000       1.00800           0
     69914 TIP3     15844    TIP3     H2       HT       0.417000       1.00800           0
     69915 TIP3     15845    TIP3     OH2      OT      -0.834000       15.9994           0
     69916 TIP3     15845    TIP3     H1       HT       0.417000       1.00800           0
     69917 TIP3     15845    TIP3     H2       HT       0.417000       1.00800           0
     69918 TIP3     15846    TIP3     OH2      OT      -0.834000       15.9994           0
     69919 TIP3     15846    TIP3     H1       HT       0.417000       1.00800           0
     69920 TIP3     15846    TIP3     H2       HT       0.417000       1.00800           0
     69921 TIP3     15847    TIP3     OH2      OT      -0.834000       15.9994           0
     69922 TIP3     15847    TIP3     H1       HT       0.417000       1.00800           0
     69923 TIP3     15847    TIP3     H2       HT       0.417000       1.00800           0
     69924 TIP3     15848    TIP3     OH2      OT      -0.834000       15.9994           0
     69925 TIP3     15848    TIP3     H1       HT       0.417000       1.00800           0
     69926 TIP3     15848    TIP3     H2       HT       0.417000       1.00800           0
     69927 TIP3     15849    TIP3     OH2      OT      -0.834000       15.9994           0
     69928 TIP3     15849    TIP3     H1       HT       0.417000       1.00800           0
     69929 TIP3     15849    TIP3     H2       HT       0.417000       1.00800           0
     69930 TIP3     15850    TIP3     OH2      OT      -0.834000       15.9994           0
     69931 TIP3     15850    TIP3     H1       HT       0.417000       1.00800           0
     69932 TIP3     15850    TIP3     H2       HT       0.417000       1.00800           0
     69933 TIP3     15851    TIP3     OH2      OT      -0.834000       15.9994           0
     69934 TIP3     15851    TIP3     H1       HT       0.417000       1.00800           0
     69935 TIP3     15851    TIP3     H2       HT       0.417000       1.00800           0
     69936 TIP3     15852    TIP3     OH2      OT      -0.834000       15.9994           0
     69937 TIP3     15852    TIP3     H1       HT       0.417000       1.00800           0
     69938 TIP3     15852    TIP3     H2       HT       0.417000       1.00800           0
     69939 TIP3     15853    TIP3     OH2      OT      -0.834000       15.9994           0
     69940 TIP3     15853    TIP3     H1       HT       0.417000       1.00800           0
     69941 TIP3     15853    TIP3     H2       HT       0.417000       1.00800           0
     69942 TIP3     15854    TIP3     OH2      OT      -0.834000       15.9994           0
     69943 TIP3     15854    TIP3     H1       HT       0.417000       1.00800           0
     69944 TIP3     15854    TIP3     H2       HT       0.417000       1.00800           0
     69945 TIP3     15855    TIP3     OH2      OT      -0.834000       15.9994           0
     69946 TIP3     15855    TIP3     H1       HT       0.417000       1.00800           0
     69947 TIP3     15855    TIP3     H2       HT       0.417000       1.00800           0
     69948 TIP3     15856    TIP3     OH2      OT      -0.834000       15.9994           0
     69949 TIP3     15856    TIP3     H1       HT       0.417000       1.00800           0
     69950 TIP3     15856    TIP3     H2       HT       0.417000       1.00800           0
     69951 TIP3     15857    TIP3     OH2      OT      -0.834000       15.9994           0
     69952 TIP3     15857    TIP3     H1       HT       0.417000       1.00800           0
     69953 TIP3     15857    TIP3     H2       HT       0.417000       1.00800           0
     69954 TIP3     15858    TIP3     OH2      OT      -0.834000       15.9994           0
     69955 TIP3     15858    TIP3     H1       HT       0.417000       1.00800           0
     69956 TIP3     15858    TIP3     H2       HT       0.417000       1.00800           0
     69957 TIP3     15859    TIP3     OH2      OT      -0.834000       15.9994           0
     69958 TIP3     15859    TIP3     H1       HT       0.417000       1.00800           0
     69959 TIP3     15859    TIP3     H2       HT       0.417000       1.00800           0
     69960 TIP3     15860    TIP3     OH2      OT      -0.834000       15.9994           0
     69961 TIP3     15860    TIP3     H1       HT       0.417000       1.00800           0
     69962 TIP3     15860    TIP3     H2       HT       0.417000       1.00800           0
     69963 TIP3     15861    TIP3     OH2      OT      -0.834000       15.9994           0
     69964 TIP3     15861    TIP3     H1       HT       0.417000       1.00800           0
     69965 TIP3     15861    TIP3     H2       HT       0.417000       1.00800           0
     69966 TIP3     15862    TIP3     OH2      OT      -0.834000       15.9994           0
     69967 TIP3     15862    TIP3     H1       HT       0.417000       1.00800           0
     69968 TIP3     15862    TIP3     H2       HT       0.417000       1.00800           0
     69969 TIP3     15863    TIP3     OH2      OT      -0.834000       15.9994           0
     69970 TIP3     15863    TIP3     H1       HT       0.417000       1.00800           0
     69971 TIP3     15863    TIP3     H2       HT       0.417000       1.00800           0
     69972 TIP3     15864    TIP3     OH2      OT      -0.834000       15.9994           0
     69973 TIP3     15864    TIP3     H1       HT       0.417000       1.00800           0
     69974 TIP3     15864    TIP3     H2       HT       0.417000       1.00800           0
     69975 TIP3     15865    TIP3     OH2      OT      -0.834000       15.9994           0
     69976 TIP3     15865    TIP3     H1       HT       0.417000       1.00800           0
     69977 TIP3     15865    TIP3     H2       HT       0.417000       1.00800           0
     69978 TIP3     15866    TIP3     OH2      OT      -0.834000       15.9994           0
     69979 TIP3     15866    TIP3     H1       HT       0.417000       1.00800           0
     69980 TIP3     15866    TIP3     H2       HT       0.417000       1.00800           0
     69981 TIP3     15867    TIP3     OH2      OT      -0.834000       15.9994           0
     69982 TIP3     15867    TIP3     H1       HT       0.417000       1.00800           0
     69983 TIP3     15867    TIP3     H2       HT       0.417000       1.00800           0
     69984 TIP3     15868    TIP3     OH2      OT      -0.834000       15.9994           0
     69985 TIP3     15868    TIP3     H1       HT       0.417000       1.00800           0
     69986 TIP3     15868    TIP3     H2       HT       0.417000       1.00800           0
     69987 TIP3     15869    TIP3     OH2      OT      -0.834000       15.9994           0
     69988 TIP3     15869    TIP3     H1       HT       0.417000       1.00800           0
     69989 TIP3     15869    TIP3     H2       HT       0.417000       1.00800           0
     69990 TIP3     15870    TIP3     OH2      OT      -0.834000       15.9994           0
     69991 TIP3     15870    TIP3     H1       HT       0.417000       1.00800           0
     69992 TIP3     15870    TIP3     H2       HT       0.417000       1.00800           0
     69993 TIP3     15871    TIP3     OH2      OT      -0.834000       15.9994           0
     69994 TIP3     15871    TIP3     H1       HT       0.417000       1.00800           0
     69995 TIP3     15871    TIP3     H2       HT       0.417000       1.00800           0
     69996 TIP3     15872    TIP3     OH2      OT      -0.834000       15.9994           0
     69997 TIP3     15872    TIP3     H1       HT       0.417000       1.00800           0
     69998 TIP3     15872    TIP3     H2       HT       0.417000       1.00800           0
     69999 TIP3     15873    TIP3     OH2      OT      -0.834000       15.9994           0
     70000 TIP3     15873    TIP3     H1       HT       0.417000       1.00800           0
     70001 TIP3     15873    TIP3     H2       HT       0.417000       1.00800           0
     70002 TIP3     15874    TIP3     OH2      OT      -0.834000       15.9994           0
     70003 TIP3     15874    TIP3     H1       HT       0.417000       1.00800           0
     70004 TIP3     15874    TIP3     H2       HT       0.417000       1.00800           0
     70005 TIP3     15875    TIP3     OH2      OT      -0.834000       15.9994           0
     70006 TIP3     15875    TIP3     H1       HT       0.417000       1.00800           0
     70007 TIP3     15875    TIP3     H2       HT       0.417000       1.00800           0
     70008 TIP3     15876    TIP3     OH2      OT      -0.834000       15.9994           0
     70009 TIP3     15876    TIP3     H1       HT       0.417000       1.00800           0
     70010 TIP3     15876    TIP3     H2       HT       0.417000       1.00800           0
     70011 TIP3     15877    TIP3     OH2      OT      -0.834000       15.9994           0
     70012 TIP3     15877    TIP3     H1       HT       0.417000       1.00800           0
     70013 TIP3     15877    TIP3     H2       HT       0.417000       1.00800           0
     70014 TIP3     15878    TIP3     OH2      OT      -0.834000       15.9994           0
     70015 TIP3     15878    TIP3     H1       HT       0.417000       1.00800           0
     70016 TIP3     15878    TIP3     H2       HT       0.417000       1.00800           0
     70017 TIP3     15879    TIP3     OH2      OT      -0.834000       15.9994           0
     70018 TIP3     15879    TIP3     H1       HT       0.417000       1.00800           0
     70019 TIP3     15879    TIP3     H2       HT       0.417000       1.00800           0
     70020 TIP3     15880    TIP3     OH2      OT      -0.834000       15.9994           0
     70021 TIP3     15880    TIP3     H1       HT       0.417000       1.00800           0
     70022 TIP3     15880    TIP3     H2       HT       0.417000       1.00800           0
     70023 TIP3     15881    TIP3     OH2      OT      -0.834000       15.9994           0
     70024 TIP3     15881    TIP3     H1       HT       0.417000       1.00800           0
     70025 TIP3     15881    TIP3     H2       HT       0.417000       1.00800           0
     70026 TIP3     15882    TIP3     OH2      OT      -0.834000       15.9994           0
     70027 TIP3     15882    TIP3     H1       HT       0.417000       1.00800           0
     70028 TIP3     15882    TIP3     H2       HT       0.417000       1.00800           0
     70029 TIP3     15883    TIP3     OH2      OT      -0.834000       15.9994           0
     70030 TIP3     15883    TIP3     H1       HT       0.417000       1.00800           0
     70031 TIP3     15883    TIP3     H2       HT       0.417000       1.00800           0
     70032 TIP3     15884    TIP3     OH2      OT      -0.834000       15.9994           0
     70033 TIP3     15884    TIP3     H1       HT       0.417000       1.00800           0
     70034 TIP3     15884    TIP3     H2       HT       0.417000       1.00800           0
     70035 TIP3     15885    TIP3     OH2      OT      -0.834000       15.9994           0
     70036 TIP3     15885    TIP3     H1       HT       0.417000       1.00800           0
     70037 TIP3     15885    TIP3     H2       HT       0.417000       1.00800           0
     70038 TIP3     15886    TIP3     OH2      OT      -0.834000       15.9994           0
     70039 TIP3     15886    TIP3     H1       HT       0.417000       1.00800           0
     70040 TIP3     15886    TIP3     H2       HT       0.417000       1.00800           0
     70041 TIP3     15887    TIP3     OH2      OT      -0.834000       15.9994           0
     70042 TIP3     15887    TIP3     H1       HT       0.417000       1.00800           0
     70043 TIP3     15887    TIP3     H2       HT       0.417000       1.00800           0
     70044 TIP3     15888    TIP3     OH2      OT      -0.834000       15.9994           0
     70045 TIP3     15888    TIP3     H1       HT       0.417000       1.00800           0
     70046 TIP3     15888    TIP3     H2       HT       0.417000       1.00800           0
     70047 TIP3     15889    TIP3     OH2      OT      -0.834000       15.9994           0
     70048 TIP3     15889    TIP3     H1       HT       0.417000       1.00800           0
     70049 TIP3     15889    TIP3     H2       HT       0.417000       1.00800           0
     70050 TIP3     15890    TIP3     OH2      OT      -0.834000       15.9994           0
     70051 TIP3     15890    TIP3     H1       HT       0.417000       1.00800           0
     70052 TIP3     15890    TIP3     H2       HT       0.417000       1.00800           0
     70053 TIP3     15891    TIP3     OH2      OT      -0.834000       15.9994           0
     70054 TIP3     15891    TIP3     H1       HT       0.417000       1.00800           0
     70055 TIP3     15891    TIP3     H2       HT       0.417000       1.00800           0
     70056 TIP3     15892    TIP3     OH2      OT      -0.834000       15.9994           0
     70057 TIP3     15892    TIP3     H1       HT       0.417000       1.00800           0
     70058 TIP3     15892    TIP3     H2       HT       0.417000       1.00800           0
     70059 TIP3     15893    TIP3     OH2      OT      -0.834000       15.9994           0
     70060 TIP3     15893    TIP3     H1       HT       0.417000       1.00800           0
     70061 TIP3     15893    TIP3     H2       HT       0.417000       1.00800           0
     70062 TIP3     15894    TIP3     OH2      OT      -0.834000       15.9994           0
     70063 TIP3     15894    TIP3     H1       HT       0.417000       1.00800           0
     70064 TIP3     15894    TIP3     H2       HT       0.417000       1.00800           0
     70065 TIP3     15895    TIP3     OH2      OT      -0.834000       15.9994           0
     70066 TIP3     15895    TIP3     H1       HT       0.417000       1.00800           0
     70067 TIP3     15895    TIP3     H2       HT       0.417000       1.00800           0
     70068 TIP3     15896    TIP3     OH2      OT      -0.834000       15.9994           0
     70069 TIP3     15896    TIP3     H1       HT       0.417000       1.00800           0
     70070 TIP3     15896    TIP3     H2       HT       0.417000       1.00800           0
     70071 TIP3     15897    TIP3     OH2      OT      -0.834000       15.9994           0
     70072 TIP3     15897    TIP3     H1       HT       0.417000       1.00800           0
     70073 TIP3     15897    TIP3     H2       HT       0.417000       1.00800           0
     70074 TIP3     15898    TIP3     OH2      OT      -0.834000       15.9994           0
     70075 TIP3     15898    TIP3     H1       HT       0.417000       1.00800           0
     70076 TIP3     15898    TIP3     H2       HT       0.417000       1.00800           0
     70077 TIP3     15899    TIP3     OH2      OT      -0.834000       15.9994           0
     70078 TIP3     15899    TIP3     H1       HT       0.417000       1.00800           0
     70079 TIP3     15899    TIP3     H2       HT       0.417000       1.00800           0
     70080 TIP3     15900    TIP3     OH2      OT      -0.834000       15.9994           0
     70081 TIP3     15900    TIP3     H1       HT       0.417000       1.00800           0
     70082 TIP3     15900    TIP3     H2       HT       0.417000       1.00800           0
     70083 TIP3     15901    TIP3     OH2      OT      -0.834000       15.9994           0
     70084 TIP3     15901    TIP3     H1       HT       0.417000       1.00800           0
     70085 TIP3     15901    TIP3     H2       HT       0.417000       1.00800           0
     70086 TIP3     15902    TIP3     OH2      OT      -0.834000       15.9994           0
     70087 TIP3     15902    TIP3     H1       HT       0.417000       1.00800           0
     70088 TIP3     15902    TIP3     H2       HT       0.417000       1.00800           0
     70089 TIP3     15903    TIP3     OH2      OT      -0.834000       15.9994           0
     70090 TIP3     15903    TIP3     H1       HT       0.417000       1.00800           0
     70091 TIP3     15903    TIP3     H2       HT       0.417000       1.00800           0
     70092 TIP3     15904    TIP3     OH2      OT      -0.834000       15.9994           0
     70093 TIP3     15904    TIP3     H1       HT       0.417000       1.00800           0
     70094 TIP3     15904    TIP3     H2       HT       0.417000       1.00800           0
     70095 TIP3     15905    TIP3     OH2      OT      -0.834000       15.9994           0
     70096 TIP3     15905    TIP3     H1       HT       0.417000       1.00800           0
     70097 TIP3     15905    TIP3     H2       HT       0.417000       1.00800           0
     70098 TIP3     15906    TIP3     OH2      OT      -0.834000       15.9994           0
     70099 TIP3     15906    TIP3     H1       HT       0.417000       1.00800           0
     70100 TIP3     15906    TIP3     H2       HT       0.417000       1.00800           0
     70101 TIP3     15907    TIP3     OH2      OT      -0.834000       15.9994           0
     70102 TIP3     15907    TIP3     H1       HT       0.417000       1.00800           0
     70103 TIP3     15907    TIP3     H2       HT       0.417000       1.00800           0
     70104 TIP3     15908    TIP3     OH2      OT      -0.834000       15.9994           0
     70105 TIP3     15908    TIP3     H1       HT       0.417000       1.00800           0
     70106 TIP3     15908    TIP3     H2       HT       0.417000       1.00800           0
     70107 TIP3     15909    TIP3     OH2      OT      -0.834000       15.9994           0
     70108 TIP3     15909    TIP3     H1       HT       0.417000       1.00800           0
     70109 TIP3     15909    TIP3     H2       HT       0.417000       1.00800           0
     70110 TIP3     15910    TIP3     OH2      OT      -0.834000       15.9994           0
     70111 TIP3     15910    TIP3     H1       HT       0.417000       1.00800           0
     70112 TIP3     15910    TIP3     H2       HT       0.417000       1.00800           0
     70113 TIP3     15911    TIP3     OH2      OT      -0.834000       15.9994           0
     70114 TIP3     15911    TIP3     H1       HT       0.417000       1.00800           0
     70115 TIP3     15911    TIP3     H2       HT       0.417000       1.00800           0
     70116 TIP3     15912    TIP3     OH2      OT      -0.834000       15.9994           0
     70117 TIP3     15912    TIP3     H1       HT       0.417000       1.00800           0
     70118 TIP3     15912    TIP3     H2       HT       0.417000       1.00800           0
     70119 TIP3     15913    TIP3     OH2      OT      -0.834000       15.9994           0
     70120 TIP3     15913    TIP3     H1       HT       0.417000       1.00800           0
     70121 TIP3     15913    TIP3     H2       HT       0.417000       1.00800           0
     70122 TIP3     15914    TIP3     OH2      OT      -0.834000       15.9994           0
     70123 TIP3     15914    TIP3     H1       HT       0.417000       1.00800           0
     70124 TIP3     15914    TIP3     H2       HT       0.417000       1.00800           0
     70125 TIP3     15915    TIP3     OH2      OT      -0.834000       15.9994           0
     70126 TIP3     15915    TIP3     H1       HT       0.417000       1.00800           0
     70127 TIP3     15915    TIP3     H2       HT       0.417000       1.00800           0
     70128 TIP3     15916    TIP3     OH2      OT      -0.834000       15.9994           0
     70129 TIP3     15916    TIP3     H1       HT       0.417000       1.00800           0
     70130 TIP3     15916    TIP3     H2       HT       0.417000       1.00800           0
     70131 TIP3     15917    TIP3     OH2      OT      -0.834000       15.9994           0
     70132 TIP3     15917    TIP3     H1       HT       0.417000       1.00800           0
     70133 TIP3     15917    TIP3     H2       HT       0.417000       1.00800           0
     70134 TIP3     15918    TIP3     OH2      OT      -0.834000       15.9994           0
     70135 TIP3     15918    TIP3     H1       HT       0.417000       1.00800           0
     70136 TIP3     15918    TIP3     H2       HT       0.417000       1.00800           0
     70137 TIP3     15919    TIP3     OH2      OT      -0.834000       15.9994           0
     70138 TIP3     15919    TIP3     H1       HT       0.417000       1.00800           0
     70139 TIP3     15919    TIP3     H2       HT       0.417000       1.00800           0
     70140 TIP3     15920    TIP3     OH2      OT      -0.834000       15.9994           0
     70141 TIP3     15920    TIP3     H1       HT       0.417000       1.00800           0
     70142 TIP3     15920    TIP3     H2       HT       0.417000       1.00800           0
     70143 TIP3     15921    TIP3     OH2      OT      -0.834000       15.9994           0
     70144 TIP3     15921    TIP3     H1       HT       0.417000       1.00800           0
     70145 TIP3     15921    TIP3     H2       HT       0.417000       1.00800           0
     70146 TIP3     15922    TIP3     OH2      OT      -0.834000       15.9994           0
     70147 TIP3     15922    TIP3     H1       HT       0.417000       1.00800           0
     70148 TIP3     15922    TIP3     H2       HT       0.417000       1.00800           0
     70149 TIP3     15923    TIP3     OH2      OT      -0.834000       15.9994           0
     70150 TIP3     15923    TIP3     H1       HT       0.417000       1.00800           0
     70151 TIP3     15923    TIP3     H2       HT       0.417000       1.00800           0
     70152 TIP3     15924    TIP3     OH2      OT      -0.834000       15.9994           0
     70153 TIP3     15924    TIP3     H1       HT       0.417000       1.00800           0
     70154 TIP3     15924    TIP3     H2       HT       0.417000       1.00800           0
     70155 TIP3     15925    TIP3     OH2      OT      -0.834000       15.9994           0
     70156 TIP3     15925    TIP3     H1       HT       0.417000       1.00800           0
     70157 TIP3     15925    TIP3     H2       HT       0.417000       1.00800           0
     70158 TIP3     15926    TIP3     OH2      OT      -0.834000       15.9994           0
     70159 TIP3     15926    TIP3     H1       HT       0.417000       1.00800           0
     70160 TIP3     15926    TIP3     H2       HT       0.417000       1.00800           0
     70161 TIP3     15927    TIP3     OH2      OT      -0.834000       15.9994           0
     70162 TIP3     15927    TIP3     H1       HT       0.417000       1.00800           0
     70163 TIP3     15927    TIP3     H2       HT       0.417000       1.00800           0
     70164 TIP3     15928    TIP3     OH2      OT      -0.834000       15.9994           0
     70165 TIP3     15928    TIP3     H1       HT       0.417000       1.00800           0
     70166 TIP3     15928    TIP3     H2       HT       0.417000       1.00800           0
     70167 TIP3     15929    TIP3     OH2      OT      -0.834000       15.9994           0
     70168 TIP3     15929    TIP3     H1       HT       0.417000       1.00800           0
     70169 TIP3     15929    TIP3     H2       HT       0.417000       1.00800           0
     70170 TIP3     15930    TIP3     OH2      OT      -0.834000       15.9994           0
     70171 TIP3     15930    TIP3     H1       HT       0.417000       1.00800           0
     70172 TIP3     15930    TIP3     H2       HT       0.417000       1.00800           0
     70173 TIP3     15931    TIP3     OH2      OT      -0.834000       15.9994           0
     70174 TIP3     15931    TIP3     H1       HT       0.417000       1.00800           0
     70175 TIP3     15931    TIP3     H2       HT       0.417000       1.00800           0
     70176 TIP3     15932    TIP3     OH2      OT      -0.834000       15.9994           0
     70177 TIP3     15932    TIP3     H1       HT       0.417000       1.00800           0
     70178 TIP3     15932    TIP3     H2       HT       0.417000       1.00800           0
     70179 TIP3     15933    TIP3     OH2      OT      -0.834000       15.9994           0
     70180 TIP3     15933    TIP3     H1       HT       0.417000       1.00800           0
     70181 TIP3     15933    TIP3     H2       HT       0.417000       1.00800           0
     70182 TIP3     15934    TIP3     OH2      OT      -0.834000       15.9994           0
     70183 TIP3     15934    TIP3     H1       HT       0.417000       1.00800           0
     70184 TIP3     15934    TIP3     H2       HT       0.417000       1.00800           0
     70185 TIP3     15935    TIP3     OH2      OT      -0.834000       15.9994           0
     70186 TIP3     15935    TIP3     H1       HT       0.417000       1.00800           0
     70187 TIP3     15935    TIP3     H2       HT       0.417000       1.00800           0
     70188 TIP3     15936    TIP3     OH2      OT      -0.834000       15.9994           0
     70189 TIP3     15936    TIP3     H1       HT       0.417000       1.00800           0
     70190 TIP3     15936    TIP3     H2       HT       0.417000       1.00800           0
     70191 TIP3     15937    TIP3     OH2      OT      -0.834000       15.9994           0
     70192 TIP3     15937    TIP3     H1       HT       0.417000       1.00800           0
     70193 TIP3     15937    TIP3     H2       HT       0.417000       1.00800           0
     70194 TIP3     15938    TIP3     OH2      OT      -0.834000       15.9994           0
     70195 TIP3     15938    TIP3     H1       HT       0.417000       1.00800           0
     70196 TIP3     15938    TIP3     H2       HT       0.417000       1.00800           0
     70197 TIP3     15939    TIP3     OH2      OT      -0.834000       15.9994           0
     70198 TIP3     15939    TIP3     H1       HT       0.417000       1.00800           0
     70199 TIP3     15939    TIP3     H2       HT       0.417000       1.00800           0
     70200 TIP3     15940    TIP3     OH2      OT      -0.834000       15.9994           0
     70201 TIP3     15940    TIP3     H1       HT       0.417000       1.00800           0
     70202 TIP3     15940    TIP3     H2       HT       0.417000       1.00800           0
     70203 TIP3     15941    TIP3     OH2      OT      -0.834000       15.9994           0
     70204 TIP3     15941    TIP3     H1       HT       0.417000       1.00800           0
     70205 TIP3     15941    TIP3     H2       HT       0.417000       1.00800           0
     70206 TIP3     15942    TIP3     OH2      OT      -0.834000       15.9994           0
     70207 TIP3     15942    TIP3     H1       HT       0.417000       1.00800           0
     70208 TIP3     15942    TIP3     H2       HT       0.417000       1.00800           0
     70209 TIP3     15943    TIP3     OH2      OT      -0.834000       15.9994           0
     70210 TIP3     15943    TIP3     H1       HT       0.417000       1.00800           0
     70211 TIP3     15943    TIP3     H2       HT       0.417000       1.00800           0
     70212 TIP3     15944    TIP3     OH2      OT      -0.834000       15.9994           0
     70213 TIP3     15944    TIP3     H1       HT       0.417000       1.00800           0
     70214 TIP3     15944    TIP3     H2       HT       0.417000       1.00800           0
     70215 TIP3     15945    TIP3     OH2      OT      -0.834000       15.9994           0
     70216 TIP3     15945    TIP3     H1       HT       0.417000       1.00800           0
     70217 TIP3     15945    TIP3     H2       HT       0.417000       1.00800           0
     70218 TIP3     15946    TIP3     OH2      OT      -0.834000       15.9994           0
     70219 TIP3     15946    TIP3     H1       HT       0.417000       1.00800           0
     70220 TIP3     15946    TIP3     H2       HT       0.417000       1.00800           0
     70221 TIP3     15947    TIP3     OH2      OT      -0.834000       15.9994           0
     70222 TIP3     15947    TIP3     H1       HT       0.417000       1.00800           0
     70223 TIP3     15947    TIP3     H2       HT       0.417000       1.00800           0
     70224 TIP3     15948    TIP3     OH2      OT      -0.834000       15.9994           0
     70225 TIP3     15948    TIP3     H1       HT       0.417000       1.00800           0
     70226 TIP3     15948    TIP3     H2       HT       0.417000       1.00800           0
     70227 TIP3     15949    TIP3     OH2      OT      -0.834000       15.9994           0
     70228 TIP3     15949    TIP3     H1       HT       0.417000       1.00800           0
     70229 TIP3     15949    TIP3     H2       HT       0.417000       1.00800           0
     70230 TIP3     15950    TIP3     OH2      OT      -0.834000       15.9994           0
     70231 TIP3     15950    TIP3     H1       HT       0.417000       1.00800           0
     70232 TIP3     15950    TIP3     H2       HT       0.417000       1.00800           0
     70233 TIP3     15951    TIP3     OH2      OT      -0.834000       15.9994           0
     70234 TIP3     15951    TIP3     H1       HT       0.417000       1.00800           0
     70235 TIP3     15951    TIP3     H2       HT       0.417000       1.00800           0
     70236 TIP3     15952    TIP3     OH2      OT      -0.834000       15.9994           0
     70237 TIP3     15952    TIP3     H1       HT       0.417000       1.00800           0
     70238 TIP3     15952    TIP3     H2       HT       0.417000       1.00800           0
     70239 TIP3     15953    TIP3     OH2      OT      -0.834000       15.9994           0
     70240 TIP3     15953    TIP3     H1       HT       0.417000       1.00800           0
     70241 TIP3     15953    TIP3     H2       HT       0.417000       1.00800           0
     70242 TIP3     15954    TIP3     OH2      OT      -0.834000       15.9994           0
     70243 TIP3     15954    TIP3     H1       HT       0.417000       1.00800           0
     70244 TIP3     15954    TIP3     H2       HT       0.417000       1.00800           0
     70245 TIP3     15955    TIP3     OH2      OT      -0.834000       15.9994           0
     70246 TIP3     15955    TIP3     H1       HT       0.417000       1.00800           0
     70247 TIP3     15955    TIP3     H2       HT       0.417000       1.00800           0
     70248 TIP3     15956    TIP3     OH2      OT      -0.834000       15.9994           0
     70249 TIP3     15956    TIP3     H1       HT       0.417000       1.00800           0
     70250 TIP3     15956    TIP3     H2       HT       0.417000       1.00800           0
     70251 TIP3     15957    TIP3     OH2      OT      -0.834000       15.9994           0
     70252 TIP3     15957    TIP3     H1       HT       0.417000       1.00800           0
     70253 TIP3     15957    TIP3     H2       HT       0.417000       1.00800           0
     70254 TIP3     15958    TIP3     OH2      OT      -0.834000       15.9994           0
     70255 TIP3     15958    TIP3     H1       HT       0.417000       1.00800           0
     70256 TIP3     15958    TIP3     H2       HT       0.417000       1.00800           0
     70257 TIP3     15959    TIP3     OH2      OT      -0.834000       15.9994           0
     70258 TIP3     15959    TIP3     H1       HT       0.417000       1.00800           0
     70259 TIP3     15959    TIP3     H2       HT       0.417000       1.00800           0
     70260 TIP3     15960    TIP3     OH2      OT      -0.834000       15.9994           0
     70261 TIP3     15960    TIP3     H1       HT       0.417000       1.00800           0
     70262 TIP3     15960    TIP3     H2       HT       0.417000       1.00800           0
     70263 TIP3     15961    TIP3     OH2      OT      -0.834000       15.9994           0
     70264 TIP3     15961    TIP3     H1       HT       0.417000       1.00800           0
     70265 TIP3     15961    TIP3     H2       HT       0.417000       1.00800           0
     70266 TIP3     15962    TIP3     OH2      OT      -0.834000       15.9994           0
     70267 TIP3     15962    TIP3     H1       HT       0.417000       1.00800           0
     70268 TIP3     15962    TIP3     H2       HT       0.417000       1.00800           0
     70269 TIP3     15963    TIP3     OH2      OT      -0.834000       15.9994           0
     70270 TIP3     15963    TIP3     H1       HT       0.417000       1.00800           0
     70271 TIP3     15963    TIP3     H2       HT       0.417000       1.00800           0
     70272 TIP3     15964    TIP3     OH2      OT      -0.834000       15.9994           0
     70273 TIP3     15964    TIP3     H1       HT       0.417000       1.00800           0
     70274 TIP3     15964    TIP3     H2       HT       0.417000       1.00800           0
     70275 TIP3     15965    TIP3     OH2      OT      -0.834000       15.9994           0
     70276 TIP3     15965    TIP3     H1       HT       0.417000       1.00800           0
     70277 TIP3     15965    TIP3     H2       HT       0.417000       1.00800           0
     70278 TIP3     15966    TIP3     OH2      OT      -0.834000       15.9994           0
     70279 TIP3     15966    TIP3     H1       HT       0.417000       1.00800           0
     70280 TIP3     15966    TIP3     H2       HT       0.417000       1.00800           0
     70281 TIP3     15967    TIP3     OH2      OT      -0.834000       15.9994           0
     70282 TIP3     15967    TIP3     H1       HT       0.417000       1.00800           0
     70283 TIP3     15967    TIP3     H2       HT       0.417000       1.00800           0
     70284 TIP3     15968    TIP3     OH2      OT      -0.834000       15.9994           0
     70285 TIP3     15968    TIP3     H1       HT       0.417000       1.00800           0
     70286 TIP3     15968    TIP3     H2       HT       0.417000       1.00800           0
     70287 TIP3     15969    TIP3     OH2      OT      -0.834000       15.9994           0
     70288 TIP3     15969    TIP3     H1       HT       0.417000       1.00800           0
     70289 TIP3     15969    TIP3     H2       HT       0.417000       1.00800           0
     70290 TIP3     15970    TIP3     OH2      OT      -0.834000       15.9994           0
     70291 TIP3     15970    TIP3     H1       HT       0.417000       1.00800           0
     70292 TIP3     15970    TIP3     H2       HT       0.417000       1.00800           0
     70293 TIP3     15971    TIP3     OH2      OT      -0.834000       15.9994           0
     70294 TIP3     15971    TIP3     H1       HT       0.417000       1.00800           0
     70295 TIP3     15971    TIP3     H2       HT       0.417000       1.00800           0
     70296 TIP3     15972    TIP3     OH2      OT      -0.834000       15.9994           0
     70297 TIP3     15972    TIP3     H1       HT       0.417000       1.00800           0
     70298 TIP3     15972    TIP3     H2       HT       0.417000       1.00800           0
     70299 TIP3     15973    TIP3     OH2      OT      -0.834000       15.9994           0
     70300 TIP3     15973    TIP3     H1       HT       0.417000       1.00800           0
     70301 TIP3     15973    TIP3     H2       HT       0.417000       1.00800           0
     70302 TIP3     15974    TIP3     OH2      OT      -0.834000       15.9994           0
     70303 TIP3     15974    TIP3     H1       HT       0.417000       1.00800           0
     70304 TIP3     15974    TIP3     H2       HT       0.417000       1.00800           0
     70305 TIP3     15975    TIP3     OH2      OT      -0.834000       15.9994           0
     70306 TIP3     15975    TIP3     H1       HT       0.417000       1.00800           0
     70307 TIP3     15975    TIP3     H2       HT       0.417000       1.00800           0
     70308 TIP3     15976    TIP3     OH2      OT      -0.834000       15.9994           0
     70309 TIP3     15976    TIP3     H1       HT       0.417000       1.00800           0
     70310 TIP3     15976    TIP3     H2       HT       0.417000       1.00800           0
     70311 TIP3     15977    TIP3     OH2      OT      -0.834000       15.9994           0
     70312 TIP3     15977    TIP3     H1       HT       0.417000       1.00800           0
     70313 TIP3     15977    TIP3     H2       HT       0.417000       1.00800           0
     70314 TIP3     15978    TIP3     OH2      OT      -0.834000       15.9994           0
     70315 TIP3     15978    TIP3     H1       HT       0.417000       1.00800           0
     70316 TIP3     15978    TIP3     H2       HT       0.417000       1.00800           0
     70317 TIP3     15979    TIP3     OH2      OT      -0.834000       15.9994           0
     70318 TIP3     15979    TIP3     H1       HT       0.417000       1.00800           0
     70319 TIP3     15979    TIP3     H2       HT       0.417000       1.00800           0
     70320 TIP3     15980    TIP3     OH2      OT      -0.834000       15.9994           0
     70321 TIP3     15980    TIP3     H1       HT       0.417000       1.00800           0
     70322 TIP3     15980    TIP3     H2       HT       0.417000       1.00800           0
     70323 TIP3     15981    TIP3     OH2      OT      -0.834000       15.9994           0
     70324 TIP3     15981    TIP3     H1       HT       0.417000       1.00800           0
     70325 TIP3     15981    TIP3     H2       HT       0.417000       1.00800           0
     70326 TIP3     15982    TIP3     OH2      OT      -0.834000       15.9994           0
     70327 TIP3     15982    TIP3     H1       HT       0.417000       1.00800           0
     70328 TIP3     15982    TIP3     H2       HT       0.417000       1.00800           0
     70329 TIP3     15983    TIP3     OH2      OT      -0.834000       15.9994           0
     70330 TIP3     15983    TIP3     H1       HT       0.417000       1.00800           0
     70331 TIP3     15983    TIP3     H2       HT       0.417000       1.00800           0
     70332 TIP3     15984    TIP3     OH2      OT      -0.834000       15.9994           0
     70333 TIP3     15984    TIP3     H1       HT       0.417000       1.00800           0
     70334 TIP3     15984    TIP3     H2       HT       0.417000       1.00800           0
     70335 TIP3     15985    TIP3     OH2      OT      -0.834000       15.9994           0
     70336 TIP3     15985    TIP3     H1       HT       0.417000       1.00800           0
     70337 TIP3     15985    TIP3     H2       HT       0.417000       1.00800           0
     70338 TIP3     15986    TIP3     OH2      OT      -0.834000       15.9994           0
     70339 TIP3     15986    TIP3     H1       HT       0.417000       1.00800           0
     70340 TIP3     15986    TIP3     H2       HT       0.417000       1.00800           0
     70341 TIP3     15987    TIP3     OH2      OT      -0.834000       15.9994           0
     70342 TIP3     15987    TIP3     H1       HT       0.417000       1.00800           0
     70343 TIP3     15987    TIP3     H2       HT       0.417000       1.00800           0
     70344 TIP3     15988    TIP3     OH2      OT      -0.834000       15.9994           0
     70345 TIP3     15988    TIP3     H1       HT       0.417000       1.00800           0
     70346 TIP3     15988    TIP3     H2       HT       0.417000       1.00800           0
     70347 TIP3     15989    TIP3     OH2      OT      -0.834000       15.9994           0
     70348 TIP3     15989    TIP3     H1       HT       0.417000       1.00800           0
     70349 TIP3     15989    TIP3     H2       HT       0.417000       1.00800           0
     70350 TIP3     15990    TIP3     OH2      OT      -0.834000       15.9994           0
     70351 TIP3     15990    TIP3     H1       HT       0.417000       1.00800           0
     70352 TIP3     15990    TIP3     H2       HT       0.417000       1.00800           0
     70353 TIP3     15991    TIP3     OH2      OT      -0.834000       15.9994           0
     70354 TIP3     15991    TIP3     H1       HT       0.417000       1.00800           0
     70355 TIP3     15991    TIP3     H2       HT       0.417000       1.00800           0
     70356 TIP3     15992    TIP3     OH2      OT      -0.834000       15.9994           0
     70357 TIP3     15992    TIP3     H1       HT       0.417000       1.00800           0
     70358 TIP3     15992    TIP3     H2       HT       0.417000       1.00800           0
     70359 TIP3     15993    TIP3     OH2      OT      -0.834000       15.9994           0
     70360 TIP3     15993    TIP3     H1       HT       0.417000       1.00800           0
     70361 TIP3     15993    TIP3     H2       HT       0.417000       1.00800           0
     70362 TIP3     15994    TIP3     OH2      OT      -0.834000       15.9994           0
     70363 TIP3     15994    TIP3     H1       HT       0.417000       1.00800           0
     70364 TIP3     15994    TIP3     H2       HT       0.417000       1.00800           0
     70365 TIP3     15995    TIP3     OH2      OT      -0.834000       15.9994           0
     70366 TIP3     15995    TIP3     H1       HT       0.417000       1.00800           0
     70367 TIP3     15995    TIP3     H2       HT       0.417000       1.00800           0
     70368 TIP3     15996    TIP3     OH2      OT      -0.834000       15.9994           0
     70369 TIP3     15996    TIP3     H1       HT       0.417000       1.00800           0
     70370 TIP3     15996    TIP3     H2       HT       0.417000       1.00800           0
     70371 TIP3     15997    TIP3     OH2      OT      -0.834000       15.9994           0
     70372 TIP3     15997    TIP3     H1       HT       0.417000       1.00800           0
     70373 TIP3     15997    TIP3     H2       HT       0.417000       1.00800           0
     70374 TIP3     15998    TIP3     OH2      OT      -0.834000       15.9994           0
     70375 TIP3     15998    TIP3     H1       HT       0.417000       1.00800           0
     70376 TIP3     15998    TIP3     H2       HT       0.417000       1.00800           0
     70377 TIP3     15999    TIP3     OH2      OT      -0.834000       15.9994           0
     70378 TIP3     15999    TIP3     H1       HT       0.417000       1.00800           0
     70379 TIP3     15999    TIP3     H2       HT       0.417000       1.00800           0
     70380 TIP3     16000    TIP3     OH2      OT      -0.834000       15.9994           0
     70381 TIP3     16000    TIP3     H1       HT       0.417000       1.00800           0
     70382 TIP3     16000    TIP3     H2       HT       0.417000       1.00800           0
     70383 TIP3     16001    TIP3     OH2      OT      -0.834000       15.9994           0
     70384 TIP3     16001    TIP3     H1       HT       0.417000       1.00800           0
     70385 TIP3     16001    TIP3     H2       HT       0.417000       1.00800           0
     70386 TIP3     16002    TIP3     OH2      OT      -0.834000       15.9994           0
     70387 TIP3     16002    TIP3     H1       HT       0.417000       1.00800           0
     70388 TIP3     16002    TIP3     H2       HT       0.417000       1.00800           0
     70389 TIP3     16003    TIP3     OH2      OT      -0.834000       15.9994           0
     70390 TIP3     16003    TIP3     H1       HT       0.417000       1.00800           0
     70391 TIP3     16003    TIP3     H2       HT       0.417000       1.00800           0
     70392 TIP3     16004    TIP3     OH2      OT      -0.834000       15.9994           0
     70393 TIP3     16004    TIP3     H1       HT       0.417000       1.00800           0
     70394 TIP3     16004    TIP3     H2       HT       0.417000       1.00800           0
     70395 TIP3     16005    TIP3     OH2      OT      -0.834000       15.9994           0
     70396 TIP3     16005    TIP3     H1       HT       0.417000       1.00800           0
     70397 TIP3     16005    TIP3     H2       HT       0.417000       1.00800           0
     70398 TIP3     16006    TIP3     OH2      OT      -0.834000       15.9994           0
     70399 TIP3     16006    TIP3     H1       HT       0.417000       1.00800           0
     70400 TIP3     16006    TIP3     H2       HT       0.417000       1.00800           0
     70401 TIP3     16007    TIP3     OH2      OT      -0.834000       15.9994           0
     70402 TIP3     16007    TIP3     H1       HT       0.417000       1.00800           0
     70403 TIP3     16007    TIP3     H2       HT       0.417000       1.00800           0
     70404 TIP3     16008    TIP3     OH2      OT      -0.834000       15.9994           0
     70405 TIP3     16008    TIP3     H1       HT       0.417000       1.00800           0
     70406 TIP3     16008    TIP3     H2       HT       0.417000       1.00800           0
     70407 TIP3     16009    TIP3     OH2      OT      -0.834000       15.9994           0
     70408 TIP3     16009    TIP3     H1       HT       0.417000       1.00800           0
     70409 TIP3     16009    TIP3     H2       HT       0.417000       1.00800           0
     70410 TIP3     16010    TIP3     OH2      OT      -0.834000       15.9994           0
     70411 TIP3     16010    TIP3     H1       HT       0.417000       1.00800           0
     70412 TIP3     16010    TIP3     H2       HT       0.417000       1.00800           0
     70413 TIP3     16011    TIP3     OH2      OT      -0.834000       15.9994           0
     70414 TIP3     16011    TIP3     H1       HT       0.417000       1.00800           0
     70415 TIP3     16011    TIP3     H2       HT       0.417000       1.00800           0
     70416 TIP3     16012    TIP3     OH2      OT      -0.834000       15.9994           0
     70417 TIP3     16012    TIP3     H1       HT       0.417000       1.00800           0
     70418 TIP3     16012    TIP3     H2       HT       0.417000       1.00800           0
     70419 TIP3     16013    TIP3     OH2      OT      -0.834000       15.9994           0
     70420 TIP3     16013    TIP3     H1       HT       0.417000       1.00800           0
     70421 TIP3     16013    TIP3     H2       HT       0.417000       1.00800           0
     70422 TIP3     16014    TIP3     OH2      OT      -0.834000       15.9994           0
     70423 TIP3     16014    TIP3     H1       HT       0.417000       1.00800           0
     70424 TIP3     16014    TIP3     H2       HT       0.417000       1.00800           0
     70425 TIP3     16015    TIP3     OH2      OT      -0.834000       15.9994           0
     70426 TIP3     16015    TIP3     H1       HT       0.417000       1.00800           0
     70427 TIP3     16015    TIP3     H2       HT       0.417000       1.00800           0
     70428 TIP3     16016    TIP3     OH2      OT      -0.834000       15.9994           0
     70429 TIP3     16016    TIP3     H1       HT       0.417000       1.00800           0
     70430 TIP3     16016    TIP3     H2       HT       0.417000       1.00800           0
     70431 TIP3     16017    TIP3     OH2      OT      -0.834000       15.9994           0
     70432 TIP3     16017    TIP3     H1       HT       0.417000       1.00800           0
     70433 TIP3     16017    TIP3     H2       HT       0.417000       1.00800           0
     70434 TIP3     16018    TIP3     OH2      OT      -0.834000       15.9994           0
     70435 TIP3     16018    TIP3     H1       HT       0.417000       1.00800           0
     70436 TIP3     16018    TIP3     H2       HT       0.417000       1.00800           0
     70437 TIP3     16019    TIP3     OH2      OT      -0.834000       15.9994           0
     70438 TIP3     16019    TIP3     H1       HT       0.417000       1.00800           0
     70439 TIP3     16019    TIP3     H2       HT       0.417000       1.00800           0
     70440 TIP3     16020    TIP3     OH2      OT      -0.834000       15.9994           0
     70441 TIP3     16020    TIP3     H1       HT       0.417000       1.00800           0
     70442 TIP3     16020    TIP3     H2       HT       0.417000       1.00800           0
     70443 TIP3     16021    TIP3     OH2      OT      -0.834000       15.9994           0
     70444 TIP3     16021    TIP3     H1       HT       0.417000       1.00800           0
     70445 TIP3     16021    TIP3     H2       HT       0.417000       1.00800           0
     70446 TIP3     16022    TIP3     OH2      OT      -0.834000       15.9994           0
     70447 TIP3     16022    TIP3     H1       HT       0.417000       1.00800           0
     70448 TIP3     16022    TIP3     H2       HT       0.417000       1.00800           0
     70449 TIP3     16023    TIP3     OH2      OT      -0.834000       15.9994           0
     70450 TIP3     16023    TIP3     H1       HT       0.417000       1.00800           0
     70451 TIP3     16023    TIP3     H2       HT       0.417000       1.00800           0
     70452 TIP3     16024    TIP3     OH2      OT      -0.834000       15.9994           0
     70453 TIP3     16024    TIP3     H1       HT       0.417000       1.00800           0
     70454 TIP3     16024    TIP3     H2       HT       0.417000       1.00800           0
     70455 TIP3     16025    TIP3     OH2      OT      -0.834000       15.9994           0
     70456 TIP3     16025    TIP3     H1       HT       0.417000       1.00800           0
     70457 TIP3     16025    TIP3     H2       HT       0.417000       1.00800           0
     70458 TIP3     16026    TIP3     OH2      OT      -0.834000       15.9994           0
     70459 TIP3     16026    TIP3     H1       HT       0.417000       1.00800           0
     70460 TIP3     16026    TIP3     H2       HT       0.417000       1.00800           0
     70461 TIP3     16027    TIP3     OH2      OT      -0.834000       15.9994           0
     70462 TIP3     16027    TIP3     H1       HT       0.417000       1.00800           0
     70463 TIP3     16027    TIP3     H2       HT       0.417000       1.00800           0
     70464 TIP3     16028    TIP3     OH2      OT      -0.834000       15.9994           0
     70465 TIP3     16028    TIP3     H1       HT       0.417000       1.00800           0
     70466 TIP3     16028    TIP3     H2       HT       0.417000       1.00800           0
     70467 TIP3     16029    TIP3     OH2      OT      -0.834000       15.9994           0
     70468 TIP3     16029    TIP3     H1       HT       0.417000       1.00800           0
     70469 TIP3     16029    TIP3     H2       HT       0.417000       1.00800           0
     70470 TIP3     16030    TIP3     OH2      OT      -0.834000       15.9994           0
     70471 TIP3     16030    TIP3     H1       HT       0.417000       1.00800           0
     70472 TIP3     16030    TIP3     H2       HT       0.417000       1.00800           0
     70473 TIP3     16031    TIP3     OH2      OT      -0.834000       15.9994           0
     70474 TIP3     16031    TIP3     H1       HT       0.417000       1.00800           0
     70475 TIP3     16031    TIP3     H2       HT       0.417000       1.00800           0
     70476 TIP3     16032    TIP3     OH2      OT      -0.834000       15.9994           0
     70477 TIP3     16032    TIP3     H1       HT       0.417000       1.00800           0
     70478 TIP3     16032    TIP3     H2       HT       0.417000       1.00800           0
     70479 TIP3     16033    TIP3     OH2      OT      -0.834000       15.9994           0
     70480 TIP3     16033    TIP3     H1       HT       0.417000       1.00800           0
     70481 TIP3     16033    TIP3     H2       HT       0.417000       1.00800           0
     70482 TIP3     16034    TIP3     OH2      OT      -0.834000       15.9994           0
     70483 TIP3     16034    TIP3     H1       HT       0.417000       1.00800           0
     70484 TIP3     16034    TIP3     H2       HT       0.417000       1.00800           0
     70485 TIP3     16035    TIP3     OH2      OT      -0.834000       15.9994           0
     70486 TIP3     16035    TIP3     H1       HT       0.417000       1.00800           0
     70487 TIP3     16035    TIP3     H2       HT       0.417000       1.00800           0
     70488 TIP3     16036    TIP3     OH2      OT      -0.834000       15.9994           0
     70489 TIP3     16036    TIP3     H1       HT       0.417000       1.00800           0
     70490 TIP3     16036    TIP3     H2       HT       0.417000       1.00800           0
     70491 TIP3     16037    TIP3     OH2      OT      -0.834000       15.9994           0
     70492 TIP3     16037    TIP3     H1       HT       0.417000       1.00800           0
     70493 TIP3     16037    TIP3     H2       HT       0.417000       1.00800           0
     70494 TIP3     16038    TIP3     OH2      OT      -0.834000       15.9994           0
     70495 TIP3     16038    TIP3     H1       HT       0.417000       1.00800           0
     70496 TIP3     16038    TIP3     H2       HT       0.417000       1.00800           0
     70497 TIP3     16039    TIP3     OH2      OT      -0.834000       15.9994           0
     70498 TIP3     16039    TIP3     H1       HT       0.417000       1.00800           0
     70499 TIP3     16039    TIP3     H2       HT       0.417000       1.00800           0
     70500 TIP3     16040    TIP3     OH2      OT      -0.834000       15.9994           0
     70501 TIP3     16040    TIP3     H1       HT       0.417000       1.00800           0
     70502 TIP3     16040    TIP3     H2       HT       0.417000       1.00800           0
     70503 TIP3     16041    TIP3     OH2      OT      -0.834000       15.9994           0
     70504 TIP3     16041    TIP3     H1       HT       0.417000       1.00800           0
     70505 TIP3     16041    TIP3     H2       HT       0.417000       1.00800           0
     70506 TIP3     16042    TIP3     OH2      OT      -0.834000       15.9994           0
     70507 TIP3     16042    TIP3     H1       HT       0.417000       1.00800           0
     70508 TIP3     16042    TIP3     H2       HT       0.417000       1.00800           0
     70509 TIP3     16043    TIP3     OH2      OT      -0.834000       15.9994           0
     70510 TIP3     16043    TIP3     H1       HT       0.417000       1.00800           0
     70511 TIP3     16043    TIP3     H2       HT       0.417000       1.00800           0
     70512 TIP3     16044    TIP3     OH2      OT      -0.834000       15.9994           0
     70513 TIP3     16044    TIP3     H1       HT       0.417000       1.00800           0
     70514 TIP3     16044    TIP3     H2       HT       0.417000       1.00800           0
     70515 TIP3     16045    TIP3     OH2      OT      -0.834000       15.9994           0
     70516 TIP3     16045    TIP3     H1       HT       0.417000       1.00800           0
     70517 TIP3     16045    TIP3     H2       HT       0.417000       1.00800           0
     70518 TIP3     16046    TIP3     OH2      OT      -0.834000       15.9994           0
     70519 TIP3     16046    TIP3     H1       HT       0.417000       1.00800           0
     70520 TIP3     16046    TIP3     H2       HT       0.417000       1.00800           0
     70521 TIP3     16047    TIP3     OH2      OT      -0.834000       15.9994           0
     70522 TIP3     16047    TIP3     H1       HT       0.417000       1.00800           0
     70523 TIP3     16047    TIP3     H2       HT       0.417000       1.00800           0
     70524 TIP3     16048    TIP3     OH2      OT      -0.834000       15.9994           0
     70525 TIP3     16048    TIP3     H1       HT       0.417000       1.00800           0
     70526 TIP3     16048    TIP3     H2       HT       0.417000       1.00800           0
     70527 TIP3     16049    TIP3     OH2      OT      -0.834000       15.9994           0
     70528 TIP3     16049    TIP3     H1       HT       0.417000       1.00800           0
     70529 TIP3     16049    TIP3     H2       HT       0.417000       1.00800           0
     70530 TIP3     16050    TIP3     OH2      OT      -0.834000       15.9994           0
     70531 TIP3     16050    TIP3     H1       HT       0.417000       1.00800           0
     70532 TIP3     16050    TIP3     H2       HT       0.417000       1.00800           0
     70533 TIP3     16051    TIP3     OH2      OT      -0.834000       15.9994           0
     70534 TIP3     16051    TIP3     H1       HT       0.417000       1.00800           0
     70535 TIP3     16051    TIP3     H2       HT       0.417000       1.00800           0
     70536 TIP3     16052    TIP3     OH2      OT      -0.834000       15.9994           0
     70537 TIP3     16052    TIP3     H1       HT       0.417000       1.00800           0
     70538 TIP3     16052    TIP3     H2       HT       0.417000       1.00800           0
     70539 TIP3     16053    TIP3     OH2      OT      -0.834000       15.9994           0
     70540 TIP3     16053    TIP3     H1       HT       0.417000       1.00800           0
     70541 TIP3     16053    TIP3     H2       HT       0.417000       1.00800           0
     70542 TIP3     16054    TIP3     OH2      OT      -0.834000       15.9994           0
     70543 TIP3     16054    TIP3     H1       HT       0.417000       1.00800           0
     70544 TIP3     16054    TIP3     H2       HT       0.417000       1.00800           0
     70545 TIP3     16055    TIP3     OH2      OT      -0.834000       15.9994           0
     70546 TIP3     16055    TIP3     H1       HT       0.417000       1.00800           0
     70547 TIP3     16055    TIP3     H2       HT       0.417000       1.00800           0
     70548 TIP3     16056    TIP3     OH2      OT      -0.834000       15.9994           0
     70549 TIP3     16056    TIP3     H1       HT       0.417000       1.00800           0
     70550 TIP3     16056    TIP3     H2       HT       0.417000       1.00800           0
     70551 TIP3     16057    TIP3     OH2      OT      -0.834000       15.9994           0
     70552 TIP3     16057    TIP3     H1       HT       0.417000       1.00800           0
     70553 TIP3     16057    TIP3     H2       HT       0.417000       1.00800           0
     70554 TIP3     16058    TIP3     OH2      OT      -0.834000       15.9994           0
     70555 TIP3     16058    TIP3     H1       HT       0.417000       1.00800           0
     70556 TIP3     16058    TIP3     H2       HT       0.417000       1.00800           0
     70557 TIP3     16059    TIP3     OH2      OT      -0.834000       15.9994           0
     70558 TIP3     16059    TIP3     H1       HT       0.417000       1.00800           0
     70559 TIP3     16059    TIP3     H2       HT       0.417000       1.00800           0
     70560 TIP3     16060    TIP3     OH2      OT      -0.834000       15.9994           0
     70561 TIP3     16060    TIP3     H1       HT       0.417000       1.00800           0
     70562 TIP3     16060    TIP3     H2       HT       0.417000       1.00800           0
     70563 TIP3     16061    TIP3     OH2      OT      -0.834000       15.9994           0
     70564 TIP3     16061    TIP3     H1       HT       0.417000       1.00800           0
     70565 TIP3     16061    TIP3     H2       HT       0.417000       1.00800           0
     70566 TIP3     16062    TIP3     OH2      OT      -0.834000       15.9994           0
     70567 TIP3     16062    TIP3     H1       HT       0.417000       1.00800           0
     70568 TIP3     16062    TIP3     H2       HT       0.417000       1.00800           0
     70569 TIP3     16063    TIP3     OH2      OT      -0.834000       15.9994           0
     70570 TIP3     16063    TIP3     H1       HT       0.417000       1.00800           0
     70571 TIP3     16063    TIP3     H2       HT       0.417000       1.00800           0
     70572 TIP3     16064    TIP3     OH2      OT      -0.834000       15.9994           0
     70573 TIP3     16064    TIP3     H1       HT       0.417000       1.00800           0
     70574 TIP3     16064    TIP3     H2       HT       0.417000       1.00800           0
     70575 TIP3     16065    TIP3     OH2      OT      -0.834000       15.9994           0
     70576 TIP3     16065    TIP3     H1       HT       0.417000       1.00800           0
     70577 TIP3     16065    TIP3     H2       HT       0.417000       1.00800           0
     70578 TIP3     16066    TIP3     OH2      OT      -0.834000       15.9994           0
     70579 TIP3     16066    TIP3     H1       HT       0.417000       1.00800           0
     70580 TIP3     16066    TIP3     H2       HT       0.417000       1.00800           0
     70581 TIP3     16067    TIP3     OH2      OT      -0.834000       15.9994           0
     70582 TIP3     16067    TIP3     H1       HT       0.417000       1.00800           0
     70583 TIP3     16067    TIP3     H2       HT       0.417000       1.00800           0
     70584 TIP3     16068    TIP3     OH2      OT      -0.834000       15.9994           0
     70585 TIP3     16068    TIP3     H1       HT       0.417000       1.00800           0
     70586 TIP3     16068    TIP3     H2       HT       0.417000       1.00800           0
     70587 TIP3     16069    TIP3     OH2      OT      -0.834000       15.9994           0
     70588 TIP3     16069    TIP3     H1       HT       0.417000       1.00800           0
     70589 TIP3     16069    TIP3     H2       HT       0.417000       1.00800           0
     70590 TIP3     16070    TIP3     OH2      OT      -0.834000       15.9994           0
     70591 TIP3     16070    TIP3     H1       HT       0.417000       1.00800           0
     70592 TIP3     16070    TIP3     H2       HT       0.417000       1.00800           0
     70593 TIP3     16071    TIP3     OH2      OT      -0.834000       15.9994           0
     70594 TIP3     16071    TIP3     H1       HT       0.417000       1.00800           0
     70595 TIP3     16071    TIP3     H2       HT       0.417000       1.00800           0
     70596 TIP3     16072    TIP3     OH2      OT      -0.834000       15.9994           0
     70597 TIP3     16072    TIP3     H1       HT       0.417000       1.00800           0
     70598 TIP3     16072    TIP3     H2       HT       0.417000       1.00800           0
     70599 TIP3     16073    TIP3     OH2      OT      -0.834000       15.9994           0
     70600 TIP3     16073    TIP3     H1       HT       0.417000       1.00800           0
     70601 TIP3     16073    TIP3     H2       HT       0.417000       1.00800           0
     70602 TIP3     16074    TIP3     OH2      OT      -0.834000       15.9994           0
     70603 TIP3     16074    TIP3     H1       HT       0.417000       1.00800           0
     70604 TIP3     16074    TIP3     H2       HT       0.417000       1.00800           0
     70605 TIP3     16075    TIP3     OH2      OT      -0.834000       15.9994           0
     70606 TIP3     16075    TIP3     H1       HT       0.417000       1.00800           0
     70607 TIP3     16075    TIP3     H2       HT       0.417000       1.00800           0
     70608 TIP3     16076    TIP3     OH2      OT      -0.834000       15.9994           0
     70609 TIP3     16076    TIP3     H1       HT       0.417000       1.00800           0
     70610 TIP3     16076    TIP3     H2       HT       0.417000       1.00800           0
     70611 TIP3     16077    TIP3     OH2      OT      -0.834000       15.9994           0
     70612 TIP3     16077    TIP3     H1       HT       0.417000       1.00800           0
     70613 TIP3     16077    TIP3     H2       HT       0.417000       1.00800           0
     70614 TIP3     16078    TIP3     OH2      OT      -0.834000       15.9994           0
     70615 TIP3     16078    TIP3     H1       HT       0.417000       1.00800           0
     70616 TIP3     16078    TIP3     H2       HT       0.417000       1.00800           0
     70617 TIP3     16079    TIP3     OH2      OT      -0.834000       15.9994           0
     70618 TIP3     16079    TIP3     H1       HT       0.417000       1.00800           0
     70619 TIP3     16079    TIP3     H2       HT       0.417000       1.00800           0
     70620 TIP3     16080    TIP3     OH2      OT      -0.834000       15.9994           0
     70621 TIP3     16080    TIP3     H1       HT       0.417000       1.00800           0
     70622 TIP3     16080    TIP3     H2       HT       0.417000       1.00800           0
     70623 TIP3     16081    TIP3     OH2      OT      -0.834000       15.9994           0
     70624 TIP3     16081    TIP3     H1       HT       0.417000       1.00800           0
     70625 TIP3     16081    TIP3     H2       HT       0.417000       1.00800           0
     70626 TIP3     16082    TIP3     OH2      OT      -0.834000       15.9994           0
     70627 TIP3     16082    TIP3     H1       HT       0.417000       1.00800           0
     70628 TIP3     16082    TIP3     H2       HT       0.417000       1.00800           0
     70629 TIP3     16083    TIP3     OH2      OT      -0.834000       15.9994           0
     70630 TIP3     16083    TIP3     H1       HT       0.417000       1.00800           0
     70631 TIP3     16083    TIP3     H2       HT       0.417000       1.00800           0
     70632 TIP3     16084    TIP3     OH2      OT      -0.834000       15.9994           0
     70633 TIP3     16084    TIP3     H1       HT       0.417000       1.00800           0
     70634 TIP3     16084    TIP3     H2       HT       0.417000       1.00800           0
     70635 TIP3     16085    TIP3     OH2      OT      -0.834000       15.9994           0
     70636 TIP3     16085    TIP3     H1       HT       0.417000       1.00800           0
     70637 TIP3     16085    TIP3     H2       HT       0.417000       1.00800           0
     70638 TIP3     16086    TIP3     OH2      OT      -0.834000       15.9994           0
     70639 TIP3     16086    TIP3     H1       HT       0.417000       1.00800           0
     70640 TIP3     16086    TIP3     H2       HT       0.417000       1.00800           0
     70641 TIP3     16087    TIP3     OH2      OT      -0.834000       15.9994           0
     70642 TIP3     16087    TIP3     H1       HT       0.417000       1.00800           0
     70643 TIP3     16087    TIP3     H2       HT       0.417000       1.00800           0
     70644 TIP3     16088    TIP3     OH2      OT      -0.834000       15.9994           0
     70645 TIP3     16088    TIP3     H1       HT       0.417000       1.00800           0
     70646 TIP3     16088    TIP3     H2       HT       0.417000       1.00800           0
     70647 TIP3     16089    TIP3     OH2      OT      -0.834000       15.9994           0
     70648 TIP3     16089    TIP3     H1       HT       0.417000       1.00800           0
     70649 TIP3     16089    TIP3     H2       HT       0.417000       1.00800           0
     70650 TIP3     16090    TIP3     OH2      OT      -0.834000       15.9994           0
     70651 TIP3     16090    TIP3     H1       HT       0.417000       1.00800           0
     70652 TIP3     16090    TIP3     H2       HT       0.417000       1.00800           0
     70653 TIP3     16091    TIP3     OH2      OT      -0.834000       15.9994           0
     70654 TIP3     16091    TIP3     H1       HT       0.417000       1.00800           0
     70655 TIP3     16091    TIP3     H2       HT       0.417000       1.00800           0
     70656 TIP3     16092    TIP3     OH2      OT      -0.834000       15.9994           0
     70657 TIP3     16092    TIP3     H1       HT       0.417000       1.00800           0
     70658 TIP3     16092    TIP3     H2       HT       0.417000       1.00800           0
     70659 TIP3     16093    TIP3     OH2      OT      -0.834000       15.9994           0
     70660 TIP3     16093    TIP3     H1       HT       0.417000       1.00800           0
     70661 TIP3     16093    TIP3     H2       HT       0.417000       1.00800           0
     70662 TIP3     16094    TIP3     OH2      OT      -0.834000       15.9994           0
     70663 TIP3     16094    TIP3     H1       HT       0.417000       1.00800           0
     70664 TIP3     16094    TIP3     H2       HT       0.417000       1.00800           0
     70665 TIP3     16095    TIP3     OH2      OT      -0.834000       15.9994           0
     70666 TIP3     16095    TIP3     H1       HT       0.417000       1.00800           0
     70667 TIP3     16095    TIP3     H2       HT       0.417000       1.00800           0
     70668 TIP3     16096    TIP3     OH2      OT      -0.834000       15.9994           0
     70669 TIP3     16096    TIP3     H1       HT       0.417000       1.00800           0
     70670 TIP3     16096    TIP3     H2       HT       0.417000       1.00800           0
     70671 TIP3     16097    TIP3     OH2      OT      -0.834000       15.9994           0
     70672 TIP3     16097    TIP3     H1       HT       0.417000       1.00800           0
     70673 TIP3     16097    TIP3     H2       HT       0.417000       1.00800           0
     70674 TIP3     16098    TIP3     OH2      OT      -0.834000       15.9994           0
     70675 TIP3     16098    TIP3     H1       HT       0.417000       1.00800           0
     70676 TIP3     16098    TIP3     H2       HT       0.417000       1.00800           0
     70677 TIP3     16099    TIP3     OH2      OT      -0.834000       15.9994           0
     70678 TIP3     16099    TIP3     H1       HT       0.417000       1.00800           0
     70679 TIP3     16099    TIP3     H2       HT       0.417000       1.00800           0
     70680 TIP3     16100    TIP3     OH2      OT      -0.834000       15.9994           0
     70681 TIP3     16100    TIP3     H1       HT       0.417000       1.00800           0
     70682 TIP3     16100    TIP3     H2       HT       0.417000       1.00800           0
     70683 TIP3     16101    TIP3     OH2      OT      -0.834000       15.9994           0
     70684 TIP3     16101    TIP3     H1       HT       0.417000       1.00800           0
     70685 TIP3     16101    TIP3     H2       HT       0.417000       1.00800           0
     70686 TIP3     16102    TIP3     OH2      OT      -0.834000       15.9994           0
     70687 TIP3     16102    TIP3     H1       HT       0.417000       1.00800           0
     70688 TIP3     16102    TIP3     H2       HT       0.417000       1.00800           0
     70689 TIP3     16103    TIP3     OH2      OT      -0.834000       15.9994           0
     70690 TIP3     16103    TIP3     H1       HT       0.417000       1.00800           0
     70691 TIP3     16103    TIP3     H2       HT       0.417000       1.00800           0
     70692 TIP3     16104    TIP3     OH2      OT      -0.834000       15.9994           0
     70693 TIP3     16104    TIP3     H1       HT       0.417000       1.00800           0
     70694 TIP3     16104    TIP3     H2       HT       0.417000       1.00800           0
     70695 TIP3     16105    TIP3     OH2      OT      -0.834000       15.9994           0
     70696 TIP3     16105    TIP3     H1       HT       0.417000       1.00800           0
     70697 TIP3     16105    TIP3     H2       HT       0.417000       1.00800           0
     70698 TIP3     16106    TIP3     OH2      OT      -0.834000       15.9994           0
     70699 TIP3     16106    TIP3     H1       HT       0.417000       1.00800           0
     70700 TIP3     16106    TIP3     H2       HT       0.417000       1.00800           0
     70701 TIP3     16107    TIP3     OH2      OT      -0.834000       15.9994           0
     70702 TIP3     16107    TIP3     H1       HT       0.417000       1.00800           0
     70703 TIP3     16107    TIP3     H2       HT       0.417000       1.00800           0
     70704 TIP3     16108    TIP3     OH2      OT      -0.834000       15.9994           0
     70705 TIP3     16108    TIP3     H1       HT       0.417000       1.00800           0
     70706 TIP3     16108    TIP3     H2       HT       0.417000       1.00800           0
     70707 TIP3     16109    TIP3     OH2      OT      -0.834000       15.9994           0
     70708 TIP3     16109    TIP3     H1       HT       0.417000       1.00800           0
     70709 TIP3     16109    TIP3     H2       HT       0.417000       1.00800           0
     70710 TIP3     16110    TIP3     OH2      OT      -0.834000       15.9994           0
     70711 TIP3     16110    TIP3     H1       HT       0.417000       1.00800           0
     70712 TIP3     16110    TIP3     H2       HT       0.417000       1.00800           0
     70713 TIP3     16111    TIP3     OH2      OT      -0.834000       15.9994           0
     70714 TIP3     16111    TIP3     H1       HT       0.417000       1.00800           0
     70715 TIP3     16111    TIP3     H2       HT       0.417000       1.00800           0
     70716 TIP3     16112    TIP3     OH2      OT      -0.834000       15.9994           0
     70717 TIP3     16112    TIP3     H1       HT       0.417000       1.00800           0
     70718 TIP3     16112    TIP3     H2       HT       0.417000       1.00800           0
     70719 TIP3     16113    TIP3     OH2      OT      -0.834000       15.9994           0
     70720 TIP3     16113    TIP3     H1       HT       0.417000       1.00800           0
     70721 TIP3     16113    TIP3     H2       HT       0.417000       1.00800           0
     70722 TIP3     16114    TIP3     OH2      OT      -0.834000       15.9994           0
     70723 TIP3     16114    TIP3     H1       HT       0.417000       1.00800           0
     70724 TIP3     16114    TIP3     H2       HT       0.417000       1.00800           0
     70725 TIP3     16115    TIP3     OH2      OT      -0.834000       15.9994           0
     70726 TIP3     16115    TIP3     H1       HT       0.417000       1.00800           0
     70727 TIP3     16115    TIP3     H2       HT       0.417000       1.00800           0
     70728 TIP3     16116    TIP3     OH2      OT      -0.834000       15.9994           0
     70729 TIP3     16116    TIP3     H1       HT       0.417000       1.00800           0
     70730 TIP3     16116    TIP3     H2       HT       0.417000       1.00800           0
     70731 TIP3     16117    TIP3     OH2      OT      -0.834000       15.9994           0
     70732 TIP3     16117    TIP3     H1       HT       0.417000       1.00800           0
     70733 TIP3     16117    TIP3     H2       HT       0.417000       1.00800           0
     70734 TIP3     16118    TIP3     OH2      OT      -0.834000       15.9994           0
     70735 TIP3     16118    TIP3     H1       HT       0.417000       1.00800           0
     70736 TIP3     16118    TIP3     H2       HT       0.417000       1.00800           0
     70737 TIP3     16119    TIP3     OH2      OT      -0.834000       15.9994           0
     70738 TIP3     16119    TIP3     H1       HT       0.417000       1.00800           0
     70739 TIP3     16119    TIP3     H2       HT       0.417000       1.00800           0
     70740 TIP3     16120    TIP3     OH2      OT      -0.834000       15.9994           0
     70741 TIP3     16120    TIP3     H1       HT       0.417000       1.00800           0
     70742 TIP3     16120    TIP3     H2       HT       0.417000       1.00800           0
     70743 TIP3     16121    TIP3     OH2      OT      -0.834000       15.9994           0
     70744 TIP3     16121    TIP3     H1       HT       0.417000       1.00800           0
     70745 TIP3     16121    TIP3     H2       HT       0.417000       1.00800           0
     70746 TIP3     16122    TIP3     OH2      OT      -0.834000       15.9994           0
     70747 TIP3     16122    TIP3     H1       HT       0.417000       1.00800           0
     70748 TIP3     16122    TIP3     H2       HT       0.417000       1.00800           0
     70749 TIP3     16123    TIP3     OH2      OT      -0.834000       15.9994           0
     70750 TIP3     16123    TIP3     H1       HT       0.417000       1.00800           0
     70751 TIP3     16123    TIP3     H2       HT       0.417000       1.00800           0
     70752 TIP3     16124    TIP3     OH2      OT      -0.834000       15.9994           0
     70753 TIP3     16124    TIP3     H1       HT       0.417000       1.00800           0
     70754 TIP3     16124    TIP3     H2       HT       0.417000       1.00800           0
     70755 TIP3     16125    TIP3     OH2      OT      -0.834000       15.9994           0
     70756 TIP3     16125    TIP3     H1       HT       0.417000       1.00800           0
     70757 TIP3     16125    TIP3     H2       HT       0.417000       1.00800           0
     70758 TIP3     16126    TIP3     OH2      OT      -0.834000       15.9994           0
     70759 TIP3     16126    TIP3     H1       HT       0.417000       1.00800           0
     70760 TIP3     16126    TIP3     H2       HT       0.417000       1.00800           0
     70761 TIP3     16127    TIP3     OH2      OT      -0.834000       15.9994           0
     70762 TIP3     16127    TIP3     H1       HT       0.417000       1.00800           0
     70763 TIP3     16127    TIP3     H2       HT       0.417000       1.00800           0
     70764 TIP3     16128    TIP3     OH2      OT      -0.834000       15.9994           0
     70765 TIP3     16128    TIP3     H1       HT       0.417000       1.00800           0
     70766 TIP3     16128    TIP3     H2       HT       0.417000       1.00800           0
     70767 TIP3     16129    TIP3     OH2      OT      -0.834000       15.9994           0
     70768 TIP3     16129    TIP3     H1       HT       0.417000       1.00800           0
     70769 TIP3     16129    TIP3     H2       HT       0.417000       1.00800           0
     70770 TIP3     16130    TIP3     OH2      OT      -0.834000       15.9994           0
     70771 TIP3     16130    TIP3     H1       HT       0.417000       1.00800           0
     70772 TIP3     16130    TIP3     H2       HT       0.417000       1.00800           0
     70773 TIP3     16131    TIP3     OH2      OT      -0.834000       15.9994           0
     70774 TIP3     16131    TIP3     H1       HT       0.417000       1.00800           0
     70775 TIP3     16131    TIP3     H2       HT       0.417000       1.00800           0
     70776 TIP3     16132    TIP3     OH2      OT      -0.834000       15.9994           0
     70777 TIP3     16132    TIP3     H1       HT       0.417000       1.00800           0
     70778 TIP3     16132    TIP3     H2       HT       0.417000       1.00800           0
     70779 TIP3     16133    TIP3     OH2      OT      -0.834000       15.9994           0
     70780 TIP3     16133    TIP3     H1       HT       0.417000       1.00800           0
     70781 TIP3     16133    TIP3     H2       HT       0.417000       1.00800           0
     70782 TIP3     16134    TIP3     OH2      OT      -0.834000       15.9994           0
     70783 TIP3     16134    TIP3     H1       HT       0.417000       1.00800           0
     70784 TIP3     16134    TIP3     H2       HT       0.417000       1.00800           0
     70785 TIP3     16135    TIP3     OH2      OT      -0.834000       15.9994           0
     70786 TIP3     16135    TIP3     H1       HT       0.417000       1.00800           0
     70787 TIP3     16135    TIP3     H2       HT       0.417000       1.00800           0
     70788 TIP3     16136    TIP3     OH2      OT      -0.834000       15.9994           0
     70789 TIP3     16136    TIP3     H1       HT       0.417000       1.00800           0
     70790 TIP3     16136    TIP3     H2       HT       0.417000       1.00800           0
     70791 TIP3     16137    TIP3     OH2      OT      -0.834000       15.9994           0
     70792 TIP3     16137    TIP3     H1       HT       0.417000       1.00800           0
     70793 TIP3     16137    TIP3     H2       HT       0.417000       1.00800           0
     70794 TIP3     16138    TIP3     OH2      OT      -0.834000       15.9994           0
     70795 TIP3     16138    TIP3     H1       HT       0.417000       1.00800           0
     70796 TIP3     16138    TIP3     H2       HT       0.417000       1.00800           0
     70797 TIP3     16139    TIP3     OH2      OT      -0.834000       15.9994           0
     70798 TIP3     16139    TIP3     H1       HT       0.417000       1.00800           0
     70799 TIP3     16139    TIP3     H2       HT       0.417000       1.00800           0
     70800 TIP3     16140    TIP3     OH2      OT      -0.834000       15.9994           0
     70801 TIP3     16140    TIP3     H1       HT       0.417000       1.00800           0
     70802 TIP3     16140    TIP3     H2       HT       0.417000       1.00800           0
     70803 TIP3     16141    TIP3     OH2      OT      -0.834000       15.9994           0
     70804 TIP3     16141    TIP3     H1       HT       0.417000       1.00800           0
     70805 TIP3     16141    TIP3     H2       HT       0.417000       1.00800           0
     70806 TIP3     16142    TIP3     OH2      OT      -0.834000       15.9994           0
     70807 TIP3     16142    TIP3     H1       HT       0.417000       1.00800           0
     70808 TIP3     16142    TIP3     H2       HT       0.417000       1.00800           0
     70809 TIP3     16143    TIP3     OH2      OT      -0.834000       15.9994           0
     70810 TIP3     16143    TIP3     H1       HT       0.417000       1.00800           0
     70811 TIP3     16143    TIP3     H2       HT       0.417000       1.00800           0
     70812 TIP3     16144    TIP3     OH2      OT      -0.834000       15.9994           0
     70813 TIP3     16144    TIP3     H1       HT       0.417000       1.00800           0
     70814 TIP3     16144    TIP3     H2       HT       0.417000       1.00800           0
     70815 TIP3     16145    TIP3     OH2      OT      -0.834000       15.9994           0
     70816 TIP3     16145    TIP3     H1       HT       0.417000       1.00800           0
     70817 TIP3     16145    TIP3     H2       HT       0.417000       1.00800           0
     70818 TIP3     16146    TIP3     OH2      OT      -0.834000       15.9994           0
     70819 TIP3     16146    TIP3     H1       HT       0.417000       1.00800           0
     70820 TIP3     16146    TIP3     H2       HT       0.417000       1.00800           0
     70821 TIP3     16147    TIP3     OH2      OT      -0.834000       15.9994           0
     70822 TIP3     16147    TIP3     H1       HT       0.417000       1.00800           0
     70823 TIP3     16147    TIP3     H2       HT       0.417000       1.00800           0
     70824 TIP3     16148    TIP3     OH2      OT      -0.834000       15.9994           0
     70825 TIP3     16148    TIP3     H1       HT       0.417000       1.00800           0
     70826 TIP3     16148    TIP3     H2       HT       0.417000       1.00800           0
     70827 TIP3     16149    TIP3     OH2      OT      -0.834000       15.9994           0
     70828 TIP3     16149    TIP3     H1       HT       0.417000       1.00800           0
     70829 TIP3     16149    TIP3     H2       HT       0.417000       1.00800           0
     70830 TIP3     16150    TIP3     OH2      OT      -0.834000       15.9994           0
     70831 TIP3     16150    TIP3     H1       HT       0.417000       1.00800           0
     70832 TIP3     16150    TIP3     H2       HT       0.417000       1.00800           0
     70833 TIP3     16151    TIP3     OH2      OT      -0.834000       15.9994           0
     70834 TIP3     16151    TIP3     H1       HT       0.417000       1.00800           0
     70835 TIP3     16151    TIP3     H2       HT       0.417000       1.00800           0
     70836 TIP3     16152    TIP3     OH2      OT      -0.834000       15.9994           0
     70837 TIP3     16152    TIP3     H1       HT       0.417000       1.00800           0
     70838 TIP3     16152    TIP3     H2       HT       0.417000       1.00800           0
     70839 TIP3     16153    TIP3     OH2      OT      -0.834000       15.9994           0
     70840 TIP3     16153    TIP3     H1       HT       0.417000       1.00800           0
     70841 TIP3     16153    TIP3     H2       HT       0.417000       1.00800           0
     70842 TIP3     16154    TIP3     OH2      OT      -0.834000       15.9994           0
     70843 TIP3     16154    TIP3     H1       HT       0.417000       1.00800           0
     70844 TIP3     16154    TIP3     H2       HT       0.417000       1.00800           0
     70845 TIP3     16155    TIP3     OH2      OT      -0.834000       15.9994           0
     70846 TIP3     16155    TIP3     H1       HT       0.417000       1.00800           0
     70847 TIP3     16155    TIP3     H2       HT       0.417000       1.00800           0
     70848 TIP3     16156    TIP3     OH2      OT      -0.834000       15.9994           0
     70849 TIP3     16156    TIP3     H1       HT       0.417000       1.00800           0
     70850 TIP3     16156    TIP3     H2       HT       0.417000       1.00800           0
     70851 TIP3     16157    TIP3     OH2      OT      -0.834000       15.9994           0
     70852 TIP3     16157    TIP3     H1       HT       0.417000       1.00800           0
     70853 TIP3     16157    TIP3     H2       HT       0.417000       1.00800           0
     70854 TIP3     16158    TIP3     OH2      OT      -0.834000       15.9994           0
     70855 TIP3     16158    TIP3     H1       HT       0.417000       1.00800           0
     70856 TIP3     16158    TIP3     H2       HT       0.417000       1.00800           0
     70857 TIP3     16159    TIP3     OH2      OT      -0.834000       15.9994           0
     70858 TIP3     16159    TIP3     H1       HT       0.417000       1.00800           0
     70859 TIP3     16159    TIP3     H2       HT       0.417000       1.00800           0
     70860 TIP3     16160    TIP3     OH2      OT      -0.834000       15.9994           0
     70861 TIP3     16160    TIP3     H1       HT       0.417000       1.00800           0
     70862 TIP3     16160    TIP3     H2       HT       0.417000       1.00800           0
     70863 TIP3     16161    TIP3     OH2      OT      -0.834000       15.9994           0
     70864 TIP3     16161    TIP3     H1       HT       0.417000       1.00800           0
     70865 TIP3     16161    TIP3     H2       HT       0.417000       1.00800           0
     70866 TIP3     16162    TIP3     OH2      OT      -0.834000       15.9994           0
     70867 TIP3     16162    TIP3     H1       HT       0.417000       1.00800           0
     70868 TIP3     16162    TIP3     H2       HT       0.417000       1.00800           0
     70869 TIP3     16163    TIP3     OH2      OT      -0.834000       15.9994           0
     70870 TIP3     16163    TIP3     H1       HT       0.417000       1.00800           0
     70871 TIP3     16163    TIP3     H2       HT       0.417000       1.00800           0
     70872 TIP3     16164    TIP3     OH2      OT      -0.834000       15.9994           0
     70873 TIP3     16164    TIP3     H1       HT       0.417000       1.00800           0
     70874 TIP3     16164    TIP3     H2       HT       0.417000       1.00800           0
     70875 TIP3     16165    TIP3     OH2      OT      -0.834000       15.9994           0
     70876 TIP3     16165    TIP3     H1       HT       0.417000       1.00800           0
     70877 TIP3     16165    TIP3     H2       HT       0.417000       1.00800           0
     70878 TIP3     16166    TIP3     OH2      OT      -0.834000       15.9994           0
     70879 TIP3     16166    TIP3     H1       HT       0.417000       1.00800           0
     70880 TIP3     16166    TIP3     H2       HT       0.417000       1.00800           0
     70881 TIP3     16167    TIP3     OH2      OT      -0.834000       15.9994           0
     70882 TIP3     16167    TIP3     H1       HT       0.417000       1.00800           0
     70883 TIP3     16167    TIP3     H2       HT       0.417000       1.00800           0
     70884 TIP3     16168    TIP3     OH2      OT      -0.834000       15.9994           0
     70885 TIP3     16168    TIP3     H1       HT       0.417000       1.00800           0
     70886 TIP3     16168    TIP3     H2       HT       0.417000       1.00800           0
     70887 TIP3     16169    TIP3     OH2      OT      -0.834000       15.9994           0
     70888 TIP3     16169    TIP3     H1       HT       0.417000       1.00800           0
     70889 TIP3     16169    TIP3     H2       HT       0.417000       1.00800           0
     70890 TIP3     16170    TIP3     OH2      OT      -0.834000       15.9994           0
     70891 TIP3     16170    TIP3     H1       HT       0.417000       1.00800           0
     70892 TIP3     16170    TIP3     H2       HT       0.417000       1.00800           0
     70893 TIP3     16171    TIP3     OH2      OT      -0.834000       15.9994           0
     70894 TIP3     16171    TIP3     H1       HT       0.417000       1.00800           0
     70895 TIP3     16171    TIP3     H2       HT       0.417000       1.00800           0
     70896 TIP3     16172    TIP3     OH2      OT      -0.834000       15.9994           0
     70897 TIP3     16172    TIP3     H1       HT       0.417000       1.00800           0
     70898 TIP3     16172    TIP3     H2       HT       0.417000       1.00800           0
     70899 TIP3     16173    TIP3     OH2      OT      -0.834000       15.9994           0
     70900 TIP3     16173    TIP3     H1       HT       0.417000       1.00800           0
     70901 TIP3     16173    TIP3     H2       HT       0.417000       1.00800           0
     70902 TIP3     16174    TIP3     OH2      OT      -0.834000       15.9994           0
     70903 TIP3     16174    TIP3     H1       HT       0.417000       1.00800           0
     70904 TIP3     16174    TIP3     H2       HT       0.417000       1.00800           0
     70905 TIP3     16175    TIP3     OH2      OT      -0.834000       15.9994           0
     70906 TIP3     16175    TIP3     H1       HT       0.417000       1.00800           0
     70907 TIP3     16175    TIP3     H2       HT       0.417000       1.00800           0
     70908 TIP3     16176    TIP3     OH2      OT      -0.834000       15.9994           0
     70909 TIP3     16176    TIP3     H1       HT       0.417000       1.00800           0
     70910 TIP3     16176    TIP3     H2       HT       0.417000       1.00800           0
     70911 TIP3     16177    TIP3     OH2      OT      -0.834000       15.9994           0
     70912 TIP3     16177    TIP3     H1       HT       0.417000       1.00800           0
     70913 TIP3     16177    TIP3     H2       HT       0.417000       1.00800           0
     70914 TIP3     16178    TIP3     OH2      OT      -0.834000       15.9994           0
     70915 TIP3     16178    TIP3     H1       HT       0.417000       1.00800           0
     70916 TIP3     16178    TIP3     H2       HT       0.417000       1.00800           0
     70917 TIP3     16179    TIP3     OH2      OT      -0.834000       15.9994           0
     70918 TIP3     16179    TIP3     H1       HT       0.417000       1.00800           0
     70919 TIP3     16179    TIP3     H2       HT       0.417000       1.00800           0
     70920 TIP3     16180    TIP3     OH2      OT      -0.834000       15.9994           0
     70921 TIP3     16180    TIP3     H1       HT       0.417000       1.00800           0
     70922 TIP3     16180    TIP3     H2       HT       0.417000       1.00800           0
     70923 TIP3     16181    TIP3     OH2      OT      -0.834000       15.9994           0
     70924 TIP3     16181    TIP3     H1       HT       0.417000       1.00800           0
     70925 TIP3     16181    TIP3     H2       HT       0.417000       1.00800           0
     70926 TIP3     16182    TIP3     OH2      OT      -0.834000       15.9994           0
     70927 TIP3     16182    TIP3     H1       HT       0.417000       1.00800           0
     70928 TIP3     16182    TIP3     H2       HT       0.417000       1.00800           0
     70929 TIP3     16183    TIP3     OH2      OT      -0.834000       15.9994           0
     70930 TIP3     16183    TIP3     H1       HT       0.417000       1.00800           0
     70931 TIP3     16183    TIP3     H2       HT       0.417000       1.00800           0
     70932 TIP3     16184    TIP3     OH2      OT      -0.834000       15.9994           0
     70933 TIP3     16184    TIP3     H1       HT       0.417000       1.00800           0
     70934 TIP3     16184    TIP3     H2       HT       0.417000       1.00800           0
     70935 TIP3     16185    TIP3     OH2      OT      -0.834000       15.9994           0
     70936 TIP3     16185    TIP3     H1       HT       0.417000       1.00800           0
     70937 TIP3     16185    TIP3     H2       HT       0.417000       1.00800           0
     70938 TIP3     16186    TIP3     OH2      OT      -0.834000       15.9994           0
     70939 TIP3     16186    TIP3     H1       HT       0.417000       1.00800           0
     70940 TIP3     16186    TIP3     H2       HT       0.417000       1.00800           0
     70941 TIP3     16187    TIP3     OH2      OT      -0.834000       15.9994           0
     70942 TIP3     16187    TIP3     H1       HT       0.417000       1.00800           0
     70943 TIP3     16187    TIP3     H2       HT       0.417000       1.00800           0
     70944 TIP3     16188    TIP3     OH2      OT      -0.834000       15.9994           0
     70945 TIP3     16188    TIP3     H1       HT       0.417000       1.00800           0
     70946 TIP3     16188    TIP3     H2       HT       0.417000       1.00800           0
     70947 TIP3     16189    TIP3     OH2      OT      -0.834000       15.9994           0
     70948 TIP3     16189    TIP3     H1       HT       0.417000       1.00800           0
     70949 TIP3     16189    TIP3     H2       HT       0.417000       1.00800           0
     70950 TIP3     16190    TIP3     OH2      OT      -0.834000       15.9994           0
     70951 TIP3     16190    TIP3     H1       HT       0.417000       1.00800           0
     70952 TIP3     16190    TIP3     H2       HT       0.417000       1.00800           0
     70953 TIP3     16191    TIP3     OH2      OT      -0.834000       15.9994           0
     70954 TIP3     16191    TIP3     H1       HT       0.417000       1.00800           0
     70955 TIP3     16191    TIP3     H2       HT       0.417000       1.00800           0
     70956 TIP3     16192    TIP3     OH2      OT      -0.834000       15.9994           0
     70957 TIP3     16192    TIP3     H1       HT       0.417000       1.00800           0
     70958 TIP3     16192    TIP3     H2       HT       0.417000       1.00800           0
     70959 TIP3     16193    TIP3     OH2      OT      -0.834000       15.9994           0
     70960 TIP3     16193    TIP3     H1       HT       0.417000       1.00800           0
     70961 TIP3     16193    TIP3     H2       HT       0.417000       1.00800           0
     70962 TIP3     16194    TIP3     OH2      OT      -0.834000       15.9994           0
     70963 TIP3     16194    TIP3     H1       HT       0.417000       1.00800           0
     70964 TIP3     16194    TIP3     H2       HT       0.417000       1.00800           0
     70965 TIP3     16195    TIP3     OH2      OT      -0.834000       15.9994           0
     70966 TIP3     16195    TIP3     H1       HT       0.417000       1.00800           0
     70967 TIP3     16195    TIP3     H2       HT       0.417000       1.00800           0
     70968 TIP3     16196    TIP3     OH2      OT      -0.834000       15.9994           0
     70969 TIP3     16196    TIP3     H1       HT       0.417000       1.00800           0
     70970 TIP3     16196    TIP3     H2       HT       0.417000       1.00800           0
     70971 TIP3     16197    TIP3     OH2      OT      -0.834000       15.9994           0
     70972 TIP3     16197    TIP3     H1       HT       0.417000       1.00800           0
     70973 TIP3     16197    TIP3     H2       HT       0.417000       1.00800           0
     70974 TIP3     16198    TIP3     OH2      OT      -0.834000       15.9994           0
     70975 TIP3     16198    TIP3     H1       HT       0.417000       1.00800           0
     70976 TIP3     16198    TIP3     H2       HT       0.417000       1.00800           0
     70977 TIP3     16199    TIP3     OH2      OT      -0.834000       15.9994           0
     70978 TIP3     16199    TIP3     H1       HT       0.417000       1.00800           0
     70979 TIP3     16199    TIP3     H2       HT       0.417000       1.00800           0
     70980 TIP3     16200    TIP3     OH2      OT      -0.834000       15.9994           0
     70981 TIP3     16200    TIP3     H1       HT       0.417000       1.00800           0
     70982 TIP3     16200    TIP3     H2       HT       0.417000       1.00800           0
     70983 TIP3     16201    TIP3     OH2      OT      -0.834000       15.9994           0
     70984 TIP3     16201    TIP3     H1       HT       0.417000       1.00800           0
     70985 TIP3     16201    TIP3     H2       HT       0.417000       1.00800           0
     70986 TIP3     16202    TIP3     OH2      OT      -0.834000       15.9994           0
     70987 TIP3     16202    TIP3     H1       HT       0.417000       1.00800           0
     70988 TIP3     16202    TIP3     H2       HT       0.417000       1.00800           0
     70989 TIP3     16203    TIP3     OH2      OT      -0.834000       15.9994           0
     70990 TIP3     16203    TIP3     H1       HT       0.417000       1.00800           0
     70991 TIP3     16203    TIP3     H2       HT       0.417000       1.00800           0
     70992 TIP3     16204    TIP3     OH2      OT      -0.834000       15.9994           0
     70993 TIP3     16204    TIP3     H1       HT       0.417000       1.00800           0
     70994 TIP3     16204    TIP3     H2       HT       0.417000       1.00800           0
     70995 TIP3     16205    TIP3     OH2      OT      -0.834000       15.9994           0
     70996 TIP3     16205    TIP3     H1       HT       0.417000       1.00800           0
     70997 TIP3     16205    TIP3     H2       HT       0.417000       1.00800           0
     70998 TIP3     16206    TIP3     OH2      OT      -0.834000       15.9994           0
     70999 TIP3     16206    TIP3     H1       HT       0.417000       1.00800           0
     71000 TIP3     16206    TIP3     H2       HT       0.417000       1.00800           0
     71001 TIP3     16207    TIP3     OH2      OT      -0.834000       15.9994           0
     71002 TIP3     16207    TIP3     H1       HT       0.417000       1.00800           0
     71003 TIP3     16207    TIP3     H2       HT       0.417000       1.00800           0
     71004 TIP3     16208    TIP3     OH2      OT      -0.834000       15.9994           0
     71005 TIP3     16208    TIP3     H1       HT       0.417000       1.00800           0
     71006 TIP3     16208    TIP3     H2       HT       0.417000       1.00800           0
     71007 TIP3     16209    TIP3     OH2      OT      -0.834000       15.9994           0
     71008 TIP3     16209    TIP3     H1       HT       0.417000       1.00800           0
     71009 TIP3     16209    TIP3     H2       HT       0.417000       1.00800           0
     71010 TIP3     16210    TIP3     OH2      OT      -0.834000       15.9994           0
     71011 TIP3     16210    TIP3     H1       HT       0.417000       1.00800           0
     71012 TIP3     16210    TIP3     H2       HT       0.417000       1.00800           0
     71013 TIP3     16211    TIP3     OH2      OT      -0.834000       15.9994           0
     71014 TIP3     16211    TIP3     H1       HT       0.417000       1.00800           0
     71015 TIP3     16211    TIP3     H2       HT       0.417000       1.00800           0
     71016 TIP3     16212    TIP3     OH2      OT      -0.834000       15.9994           0
     71017 TIP3     16212    TIP3     H1       HT       0.417000       1.00800           0
     71018 TIP3     16212    TIP3     H2       HT       0.417000       1.00800           0
     71019 TIP3     16213    TIP3     OH2      OT      -0.834000       15.9994           0
     71020 TIP3     16213    TIP3     H1       HT       0.417000       1.00800           0
     71021 TIP3     16213    TIP3     H2       HT       0.417000       1.00800           0
     71022 TIP3     16214    TIP3     OH2      OT      -0.834000       15.9994           0
     71023 TIP3     16214    TIP3     H1       HT       0.417000       1.00800           0
     71024 TIP3     16214    TIP3     H2       HT       0.417000       1.00800           0
     71025 TIP3     16215    TIP3     OH2      OT      -0.834000       15.9994           0
     71026 TIP3     16215    TIP3     H1       HT       0.417000       1.00800           0
     71027 TIP3     16215    TIP3     H2       HT       0.417000       1.00800           0
     71028 TIP3     16216    TIP3     OH2      OT      -0.834000       15.9994           0
     71029 TIP3     16216    TIP3     H1       HT       0.417000       1.00800           0
     71030 TIP3     16216    TIP3     H2       HT       0.417000       1.00800           0
     71031 TIP3     16217    TIP3     OH2      OT      -0.834000       15.9994           0
     71032 TIP3     16217    TIP3     H1       HT       0.417000       1.00800           0
     71033 TIP3     16217    TIP3     H2       HT       0.417000       1.00800           0
     71034 TIP3     16218    TIP3     OH2      OT      -0.834000       15.9994           0
     71035 TIP3     16218    TIP3     H1       HT       0.417000       1.00800           0
     71036 TIP3     16218    TIP3     H2       HT       0.417000       1.00800           0
     71037 TIP3     16219    TIP3     OH2      OT      -0.834000       15.9994           0
     71038 TIP3     16219    TIP3     H1       HT       0.417000       1.00800           0
     71039 TIP3     16219    TIP3     H2       HT       0.417000       1.00800           0
     71040 TIP3     16220    TIP3     OH2      OT      -0.834000       15.9994           0
     71041 TIP3     16220    TIP3     H1       HT       0.417000       1.00800           0
     71042 TIP3     16220    TIP3     H2       HT       0.417000       1.00800           0
     71043 TIP3     16221    TIP3     OH2      OT      -0.834000       15.9994           0
     71044 TIP3     16221    TIP3     H1       HT       0.417000       1.00800           0
     71045 TIP3     16221    TIP3     H2       HT       0.417000       1.00800           0
     71046 TIP3     16222    TIP3     OH2      OT      -0.834000       15.9994           0
     71047 TIP3     16222    TIP3     H1       HT       0.417000       1.00800           0
     71048 TIP3     16222    TIP3     H2       HT       0.417000       1.00800           0
     71049 TIP3     16223    TIP3     OH2      OT      -0.834000       15.9994           0
     71050 TIP3     16223    TIP3     H1       HT       0.417000       1.00800           0
     71051 TIP3     16223    TIP3     H2       HT       0.417000       1.00800           0
     71052 TIP3     16224    TIP3     OH2      OT      -0.834000       15.9994           0
     71053 TIP3     16224    TIP3     H1       HT       0.417000       1.00800           0
     71054 TIP3     16224    TIP3     H2       HT       0.417000       1.00800           0
     71055 TIP3     16225    TIP3     OH2      OT      -0.834000       15.9994           0
     71056 TIP3     16225    TIP3     H1       HT       0.417000       1.00800           0
     71057 TIP3     16225    TIP3     H2       HT       0.417000       1.00800           0
     71058 TIP3     16226    TIP3     OH2      OT      -0.834000       15.9994           0
     71059 TIP3     16226    TIP3     H1       HT       0.417000       1.00800           0
     71060 TIP3     16226    TIP3     H2       HT       0.417000       1.00800           0
     71061 TIP3     16227    TIP3     OH2      OT      -0.834000       15.9994           0
     71062 TIP3     16227    TIP3     H1       HT       0.417000       1.00800           0
     71063 TIP3     16227    TIP3     H2       HT       0.417000       1.00800           0
     71064 TIP3     16228    TIP3     OH2      OT      -0.834000       15.9994           0
     71065 TIP3     16228    TIP3     H1       HT       0.417000       1.00800           0
     71066 TIP3     16228    TIP3     H2       HT       0.417000       1.00800           0
     71067 TIP3     16229    TIP3     OH2      OT      -0.834000       15.9994           0
     71068 TIP3     16229    TIP3     H1       HT       0.417000       1.00800           0
     71069 TIP3     16229    TIP3     H2       HT       0.417000       1.00800           0
     71070 TIP3     16230    TIP3     OH2      OT      -0.834000       15.9994           0
     71071 TIP3     16230    TIP3     H1       HT       0.417000       1.00800           0
     71072 TIP3     16230    TIP3     H2       HT       0.417000       1.00800           0
     71073 TIP3     16231    TIP3     OH2      OT      -0.834000       15.9994           0
     71074 TIP3     16231    TIP3     H1       HT       0.417000       1.00800           0
     71075 TIP3     16231    TIP3     H2       HT       0.417000       1.00800           0
     71076 TIP3     16232    TIP3     OH2      OT      -0.834000       15.9994           0
     71077 TIP3     16232    TIP3     H1       HT       0.417000       1.00800           0
     71078 TIP3     16232    TIP3     H2       HT       0.417000       1.00800           0
     71079 TIP3     16233    TIP3     OH2      OT      -0.834000       15.9994           0
     71080 TIP3     16233    TIP3     H1       HT       0.417000       1.00800           0
     71081 TIP3     16233    TIP3     H2       HT       0.417000       1.00800           0
     71082 TIP3     16234    TIP3     OH2      OT      -0.834000       15.9994           0
     71083 TIP3     16234    TIP3     H1       HT       0.417000       1.00800           0
     71084 TIP3     16234    TIP3     H2       HT       0.417000       1.00800           0
     71085 TIP3     16235    TIP3     OH2      OT      -0.834000       15.9994           0
     71086 TIP3     16235    TIP3     H1       HT       0.417000       1.00800           0
     71087 TIP3     16235    TIP3     H2       HT       0.417000       1.00800           0
     71088 TIP3     16236    TIP3     OH2      OT      -0.834000       15.9994           0
     71089 TIP3     16236    TIP3     H1       HT       0.417000       1.00800           0
     71090 TIP3     16236    TIP3     H2       HT       0.417000       1.00800           0
     71091 TIP3     16237    TIP3     OH2      OT      -0.834000       15.9994           0
     71092 TIP3     16237    TIP3     H1       HT       0.417000       1.00800           0
     71093 TIP3     16237    TIP3     H2       HT       0.417000       1.00800           0
     71094 TIP3     16238    TIP3     OH2      OT      -0.834000       15.9994           0
     71095 TIP3     16238    TIP3     H1       HT       0.417000       1.00800           0
     71096 TIP3     16238    TIP3     H2       HT       0.417000       1.00800           0
     71097 TIP3     16239    TIP3     OH2      OT      -0.834000       15.9994           0
     71098 TIP3     16239    TIP3     H1       HT       0.417000       1.00800           0
     71099 TIP3     16239    TIP3     H2       HT       0.417000       1.00800           0
     71100 TIP3     16240    TIP3     OH2      OT      -0.834000       15.9994           0
     71101 TIP3     16240    TIP3     H1       HT       0.417000       1.00800           0
     71102 TIP3     16240    TIP3     H2       HT       0.417000       1.00800           0
     71103 TIP3     16241    TIP3     OH2      OT      -0.834000       15.9994           0
     71104 TIP3     16241    TIP3     H1       HT       0.417000       1.00800           0
     71105 TIP3     16241    TIP3     H2       HT       0.417000       1.00800           0
     71106 TIP3     16242    TIP3     OH2      OT      -0.834000       15.9994           0
     71107 TIP3     16242    TIP3     H1       HT       0.417000       1.00800           0
     71108 TIP3     16242    TIP3     H2       HT       0.417000       1.00800           0
     71109 TIP3     16243    TIP3     OH2      OT      -0.834000       15.9994           0
     71110 TIP3     16243    TIP3     H1       HT       0.417000       1.00800           0
     71111 TIP3     16243    TIP3     H2       HT       0.417000       1.00800           0
     71112 TIP3     16244    TIP3     OH2      OT      -0.834000       15.9994           0
     71113 TIP3     16244    TIP3     H1       HT       0.417000       1.00800           0
     71114 TIP3     16244    TIP3     H2       HT       0.417000       1.00800           0
     71115 TIP3     16245    TIP3     OH2      OT      -0.834000       15.9994           0
     71116 TIP3     16245    TIP3     H1       HT       0.417000       1.00800           0
     71117 TIP3     16245    TIP3     H2       HT       0.417000       1.00800           0
     71118 TIP3     16246    TIP3     OH2      OT      -0.834000       15.9994           0
     71119 TIP3     16246    TIP3     H1       HT       0.417000       1.00800           0
     71120 TIP3     16246    TIP3     H2       HT       0.417000       1.00800           0
     71121 TIP3     16247    TIP3     OH2      OT      -0.834000       15.9994           0
     71122 TIP3     16247    TIP3     H1       HT       0.417000       1.00800           0
     71123 TIP3     16247    TIP3     H2       HT       0.417000       1.00800           0
     71124 TIP3     16248    TIP3     OH2      OT      -0.834000       15.9994           0
     71125 TIP3     16248    TIP3     H1       HT       0.417000       1.00800           0
     71126 TIP3     16248    TIP3     H2       HT       0.417000       1.00800           0
     71127 TIP3     16249    TIP3     OH2      OT      -0.834000       15.9994           0
     71128 TIP3     16249    TIP3     H1       HT       0.417000       1.00800           0
     71129 TIP3     16249    TIP3     H2       HT       0.417000       1.00800           0
     71130 TIP3     16250    TIP3     OH2      OT      -0.834000       15.9994           0
     71131 TIP3     16250    TIP3     H1       HT       0.417000       1.00800           0
     71132 TIP3     16250    TIP3     H2       HT       0.417000       1.00800           0
     71133 TIP3     16251    TIP3     OH2      OT      -0.834000       15.9994           0
     71134 TIP3     16251    TIP3     H1       HT       0.417000       1.00800           0
     71135 TIP3     16251    TIP3     H2       HT       0.417000       1.00800           0
     71136 TIP3     16252    TIP3     OH2      OT      -0.834000       15.9994           0
     71137 TIP3     16252    TIP3     H1       HT       0.417000       1.00800           0
     71138 TIP3     16252    TIP3     H2       HT       0.417000       1.00800           0
     71139 TIP3     16253    TIP3     OH2      OT      -0.834000       15.9994           0
     71140 TIP3     16253    TIP3     H1       HT       0.417000       1.00800           0
     71141 TIP3     16253    TIP3     H2       HT       0.417000       1.00800           0
     71142 TIP3     16254    TIP3     OH2      OT      -0.834000       15.9994           0
     71143 TIP3     16254    TIP3     H1       HT       0.417000       1.00800           0
     71144 TIP3     16254    TIP3     H2       HT       0.417000       1.00800           0
     71145 TIP3     16255    TIP3     OH2      OT      -0.834000       15.9994           0
     71146 TIP3     16255    TIP3     H1       HT       0.417000       1.00800           0
     71147 TIP3     16255    TIP3     H2       HT       0.417000       1.00800           0
     71148 TIP3     16256    TIP3     OH2      OT      -0.834000       15.9994           0
     71149 TIP3     16256    TIP3     H1       HT       0.417000       1.00800           0
     71150 TIP3     16256    TIP3     H2       HT       0.417000       1.00800           0
     71151 TIP3     16257    TIP3     OH2      OT      -0.834000       15.9994           0
     71152 TIP3     16257    TIP3     H1       HT       0.417000       1.00800           0
     71153 TIP3     16257    TIP3     H2       HT       0.417000       1.00800           0
     71154 TIP3     16258    TIP3     OH2      OT      -0.834000       15.9994           0
     71155 TIP3     16258    TIP3     H1       HT       0.417000       1.00800           0
     71156 TIP3     16258    TIP3     H2       HT       0.417000       1.00800           0
     71157 TIP3     16259    TIP3     OH2      OT      -0.834000       15.9994           0
     71158 TIP3     16259    TIP3     H1       HT       0.417000       1.00800           0
     71159 TIP3     16259    TIP3     H2       HT       0.417000       1.00800           0
     71160 TIP3     16260    TIP3     OH2      OT      -0.834000       15.9994           0
     71161 TIP3     16260    TIP3     H1       HT       0.417000       1.00800           0
     71162 TIP3     16260    TIP3     H2       HT       0.417000       1.00800           0
     71163 TIP3     16261    TIP3     OH2      OT      -0.834000       15.9994           0
     71164 TIP3     16261    TIP3     H1       HT       0.417000       1.00800           0
     71165 TIP3     16261    TIP3     H2       HT       0.417000       1.00800           0
     71166 TIP3     16262    TIP3     OH2      OT      -0.834000       15.9994           0
     71167 TIP3     16262    TIP3     H1       HT       0.417000       1.00800           0
     71168 TIP3     16262    TIP3     H2       HT       0.417000       1.00800           0
     71169 TIP3     16263    TIP3     OH2      OT      -0.834000       15.9994           0
     71170 TIP3     16263    TIP3     H1       HT       0.417000       1.00800           0
     71171 TIP3     16263    TIP3     H2       HT       0.417000       1.00800           0
     71172 TIP3     16264    TIP3     OH2      OT      -0.834000       15.9994           0
     71173 TIP3     16264    TIP3     H1       HT       0.417000       1.00800           0
     71174 TIP3     16264    TIP3     H2       HT       0.417000       1.00800           0
     71175 TIP3     16265    TIP3     OH2      OT      -0.834000       15.9994           0
     71176 TIP3     16265    TIP3     H1       HT       0.417000       1.00800           0
     71177 TIP3     16265    TIP3     H2       HT       0.417000       1.00800           0
     71178 TIP3     16266    TIP3     OH2      OT      -0.834000       15.9994           0
     71179 TIP3     16266    TIP3     H1       HT       0.417000       1.00800           0
     71180 TIP3     16266    TIP3     H2       HT       0.417000       1.00800           0
     71181 TIP3     16267    TIP3     OH2      OT      -0.834000       15.9994           0
     71182 TIP3     16267    TIP3     H1       HT       0.417000       1.00800           0
     71183 TIP3     16267    TIP3     H2       HT       0.417000       1.00800           0
     71184 TIP3     16268    TIP3     OH2      OT      -0.834000       15.9994           0
     71185 TIP3     16268    TIP3     H1       HT       0.417000       1.00800           0
     71186 TIP3     16268    TIP3     H2       HT       0.417000       1.00800           0
     71187 TIP3     16269    TIP3     OH2      OT      -0.834000       15.9994           0
     71188 TIP3     16269    TIP3     H1       HT       0.417000       1.00800           0
     71189 TIP3     16269    TIP3     H2       HT       0.417000       1.00800           0
     71190 TIP3     16270    TIP3     OH2      OT      -0.834000       15.9994           0
     71191 TIP3     16270    TIP3     H1       HT       0.417000       1.00800           0
     71192 TIP3     16270    TIP3     H2       HT       0.417000       1.00800           0
     71193 TIP3     16271    TIP3     OH2      OT      -0.834000       15.9994           0
     71194 TIP3     16271    TIP3     H1       HT       0.417000       1.00800           0
     71195 TIP3     16271    TIP3     H2       HT       0.417000       1.00800           0
     71196 TIP3     16272    TIP3     OH2      OT      -0.834000       15.9994           0
     71197 TIP3     16272    TIP3     H1       HT       0.417000       1.00800           0
     71198 TIP3     16272    TIP3     H2       HT       0.417000       1.00800           0
     71199 TIP3     16273    TIP3     OH2      OT      -0.834000       15.9994           0
     71200 TIP3     16273    TIP3     H1       HT       0.417000       1.00800           0
     71201 TIP3     16273    TIP3     H2       HT       0.417000       1.00800           0
     71202 TIP3     16274    TIP3     OH2      OT      -0.834000       15.9994           0
     71203 TIP3     16274    TIP3     H1       HT       0.417000       1.00800           0
     71204 TIP3     16274    TIP3     H2       HT       0.417000       1.00800           0
     71205 TIP3     16275    TIP3     OH2      OT      -0.834000       15.9994           0
     71206 TIP3     16275    TIP3     H1       HT       0.417000       1.00800           0
     71207 TIP3     16275    TIP3     H2       HT       0.417000       1.00800           0
     71208 TIP3     16276    TIP3     OH2      OT      -0.834000       15.9994           0
     71209 TIP3     16276    TIP3     H1       HT       0.417000       1.00800           0
     71210 TIP3     16276    TIP3     H2       HT       0.417000       1.00800           0
     71211 TIP3     16277    TIP3     OH2      OT      -0.834000       15.9994           0
     71212 TIP3     16277    TIP3     H1       HT       0.417000       1.00800           0
     71213 TIP3     16277    TIP3     H2       HT       0.417000       1.00800           0
     71214 TIP3     16278    TIP3     OH2      OT      -0.834000       15.9994           0
     71215 TIP3     16278    TIP3     H1       HT       0.417000       1.00800           0
     71216 TIP3     16278    TIP3     H2       HT       0.417000       1.00800           0
     71217 TIP3     16279    TIP3     OH2      OT      -0.834000       15.9994           0
     71218 TIP3     16279    TIP3     H1       HT       0.417000       1.00800           0
     71219 TIP3     16279    TIP3     H2       HT       0.417000       1.00800           0
     71220 TIP3     16280    TIP3     OH2      OT      -0.834000       15.9994           0
     71221 TIP3     16280    TIP3     H1       HT       0.417000       1.00800           0
     71222 TIP3     16280    TIP3     H2       HT       0.417000       1.00800           0
     71223 TIP3     16281    TIP3     OH2      OT      -0.834000       15.9994           0
     71224 TIP3     16281    TIP3     H1       HT       0.417000       1.00800           0
     71225 TIP3     16281    TIP3     H2       HT       0.417000       1.00800           0
     71226 TIP3     16282    TIP3     OH2      OT      -0.834000       15.9994           0
     71227 TIP3     16282    TIP3     H1       HT       0.417000       1.00800           0
     71228 TIP3     16282    TIP3     H2       HT       0.417000       1.00800           0
     71229 TIP3     16283    TIP3     OH2      OT      -0.834000       15.9994           0
     71230 TIP3     16283    TIP3     H1       HT       0.417000       1.00800           0
     71231 TIP3     16283    TIP3     H2       HT       0.417000       1.00800           0
     71232 TIP3     16284    TIP3     OH2      OT      -0.834000       15.9994           0
     71233 TIP3     16284    TIP3     H1       HT       0.417000       1.00800           0
     71234 TIP3     16284    TIP3     H2       HT       0.417000       1.00800           0
     71235 TIP3     16285    TIP3     OH2      OT      -0.834000       15.9994           0
     71236 TIP3     16285    TIP3     H1       HT       0.417000       1.00800           0
     71237 TIP3     16285    TIP3     H2       HT       0.417000       1.00800           0
     71238 TIP3     16286    TIP3     OH2      OT      -0.834000       15.9994           0
     71239 TIP3     16286    TIP3     H1       HT       0.417000       1.00800           0
     71240 TIP3     16286    TIP3     H2       HT       0.417000       1.00800           0
     71241 TIP3     16287    TIP3     OH2      OT      -0.834000       15.9994           0
     71242 TIP3     16287    TIP3     H1       HT       0.417000       1.00800           0
     71243 TIP3     16287    TIP3     H2       HT       0.417000       1.00800           0
     71244 TIP3     16288    TIP3     OH2      OT      -0.834000       15.9994           0
     71245 TIP3     16288    TIP3     H1       HT       0.417000       1.00800           0
     71246 TIP3     16288    TIP3     H2       HT       0.417000       1.00800           0
     71247 TIP3     16289    TIP3     OH2      OT      -0.834000       15.9994           0
     71248 TIP3     16289    TIP3     H1       HT       0.417000       1.00800           0
     71249 TIP3     16289    TIP3     H2       HT       0.417000       1.00800           0
     71250 TIP3     16290    TIP3     OH2      OT      -0.834000       15.9994           0
     71251 TIP3     16290    TIP3     H1       HT       0.417000       1.00800           0
     71252 TIP3     16290    TIP3     H2       HT       0.417000       1.00800           0
     71253 TIP3     16291    TIP3     OH2      OT      -0.834000       15.9994           0
     71254 TIP3     16291    TIP3     H1       HT       0.417000       1.00800           0
     71255 TIP3     16291    TIP3     H2       HT       0.417000       1.00800           0
     71256 TIP3     16292    TIP3     OH2      OT      -0.834000       15.9994           0
     71257 TIP3     16292    TIP3     H1       HT       0.417000       1.00800           0
     71258 TIP3     16292    TIP3     H2       HT       0.417000       1.00800           0
     71259 TIP3     16293    TIP3     OH2      OT      -0.834000       15.9994           0
     71260 TIP3     16293    TIP3     H1       HT       0.417000       1.00800           0
     71261 TIP3     16293    TIP3     H2       HT       0.417000       1.00800           0
     71262 TIP3     16294    TIP3     OH2      OT      -0.834000       15.9994           0
     71263 TIP3     16294    TIP3     H1       HT       0.417000       1.00800           0
     71264 TIP3     16294    TIP3     H2       HT       0.417000       1.00800           0
     71265 TIP3     16295    TIP3     OH2      OT      -0.834000       15.9994           0
     71266 TIP3     16295    TIP3     H1       HT       0.417000       1.00800           0
     71267 TIP3     16295    TIP3     H2       HT       0.417000       1.00800           0
     71268 TIP3     16296    TIP3     OH2      OT      -0.834000       15.9994           0
     71269 TIP3     16296    TIP3     H1       HT       0.417000       1.00800           0
     71270 TIP3     16296    TIP3     H2       HT       0.417000       1.00800           0
     71271 TIP3     16297    TIP3     OH2      OT      -0.834000       15.9994           0
     71272 TIP3     16297    TIP3     H1       HT       0.417000       1.00800           0
     71273 TIP3     16297    TIP3     H2       HT       0.417000       1.00800           0
     71274 TIP3     16298    TIP3     OH2      OT      -0.834000       15.9994           0
     71275 TIP3     16298    TIP3     H1       HT       0.417000       1.00800           0
     71276 TIP3     16298    TIP3     H2       HT       0.417000       1.00800           0
     71277 TIP3     16299    TIP3     OH2      OT      -0.834000       15.9994           0
     71278 TIP3     16299    TIP3     H1       HT       0.417000       1.00800           0
     71279 TIP3     16299    TIP3     H2       HT       0.417000       1.00800           0
     71280 TIP3     16300    TIP3     OH2      OT      -0.834000       15.9994           0
     71281 TIP3     16300    TIP3     H1       HT       0.417000       1.00800           0
     71282 TIP3     16300    TIP3     H2       HT       0.417000       1.00800           0
     71283 TIP3     16301    TIP3     OH2      OT      -0.834000       15.9994           0
     71284 TIP3     16301    TIP3     H1       HT       0.417000       1.00800           0
     71285 TIP3     16301    TIP3     H2       HT       0.417000       1.00800           0
     71286 TIP3     16302    TIP3     OH2      OT      -0.834000       15.9994           0
     71287 TIP3     16302    TIP3     H1       HT       0.417000       1.00800           0
     71288 TIP3     16302    TIP3     H2       HT       0.417000       1.00800           0
     71289 TIP3     16303    TIP3     OH2      OT      -0.834000       15.9994           0
     71290 TIP3     16303    TIP3     H1       HT       0.417000       1.00800           0
     71291 TIP3     16303    TIP3     H2       HT       0.417000       1.00800           0
     71292 TIP3     16304    TIP3     OH2      OT      -0.834000       15.9994           0
     71293 TIP3     16304    TIP3     H1       HT       0.417000       1.00800           0
     71294 TIP3     16304    TIP3     H2       HT       0.417000       1.00800           0
     71295 TIP3     16305    TIP3     OH2      OT      -0.834000       15.9994           0
     71296 TIP3     16305    TIP3     H1       HT       0.417000       1.00800           0
     71297 TIP3     16305    TIP3     H2       HT       0.417000       1.00800           0
     71298 TIP3     16306    TIP3     OH2      OT      -0.834000       15.9994           0
     71299 TIP3     16306    TIP3     H1       HT       0.417000       1.00800           0
     71300 TIP3     16306    TIP3     H2       HT       0.417000       1.00800           0
     71301 TIP3     16307    TIP3     OH2      OT      -0.834000       15.9994           0
     71302 TIP3     16307    TIP3     H1       HT       0.417000       1.00800           0
     71303 TIP3     16307    TIP3     H2       HT       0.417000       1.00800           0
     71304 TIP3     16308    TIP3     OH2      OT      -0.834000       15.9994           0
     71305 TIP3     16308    TIP3     H1       HT       0.417000       1.00800           0
     71306 TIP3     16308    TIP3     H2       HT       0.417000       1.00800           0
     71307 TIP3     16309    TIP3     OH2      OT      -0.834000       15.9994           0
     71308 TIP3     16309    TIP3     H1       HT       0.417000       1.00800           0
     71309 TIP3     16309    TIP3     H2       HT       0.417000       1.00800           0
     71310 TIP3     16310    TIP3     OH2      OT      -0.834000       15.9994           0
     71311 TIP3     16310    TIP3     H1       HT       0.417000       1.00800           0
     71312 TIP3     16310    TIP3     H2       HT       0.417000       1.00800           0
     71313 TIP3     16311    TIP3     OH2      OT      -0.834000       15.9994           0
     71314 TIP3     16311    TIP3     H1       HT       0.417000       1.00800           0
     71315 TIP3     16311    TIP3     H2       HT       0.417000       1.00800           0
     71316 TIP3     16312    TIP3     OH2      OT      -0.834000       15.9994           0
     71317 TIP3     16312    TIP3     H1       HT       0.417000       1.00800           0
     71318 TIP3     16312    TIP3     H2       HT       0.417000       1.00800           0
     71319 TIP3     16313    TIP3     OH2      OT      -0.834000       15.9994           0
     71320 TIP3     16313    TIP3     H1       HT       0.417000       1.00800           0
     71321 TIP3     16313    TIP3     H2       HT       0.417000       1.00800           0
     71322 TIP3     16314    TIP3     OH2      OT      -0.834000       15.9994           0
     71323 TIP3     16314    TIP3     H1       HT       0.417000       1.00800           0
     71324 TIP3     16314    TIP3     H2       HT       0.417000       1.00800           0
     71325 TIP3     16315    TIP3     OH2      OT      -0.834000       15.9994           0
     71326 TIP3     16315    TIP3     H1       HT       0.417000       1.00800           0
     71327 TIP3     16315    TIP3     H2       HT       0.417000       1.00800           0
     71328 TIP3     16316    TIP3     OH2      OT      -0.834000       15.9994           0
     71329 TIP3     16316    TIP3     H1       HT       0.417000       1.00800           0
     71330 TIP3     16316    TIP3     H2       HT       0.417000       1.00800           0
     71331 TIP3     16317    TIP3     OH2      OT      -0.834000       15.9994           0
     71332 TIP3     16317    TIP3     H1       HT       0.417000       1.00800           0
     71333 TIP3     16317    TIP3     H2       HT       0.417000       1.00800           0
     71334 TIP3     16318    TIP3     OH2      OT      -0.834000       15.9994           0
     71335 TIP3     16318    TIP3     H1       HT       0.417000       1.00800           0
     71336 TIP3     16318    TIP3     H2       HT       0.417000       1.00800           0
     71337 TIP3     16319    TIP3     OH2      OT      -0.834000       15.9994           0
     71338 TIP3     16319    TIP3     H1       HT       0.417000       1.00800           0
     71339 TIP3     16319    TIP3     H2       HT       0.417000       1.00800           0
     71340 TIP3     16320    TIP3     OH2      OT      -0.834000       15.9994           0
     71341 TIP3     16320    TIP3     H1       HT       0.417000       1.00800           0
     71342 TIP3     16320    TIP3     H2       HT       0.417000       1.00800           0
     71343 TIP3     16321    TIP3     OH2      OT      -0.834000       15.9994           0
     71344 TIP3     16321    TIP3     H1       HT       0.417000       1.00800           0
     71345 TIP3     16321    TIP3     H2       HT       0.417000       1.00800           0
     71346 TIP3     16322    TIP3     OH2      OT      -0.834000       15.9994           0
     71347 TIP3     16322    TIP3     H1       HT       0.417000       1.00800           0
     71348 TIP3     16322    TIP3     H2       HT       0.417000       1.00800           0
     71349 TIP3     16323    TIP3     OH2      OT      -0.834000       15.9994           0
     71350 TIP3     16323    TIP3     H1       HT       0.417000       1.00800           0
     71351 TIP3     16323    TIP3     H2       HT       0.417000       1.00800           0
     71352 TIP3     16324    TIP3     OH2      OT      -0.834000       15.9994           0
     71353 TIP3     16324    TIP3     H1       HT       0.417000       1.00800           0
     71354 TIP3     16324    TIP3     H2       HT       0.417000       1.00800           0
     71355 TIP3     16325    TIP3     OH2      OT      -0.834000       15.9994           0
     71356 TIP3     16325    TIP3     H1       HT       0.417000       1.00800           0
     71357 TIP3     16325    TIP3     H2       HT       0.417000       1.00800           0
     71358 TIP3     16326    TIP3     OH2      OT      -0.834000       15.9994           0
     71359 TIP3     16326    TIP3     H1       HT       0.417000       1.00800           0
     71360 TIP3     16326    TIP3     H2       HT       0.417000       1.00800           0
     71361 TIP3     16327    TIP3     OH2      OT      -0.834000       15.9994           0
     71362 TIP3     16327    TIP3     H1       HT       0.417000       1.00800           0
     71363 TIP3     16327    TIP3     H2       HT       0.417000       1.00800           0
     71364 TIP3     16328    TIP3     OH2      OT      -0.834000       15.9994           0
     71365 TIP3     16328    TIP3     H1       HT       0.417000       1.00800           0
     71366 TIP3     16328    TIP3     H2       HT       0.417000       1.00800           0
     71367 TIP3     16329    TIP3     OH2      OT      -0.834000       15.9994           0
     71368 TIP3     16329    TIP3     H1       HT       0.417000       1.00800           0
     71369 TIP3     16329    TIP3     H2       HT       0.417000       1.00800           0
     71370 TIP3     16330    TIP3     OH2      OT      -0.834000       15.9994           0
     71371 TIP3     16330    TIP3     H1       HT       0.417000       1.00800           0
     71372 TIP3     16330    TIP3     H2       HT       0.417000       1.00800           0
     71373 TIP3     16331    TIP3     OH2      OT      -0.834000       15.9994           0
     71374 TIP3     16331    TIP3     H1       HT       0.417000       1.00800           0
     71375 TIP3     16331    TIP3     H2       HT       0.417000       1.00800           0
     71376 TIP3     16332    TIP3     OH2      OT      -0.834000       15.9994           0
     71377 TIP3     16332    TIP3     H1       HT       0.417000       1.00800           0
     71378 TIP3     16332    TIP3     H2       HT       0.417000       1.00800           0
     71379 TIP3     16333    TIP3     OH2      OT      -0.834000       15.9994           0
     71380 TIP3     16333    TIP3     H1       HT       0.417000       1.00800           0
     71381 TIP3     16333    TIP3     H2       HT       0.417000       1.00800           0
     71382 TIP3     16334    TIP3     OH2      OT      -0.834000       15.9994           0
     71383 TIP3     16334    TIP3     H1       HT       0.417000       1.00800           0
     71384 TIP3     16334    TIP3     H2       HT       0.417000       1.00800           0
     71385 TIP3     16335    TIP3     OH2      OT      -0.834000       15.9994           0
     71386 TIP3     16335    TIP3     H1       HT       0.417000       1.00800           0
     71387 TIP3     16335    TIP3     H2       HT       0.417000       1.00800           0
     71388 TIP3     16336    TIP3     OH2      OT      -0.834000       15.9994           0
     71389 TIP3     16336    TIP3     H1       HT       0.417000       1.00800           0
     71390 TIP3     16336    TIP3     H2       HT       0.417000       1.00800           0
     71391 TIP3     16337    TIP3     OH2      OT      -0.834000       15.9994           0
     71392 TIP3     16337    TIP3     H1       HT       0.417000       1.00800           0
     71393 TIP3     16337    TIP3     H2       HT       0.417000       1.00800           0
     71394 TIP3     16338    TIP3     OH2      OT      -0.834000       15.9994           0
     71395 TIP3     16338    TIP3     H1       HT       0.417000       1.00800           0
     71396 TIP3     16338    TIP3     H2       HT       0.417000       1.00800           0
     71397 TIP3     16339    TIP3     OH2      OT      -0.834000       15.9994           0
     71398 TIP3     16339    TIP3     H1       HT       0.417000       1.00800           0
     71399 TIP3     16339    TIP3     H2       HT       0.417000       1.00800           0
     71400 TIP3     16340    TIP3     OH2      OT      -0.834000       15.9994           0
     71401 TIP3     16340    TIP3     H1       HT       0.417000       1.00800           0
     71402 TIP3     16340    TIP3     H2       HT       0.417000       1.00800           0
     71403 TIP3     16341    TIP3     OH2      OT      -0.834000       15.9994           0
     71404 TIP3     16341    TIP3     H1       HT       0.417000       1.00800           0
     71405 TIP3     16341    TIP3     H2       HT       0.417000       1.00800           0
     71406 TIP3     16342    TIP3     OH2      OT      -0.834000       15.9994           0
     71407 TIP3     16342    TIP3     H1       HT       0.417000       1.00800           0
     71408 TIP3     16342    TIP3     H2       HT       0.417000       1.00800           0
     71409 TIP3     16343    TIP3     OH2      OT      -0.834000       15.9994           0
     71410 TIP3     16343    TIP3     H1       HT       0.417000       1.00800           0
     71411 TIP3     16343    TIP3     H2       HT       0.417000       1.00800           0
     71412 TIP3     16344    TIP3     OH2      OT      -0.834000       15.9994           0
     71413 TIP3     16344    TIP3     H1       HT       0.417000       1.00800           0
     71414 TIP3     16344    TIP3     H2       HT       0.417000       1.00800           0
     71415 TIP3     16345    TIP3     OH2      OT      -0.834000       15.9994           0
     71416 TIP3     16345    TIP3     H1       HT       0.417000       1.00800           0
     71417 TIP3     16345    TIP3     H2       HT       0.417000       1.00800           0
     71418 TIP3     16346    TIP3     OH2      OT      -0.834000       15.9994           0
     71419 TIP3     16346    TIP3     H1       HT       0.417000       1.00800           0
     71420 TIP3     16346    TIP3     H2       HT       0.417000       1.00800           0
     71421 TIP3     16347    TIP3     OH2      OT      -0.834000       15.9994           0
     71422 TIP3     16347    TIP3     H1       HT       0.417000       1.00800           0
     71423 TIP3     16347    TIP3     H2       HT       0.417000       1.00800           0
     71424 TIP3     16348    TIP3     OH2      OT      -0.834000       15.9994           0
     71425 TIP3     16348    TIP3     H1       HT       0.417000       1.00800           0
     71426 TIP3     16348    TIP3     H2       HT       0.417000       1.00800           0
     71427 TIP3     16349    TIP3     OH2      OT      -0.834000       15.9994           0
     71428 TIP3     16349    TIP3     H1       HT       0.417000       1.00800           0
     71429 TIP3     16349    TIP3     H2       HT       0.417000       1.00800           0
     71430 TIP3     16350    TIP3     OH2      OT      -0.834000       15.9994           0
     71431 TIP3     16350    TIP3     H1       HT       0.417000       1.00800           0
     71432 TIP3     16350    TIP3     H2       HT       0.417000       1.00800           0
     71433 TIP3     16351    TIP3     OH2      OT      -0.834000       15.9994           0
     71434 TIP3     16351    TIP3     H1       HT       0.417000       1.00800           0
     71435 TIP3     16351    TIP3     H2       HT       0.417000       1.00800           0
     71436 TIP3     16352    TIP3     OH2      OT      -0.834000       15.9994           0
     71437 TIP3     16352    TIP3     H1       HT       0.417000       1.00800           0
     71438 TIP3     16352    TIP3     H2       HT       0.417000       1.00800           0
     71439 TIP3     16353    TIP3     OH2      OT      -0.834000       15.9994           0
     71440 TIP3     16353    TIP3     H1       HT       0.417000       1.00800           0
     71441 TIP3     16353    TIP3     H2       HT       0.417000       1.00800           0
     71442 TIP3     16354    TIP3     OH2      OT      -0.834000       15.9994           0
     71443 TIP3     16354    TIP3     H1       HT       0.417000       1.00800           0
     71444 TIP3     16354    TIP3     H2       HT       0.417000       1.00800           0
     71445 TIP3     16355    TIP3     OH2      OT      -0.834000       15.9994           0
     71446 TIP3     16355    TIP3     H1       HT       0.417000       1.00800           0
     71447 TIP3     16355    TIP3     H2       HT       0.417000       1.00800           0
     71448 TIP3     16356    TIP3     OH2      OT      -0.834000       15.9994           0
     71449 TIP3     16356    TIP3     H1       HT       0.417000       1.00800           0
     71450 TIP3     16356    TIP3     H2       HT       0.417000       1.00800           0
     71451 TIP3     16357    TIP3     OH2      OT      -0.834000       15.9994           0
     71452 TIP3     16357    TIP3     H1       HT       0.417000       1.00800           0
     71453 TIP3     16357    TIP3     H2       HT       0.417000       1.00800           0
     71454 TIP3     16358    TIP3     OH2      OT      -0.834000       15.9994           0
     71455 TIP3     16358    TIP3     H1       HT       0.417000       1.00800           0
     71456 TIP3     16358    TIP3     H2       HT       0.417000       1.00800           0
     71457 TIP3     16359    TIP3     OH2      OT      -0.834000       15.9994           0
     71458 TIP3     16359    TIP3     H1       HT       0.417000       1.00800           0
     71459 TIP3     16359    TIP3     H2       HT       0.417000       1.00800           0
     71460 TIP3     16360    TIP3     OH2      OT      -0.834000       15.9994           0
     71461 TIP3     16360    TIP3     H1       HT       0.417000       1.00800           0
     71462 TIP3     16360    TIP3     H2       HT       0.417000       1.00800           0
     71463 TIP3     16361    TIP3     OH2      OT      -0.834000       15.9994           0
     71464 TIP3     16361    TIP3     H1       HT       0.417000       1.00800           0
     71465 TIP3     16361    TIP3     H2       HT       0.417000       1.00800           0
     71466 TIP3     16362    TIP3     OH2      OT      -0.834000       15.9994           0
     71467 TIP3     16362    TIP3     H1       HT       0.417000       1.00800           0
     71468 TIP3     16362    TIP3     H2       HT       0.417000       1.00800           0
     71469 TIP3     16363    TIP3     OH2      OT      -0.834000       15.9994           0
     71470 TIP3     16363    TIP3     H1       HT       0.417000       1.00800           0
     71471 TIP3     16363    TIP3     H2       HT       0.417000       1.00800           0
     71472 TIP3     16364    TIP3     OH2      OT      -0.834000       15.9994           0
     71473 TIP3     16364    TIP3     H1       HT       0.417000       1.00800           0
     71474 TIP3     16364    TIP3     H2       HT       0.417000       1.00800           0
     71475 TIP3     16365    TIP3     OH2      OT      -0.834000       15.9994           0
     71476 TIP3     16365    TIP3     H1       HT       0.417000       1.00800           0
     71477 TIP3     16365    TIP3     H2       HT       0.417000       1.00800           0
     71478 TIP3     16366    TIP3     OH2      OT      -0.834000       15.9994           0
     71479 TIP3     16366    TIP3     H1       HT       0.417000       1.00800           0
     71480 TIP3     16366    TIP3     H2       HT       0.417000       1.00800           0
     71481 TIP3     16367    TIP3     OH2      OT      -0.834000       15.9994           0
     71482 TIP3     16367    TIP3     H1       HT       0.417000       1.00800           0
     71483 TIP3     16367    TIP3     H2       HT       0.417000       1.00800           0
     71484 TIP3     16368    TIP3     OH2      OT      -0.834000       15.9994           0
     71485 TIP3     16368    TIP3     H1       HT       0.417000       1.00800           0
     71486 TIP3     16368    TIP3     H2       HT       0.417000       1.00800           0
     71487 TIP3     16369    TIP3     OH2      OT      -0.834000       15.9994           0
     71488 TIP3     16369    TIP3     H1       HT       0.417000       1.00800           0
     71489 TIP3     16369    TIP3     H2       HT       0.417000       1.00800           0
     71490 TIP3     16370    TIP3     OH2      OT      -0.834000       15.9994           0
     71491 TIP3     16370    TIP3     H1       HT       0.417000       1.00800           0
     71492 TIP3     16370    TIP3     H2       HT       0.417000       1.00800           0
     71493 TIP3     16371    TIP3     OH2      OT      -0.834000       15.9994           0
     71494 TIP3     16371    TIP3     H1       HT       0.417000       1.00800           0
     71495 TIP3     16371    TIP3     H2       HT       0.417000       1.00800           0
     71496 TIP3     16372    TIP3     OH2      OT      -0.834000       15.9994           0
     71497 TIP3     16372    TIP3     H1       HT       0.417000       1.00800           0
     71498 TIP3     16372    TIP3     H2       HT       0.417000       1.00800           0
     71499 TIP3     16373    TIP3     OH2      OT      -0.834000       15.9994           0
     71500 TIP3     16373    TIP3     H1       HT       0.417000       1.00800           0
     71501 TIP3     16373    TIP3     H2       HT       0.417000       1.00800           0
     71502 TIP3     16374    TIP3     OH2      OT      -0.834000       15.9994           0
     71503 TIP3     16374    TIP3     H1       HT       0.417000       1.00800           0
     71504 TIP3     16374    TIP3     H2       HT       0.417000       1.00800           0
     71505 TIP3     16375    TIP3     OH2      OT      -0.834000       15.9994           0
     71506 TIP3     16375    TIP3     H1       HT       0.417000       1.00800           0
     71507 TIP3     16375    TIP3     H2       HT       0.417000       1.00800           0
     71508 TIP3     16376    TIP3     OH2      OT      -0.834000       15.9994           0
     71509 TIP3     16376    TIP3     H1       HT       0.417000       1.00800           0
     71510 TIP3     16376    TIP3     H2       HT       0.417000       1.00800           0
     71511 TIP3     16377    TIP3     OH2      OT      -0.834000       15.9994           0
     71512 TIP3     16377    TIP3     H1       HT       0.417000       1.00800           0
     71513 TIP3     16377    TIP3     H2       HT       0.417000       1.00800           0
     71514 TIP3     16378    TIP3     OH2      OT      -0.834000       15.9994           0
     71515 TIP3     16378    TIP3     H1       HT       0.417000       1.00800           0
     71516 TIP3     16378    TIP3     H2       HT       0.417000       1.00800           0
     71517 TIP3     16379    TIP3     OH2      OT      -0.834000       15.9994           0
     71518 TIP3     16379    TIP3     H1       HT       0.417000       1.00800           0
     71519 TIP3     16379    TIP3     H2       HT       0.417000       1.00800           0
     71520 TIP3     16380    TIP3     OH2      OT      -0.834000       15.9994           0
     71521 TIP3     16380    TIP3     H1       HT       0.417000       1.00800           0
     71522 TIP3     16380    TIP3     H2       HT       0.417000       1.00800           0
     71523 TIP3     16381    TIP3     OH2      OT      -0.834000       15.9994           0
     71524 TIP3     16381    TIP3     H1       HT       0.417000       1.00800           0
     71525 TIP3     16381    TIP3     H2       HT       0.417000       1.00800           0
     71526 TIP3     16382    TIP3     OH2      OT      -0.834000       15.9994           0
     71527 TIP3     16382    TIP3     H1       HT       0.417000       1.00800           0
     71528 TIP3     16382    TIP3     H2       HT       0.417000       1.00800           0
     71529 TIP3     16383    TIP3     OH2      OT      -0.834000       15.9994           0
     71530 TIP3     16383    TIP3     H1       HT       0.417000       1.00800           0
     71531 TIP3     16383    TIP3     H2       HT       0.417000       1.00800           0
     71532 TIP3     16384    TIP3     OH2      OT      -0.834000       15.9994           0
     71533 TIP3     16384    TIP3     H1       HT       0.417000       1.00800           0
     71534 TIP3     16384    TIP3     H2       HT       0.417000       1.00800           0
     71535 TIP3     16385    TIP3     OH2      OT      -0.834000       15.9994           0
     71536 TIP3     16385    TIP3     H1       HT       0.417000       1.00800           0
     71537 TIP3     16385    TIP3     H2       HT       0.417000       1.00800           0
     71538 TIP3     16386    TIP3     OH2      OT      -0.834000       15.9994           0
     71539 TIP3     16386    TIP3     H1       HT       0.417000       1.00800           0
     71540 TIP3     16386    TIP3     H2       HT       0.417000       1.00800           0
     71541 TIP3     16387    TIP3     OH2      OT      -0.834000       15.9994           0
     71542 TIP3     16387    TIP3     H1       HT       0.417000       1.00800           0
     71543 TIP3     16387    TIP3     H2       HT       0.417000       1.00800           0
     71544 TIP3     16388    TIP3     OH2      OT      -0.834000       15.9994           0
     71545 TIP3     16388    TIP3     H1       HT       0.417000       1.00800           0
     71546 TIP3     16388    TIP3     H2       HT       0.417000       1.00800           0
     71547 TIP3     16389    TIP3     OH2      OT      -0.834000       15.9994           0
     71548 TIP3     16389    TIP3     H1       HT       0.417000       1.00800           0
     71549 TIP3     16389    TIP3     H2       HT       0.417000       1.00800           0
     71550 TIP3     16390    TIP3     OH2      OT      -0.834000       15.9994           0
     71551 TIP3     16390    TIP3     H1       HT       0.417000       1.00800           0
     71552 TIP3     16390    TIP3     H2       HT       0.417000       1.00800           0
     71553 TIP3     16391    TIP3     OH2      OT      -0.834000       15.9994           0
     71554 TIP3     16391    TIP3     H1       HT       0.417000       1.00800           0
     71555 TIP3     16391    TIP3     H2       HT       0.417000       1.00800           0
     71556 TIP3     16392    TIP3     OH2      OT      -0.834000       15.9994           0
     71557 TIP3     16392    TIP3     H1       HT       0.417000       1.00800           0
     71558 TIP3     16392    TIP3     H2       HT       0.417000       1.00800           0
     71559 TIP3     16393    TIP3     OH2      OT      -0.834000       15.9994           0
     71560 TIP3     16393    TIP3     H1       HT       0.417000       1.00800           0
     71561 TIP3     16393    TIP3     H2       HT       0.417000       1.00800           0
     71562 TIP3     16394    TIP3     OH2      OT      -0.834000       15.9994           0
     71563 TIP3     16394    TIP3     H1       HT       0.417000       1.00800           0
     71564 TIP3     16394    TIP3     H2       HT       0.417000       1.00800           0
     71565 TIP3     16395    TIP3     OH2      OT      -0.834000       15.9994           0
     71566 TIP3     16395    TIP3     H1       HT       0.417000       1.00800           0
     71567 TIP3     16395    TIP3     H2       HT       0.417000       1.00800           0
     71568 TIP3     16396    TIP3     OH2      OT      -0.834000       15.9994           0
     71569 TIP3     16396    TIP3     H1       HT       0.417000       1.00800           0
     71570 TIP3     16396    TIP3     H2       HT       0.417000       1.00800           0
     71571 TIP3     16397    TIP3     OH2      OT      -0.834000       15.9994           0
     71572 TIP3     16397    TIP3     H1       HT       0.417000       1.00800           0
     71573 TIP3     16397    TIP3     H2       HT       0.417000       1.00800           0
     71574 TIP3     16398    TIP3     OH2      OT      -0.834000       15.9994           0
     71575 TIP3     16398    TIP3     H1       HT       0.417000       1.00800           0
     71576 TIP3     16398    TIP3     H2       HT       0.417000       1.00800           0
     71577 TIP3     16399    TIP3     OH2      OT      -0.834000       15.9994           0
     71578 TIP3     16399    TIP3     H1       HT       0.417000       1.00800           0
     71579 TIP3     16399    TIP3     H2       HT       0.417000       1.00800           0
     71580 TIP3     16400    TIP3     OH2      OT      -0.834000       15.9994           0
     71581 TIP3     16400    TIP3     H1       HT       0.417000       1.00800           0
     71582 TIP3     16400    TIP3     H2       HT       0.417000       1.00800           0
     71583 TIP3     16401    TIP3     OH2      OT      -0.834000       15.9994           0
     71584 TIP3     16401    TIP3     H1       HT       0.417000       1.00800           0
     71585 TIP3     16401    TIP3     H2       HT       0.417000       1.00800           0
     71586 TIP3     16402    TIP3     OH2      OT      -0.834000       15.9994           0
     71587 TIP3     16402    TIP3     H1       HT       0.417000       1.00800           0
     71588 TIP3     16402    TIP3     H2       HT       0.417000       1.00800           0
     71589 TIP3     16403    TIP3     OH2      OT      -0.834000       15.9994           0
     71590 TIP3     16403    TIP3     H1       HT       0.417000       1.00800           0
     71591 TIP3     16403    TIP3     H2       HT       0.417000       1.00800           0
     71592 TIP3     16404    TIP3     OH2      OT      -0.834000       15.9994           0
     71593 TIP3     16404    TIP3     H1       HT       0.417000       1.00800           0
     71594 TIP3     16404    TIP3     H2       HT       0.417000       1.00800           0
     71595 TIP3     16405    TIP3     OH2      OT      -0.834000       15.9994           0
     71596 TIP3     16405    TIP3     H1       HT       0.417000       1.00800           0
     71597 TIP3     16405    TIP3     H2       HT       0.417000       1.00800           0
     71598 TIP3     16406    TIP3     OH2      OT      -0.834000       15.9994           0
     71599 TIP3     16406    TIP3     H1       HT       0.417000       1.00800           0
     71600 TIP3     16406    TIP3     H2       HT       0.417000       1.00800           0
     71601 TIP3     16407    TIP3     OH2      OT      -0.834000       15.9994           0
     71602 TIP3     16407    TIP3     H1       HT       0.417000       1.00800           0
     71603 TIP3     16407    TIP3     H2       HT       0.417000       1.00800           0
     71604 TIP3     16408    TIP3     OH2      OT      -0.834000       15.9994           0
     71605 TIP3     16408    TIP3     H1       HT       0.417000       1.00800           0
     71606 TIP3     16408    TIP3     H2       HT       0.417000       1.00800           0
     71607 TIP3     16409    TIP3     OH2      OT      -0.834000       15.9994           0
     71608 TIP3     16409    TIP3     H1       HT       0.417000       1.00800           0
     71609 TIP3     16409    TIP3     H2       HT       0.417000       1.00800           0
     71610 TIP3     16410    TIP3     OH2      OT      -0.834000       15.9994           0
     71611 TIP3     16410    TIP3     H1       HT       0.417000       1.00800           0
     71612 TIP3     16410    TIP3     H2       HT       0.417000       1.00800           0
     71613 TIP3     16411    TIP3     OH2      OT      -0.834000       15.9994           0
     71614 TIP3     16411    TIP3     H1       HT       0.417000       1.00800           0
     71615 TIP3     16411    TIP3     H2       HT       0.417000       1.00800           0
     71616 TIP3     16412    TIP3     OH2      OT      -0.834000       15.9994           0
     71617 TIP3     16412    TIP3     H1       HT       0.417000       1.00800           0
     71618 TIP3     16412    TIP3     H2       HT       0.417000       1.00800           0
     71619 TIP3     16413    TIP3     OH2      OT      -0.834000       15.9994           0
     71620 TIP3     16413    TIP3     H1       HT       0.417000       1.00800           0
     71621 TIP3     16413    TIP3     H2       HT       0.417000       1.00800           0
     71622 TIP3     16414    TIP3     OH2      OT      -0.834000       15.9994           0
     71623 TIP3     16414    TIP3     H1       HT       0.417000       1.00800           0
     71624 TIP3     16414    TIP3     H2       HT       0.417000       1.00800           0
     71625 TIP3     16415    TIP3     OH2      OT      -0.834000       15.9994           0
     71626 TIP3     16415    TIP3     H1       HT       0.417000       1.00800           0
     71627 TIP3     16415    TIP3     H2       HT       0.417000       1.00800           0
     71628 TIP3     16416    TIP3     OH2      OT      -0.834000       15.9994           0
     71629 TIP3     16416    TIP3     H1       HT       0.417000       1.00800           0
     71630 TIP3     16416    TIP3     H2       HT       0.417000       1.00800           0
     71631 TIP3     16417    TIP3     OH2      OT      -0.834000       15.9994           0
     71632 TIP3     16417    TIP3     H1       HT       0.417000       1.00800           0
     71633 TIP3     16417    TIP3     H2       HT       0.417000       1.00800           0
     71634 TIP3     16418    TIP3     OH2      OT      -0.834000       15.9994           0
     71635 TIP3     16418    TIP3     H1       HT       0.417000       1.00800           0
     71636 TIP3     16418    TIP3     H2       HT       0.417000       1.00800           0
     71637 TIP3     16419    TIP3     OH2      OT      -0.834000       15.9994           0
     71638 TIP3     16419    TIP3     H1       HT       0.417000       1.00800           0
     71639 TIP3     16419    TIP3     H2       HT       0.417000       1.00800           0
     71640 TIP3     16420    TIP3     OH2      OT      -0.834000       15.9994           0
     71641 TIP3     16420    TIP3     H1       HT       0.417000       1.00800           0
     71642 TIP3     16420    TIP3     H2       HT       0.417000       1.00800           0
     71643 TIP3     16421    TIP3     OH2      OT      -0.834000       15.9994           0
     71644 TIP3     16421    TIP3     H1       HT       0.417000       1.00800           0
     71645 TIP3     16421    TIP3     H2       HT       0.417000       1.00800           0
     71646 TIP3     16422    TIP3     OH2      OT      -0.834000       15.9994           0
     71647 TIP3     16422    TIP3     H1       HT       0.417000       1.00800           0
     71648 TIP3     16422    TIP3     H2       HT       0.417000       1.00800           0
     71649 TIP3     16423    TIP3     OH2      OT      -0.834000       15.9994           0
     71650 TIP3     16423    TIP3     H1       HT       0.417000       1.00800           0
     71651 TIP3     16423    TIP3     H2       HT       0.417000       1.00800           0
     71652 TIP3     16424    TIP3     OH2      OT      -0.834000       15.9994           0
     71653 TIP3     16424    TIP3     H1       HT       0.417000       1.00800           0
     71654 TIP3     16424    TIP3     H2       HT       0.417000       1.00800           0
     71655 TIP3     16425    TIP3     OH2      OT      -0.834000       15.9994           0
     71656 TIP3     16425    TIP3     H1       HT       0.417000       1.00800           0
     71657 TIP3     16425    TIP3     H2       HT       0.417000       1.00800           0
     71658 TIP3     16426    TIP3     OH2      OT      -0.834000       15.9994           0
     71659 TIP3     16426    TIP3     H1       HT       0.417000       1.00800           0
     71660 TIP3     16426    TIP3     H2       HT       0.417000       1.00800           0
     71661 TIP3     16427    TIP3     OH2      OT      -0.834000       15.9994           0
     71662 TIP3     16427    TIP3     H1       HT       0.417000       1.00800           0
     71663 TIP3     16427    TIP3     H2       HT       0.417000       1.00800           0
     71664 TIP3     16428    TIP3     OH2      OT      -0.834000       15.9994           0
     71665 TIP3     16428    TIP3     H1       HT       0.417000       1.00800           0
     71666 TIP3     16428    TIP3     H2       HT       0.417000       1.00800           0
     71667 TIP3     16429    TIP3     OH2      OT      -0.834000       15.9994           0
     71668 TIP3     16429    TIP3     H1       HT       0.417000       1.00800           0
     71669 TIP3     16429    TIP3     H2       HT       0.417000       1.00800           0
     71670 TIP3     16430    TIP3     OH2      OT      -0.834000       15.9994           0
     71671 TIP3     16430    TIP3     H1       HT       0.417000       1.00800           0
     71672 TIP3     16430    TIP3     H2       HT       0.417000       1.00800           0
     71673 TIP3     16431    TIP3     OH2      OT      -0.834000       15.9994           0
     71674 TIP3     16431    TIP3     H1       HT       0.417000       1.00800           0
     71675 TIP3     16431    TIP3     H2       HT       0.417000       1.00800           0
     71676 TIP3     16432    TIP3     OH2      OT      -0.834000       15.9994           0
     71677 TIP3     16432    TIP3     H1       HT       0.417000       1.00800           0
     71678 TIP3     16432    TIP3     H2       HT       0.417000       1.00800           0
     71679 TIP3     16433    TIP3     OH2      OT      -0.834000       15.9994           0
     71680 TIP3     16433    TIP3     H1       HT       0.417000       1.00800           0
     71681 TIP3     16433    TIP3     H2       HT       0.417000       1.00800           0
     71682 TIP3     16434    TIP3     OH2      OT      -0.834000       15.9994           0
     71683 TIP3     16434    TIP3     H1       HT       0.417000       1.00800           0
     71684 TIP3     16434    TIP3     H2       HT       0.417000       1.00800           0
     71685 TIP3     16435    TIP3     OH2      OT      -0.834000       15.9994           0
     71686 TIP3     16435    TIP3     H1       HT       0.417000       1.00800           0
     71687 TIP3     16435    TIP3     H2       HT       0.417000       1.00800           0
     71688 TIP3     16436    TIP3     OH2      OT      -0.834000       15.9994           0
     71689 TIP3     16436    TIP3     H1       HT       0.417000       1.00800           0
     71690 TIP3     16436    TIP3     H2       HT       0.417000       1.00800           0
     71691 TIP3     16437    TIP3     OH2      OT      -0.834000       15.9994           0
     71692 TIP3     16437    TIP3     H1       HT       0.417000       1.00800           0
     71693 TIP3     16437    TIP3     H2       HT       0.417000       1.00800           0
     71694 TIP3     16438    TIP3     OH2      OT      -0.834000       15.9994           0
     71695 TIP3     16438    TIP3     H1       HT       0.417000       1.00800           0
     71696 TIP3     16438    TIP3     H2       HT       0.417000       1.00800           0
     71697 TIP3     16439    TIP3     OH2      OT      -0.834000       15.9994           0
     71698 TIP3     16439    TIP3     H1       HT       0.417000       1.00800           0
     71699 TIP3     16439    TIP3     H2       HT       0.417000       1.00800           0
     71700 TIP3     16440    TIP3     OH2      OT      -0.834000       15.9994           0
     71701 TIP3     16440    TIP3     H1       HT       0.417000       1.00800           0
     71702 TIP3     16440    TIP3     H2       HT       0.417000       1.00800           0
     71703 TIP3     16441    TIP3     OH2      OT      -0.834000       15.9994           0
     71704 TIP3     16441    TIP3     H1       HT       0.417000       1.00800           0
     71705 TIP3     16441    TIP3     H2       HT       0.417000       1.00800           0
     71706 TIP3     16442    TIP3     OH2      OT      -0.834000       15.9994           0
     71707 TIP3     16442    TIP3     H1       HT       0.417000       1.00800           0
     71708 TIP3     16442    TIP3     H2       HT       0.417000       1.00800           0
     71709 TIP3     16443    TIP3     OH2      OT      -0.834000       15.9994           0
     71710 TIP3     16443    TIP3     H1       HT       0.417000       1.00800           0
     71711 TIP3     16443    TIP3     H2       HT       0.417000       1.00800           0
     71712 TIP3     16444    TIP3     OH2      OT      -0.834000       15.9994           0
     71713 TIP3     16444    TIP3     H1       HT       0.417000       1.00800           0
     71714 TIP3     16444    TIP3     H2       HT       0.417000       1.00800           0
     71715 TIP3     16445    TIP3     OH2      OT      -0.834000       15.9994           0
     71716 TIP3     16445    TIP3     H1       HT       0.417000       1.00800           0
     71717 TIP3     16445    TIP3     H2       HT       0.417000       1.00800           0
     71718 TIP3     16446    TIP3     OH2      OT      -0.834000       15.9994           0
     71719 TIP3     16446    TIP3     H1       HT       0.417000       1.00800           0
     71720 TIP3     16446    TIP3     H2       HT       0.417000       1.00800           0
     71721 TIP3     16447    TIP3     OH2      OT      -0.834000       15.9994           0
     71722 TIP3     16447    TIP3     H1       HT       0.417000       1.00800           0
     71723 TIP3     16447    TIP3     H2       HT       0.417000       1.00800           0
     71724 TIP3     16448    TIP3     OH2      OT      -0.834000       15.9994           0
     71725 TIP3     16448    TIP3     H1       HT       0.417000       1.00800           0
     71726 TIP3     16448    TIP3     H2       HT       0.417000       1.00800           0
     71727 TIP3     16449    TIP3     OH2      OT      -0.834000       15.9994           0
     71728 TIP3     16449    TIP3     H1       HT       0.417000       1.00800           0
     71729 TIP3     16449    TIP3     H2       HT       0.417000       1.00800           0
     71730 TIP3     16450    TIP3     OH2      OT      -0.834000       15.9994           0
     71731 TIP3     16450    TIP3     H1       HT       0.417000       1.00800           0
     71732 TIP3     16450    TIP3     H2       HT       0.417000       1.00800           0
     71733 TIP3     16451    TIP3     OH2      OT      -0.834000       15.9994           0
     71734 TIP3     16451    TIP3     H1       HT       0.417000       1.00800           0
     71735 TIP3     16451    TIP3     H2       HT       0.417000       1.00800           0
     71736 TIP3     16452    TIP3     OH2      OT      -0.834000       15.9994           0
     71737 TIP3     16452    TIP3     H1       HT       0.417000       1.00800           0
     71738 TIP3     16452    TIP3     H2       HT       0.417000       1.00800           0
     71739 TIP3     16453    TIP3     OH2      OT      -0.834000       15.9994           0
     71740 TIP3     16453    TIP3     H1       HT       0.417000       1.00800           0
     71741 TIP3     16453    TIP3     H2       HT       0.417000       1.00800           0
     71742 TIP3     16454    TIP3     OH2      OT      -0.834000       15.9994           0
     71743 TIP3     16454    TIP3     H1       HT       0.417000       1.00800           0
     71744 TIP3     16454    TIP3     H2       HT       0.417000       1.00800           0
     71745 TIP3     16455    TIP3     OH2      OT      -0.834000       15.9994           0
     71746 TIP3     16455    TIP3     H1       HT       0.417000       1.00800           0
     71747 TIP3     16455    TIP3     H2       HT       0.417000       1.00800           0
     71748 TIP3     16456    TIP3     OH2      OT      -0.834000       15.9994           0
     71749 TIP3     16456    TIP3     H1       HT       0.417000       1.00800           0
     71750 TIP3     16456    TIP3     H2       HT       0.417000       1.00800           0
     71751 TIP3     16457    TIP3     OH2      OT      -0.834000       15.9994           0
     71752 TIP3     16457    TIP3     H1       HT       0.417000       1.00800           0
     71753 TIP3     16457    TIP3     H2       HT       0.417000       1.00800           0
     71754 TIP3     16458    TIP3     OH2      OT      -0.834000       15.9994           0
     71755 TIP3     16458    TIP3     H1       HT       0.417000       1.00800           0
     71756 TIP3     16458    TIP3     H2       HT       0.417000       1.00800           0
     71757 TIP3     16459    TIP3     OH2      OT      -0.834000       15.9994           0
     71758 TIP3     16459    TIP3     H1       HT       0.417000       1.00800           0
     71759 TIP3     16459    TIP3     H2       HT       0.417000       1.00800           0
     71760 TIP3     16460    TIP3     OH2      OT      -0.834000       15.9994           0
     71761 TIP3     16460    TIP3     H1       HT       0.417000       1.00800           0
     71762 TIP3     16460    TIP3     H2       HT       0.417000       1.00800           0
     71763 TIP3     16461    TIP3     OH2      OT      -0.834000       15.9994           0
     71764 TIP3     16461    TIP3     H1       HT       0.417000       1.00800           0
     71765 TIP3     16461    TIP3     H2       HT       0.417000       1.00800           0
     71766 TIP3     16462    TIP3     OH2      OT      -0.834000       15.9994           0
     71767 TIP3     16462    TIP3     H1       HT       0.417000       1.00800           0
     71768 TIP3     16462    TIP3     H2       HT       0.417000       1.00800           0
     71769 TIP3     16463    TIP3     OH2      OT      -0.834000       15.9994           0
     71770 TIP3     16463    TIP3     H1       HT       0.417000       1.00800           0
     71771 TIP3     16463    TIP3     H2       HT       0.417000       1.00800           0
     71772 TIP3     16464    TIP3     OH2      OT      -0.834000       15.9994           0
     71773 TIP3     16464    TIP3     H1       HT       0.417000       1.00800           0
     71774 TIP3     16464    TIP3     H2       HT       0.417000       1.00800           0
     71775 TIP3     16465    TIP3     OH2      OT      -0.834000       15.9994           0
     71776 TIP3     16465    TIP3     H1       HT       0.417000       1.00800           0
     71777 TIP3     16465    TIP3     H2       HT       0.417000       1.00800           0
     71778 TIP3     16466    TIP3     OH2      OT      -0.834000       15.9994           0
     71779 TIP3     16466    TIP3     H1       HT       0.417000       1.00800           0
     71780 TIP3     16466    TIP3     H2       HT       0.417000       1.00800           0
     71781 TIP3     16467    TIP3     OH2      OT      -0.834000       15.9994           0
     71782 TIP3     16467    TIP3     H1       HT       0.417000       1.00800           0
     71783 TIP3     16467    TIP3     H2       HT       0.417000       1.00800           0
     71784 TIP3     16468    TIP3     OH2      OT      -0.834000       15.9994           0
     71785 TIP3     16468    TIP3     H1       HT       0.417000       1.00800           0
     71786 TIP3     16468    TIP3     H2       HT       0.417000       1.00800           0
     71787 TIP3     16469    TIP3     OH2      OT      -0.834000       15.9994           0
     71788 TIP3     16469    TIP3     H1       HT       0.417000       1.00800           0
     71789 TIP3     16469    TIP3     H2       HT       0.417000       1.00800           0
     71790 TIP3     16470    TIP3     OH2      OT      -0.834000       15.9994           0
     71791 TIP3     16470    TIP3     H1       HT       0.417000       1.00800           0
     71792 TIP3     16470    TIP3     H2       HT       0.417000       1.00800           0
     71793 TIP3     16471    TIP3     OH2      OT      -0.834000       15.9994           0
     71794 TIP3     16471    TIP3     H1       HT       0.417000       1.00800           0
     71795 TIP3     16471    TIP3     H2       HT       0.417000       1.00800           0
     71796 TIP3     16472    TIP3     OH2      OT      -0.834000       15.9994           0
     71797 TIP3     16472    TIP3     H1       HT       0.417000       1.00800           0
     71798 TIP3     16472    TIP3     H2       HT       0.417000       1.00800           0
     71799 TIP3     16473    TIP3     OH2      OT      -0.834000       15.9994           0
     71800 TIP3     16473    TIP3     H1       HT       0.417000       1.00800           0
     71801 TIP3     16473    TIP3     H2       HT       0.417000       1.00800           0
     71802 TIP3     16474    TIP3     OH2      OT      -0.834000       15.9994           0
     71803 TIP3     16474    TIP3     H1       HT       0.417000       1.00800           0
     71804 TIP3     16474    TIP3     H2       HT       0.417000       1.00800           0
     71805 TIP3     16475    TIP3     OH2      OT      -0.834000       15.9994           0
     71806 TIP3     16475    TIP3     H1       HT       0.417000       1.00800           0
     71807 TIP3     16475    TIP3     H2       HT       0.417000       1.00800           0
     71808 TIP3     16476    TIP3     OH2      OT      -0.834000       15.9994           0
     71809 TIP3     16476    TIP3     H1       HT       0.417000       1.00800           0
     71810 TIP3     16476    TIP3     H2       HT       0.417000       1.00800           0
     71811 TIP3     16477    TIP3     OH2      OT      -0.834000       15.9994           0
     71812 TIP3     16477    TIP3     H1       HT       0.417000       1.00800           0
     71813 TIP3     16477    TIP3     H2       HT       0.417000       1.00800           0
     71814 TIP3     16478    TIP3     OH2      OT      -0.834000       15.9994           0
     71815 TIP3     16478    TIP3     H1       HT       0.417000       1.00800           0
     71816 TIP3     16478    TIP3     H2       HT       0.417000       1.00800           0
     71817 TIP3     16479    TIP3     OH2      OT      -0.834000       15.9994           0
     71818 TIP3     16479    TIP3     H1       HT       0.417000       1.00800           0
     71819 TIP3     16479    TIP3     H2       HT       0.417000       1.00800           0
     71820 TIP3     16480    TIP3     OH2      OT      -0.834000       15.9994           0
     71821 TIP3     16480    TIP3     H1       HT       0.417000       1.00800           0
     71822 TIP3     16480    TIP3     H2       HT       0.417000       1.00800           0
     71823 TIP3     16481    TIP3     OH2      OT      -0.834000       15.9994           0
     71824 TIP3     16481    TIP3     H1       HT       0.417000       1.00800           0
     71825 TIP3     16481    TIP3     H2       HT       0.417000       1.00800           0
     71826 TIP3     16482    TIP3     OH2      OT      -0.834000       15.9994           0
     71827 TIP3     16482    TIP3     H1       HT       0.417000       1.00800           0
     71828 TIP3     16482    TIP3     H2       HT       0.417000       1.00800           0
     71829 TIP3     16483    TIP3     OH2      OT      -0.834000       15.9994           0
     71830 TIP3     16483    TIP3     H1       HT       0.417000       1.00800           0
     71831 TIP3     16483    TIP3     H2       HT       0.417000       1.00800           0
     71832 TIP3     16484    TIP3     OH2      OT      -0.834000       15.9994           0
     71833 TIP3     16484    TIP3     H1       HT       0.417000       1.00800           0
     71834 TIP3     16484    TIP3     H2       HT       0.417000       1.00800           0
     71835 TIP3     16485    TIP3     OH2      OT      -0.834000       15.9994           0
     71836 TIP3     16485    TIP3     H1       HT       0.417000       1.00800           0
     71837 TIP3     16485    TIP3     H2       HT       0.417000       1.00800           0
     71838 TIP3     16486    TIP3     OH2      OT      -0.834000       15.9994           0
     71839 TIP3     16486    TIP3     H1       HT       0.417000       1.00800           0
     71840 TIP3     16486    TIP3     H2       HT       0.417000       1.00800           0
     71841 TIP3     16487    TIP3     OH2      OT      -0.834000       15.9994           0
     71842 TIP3     16487    TIP3     H1       HT       0.417000       1.00800           0
     71843 TIP3     16487    TIP3     H2       HT       0.417000       1.00800           0
     71844 TIP3     16488    TIP3     OH2      OT      -0.834000       15.9994           0
     71845 TIP3     16488    TIP3     H1       HT       0.417000       1.00800           0
     71846 TIP3     16488    TIP3     H2       HT       0.417000       1.00800           0
     71847 TIP3     16489    TIP3     OH2      OT      -0.834000       15.9994           0
     71848 TIP3     16489    TIP3     H1       HT       0.417000       1.00800           0
     71849 TIP3     16489    TIP3     H2       HT       0.417000       1.00800           0
     71850 TIP3     16490    TIP3     OH2      OT      -0.834000       15.9994           0
     71851 TIP3     16490    TIP3     H1       HT       0.417000       1.00800           0
     71852 TIP3     16490    TIP3     H2       HT       0.417000       1.00800           0
     71853 TIP3     16491    TIP3     OH2      OT      -0.834000       15.9994           0
     71854 TIP3     16491    TIP3     H1       HT       0.417000       1.00800           0
     71855 TIP3     16491    TIP3     H2       HT       0.417000       1.00800           0
     71856 TIP3     16492    TIP3     OH2      OT      -0.834000       15.9994           0
     71857 TIP3     16492    TIP3     H1       HT       0.417000       1.00800           0
     71858 TIP3     16492    TIP3     H2       HT       0.417000       1.00800           0
     71859 TIP3     16493    TIP3     OH2      OT      -0.834000       15.9994           0
     71860 TIP3     16493    TIP3     H1       HT       0.417000       1.00800           0
     71861 TIP3     16493    TIP3     H2       HT       0.417000       1.00800           0
     71862 TIP3     16494    TIP3     OH2      OT      -0.834000       15.9994           0
     71863 TIP3     16494    TIP3     H1       HT       0.417000       1.00800           0
     71864 TIP3     16494    TIP3     H2       HT       0.417000       1.00800           0
     71865 TIP3     16495    TIP3     OH2      OT      -0.834000       15.9994           0
     71866 TIP3     16495    TIP3     H1       HT       0.417000       1.00800           0
     71867 TIP3     16495    TIP3     H2       HT       0.417000       1.00800           0
     71868 TIP3     16496    TIP3     OH2      OT      -0.834000       15.9994           0
     71869 TIP3     16496    TIP3     H1       HT       0.417000       1.00800           0
     71870 TIP3     16496    TIP3     H2       HT       0.417000       1.00800           0
     71871 TIP3     16497    TIP3     OH2      OT      -0.834000       15.9994           0
     71872 TIP3     16497    TIP3     H1       HT       0.417000       1.00800           0
     71873 TIP3     16497    TIP3     H2       HT       0.417000       1.00800           0
     71874 TIP3     16498    TIP3     OH2      OT      -0.834000       15.9994           0
     71875 TIP3     16498    TIP3     H1       HT       0.417000       1.00800           0
     71876 TIP3     16498    TIP3     H2       HT       0.417000       1.00800           0
     71877 TIP3     16499    TIP3     OH2      OT      -0.834000       15.9994           0
     71878 TIP3     16499    TIP3     H1       HT       0.417000       1.00800           0
     71879 TIP3     16499    TIP3     H2       HT       0.417000       1.00800           0
     71880 TIP3     16500    TIP3     OH2      OT      -0.834000       15.9994           0
     71881 TIP3     16500    TIP3     H1       HT       0.417000       1.00800           0
     71882 TIP3     16500    TIP3     H2       HT       0.417000       1.00800           0
     71883 TIP3     16501    TIP3     OH2      OT      -0.834000       15.9994           0
     71884 TIP3     16501    TIP3     H1       HT       0.417000       1.00800           0
     71885 TIP3     16501    TIP3     H2       HT       0.417000       1.00800           0
     71886 TIP3     16502    TIP3     OH2      OT      -0.834000       15.9994           0
     71887 TIP3     16502    TIP3     H1       HT       0.417000       1.00800           0
     71888 TIP3     16502    TIP3     H2       HT       0.417000       1.00800           0
     71889 TIP3     16503    TIP3     OH2      OT      -0.834000       15.9994           0
     71890 TIP3     16503    TIP3     H1       HT       0.417000       1.00800           0
     71891 TIP3     16503    TIP3     H2       HT       0.417000       1.00800           0
     71892 TIP3     16504    TIP3     OH2      OT      -0.834000       15.9994           0
     71893 TIP3     16504    TIP3     H1       HT       0.417000       1.00800           0
     71894 TIP3     16504    TIP3     H2       HT       0.417000       1.00800           0
     71895 TIP3     16505    TIP3     OH2      OT      -0.834000       15.9994           0
     71896 TIP3     16505    TIP3     H1       HT       0.417000       1.00800           0
     71897 TIP3     16505    TIP3     H2       HT       0.417000       1.00800           0
     71898 TIP3     16506    TIP3     OH2      OT      -0.834000       15.9994           0
     71899 TIP3     16506    TIP3     H1       HT       0.417000       1.00800           0
     71900 TIP3     16506    TIP3     H2       HT       0.417000       1.00800           0
     71901 TIP3     16507    TIP3     OH2      OT      -0.834000       15.9994           0
     71902 TIP3     16507    TIP3     H1       HT       0.417000       1.00800           0
     71903 TIP3     16507    TIP3     H2       HT       0.417000       1.00800           0
     71904 TIP3     16508    TIP3     OH2      OT      -0.834000       15.9994           0
     71905 TIP3     16508    TIP3     H1       HT       0.417000       1.00800           0
     71906 TIP3     16508    TIP3     H2       HT       0.417000       1.00800           0
     71907 TIP3     16509    TIP3     OH2      OT      -0.834000       15.9994           0
     71908 TIP3     16509    TIP3     H1       HT       0.417000       1.00800           0
     71909 TIP3     16509    TIP3     H2       HT       0.417000       1.00800           0
     71910 TIP3     16510    TIP3     OH2      OT      -0.834000       15.9994           0
     71911 TIP3     16510    TIP3     H1       HT       0.417000       1.00800           0
     71912 TIP3     16510    TIP3     H2       HT       0.417000       1.00800           0
     71913 TIP3     16511    TIP3     OH2      OT      -0.834000       15.9994           0
     71914 TIP3     16511    TIP3     H1       HT       0.417000       1.00800           0
     71915 TIP3     16511    TIP3     H2       HT       0.417000       1.00800           0
     71916 TIP3     16512    TIP3     OH2      OT      -0.834000       15.9994           0
     71917 TIP3     16512    TIP3     H1       HT       0.417000       1.00800           0
     71918 TIP3     16512    TIP3     H2       HT       0.417000       1.00800           0
     71919 TIP3     16513    TIP3     OH2      OT      -0.834000       15.9994           0
     71920 TIP3     16513    TIP3     H1       HT       0.417000       1.00800           0
     71921 TIP3     16513    TIP3     H2       HT       0.417000       1.00800           0
     71922 TIP3     16514    TIP3     OH2      OT      -0.834000       15.9994           0
     71923 TIP3     16514    TIP3     H1       HT       0.417000       1.00800           0
     71924 TIP3     16514    TIP3     H2       HT       0.417000       1.00800           0
     71925 TIP3     16515    TIP3     OH2      OT      -0.834000       15.9994           0
     71926 TIP3     16515    TIP3     H1       HT       0.417000       1.00800           0
     71927 TIP3     16515    TIP3     H2       HT       0.417000       1.00800           0
     71928 TIP3     16516    TIP3     OH2      OT      -0.834000       15.9994           0
     71929 TIP3     16516    TIP3     H1       HT       0.417000       1.00800           0
     71930 TIP3     16516    TIP3     H2       HT       0.417000       1.00800           0
     71931 TIP3     16517    TIP3     OH2      OT      -0.834000       15.9994           0
     71932 TIP3     16517    TIP3     H1       HT       0.417000       1.00800           0
     71933 TIP3     16517    TIP3     H2       HT       0.417000       1.00800           0
     71934 TIP3     16518    TIP3     OH2      OT      -0.834000       15.9994           0
     71935 TIP3     16518    TIP3     H1       HT       0.417000       1.00800           0
     71936 TIP3     16518    TIP3     H2       HT       0.417000       1.00800           0
     71937 TIP3     16519    TIP3     OH2      OT      -0.834000       15.9994           0
     71938 TIP3     16519    TIP3     H1       HT       0.417000       1.00800           0
     71939 TIP3     16519    TIP3     H2       HT       0.417000       1.00800           0
     71940 TIP3     16520    TIP3     OH2      OT      -0.834000       15.9994           0
     71941 TIP3     16520    TIP3     H1       HT       0.417000       1.00800           0
     71942 TIP3     16520    TIP3     H2       HT       0.417000       1.00800           0
     71943 TIP3     16521    TIP3     OH2      OT      -0.834000       15.9994           0
     71944 TIP3     16521    TIP3     H1       HT       0.417000       1.00800           0
     71945 TIP3     16521    TIP3     H2       HT       0.417000       1.00800           0
     71946 TIP3     16522    TIP3     OH2      OT      -0.834000       15.9994           0
     71947 TIP3     16522    TIP3     H1       HT       0.417000       1.00800           0
     71948 TIP3     16522    TIP3     H2       HT       0.417000       1.00800           0
     71949 TIP3     16523    TIP3     OH2      OT      -0.834000       15.9994           0
     71950 TIP3     16523    TIP3     H1       HT       0.417000       1.00800           0
     71951 TIP3     16523    TIP3     H2       HT       0.417000       1.00800           0
     71952 TIP3     16524    TIP3     OH2      OT      -0.834000       15.9994           0
     71953 TIP3     16524    TIP3     H1       HT       0.417000       1.00800           0
     71954 TIP3     16524    TIP3     H2       HT       0.417000       1.00800           0
     71955 TIP3     16525    TIP3     OH2      OT      -0.834000       15.9994           0
     71956 TIP3     16525    TIP3     H1       HT       0.417000       1.00800           0
     71957 TIP3     16525    TIP3     H2       HT       0.417000       1.00800           0
     71958 TIP3     16526    TIP3     OH2      OT      -0.834000       15.9994           0
     71959 TIP3     16526    TIP3     H1       HT       0.417000       1.00800           0
     71960 TIP3     16526    TIP3     H2       HT       0.417000       1.00800           0
     71961 TIP3     16527    TIP3     OH2      OT      -0.834000       15.9994           0
     71962 TIP3     16527    TIP3     H1       HT       0.417000       1.00800           0
     71963 TIP3     16527    TIP3     H2       HT       0.417000       1.00800           0
     71964 TIP3     16528    TIP3     OH2      OT      -0.834000       15.9994           0
     71965 TIP3     16528    TIP3     H1       HT       0.417000       1.00800           0
     71966 TIP3     16528    TIP3     H2       HT       0.417000       1.00800           0
     71967 TIP3     16529    TIP3     OH2      OT      -0.834000       15.9994           0
     71968 TIP3     16529    TIP3     H1       HT       0.417000       1.00800           0
     71969 TIP3     16529    TIP3     H2       HT       0.417000       1.00800           0
     71970 TIP3     16530    TIP3     OH2      OT      -0.834000       15.9994           0
     71971 TIP3     16530    TIP3     H1       HT       0.417000       1.00800           0
     71972 TIP3     16530    TIP3     H2       HT       0.417000       1.00800           0
     71973 TIP3     16531    TIP3     OH2      OT      -0.834000       15.9994           0
     71974 TIP3     16531    TIP3     H1       HT       0.417000       1.00800           0
     71975 TIP3     16531    TIP3     H2       HT       0.417000       1.00800           0
     71976 TIP3     16532    TIP3     OH2      OT      -0.834000       15.9994           0
     71977 TIP3     16532    TIP3     H1       HT       0.417000       1.00800           0
     71978 TIP3     16532    TIP3     H2       HT       0.417000       1.00800           0
     71979 TIP3     16533    TIP3     OH2      OT      -0.834000       15.9994           0
     71980 TIP3     16533    TIP3     H1       HT       0.417000       1.00800           0
     71981 TIP3     16533    TIP3     H2       HT       0.417000       1.00800           0
     71982 TIP3     16534    TIP3     OH2      OT      -0.834000       15.9994           0
     71983 TIP3     16534    TIP3     H1       HT       0.417000       1.00800           0
     71984 TIP3     16534    TIP3     H2       HT       0.417000       1.00800           0
     71985 TIP3     16535    TIP3     OH2      OT      -0.834000       15.9994           0
     71986 TIP3     16535    TIP3     H1       HT       0.417000       1.00800           0
     71987 TIP3     16535    TIP3     H2       HT       0.417000       1.00800           0
     71988 TIP3     16536    TIP3     OH2      OT      -0.834000       15.9994           0
     71989 TIP3     16536    TIP3     H1       HT       0.417000       1.00800           0
     71990 TIP3     16536    TIP3     H2       HT       0.417000       1.00800           0
     71991 TIP3     16537    TIP3     OH2      OT      -0.834000       15.9994           0
     71992 TIP3     16537    TIP3     H1       HT       0.417000       1.00800           0
     71993 TIP3     16537    TIP3     H2       HT       0.417000       1.00800           0
     71994 TIP3     16538    TIP3     OH2      OT      -0.834000       15.9994           0
     71995 TIP3     16538    TIP3     H1       HT       0.417000       1.00800           0
     71996 TIP3     16538    TIP3     H2       HT       0.417000       1.00800           0
     71997 TIP3     16539    TIP3     OH2      OT      -0.834000       15.9994           0
     71998 TIP3     16539    TIP3     H1       HT       0.417000       1.00800           0
     71999 TIP3     16539    TIP3     H2       HT       0.417000       1.00800           0
     72000 TIP3     16540    TIP3     OH2      OT      -0.834000       15.9994           0
     72001 TIP3     16540    TIP3     H1       HT       0.417000       1.00800           0
     72002 TIP3     16540    TIP3     H2       HT       0.417000       1.00800           0
     72003 TIP3     16541    TIP3     OH2      OT      -0.834000       15.9994           0
     72004 TIP3     16541    TIP3     H1       HT       0.417000       1.00800           0
     72005 TIP3     16541    TIP3     H2       HT       0.417000       1.00800           0
     72006 TIP3     16542    TIP3     OH2      OT      -0.834000       15.9994           0
     72007 TIP3     16542    TIP3     H1       HT       0.417000       1.00800           0
     72008 TIP3     16542    TIP3     H2       HT       0.417000       1.00800           0
     72009 TIP3     16543    TIP3     OH2      OT      -0.834000       15.9994           0
     72010 TIP3     16543    TIP3     H1       HT       0.417000       1.00800           0
     72011 TIP3     16543    TIP3     H2       HT       0.417000       1.00800           0
     72012 TIP3     16544    TIP3     OH2      OT      -0.834000       15.9994           0
     72013 TIP3     16544    TIP3     H1       HT       0.417000       1.00800           0
     72014 TIP3     16544    TIP3     H2       HT       0.417000       1.00800           0
     72015 TIP3     16545    TIP3     OH2      OT      -0.834000       15.9994           0
     72016 TIP3     16545    TIP3     H1       HT       0.417000       1.00800           0
     72017 TIP3     16545    TIP3     H2       HT       0.417000       1.00800           0
     72018 TIP3     16546    TIP3     OH2      OT      -0.834000       15.9994           0
     72019 TIP3     16546    TIP3     H1       HT       0.417000       1.00800           0
     72020 TIP3     16546    TIP3     H2       HT       0.417000       1.00800           0
     72021 TIP3     16547    TIP3     OH2      OT      -0.834000       15.9994           0
     72022 TIP3     16547    TIP3     H1       HT       0.417000       1.00800           0
     72023 TIP3     16547    TIP3     H2       HT       0.417000       1.00800           0
     72024 TIP3     16548    TIP3     OH2      OT      -0.834000       15.9994           0
     72025 TIP3     16548    TIP3     H1       HT       0.417000       1.00800           0
     72026 TIP3     16548    TIP3     H2       HT       0.417000       1.00800           0
     72027 TIP3     16549    TIP3     OH2      OT      -0.834000       15.9994           0
     72028 TIP3     16549    TIP3     H1       HT       0.417000       1.00800           0
     72029 TIP3     16549    TIP3     H2       HT       0.417000       1.00800           0
     72030 TIP3     16550    TIP3     OH2      OT      -0.834000       15.9994           0
     72031 TIP3     16550    TIP3     H1       HT       0.417000       1.00800           0
     72032 TIP3     16550    TIP3     H2       HT       0.417000       1.00800           0
     72033 TIP3     16551    TIP3     OH2      OT      -0.834000       15.9994           0
     72034 TIP3     16551    TIP3     H1       HT       0.417000       1.00800           0
     72035 TIP3     16551    TIP3     H2       HT       0.417000       1.00800           0
     72036 TIP3     16552    TIP3     OH2      OT      -0.834000       15.9994           0
     72037 TIP3     16552    TIP3     H1       HT       0.417000       1.00800           0
     72038 TIP3     16552    TIP3     H2       HT       0.417000       1.00800           0
     72039 TIP3     16553    TIP3     OH2      OT      -0.834000       15.9994           0
     72040 TIP3     16553    TIP3     H1       HT       0.417000       1.00800           0
     72041 TIP3     16553    TIP3     H2       HT       0.417000       1.00800           0
     72042 TIP3     16554    TIP3     OH2      OT      -0.834000       15.9994           0
     72043 TIP3     16554    TIP3     H1       HT       0.417000       1.00800           0
     72044 TIP3     16554    TIP3     H2       HT       0.417000       1.00800           0
     72045 TIP3     16555    TIP3     OH2      OT      -0.834000       15.9994           0
     72046 TIP3     16555    TIP3     H1       HT       0.417000       1.00800           0
     72047 TIP3     16555    TIP3     H2       HT       0.417000       1.00800           0
     72048 TIP3     16556    TIP3     OH2      OT      -0.834000       15.9994           0
     72049 TIP3     16556    TIP3     H1       HT       0.417000       1.00800           0
     72050 TIP3     16556    TIP3     H2       HT       0.417000       1.00800           0
     72051 TIP3     16557    TIP3     OH2      OT      -0.834000       15.9994           0
     72052 TIP3     16557    TIP3     H1       HT       0.417000       1.00800           0
     72053 TIP3     16557    TIP3     H2       HT       0.417000       1.00800           0
     72054 TIP3     16558    TIP3     OH2      OT      -0.834000       15.9994           0
     72055 TIP3     16558    TIP3     H1       HT       0.417000       1.00800           0
     72056 TIP3     16558    TIP3     H2       HT       0.417000       1.00800           0
     72057 TIP3     16559    TIP3     OH2      OT      -0.834000       15.9994           0
     72058 TIP3     16559    TIP3     H1       HT       0.417000       1.00800           0
     72059 TIP3     16559    TIP3     H2       HT       0.417000       1.00800           0
     72060 TIP3     16560    TIP3     OH2      OT      -0.834000       15.9994           0
     72061 TIP3     16560    TIP3     H1       HT       0.417000       1.00800           0
     72062 TIP3     16560    TIP3     H2       HT       0.417000       1.00800           0
     72063 TIP3     16561    TIP3     OH2      OT      -0.834000       15.9994           0
     72064 TIP3     16561    TIP3     H1       HT       0.417000       1.00800           0
     72065 TIP3     16561    TIP3     H2       HT       0.417000       1.00800           0
     72066 TIP3     16562    TIP3     OH2      OT      -0.834000       15.9994           0
     72067 TIP3     16562    TIP3     H1       HT       0.417000       1.00800           0
     72068 TIP3     16562    TIP3     H2       HT       0.417000       1.00800           0
     72069 TIP3     16563    TIP3     OH2      OT      -0.834000       15.9994           0
     72070 TIP3     16563    TIP3     H1       HT       0.417000       1.00800           0
     72071 TIP3     16563    TIP3     H2       HT       0.417000       1.00800           0
     72072 TIP3     16564    TIP3     OH2      OT      -0.834000       15.9994           0
     72073 TIP3     16564    TIP3     H1       HT       0.417000       1.00800           0
     72074 TIP3     16564    TIP3     H2       HT       0.417000       1.00800           0
     72075 TIP3     16565    TIP3     OH2      OT      -0.834000       15.9994           0
     72076 TIP3     16565    TIP3     H1       HT       0.417000       1.00800           0
     72077 TIP3     16565    TIP3     H2       HT       0.417000       1.00800           0
     72078 TIP3     16566    TIP3     OH2      OT      -0.834000       15.9994           0
     72079 TIP3     16566    TIP3     H1       HT       0.417000       1.00800           0
     72080 TIP3     16566    TIP3     H2       HT       0.417000       1.00800           0
     72081 TIP3     16567    TIP3     OH2      OT      -0.834000       15.9994           0
     72082 TIP3     16567    TIP3     H1       HT       0.417000       1.00800           0
     72083 TIP3     16567    TIP3     H2       HT       0.417000       1.00800           0
     72084 TIP3     16568    TIP3     OH2      OT      -0.834000       15.9994           0
     72085 TIP3     16568    TIP3     H1       HT       0.417000       1.00800           0
     72086 TIP3     16568    TIP3     H2       HT       0.417000       1.00800           0
     72087 TIP3     16569    TIP3     OH2      OT      -0.834000       15.9994           0
     72088 TIP3     16569    TIP3     H1       HT       0.417000       1.00800           0
     72089 TIP3     16569    TIP3     H2       HT       0.417000       1.00800           0
     72090 TIP3     16570    TIP3     OH2      OT      -0.834000       15.9994           0
     72091 TIP3     16570    TIP3     H1       HT       0.417000       1.00800           0
     72092 TIP3     16570    TIP3     H2       HT       0.417000       1.00800           0
     72093 TIP3     16571    TIP3     OH2      OT      -0.834000       15.9994           0
     72094 TIP3     16571    TIP3     H1       HT       0.417000       1.00800           0
     72095 TIP3     16571    TIP3     H2       HT       0.417000       1.00800           0
     72096 TIP3     16572    TIP3     OH2      OT      -0.834000       15.9994           0
     72097 TIP3     16572    TIP3     H1       HT       0.417000       1.00800           0
     72098 TIP3     16572    TIP3     H2       HT       0.417000       1.00800           0
     72099 TIP3     16573    TIP3     OH2      OT      -0.834000       15.9994           0
     72100 TIP3     16573    TIP3     H1       HT       0.417000       1.00800           0
     72101 TIP3     16573    TIP3     H2       HT       0.417000       1.00800           0
     72102 TIP3     16574    TIP3     OH2      OT      -0.834000       15.9994           0
     72103 TIP3     16574    TIP3     H1       HT       0.417000       1.00800           0
     72104 TIP3     16574    TIP3     H2       HT       0.417000       1.00800           0
     72105 TIP3     16575    TIP3     OH2      OT      -0.834000       15.9994           0
     72106 TIP3     16575    TIP3     H1       HT       0.417000       1.00800           0
     72107 TIP3     16575    TIP3     H2       HT       0.417000       1.00800           0
     72108 TIP3     16576    TIP3     OH2      OT      -0.834000       15.9994           0
     72109 TIP3     16576    TIP3     H1       HT       0.417000       1.00800           0
     72110 TIP3     16576    TIP3     H2       HT       0.417000       1.00800           0
     72111 TIP3     16577    TIP3     OH2      OT      -0.834000       15.9994           0
     72112 TIP3     16577    TIP3     H1       HT       0.417000       1.00800           0
     72113 TIP3     16577    TIP3     H2       HT       0.417000       1.00800           0
     72114 TIP3     16578    TIP3     OH2      OT      -0.834000       15.9994           0
     72115 TIP3     16578    TIP3     H1       HT       0.417000       1.00800           0
     72116 TIP3     16578    TIP3     H2       HT       0.417000       1.00800           0
     72117 TIP3     16579    TIP3     OH2      OT      -0.834000       15.9994           0
     72118 TIP3     16579    TIP3     H1       HT       0.417000       1.00800           0
     72119 TIP3     16579    TIP3     H2       HT       0.417000       1.00800           0
     72120 TIP3     16580    TIP3     OH2      OT      -0.834000       15.9994           0
     72121 TIP3     16580    TIP3     H1       HT       0.417000       1.00800           0
     72122 TIP3     16580    TIP3     H2       HT       0.417000       1.00800           0
     72123 TIP3     16581    TIP3     OH2      OT      -0.834000       15.9994           0
     72124 TIP3     16581    TIP3     H1       HT       0.417000       1.00800           0
     72125 TIP3     16581    TIP3     H2       HT       0.417000       1.00800           0
     72126 TIP3     16582    TIP3     OH2      OT      -0.834000       15.9994           0
     72127 TIP3     16582    TIP3     H1       HT       0.417000       1.00800           0
     72128 TIP3     16582    TIP3     H2       HT       0.417000       1.00800           0
     72129 TIP3     16583    TIP3     OH2      OT      -0.834000       15.9994           0
     72130 TIP3     16583    TIP3     H1       HT       0.417000       1.00800           0
     72131 TIP3     16583    TIP3     H2       HT       0.417000       1.00800           0
     72132 TIP3     16584    TIP3     OH2      OT      -0.834000       15.9994           0
     72133 TIP3     16584    TIP3     H1       HT       0.417000       1.00800           0
     72134 TIP3     16584    TIP3     H2       HT       0.417000       1.00800           0
     72135 TIP3     16585    TIP3     OH2      OT      -0.834000       15.9994           0
     72136 TIP3     16585    TIP3     H1       HT       0.417000       1.00800           0
     72137 TIP3     16585    TIP3     H2       HT       0.417000       1.00800           0
     72138 TIP3     16586    TIP3     OH2      OT      -0.834000       15.9994           0
     72139 TIP3     16586    TIP3     H1       HT       0.417000       1.00800           0
     72140 TIP3     16586    TIP3     H2       HT       0.417000       1.00800           0
     72141 TIP3     16587    TIP3     OH2      OT      -0.834000       15.9994           0
     72142 TIP3     16587    TIP3     H1       HT       0.417000       1.00800           0
     72143 TIP3     16587    TIP3     H2       HT       0.417000       1.00800           0
     72144 TIP3     16588    TIP3     OH2      OT      -0.834000       15.9994           0
     72145 TIP3     16588    TIP3     H1       HT       0.417000       1.00800           0
     72146 TIP3     16588    TIP3     H2       HT       0.417000       1.00800           0
     72147 TIP3     16589    TIP3     OH2      OT      -0.834000       15.9994           0
     72148 TIP3     16589    TIP3     H1       HT       0.417000       1.00800           0
     72149 TIP3     16589    TIP3     H2       HT       0.417000       1.00800           0
     72150 TIP3     16590    TIP3     OH2      OT      -0.834000       15.9994           0
     72151 TIP3     16590    TIP3     H1       HT       0.417000       1.00800           0
     72152 TIP3     16590    TIP3     H2       HT       0.417000       1.00800           0
     72153 TIP3     16591    TIP3     OH2      OT      -0.834000       15.9994           0
     72154 TIP3     16591    TIP3     H1       HT       0.417000       1.00800           0
     72155 TIP3     16591    TIP3     H2       HT       0.417000       1.00800           0
     72156 TIP3     16592    TIP3     OH2      OT      -0.834000       15.9994           0
     72157 TIP3     16592    TIP3     H1       HT       0.417000       1.00800           0
     72158 TIP3     16592    TIP3     H2       HT       0.417000       1.00800           0
     72159 TIP3     16593    TIP3     OH2      OT      -0.834000       15.9994           0
     72160 TIP3     16593    TIP3     H1       HT       0.417000       1.00800           0
     72161 TIP3     16593    TIP3     H2       HT       0.417000       1.00800           0
     72162 TIP3     16594    TIP3     OH2      OT      -0.834000       15.9994           0
     72163 TIP3     16594    TIP3     H1       HT       0.417000       1.00800           0
     72164 TIP3     16594    TIP3     H2       HT       0.417000       1.00800           0
     72165 TIP3     16595    TIP3     OH2      OT      -0.834000       15.9994           0
     72166 TIP3     16595    TIP3     H1       HT       0.417000       1.00800           0
     72167 TIP3     16595    TIP3     H2       HT       0.417000       1.00800           0
     72168 TIP3     16596    TIP3     OH2      OT      -0.834000       15.9994           0
     72169 TIP3     16596    TIP3     H1       HT       0.417000       1.00800           0
     72170 TIP3     16596    TIP3     H2       HT       0.417000       1.00800           0
     72171 TIP3     16597    TIP3     OH2      OT      -0.834000       15.9994           0
     72172 TIP3     16597    TIP3     H1       HT       0.417000       1.00800           0
     72173 TIP3     16597    TIP3     H2       HT       0.417000       1.00800           0
     72174 TIP3     16598    TIP3     OH2      OT      -0.834000       15.9994           0
     72175 TIP3     16598    TIP3     H1       HT       0.417000       1.00800           0
     72176 TIP3     16598    TIP3     H2       HT       0.417000       1.00800           0
     72177 TIP3     16599    TIP3     OH2      OT      -0.834000       15.9994           0
     72178 TIP3     16599    TIP3     H1       HT       0.417000       1.00800           0
     72179 TIP3     16599    TIP3     H2       HT       0.417000       1.00800           0
     72180 TIP3     16600    TIP3     OH2      OT      -0.834000       15.9994           0
     72181 TIP3     16600    TIP3     H1       HT       0.417000       1.00800           0
     72182 TIP3     16600    TIP3     H2       HT       0.417000       1.00800           0
     72183 TIP3     16601    TIP3     OH2      OT      -0.834000       15.9994           0
     72184 TIP3     16601    TIP3     H1       HT       0.417000       1.00800           0
     72185 TIP3     16601    TIP3     H2       HT       0.417000       1.00800           0
     72186 TIP3     16602    TIP3     OH2      OT      -0.834000       15.9994           0
     72187 TIP3     16602    TIP3     H1       HT       0.417000       1.00800           0
     72188 TIP3     16602    TIP3     H2       HT       0.417000       1.00800           0
     72189 TIP3     16603    TIP3     OH2      OT      -0.834000       15.9994           0
     72190 TIP3     16603    TIP3     H1       HT       0.417000       1.00800           0
     72191 TIP3     16603    TIP3     H2       HT       0.417000       1.00800           0
     72192 TIP3     16604    TIP3     OH2      OT      -0.834000       15.9994           0
     72193 TIP3     16604    TIP3     H1       HT       0.417000       1.00800           0
     72194 TIP3     16604    TIP3     H2       HT       0.417000       1.00800           0
     72195 TIP3     16605    TIP3     OH2      OT      -0.834000       15.9994           0
     72196 TIP3     16605    TIP3     H1       HT       0.417000       1.00800           0
     72197 TIP3     16605    TIP3     H2       HT       0.417000       1.00800           0
     72198 TIP3     16606    TIP3     OH2      OT      -0.834000       15.9994           0
     72199 TIP3     16606    TIP3     H1       HT       0.417000       1.00800           0
     72200 TIP3     16606    TIP3     H2       HT       0.417000       1.00800           0
     72201 TIP3     16607    TIP3     OH2      OT      -0.834000       15.9994           0
     72202 TIP3     16607    TIP3     H1       HT       0.417000       1.00800           0
     72203 TIP3     16607    TIP3     H2       HT       0.417000       1.00800           0
     72204 TIP3     16608    TIP3     OH2      OT      -0.834000       15.9994           0
     72205 TIP3     16608    TIP3     H1       HT       0.417000       1.00800           0
     72206 TIP3     16608    TIP3     H2       HT       0.417000       1.00800           0
     72207 TIP3     16609    TIP3     OH2      OT      -0.834000       15.9994           0
     72208 TIP3     16609    TIP3     H1       HT       0.417000       1.00800           0
     72209 TIP3     16609    TIP3     H2       HT       0.417000       1.00800           0
     72210 TIP3     16610    TIP3     OH2      OT      -0.834000       15.9994           0
     72211 TIP3     16610    TIP3     H1       HT       0.417000       1.00800           0
     72212 TIP3     16610    TIP3     H2       HT       0.417000       1.00800           0
     72213 TIP3     16611    TIP3     OH2      OT      -0.834000       15.9994           0
     72214 TIP3     16611    TIP3     H1       HT       0.417000       1.00800           0
     72215 TIP3     16611    TIP3     H2       HT       0.417000       1.00800           0
     72216 TIP3     16612    TIP3     OH2      OT      -0.834000       15.9994           0
     72217 TIP3     16612    TIP3     H1       HT       0.417000       1.00800           0
     72218 TIP3     16612    TIP3     H2       HT       0.417000       1.00800           0
     72219 TIP3     16613    TIP3     OH2      OT      -0.834000       15.9994           0
     72220 TIP3     16613    TIP3     H1       HT       0.417000       1.00800           0
     72221 TIP3     16613    TIP3     H2       HT       0.417000       1.00800           0
     72222 TIP3     16614    TIP3     OH2      OT      -0.834000       15.9994           0
     72223 TIP3     16614    TIP3     H1       HT       0.417000       1.00800           0
     72224 TIP3     16614    TIP3     H2       HT       0.417000       1.00800           0
     72225 TIP3     16615    TIP3     OH2      OT      -0.834000       15.9994           0
     72226 TIP3     16615    TIP3     H1       HT       0.417000       1.00800           0
     72227 TIP3     16615    TIP3     H2       HT       0.417000       1.00800           0
     72228 TIP3     16616    TIP3     OH2      OT      -0.834000       15.9994           0
     72229 TIP3     16616    TIP3     H1       HT       0.417000       1.00800           0
     72230 TIP3     16616    TIP3     H2       HT       0.417000       1.00800           0
     72231 TIP3     16617    TIP3     OH2      OT      -0.834000       15.9994           0
     72232 TIP3     16617    TIP3     H1       HT       0.417000       1.00800           0
     72233 TIP3     16617    TIP3     H2       HT       0.417000       1.00800           0
     72234 TIP3     16618    TIP3     OH2      OT      -0.834000       15.9994           0
     72235 TIP3     16618    TIP3     H1       HT       0.417000       1.00800           0
     72236 TIP3     16618    TIP3     H2       HT       0.417000       1.00800           0
     72237 TIP3     16619    TIP3     OH2      OT      -0.834000       15.9994           0
     72238 TIP3     16619    TIP3     H1       HT       0.417000       1.00800           0
     72239 TIP3     16619    TIP3     H2       HT       0.417000       1.00800           0
     72240 TIP3     16620    TIP3     OH2      OT      -0.834000       15.9994           0
     72241 TIP3     16620    TIP3     H1       HT       0.417000       1.00800           0
     72242 TIP3     16620    TIP3     H2       HT       0.417000       1.00800           0
     72243 TIP3     16621    TIP3     OH2      OT      -0.834000       15.9994           0
     72244 TIP3     16621    TIP3     H1       HT       0.417000       1.00800           0
     72245 TIP3     16621    TIP3     H2       HT       0.417000       1.00800           0
     72246 TIP3     16622    TIP3     OH2      OT      -0.834000       15.9994           0
     72247 TIP3     16622    TIP3     H1       HT       0.417000       1.00800           0
     72248 TIP3     16622    TIP3     H2       HT       0.417000       1.00800           0
     72249 TIP3     16623    TIP3     OH2      OT      -0.834000       15.9994           0
     72250 TIP3     16623    TIP3     H1       HT       0.417000       1.00800           0
     72251 TIP3     16623    TIP3     H2       HT       0.417000       1.00800           0
     72252 TIP3     16624    TIP3     OH2      OT      -0.834000       15.9994           0
     72253 TIP3     16624    TIP3     H1       HT       0.417000       1.00800           0
     72254 TIP3     16624    TIP3     H2       HT       0.417000       1.00800           0
     72255 TIP3     16625    TIP3     OH2      OT      -0.834000       15.9994           0
     72256 TIP3     16625    TIP3     H1       HT       0.417000       1.00800           0
     72257 TIP3     16625    TIP3     H2       HT       0.417000       1.00800           0
     72258 TIP3     16626    TIP3     OH2      OT      -0.834000       15.9994           0
     72259 TIP3     16626    TIP3     H1       HT       0.417000       1.00800           0
     72260 TIP3     16626    TIP3     H2       HT       0.417000       1.00800           0
     72261 TIP3     16627    TIP3     OH2      OT      -0.834000       15.9994           0
     72262 TIP3     16627    TIP3     H1       HT       0.417000       1.00800           0
     72263 TIP3     16627    TIP3     H2       HT       0.417000       1.00800           0
     72264 TIP3     16628    TIP3     OH2      OT      -0.834000       15.9994           0
     72265 TIP3     16628    TIP3     H1       HT       0.417000       1.00800           0
     72266 TIP3     16628    TIP3     H2       HT       0.417000       1.00800           0
     72267 TIP3     16629    TIP3     OH2      OT      -0.834000       15.9994           0
     72268 TIP3     16629    TIP3     H1       HT       0.417000       1.00800           0
     72269 TIP3     16629    TIP3     H2       HT       0.417000       1.00800           0
     72270 TIP3     16630    TIP3     OH2      OT      -0.834000       15.9994           0
     72271 TIP3     16630    TIP3     H1       HT       0.417000       1.00800           0
     72272 TIP3     16630    TIP3     H2       HT       0.417000       1.00800           0
     72273 TIP3     16631    TIP3     OH2      OT      -0.834000       15.9994           0
     72274 TIP3     16631    TIP3     H1       HT       0.417000       1.00800           0
     72275 TIP3     16631    TIP3     H2       HT       0.417000       1.00800           0
     72276 TIP3     16632    TIP3     OH2      OT      -0.834000       15.9994           0
     72277 TIP3     16632    TIP3     H1       HT       0.417000       1.00800           0
     72278 TIP3     16632    TIP3     H2       HT       0.417000       1.00800           0
     72279 TIP3     16633    TIP3     OH2      OT      -0.834000       15.9994           0
     72280 TIP3     16633    TIP3     H1       HT       0.417000       1.00800           0
     72281 TIP3     16633    TIP3     H2       HT       0.417000       1.00800           0
     72282 TIP3     16634    TIP3     OH2      OT      -0.834000       15.9994           0
     72283 TIP3     16634    TIP3     H1       HT       0.417000       1.00800           0
     72284 TIP3     16634    TIP3     H2       HT       0.417000       1.00800           0
     72285 TIP3     16635    TIP3     OH2      OT      -0.834000       15.9994           0
     72286 TIP3     16635    TIP3     H1       HT       0.417000       1.00800           0
     72287 TIP3     16635    TIP3     H2       HT       0.417000       1.00800           0
     72288 TIP3     16636    TIP3     OH2      OT      -0.834000       15.9994           0
     72289 TIP3     16636    TIP3     H1       HT       0.417000       1.00800           0
     72290 TIP3     16636    TIP3     H2       HT       0.417000       1.00800           0
     72291 TIP3     16637    TIP3     OH2      OT      -0.834000       15.9994           0
     72292 TIP3     16637    TIP3     H1       HT       0.417000       1.00800           0
     72293 TIP3     16637    TIP3     H2       HT       0.417000       1.00800           0
     72294 TIP3     16638    TIP3     OH2      OT      -0.834000       15.9994           0
     72295 TIP3     16638    TIP3     H1       HT       0.417000       1.00800           0
     72296 TIP3     16638    TIP3     H2       HT       0.417000       1.00800           0
     72297 TIP3     16639    TIP3     OH2      OT      -0.834000       15.9994           0
     72298 TIP3     16639    TIP3     H1       HT       0.417000       1.00800           0
     72299 TIP3     16639    TIP3     H2       HT       0.417000       1.00800           0
     72300 TIP3     16640    TIP3     OH2      OT      -0.834000       15.9994           0
     72301 TIP3     16640    TIP3     H1       HT       0.417000       1.00800           0
     72302 TIP3     16640    TIP3     H2       HT       0.417000       1.00800           0
     72303 TIP3     16641    TIP3     OH2      OT      -0.834000       15.9994           0
     72304 TIP3     16641    TIP3     H1       HT       0.417000       1.00800           0
     72305 TIP3     16641    TIP3     H2       HT       0.417000       1.00800           0
     72306 TIP3     16642    TIP3     OH2      OT      -0.834000       15.9994           0
     72307 TIP3     16642    TIP3     H1       HT       0.417000       1.00800           0
     72308 TIP3     16642    TIP3     H2       HT       0.417000       1.00800           0
     72309 TIP3     16643    TIP3     OH2      OT      -0.834000       15.9994           0
     72310 TIP3     16643    TIP3     H1       HT       0.417000       1.00800           0
     72311 TIP3     16643    TIP3     H2       HT       0.417000       1.00800           0
     72312 TIP3     16644    TIP3     OH2      OT      -0.834000       15.9994           0
     72313 TIP3     16644    TIP3     H1       HT       0.417000       1.00800           0
     72314 TIP3     16644    TIP3     H2       HT       0.417000       1.00800           0
     72315 TIP3     16645    TIP3     OH2      OT      -0.834000       15.9994           0
     72316 TIP3     16645    TIP3     H1       HT       0.417000       1.00800           0
     72317 TIP3     16645    TIP3     H2       HT       0.417000       1.00800           0
     72318 TIP3     16646    TIP3     OH2      OT      -0.834000       15.9994           0
     72319 TIP3     16646    TIP3     H1       HT       0.417000       1.00800           0
     72320 TIP3     16646    TIP3     H2       HT       0.417000       1.00800           0
     72321 TIP3     16647    TIP3     OH2      OT      -0.834000       15.9994           0
     72322 TIP3     16647    TIP3     H1       HT       0.417000       1.00800           0
     72323 TIP3     16647    TIP3     H2       HT       0.417000       1.00800           0
     72324 TIP3     16648    TIP3     OH2      OT      -0.834000       15.9994           0
     72325 TIP3     16648    TIP3     H1       HT       0.417000       1.00800           0
     72326 TIP3     16648    TIP3     H2       HT       0.417000       1.00800           0
     72327 TIP3     16649    TIP3     OH2      OT      -0.834000       15.9994           0
     72328 TIP3     16649    TIP3     H1       HT       0.417000       1.00800           0
     72329 TIP3     16649    TIP3     H2       HT       0.417000       1.00800           0
     72330 TIP3     16650    TIP3     OH2      OT      -0.834000       15.9994           0
     72331 TIP3     16650    TIP3     H1       HT       0.417000       1.00800           0
     72332 TIP3     16650    TIP3     H2       HT       0.417000       1.00800           0
     72333 TIP3     16651    TIP3     OH2      OT      -0.834000       15.9994           0
     72334 TIP3     16651    TIP3     H1       HT       0.417000       1.00800           0
     72335 TIP3     16651    TIP3     H2       HT       0.417000       1.00800           0
     72336 TIP3     16652    TIP3     OH2      OT      -0.834000       15.9994           0
     72337 TIP3     16652    TIP3     H1       HT       0.417000       1.00800           0
     72338 TIP3     16652    TIP3     H2       HT       0.417000       1.00800           0
     72339 TIP3     16653    TIP3     OH2      OT      -0.834000       15.9994           0
     72340 TIP3     16653    TIP3     H1       HT       0.417000       1.00800           0
     72341 TIP3     16653    TIP3     H2       HT       0.417000       1.00800           0
     72342 TIP3     16654    TIP3     OH2      OT      -0.834000       15.9994           0
     72343 TIP3     16654    TIP3     H1       HT       0.417000       1.00800           0
     72344 TIP3     16654    TIP3     H2       HT       0.417000       1.00800           0
     72345 TIP3     16655    TIP3     OH2      OT      -0.834000       15.9994           0
     72346 TIP3     16655    TIP3     H1       HT       0.417000       1.00800           0
     72347 TIP3     16655    TIP3     H2       HT       0.417000       1.00800           0
     72348 TIP3     16656    TIP3     OH2      OT      -0.834000       15.9994           0
     72349 TIP3     16656    TIP3     H1       HT       0.417000       1.00800           0
     72350 TIP3     16656    TIP3     H2       HT       0.417000       1.00800           0
     72351 TIP3     16657    TIP3     OH2      OT      -0.834000       15.9994           0
     72352 TIP3     16657    TIP3     H1       HT       0.417000       1.00800           0
     72353 TIP3     16657    TIP3     H2       HT       0.417000       1.00800           0
     72354 TIP3     16658    TIP3     OH2      OT      -0.834000       15.9994           0
     72355 TIP3     16658    TIP3     H1       HT       0.417000       1.00800           0
     72356 TIP3     16658    TIP3     H2       HT       0.417000       1.00800           0
     72357 TIP3     16659    TIP3     OH2      OT      -0.834000       15.9994           0
     72358 TIP3     16659    TIP3     H1       HT       0.417000       1.00800           0
     72359 TIP3     16659    TIP3     H2       HT       0.417000       1.00800           0
     72360 TIP3     16660    TIP3     OH2      OT      -0.834000       15.9994           0
     72361 TIP3     16660    TIP3     H1       HT       0.417000       1.00800           0
     72362 TIP3     16660    TIP3     H2       HT       0.417000       1.00800           0
     72363 TIP3     16661    TIP3     OH2      OT      -0.834000       15.9994           0
     72364 TIP3     16661    TIP3     H1       HT       0.417000       1.00800           0
     72365 TIP3     16661    TIP3     H2       HT       0.417000       1.00800           0
     72366 TIP3     16662    TIP3     OH2      OT      -0.834000       15.9994           0
     72367 TIP3     16662    TIP3     H1       HT       0.417000       1.00800           0
     72368 TIP3     16662    TIP3     H2       HT       0.417000       1.00800           0
     72369 TIP3     16663    TIP3     OH2      OT      -0.834000       15.9994           0
     72370 TIP3     16663    TIP3     H1       HT       0.417000       1.00800           0
     72371 TIP3     16663    TIP3     H2       HT       0.417000       1.00800           0
     72372 TIP3     16664    TIP3     OH2      OT      -0.834000       15.9994           0
     72373 TIP3     16664    TIP3     H1       HT       0.417000       1.00800           0
     72374 TIP3     16664    TIP3     H2       HT       0.417000       1.00800           0
     72375 TIP3     16665    TIP3     OH2      OT      -0.834000       15.9994           0
     72376 TIP3     16665    TIP3     H1       HT       0.417000       1.00800           0
     72377 TIP3     16665    TIP3     H2       HT       0.417000       1.00800           0
     72378 TIP3     16666    TIP3     OH2      OT      -0.834000       15.9994           0
     72379 TIP3     16666    TIP3     H1       HT       0.417000       1.00800           0
     72380 TIP3     16666    TIP3     H2       HT       0.417000       1.00800           0
     72381 TIP3     16667    TIP3     OH2      OT      -0.834000       15.9994           0
     72382 TIP3     16667    TIP3     H1       HT       0.417000       1.00800           0
     72383 TIP3     16667    TIP3     H2       HT       0.417000       1.00800           0
     72384 TIP3     16668    TIP3     OH2      OT      -0.834000       15.9994           0
     72385 TIP3     16668    TIP3     H1       HT       0.417000       1.00800           0
     72386 TIP3     16668    TIP3     H2       HT       0.417000       1.00800           0
     72387 TIP3     16669    TIP3     OH2      OT      -0.834000       15.9994           0
     72388 TIP3     16669    TIP3     H1       HT       0.417000       1.00800           0
     72389 TIP3     16669    TIP3     H2       HT       0.417000       1.00800           0
     72390 TIP3     16670    TIP3     OH2      OT      -0.834000       15.9994           0
     72391 TIP3     16670    TIP3     H1       HT       0.417000       1.00800           0
     72392 TIP3     16670    TIP3     H2       HT       0.417000       1.00800           0
     72393 TIP3     16671    TIP3     OH2      OT      -0.834000       15.9994           0
     72394 TIP3     16671    TIP3     H1       HT       0.417000       1.00800           0
     72395 TIP3     16671    TIP3     H2       HT       0.417000       1.00800           0
     72396 TIP3     16672    TIP3     OH2      OT      -0.834000       15.9994           0
     72397 TIP3     16672    TIP3     H1       HT       0.417000       1.00800           0
     72398 TIP3     16672    TIP3     H2       HT       0.417000       1.00800           0
     72399 TIP3     16673    TIP3     OH2      OT      -0.834000       15.9994           0
     72400 TIP3     16673    TIP3     H1       HT       0.417000       1.00800           0
     72401 TIP3     16673    TIP3     H2       HT       0.417000       1.00800           0
     72402 TIP3     16674    TIP3     OH2      OT      -0.834000       15.9994           0
     72403 TIP3     16674    TIP3     H1       HT       0.417000       1.00800           0
     72404 TIP3     16674    TIP3     H2       HT       0.417000       1.00800           0
     72405 TIP3     16675    TIP3     OH2      OT      -0.834000       15.9994           0
     72406 TIP3     16675    TIP3     H1       HT       0.417000       1.00800           0
     72407 TIP3     16675    TIP3     H2       HT       0.417000       1.00800           0
     72408 TIP3     16676    TIP3     OH2      OT      -0.834000       15.9994           0
     72409 TIP3     16676    TIP3     H1       HT       0.417000       1.00800           0
     72410 TIP3     16676    TIP3     H2       HT       0.417000       1.00800           0
     72411 TIP3     16677    TIP3     OH2      OT      -0.834000       15.9994           0
     72412 TIP3     16677    TIP3     H1       HT       0.417000       1.00800           0
     72413 TIP3     16677    TIP3     H2       HT       0.417000       1.00800           0
     72414 TIP3     16678    TIP3     OH2      OT      -0.834000       15.9994           0
     72415 TIP3     16678    TIP3     H1       HT       0.417000       1.00800           0
     72416 TIP3     16678    TIP3     H2       HT       0.417000       1.00800           0
     72417 TIP3     16679    TIP3     OH2      OT      -0.834000       15.9994           0
     72418 TIP3     16679    TIP3     H1       HT       0.417000       1.00800           0
     72419 TIP3     16679    TIP3     H2       HT       0.417000       1.00800           0
     72420 TIP3     16680    TIP3     OH2      OT      -0.834000       15.9994           0
     72421 TIP3     16680    TIP3     H1       HT       0.417000       1.00800           0
     72422 TIP3     16680    TIP3     H2       HT       0.417000       1.00800           0
     72423 TIP3     16681    TIP3     OH2      OT      -0.834000       15.9994           0
     72424 TIP3     16681    TIP3     H1       HT       0.417000       1.00800           0
     72425 TIP3     16681    TIP3     H2       HT       0.417000       1.00800           0
     72426 TIP3     16682    TIP3     OH2      OT      -0.834000       15.9994           0
     72427 TIP3     16682    TIP3     H1       HT       0.417000       1.00800           0
     72428 TIP3     16682    TIP3     H2       HT       0.417000       1.00800           0
     72429 TIP3     16683    TIP3     OH2      OT      -0.834000       15.9994           0
     72430 TIP3     16683    TIP3     H1       HT       0.417000       1.00800           0
     72431 TIP3     16683    TIP3     H2       HT       0.417000       1.00800           0
     72432 TIP3     16684    TIP3     OH2      OT      -0.834000       15.9994           0
     72433 TIP3     16684    TIP3     H1       HT       0.417000       1.00800           0
     72434 TIP3     16684    TIP3     H2       HT       0.417000       1.00800           0
     72435 TIP3     16685    TIP3     OH2      OT      -0.834000       15.9994           0
     72436 TIP3     16685    TIP3     H1       HT       0.417000       1.00800           0
     72437 TIP3     16685    TIP3     H2       HT       0.417000       1.00800           0
     72438 TIP3     16686    TIP3     OH2      OT      -0.834000       15.9994           0
     72439 TIP3     16686    TIP3     H1       HT       0.417000       1.00800           0
     72440 TIP3     16686    TIP3     H2       HT       0.417000       1.00800           0
     72441 TIP3     16687    TIP3     OH2      OT      -0.834000       15.9994           0
     72442 TIP3     16687    TIP3     H1       HT       0.417000       1.00800           0
     72443 TIP3     16687    TIP3     H2       HT       0.417000       1.00800           0
     72444 TIP3     16688    TIP3     OH2      OT      -0.834000       15.9994           0
     72445 TIP3     16688    TIP3     H1       HT       0.417000       1.00800           0
     72446 TIP3     16688    TIP3     H2       HT       0.417000       1.00800           0
     72447 TIP3     16689    TIP3     OH2      OT      -0.834000       15.9994           0
     72448 TIP3     16689    TIP3     H1       HT       0.417000       1.00800           0
     72449 TIP3     16689    TIP3     H2       HT       0.417000       1.00800           0
     72450 TIP3     16690    TIP3     OH2      OT      -0.834000       15.9994           0
     72451 TIP3     16690    TIP3     H1       HT       0.417000       1.00800           0
     72452 TIP3     16690    TIP3     H2       HT       0.417000       1.00800           0
     72453 TIP3     16691    TIP3     OH2      OT      -0.834000       15.9994           0
     72454 TIP3     16691    TIP3     H1       HT       0.417000       1.00800           0
     72455 TIP3     16691    TIP3     H2       HT       0.417000       1.00800           0
     72456 TIP3     16692    TIP3     OH2      OT      -0.834000       15.9994           0
     72457 TIP3     16692    TIP3     H1       HT       0.417000       1.00800           0
     72458 TIP3     16692    TIP3     H2       HT       0.417000       1.00800           0
     72459 TIP3     16693    TIP3     OH2      OT      -0.834000       15.9994           0
     72460 TIP3     16693    TIP3     H1       HT       0.417000       1.00800           0
     72461 TIP3     16693    TIP3     H2       HT       0.417000       1.00800           0
     72462 TIP3     16694    TIP3     OH2      OT      -0.834000       15.9994           0
     72463 TIP3     16694    TIP3     H1       HT       0.417000       1.00800           0
     72464 TIP3     16694    TIP3     H2       HT       0.417000       1.00800           0
     72465 TIP3     16695    TIP3     OH2      OT      -0.834000       15.9994           0
     72466 TIP3     16695    TIP3     H1       HT       0.417000       1.00800           0
     72467 TIP3     16695    TIP3     H2       HT       0.417000       1.00800           0
     72468 TIP3     16696    TIP3     OH2      OT      -0.834000       15.9994           0
     72469 TIP3     16696    TIP3     H1       HT       0.417000       1.00800           0
     72470 TIP3     16696    TIP3     H2       HT       0.417000       1.00800           0
     72471 TIP3     16697    TIP3     OH2      OT      -0.834000       15.9994           0
     72472 TIP3     16697    TIP3     H1       HT       0.417000       1.00800           0
     72473 TIP3     16697    TIP3     H2       HT       0.417000       1.00800           0
     72474 TIP3     16698    TIP3     OH2      OT      -0.834000       15.9994           0
     72475 TIP3     16698    TIP3     H1       HT       0.417000       1.00800           0
     72476 TIP3     16698    TIP3     H2       HT       0.417000       1.00800           0
     72477 TIP3     16699    TIP3     OH2      OT      -0.834000       15.9994           0
     72478 TIP3     16699    TIP3     H1       HT       0.417000       1.00800           0
     72479 TIP3     16699    TIP3     H2       HT       0.417000       1.00800           0
     72480 TIP3     16700    TIP3     OH2      OT      -0.834000       15.9994           0
     72481 TIP3     16700    TIP3     H1       HT       0.417000       1.00800           0
     72482 TIP3     16700    TIP3     H2       HT       0.417000       1.00800           0
     72483 TIP3     16701    TIP3     OH2      OT      -0.834000       15.9994           0
     72484 TIP3     16701    TIP3     H1       HT       0.417000       1.00800           0
     72485 TIP3     16701    TIP3     H2       HT       0.417000       1.00800           0
     72486 TIP3     16702    TIP3     OH2      OT      -0.834000       15.9994           0
     72487 TIP3     16702    TIP3     H1       HT       0.417000       1.00800           0
     72488 TIP3     16702    TIP3     H2       HT       0.417000       1.00800           0
     72489 TIP3     16703    TIP3     OH2      OT      -0.834000       15.9994           0
     72490 TIP3     16703    TIP3     H1       HT       0.417000       1.00800           0
     72491 TIP3     16703    TIP3     H2       HT       0.417000       1.00800           0
     72492 TIP3     16704    TIP3     OH2      OT      -0.834000       15.9994           0
     72493 TIP3     16704    TIP3     H1       HT       0.417000       1.00800           0
     72494 TIP3     16704    TIP3     H2       HT       0.417000       1.00800           0
     72495 TIP3     16705    TIP3     OH2      OT      -0.834000       15.9994           0
     72496 TIP3     16705    TIP3     H1       HT       0.417000       1.00800           0
     72497 TIP3     16705    TIP3     H2       HT       0.417000       1.00800           0
     72498 TIP3     16706    TIP3     OH2      OT      -0.834000       15.9994           0
     72499 TIP3     16706    TIP3     H1       HT       0.417000       1.00800           0
     72500 TIP3     16706    TIP3     H2       HT       0.417000       1.00800           0
     72501 TIP3     16707    TIP3     OH2      OT      -0.834000       15.9994           0
     72502 TIP3     16707    TIP3     H1       HT       0.417000       1.00800           0
     72503 TIP3     16707    TIP3     H2       HT       0.417000       1.00800           0
     72504 TIP3     16708    TIP3     OH2      OT      -0.834000       15.9994           0
     72505 TIP3     16708    TIP3     H1       HT       0.417000       1.00800           0
     72506 TIP3     16708    TIP3     H2       HT       0.417000       1.00800           0
     72507 TIP3     16709    TIP3     OH2      OT      -0.834000       15.9994           0
     72508 TIP3     16709    TIP3     H1       HT       0.417000       1.00800           0
     72509 TIP3     16709    TIP3     H2       HT       0.417000       1.00800           0
     72510 TIP3     16710    TIP3     OH2      OT      -0.834000       15.9994           0
     72511 TIP3     16710    TIP3     H1       HT       0.417000       1.00800           0
     72512 TIP3     16710    TIP3     H2       HT       0.417000       1.00800           0
     72513 TIP3     16711    TIP3     OH2      OT      -0.834000       15.9994           0
     72514 TIP3     16711    TIP3     H1       HT       0.417000       1.00800           0
     72515 TIP3     16711    TIP3     H2       HT       0.417000       1.00800           0
     72516 TIP3     16712    TIP3     OH2      OT      -0.834000       15.9994           0
     72517 TIP3     16712    TIP3     H1       HT       0.417000       1.00800           0
     72518 TIP3     16712    TIP3     H2       HT       0.417000       1.00800           0
     72519 TIP3     16713    TIP3     OH2      OT      -0.834000       15.9994           0
     72520 TIP3     16713    TIP3     H1       HT       0.417000       1.00800           0
     72521 TIP3     16713    TIP3     H2       HT       0.417000       1.00800           0
     72522 TIP3     16714    TIP3     OH2      OT      -0.834000       15.9994           0
     72523 TIP3     16714    TIP3     H1       HT       0.417000       1.00800           0
     72524 TIP3     16714    TIP3     H2       HT       0.417000       1.00800           0
     72525 TIP3     16715    TIP3     OH2      OT      -0.834000       15.9994           0
     72526 TIP3     16715    TIP3     H1       HT       0.417000       1.00800           0
     72527 TIP3     16715    TIP3     H2       HT       0.417000       1.00800           0
     72528 TIP3     16716    TIP3     OH2      OT      -0.834000       15.9994           0
     72529 TIP3     16716    TIP3     H1       HT       0.417000       1.00800           0
     72530 TIP3     16716    TIP3     H2       HT       0.417000       1.00800           0
     72531 TIP3     16717    TIP3     OH2      OT      -0.834000       15.9994           0
     72532 TIP3     16717    TIP3     H1       HT       0.417000       1.00800           0
     72533 TIP3     16717    TIP3     H2       HT       0.417000       1.00800           0
     72534 TIP3     16718    TIP3     OH2      OT      -0.834000       15.9994           0
     72535 TIP3     16718    TIP3     H1       HT       0.417000       1.00800           0
     72536 TIP3     16718    TIP3     H2       HT       0.417000       1.00800           0
     72537 TIP3     16719    TIP3     OH2      OT      -0.834000       15.9994           0
     72538 TIP3     16719    TIP3     H1       HT       0.417000       1.00800           0
     72539 TIP3     16719    TIP3     H2       HT       0.417000       1.00800           0
     72540 TIP3     16720    TIP3     OH2      OT      -0.834000       15.9994           0
     72541 TIP3     16720    TIP3     H1       HT       0.417000       1.00800           0
     72542 TIP3     16720    TIP3     H2       HT       0.417000       1.00800           0
     72543 TIP3     16721    TIP3     OH2      OT      -0.834000       15.9994           0
     72544 TIP3     16721    TIP3     H1       HT       0.417000       1.00800           0
     72545 TIP3     16721    TIP3     H2       HT       0.417000       1.00800           0
     72546 TIP3     16722    TIP3     OH2      OT      -0.834000       15.9994           0
     72547 TIP3     16722    TIP3     H1       HT       0.417000       1.00800           0
     72548 TIP3     16722    TIP3     H2       HT       0.417000       1.00800           0
     72549 TIP3     16723    TIP3     OH2      OT      -0.834000       15.9994           0
     72550 TIP3     16723    TIP3     H1       HT       0.417000       1.00800           0
     72551 TIP3     16723    TIP3     H2       HT       0.417000       1.00800           0
     72552 TIP3     16724    TIP3     OH2      OT      -0.834000       15.9994           0
     72553 TIP3     16724    TIP3     H1       HT       0.417000       1.00800           0
     72554 TIP3     16724    TIP3     H2       HT       0.417000       1.00800           0
     72555 TIP3     16725    TIP3     OH2      OT      -0.834000       15.9994           0
     72556 TIP3     16725    TIP3     H1       HT       0.417000       1.00800           0
     72557 TIP3     16725    TIP3     H2       HT       0.417000       1.00800           0
     72558 TIP3     16726    TIP3     OH2      OT      -0.834000       15.9994           0
     72559 TIP3     16726    TIP3     H1       HT       0.417000       1.00800           0
     72560 TIP3     16726    TIP3     H2       HT       0.417000       1.00800           0
     72561 TIP3     16727    TIP3     OH2      OT      -0.834000       15.9994           0
     72562 TIP3     16727    TIP3     H1       HT       0.417000       1.00800           0
     72563 TIP3     16727    TIP3     H2       HT       0.417000       1.00800           0
     72564 TIP3     16728    TIP3     OH2      OT      -0.834000       15.9994           0
     72565 TIP3     16728    TIP3     H1       HT       0.417000       1.00800           0
     72566 TIP3     16728    TIP3     H2       HT       0.417000       1.00800           0
     72567 TIP3     16729    TIP3     OH2      OT      -0.834000       15.9994           0
     72568 TIP3     16729    TIP3     H1       HT       0.417000       1.00800           0
     72569 TIP3     16729    TIP3     H2       HT       0.417000       1.00800           0
     72570 TIP3     16730    TIP3     OH2      OT      -0.834000       15.9994           0
     72571 TIP3     16730    TIP3     H1       HT       0.417000       1.00800           0
     72572 TIP3     16730    TIP3     H2       HT       0.417000       1.00800           0
     72573 TIP3     16731    TIP3     OH2      OT      -0.834000       15.9994           0
     72574 TIP3     16731    TIP3     H1       HT       0.417000       1.00800           0
     72575 TIP3     16731    TIP3     H2       HT       0.417000       1.00800           0
     72576 TIP3     16732    TIP3     OH2      OT      -0.834000       15.9994           0
     72577 TIP3     16732    TIP3     H1       HT       0.417000       1.00800           0
     72578 TIP3     16732    TIP3     H2       HT       0.417000       1.00800           0
     72579 TIP3     16733    TIP3     OH2      OT      -0.834000       15.9994           0
     72580 TIP3     16733    TIP3     H1       HT       0.417000       1.00800           0
     72581 TIP3     16733    TIP3     H2       HT       0.417000       1.00800           0
     72582 TIP3     16734    TIP3     OH2      OT      -0.834000       15.9994           0
     72583 TIP3     16734    TIP3     H1       HT       0.417000       1.00800           0
     72584 TIP3     16734    TIP3     H2       HT       0.417000       1.00800           0
     72585 TIP3     16735    TIP3     OH2      OT      -0.834000       15.9994           0
     72586 TIP3     16735    TIP3     H1       HT       0.417000       1.00800           0
     72587 TIP3     16735    TIP3     H2       HT       0.417000       1.00800           0
     72588 TIP3     16736    TIP3     OH2      OT      -0.834000       15.9994           0
     72589 TIP3     16736    TIP3     H1       HT       0.417000       1.00800           0
     72590 TIP3     16736    TIP3     H2       HT       0.417000       1.00800           0
     72591 TIP3     16737    TIP3     OH2      OT      -0.834000       15.9994           0
     72592 TIP3     16737    TIP3     H1       HT       0.417000       1.00800           0
     72593 TIP3     16737    TIP3     H2       HT       0.417000       1.00800           0
     72594 TIP3     16738    TIP3     OH2      OT      -0.834000       15.9994           0
     72595 TIP3     16738    TIP3     H1       HT       0.417000       1.00800           0
     72596 TIP3     16738    TIP3     H2       HT       0.417000       1.00800           0
     72597 TIP3     16739    TIP3     OH2      OT      -0.834000       15.9994           0
     72598 TIP3     16739    TIP3     H1       HT       0.417000       1.00800           0
     72599 TIP3     16739    TIP3     H2       HT       0.417000       1.00800           0
     72600 TIP3     16740    TIP3     OH2      OT      -0.834000       15.9994           0
     72601 TIP3     16740    TIP3     H1       HT       0.417000       1.00800           0
     72602 TIP3     16740    TIP3     H2       HT       0.417000       1.00800           0
     72603 TIP3     16741    TIP3     OH2      OT      -0.834000       15.9994           0
     72604 TIP3     16741    TIP3     H1       HT       0.417000       1.00800           0
     72605 TIP3     16741    TIP3     H2       HT       0.417000       1.00800           0
     72606 TIP3     16742    TIP3     OH2      OT      -0.834000       15.9994           0
     72607 TIP3     16742    TIP3     H1       HT       0.417000       1.00800           0
     72608 TIP3     16742    TIP3     H2       HT       0.417000       1.00800           0
     72609 TIP3     16743    TIP3     OH2      OT      -0.834000       15.9994           0
     72610 TIP3     16743    TIP3     H1       HT       0.417000       1.00800           0
     72611 TIP3     16743    TIP3     H2       HT       0.417000       1.00800           0
     72612 TIP3     16744    TIP3     OH2      OT      -0.834000       15.9994           0
     72613 TIP3     16744    TIP3     H1       HT       0.417000       1.00800           0
     72614 TIP3     16744    TIP3     H2       HT       0.417000       1.00800           0
     72615 TIP3     16745    TIP3     OH2      OT      -0.834000       15.9994           0
     72616 TIP3     16745    TIP3     H1       HT       0.417000       1.00800           0
     72617 TIP3     16745    TIP3     H2       HT       0.417000       1.00800           0
     72618 TIP3     16746    TIP3     OH2      OT      -0.834000       15.9994           0
     72619 TIP3     16746    TIP3     H1       HT       0.417000       1.00800           0
     72620 TIP3     16746    TIP3     H2       HT       0.417000       1.00800           0
     72621 TIP3     16747    TIP3     OH2      OT      -0.834000       15.9994           0
     72622 TIP3     16747    TIP3     H1       HT       0.417000       1.00800           0
     72623 TIP3     16747    TIP3     H2       HT       0.417000       1.00800           0
     72624 TIP3     16748    TIP3     OH2      OT      -0.834000       15.9994           0
     72625 TIP3     16748    TIP3     H1       HT       0.417000       1.00800           0
     72626 TIP3     16748    TIP3     H2       HT       0.417000       1.00800           0
     72627 TIP3     16749    TIP3     OH2      OT      -0.834000       15.9994           0
     72628 TIP3     16749    TIP3     H1       HT       0.417000       1.00800           0
     72629 TIP3     16749    TIP3     H2       HT       0.417000       1.00800           0
     72630 TIP3     16750    TIP3     OH2      OT      -0.834000       15.9994           0
     72631 TIP3     16750    TIP3     H1       HT       0.417000       1.00800           0
     72632 TIP3     16750    TIP3     H2       HT       0.417000       1.00800           0
     72633 TIP3     16751    TIP3     OH2      OT      -0.834000       15.9994           0
     72634 TIP3     16751    TIP3     H1       HT       0.417000       1.00800           0
     72635 TIP3     16751    TIP3     H2       HT       0.417000       1.00800           0
     72636 TIP3     16752    TIP3     OH2      OT      -0.834000       15.9994           0
     72637 TIP3     16752    TIP3     H1       HT       0.417000       1.00800           0
     72638 TIP3     16752    TIP3     H2       HT       0.417000       1.00800           0
     72639 TIP3     16753    TIP3     OH2      OT      -0.834000       15.9994           0
     72640 TIP3     16753    TIP3     H1       HT       0.417000       1.00800           0
     72641 TIP3     16753    TIP3     H2       HT       0.417000       1.00800           0
     72642 TIP3     16754    TIP3     OH2      OT      -0.834000       15.9994           0
     72643 TIP3     16754    TIP3     H1       HT       0.417000       1.00800           0
     72644 TIP3     16754    TIP3     H2       HT       0.417000       1.00800           0
     72645 TIP3     16755    TIP3     OH2      OT      -0.834000       15.9994           0
     72646 TIP3     16755    TIP3     H1       HT       0.417000       1.00800           0
     72647 TIP3     16755    TIP3     H2       HT       0.417000       1.00800           0
     72648 TIP3     16756    TIP3     OH2      OT      -0.834000       15.9994           0
     72649 TIP3     16756    TIP3     H1       HT       0.417000       1.00800           0
     72650 TIP3     16756    TIP3     H2       HT       0.417000       1.00800           0
     72651 TIP3     16757    TIP3     OH2      OT      -0.834000       15.9994           0
     72652 TIP3     16757    TIP3     H1       HT       0.417000       1.00800           0
     72653 TIP3     16757    TIP3     H2       HT       0.417000       1.00800           0
     72654 TIP3     16758    TIP3     OH2      OT      -0.834000       15.9994           0
     72655 TIP3     16758    TIP3     H1       HT       0.417000       1.00800           0
     72656 TIP3     16758    TIP3     H2       HT       0.417000       1.00800           0
     72657 TIP3     16759    TIP3     OH2      OT      -0.834000       15.9994           0
     72658 TIP3     16759    TIP3     H1       HT       0.417000       1.00800           0
     72659 TIP3     16759    TIP3     H2       HT       0.417000       1.00800           0
     72660 TIP3     16760    TIP3     OH2      OT      -0.834000       15.9994           0
     72661 TIP3     16760    TIP3     H1       HT       0.417000       1.00800           0
     72662 TIP3     16760    TIP3     H2       HT       0.417000       1.00800           0
     72663 TIP3     16761    TIP3     OH2      OT      -0.834000       15.9994           0
     72664 TIP3     16761    TIP3     H1       HT       0.417000       1.00800           0
     72665 TIP3     16761    TIP3     H2       HT       0.417000       1.00800           0
     72666 TIP3     16762    TIP3     OH2      OT      -0.834000       15.9994           0
     72667 TIP3     16762    TIP3     H1       HT       0.417000       1.00800           0
     72668 TIP3     16762    TIP3     H2       HT       0.417000       1.00800           0
     72669 TIP3     16763    TIP3     OH2      OT      -0.834000       15.9994           0
     72670 TIP3     16763    TIP3     H1       HT       0.417000       1.00800           0
     72671 TIP3     16763    TIP3     H2       HT       0.417000       1.00800           0
     72672 TIP3     16764    TIP3     OH2      OT      -0.834000       15.9994           0
     72673 TIP3     16764    TIP3     H1       HT       0.417000       1.00800           0
     72674 TIP3     16764    TIP3     H2       HT       0.417000       1.00800           0
     72675 TIP3     16765    TIP3     OH2      OT      -0.834000       15.9994           0
     72676 TIP3     16765    TIP3     H1       HT       0.417000       1.00800           0
     72677 TIP3     16765    TIP3     H2       HT       0.417000       1.00800           0
     72678 TIP3     16766    TIP3     OH2      OT      -0.834000       15.9994           0
     72679 TIP3     16766    TIP3     H1       HT       0.417000       1.00800           0
     72680 TIP3     16766    TIP3     H2       HT       0.417000       1.00800           0
     72681 TIP3     16767    TIP3     OH2      OT      -0.834000       15.9994           0
     72682 TIP3     16767    TIP3     H1       HT       0.417000       1.00800           0
     72683 TIP3     16767    TIP3     H2       HT       0.417000       1.00800           0
     72684 TIP3     16768    TIP3     OH2      OT      -0.834000       15.9994           0
     72685 TIP3     16768    TIP3     H1       HT       0.417000       1.00800           0
     72686 TIP3     16768    TIP3     H2       HT       0.417000       1.00800           0
     72687 TIP3     16769    TIP3     OH2      OT      -0.834000       15.9994           0
     72688 TIP3     16769    TIP3     H1       HT       0.417000       1.00800           0
     72689 TIP3     16769    TIP3     H2       HT       0.417000       1.00800           0
     72690 TIP3     16770    TIP3     OH2      OT      -0.834000       15.9994           0
     72691 TIP3     16770    TIP3     H1       HT       0.417000       1.00800           0
     72692 TIP3     16770    TIP3     H2       HT       0.417000       1.00800           0
     72693 TIP3     16771    TIP3     OH2      OT      -0.834000       15.9994           0
     72694 TIP3     16771    TIP3     H1       HT       0.417000       1.00800           0
     72695 TIP3     16771    TIP3     H2       HT       0.417000       1.00800           0
     72696 TIP3     16772    TIP3     OH2      OT      -0.834000       15.9994           0
     72697 TIP3     16772    TIP3     H1       HT       0.417000       1.00800           0
     72698 TIP3     16772    TIP3     H2       HT       0.417000       1.00800           0
     72699 TIP3     16773    TIP3     OH2      OT      -0.834000       15.9994           0
     72700 TIP3     16773    TIP3     H1       HT       0.417000       1.00800           0
     72701 TIP3     16773    TIP3     H2       HT       0.417000       1.00800           0
     72702 TIP3     16774    TIP3     OH2      OT      -0.834000       15.9994           0
     72703 TIP3     16774    TIP3     H1       HT       0.417000       1.00800           0
     72704 TIP3     16774    TIP3     H2       HT       0.417000       1.00800           0
     72705 TIP3     16775    TIP3     OH2      OT      -0.834000       15.9994           0
     72706 TIP3     16775    TIP3     H1       HT       0.417000       1.00800           0
     72707 TIP3     16775    TIP3     H2       HT       0.417000       1.00800           0
     72708 TIP3     16776    TIP3     OH2      OT      -0.834000       15.9994           0
     72709 TIP3     16776    TIP3     H1       HT       0.417000       1.00800           0
     72710 TIP3     16776    TIP3     H2       HT       0.417000       1.00800           0
     72711 TIP3     16777    TIP3     OH2      OT      -0.834000       15.9994           0
     72712 TIP3     16777    TIP3     H1       HT       0.417000       1.00800           0
     72713 TIP3     16777    TIP3     H2       HT       0.417000       1.00800           0
     72714 TIP3     16778    TIP3     OH2      OT      -0.834000       15.9994           0
     72715 TIP3     16778    TIP3     H1       HT       0.417000       1.00800           0
     72716 TIP3     16778    TIP3     H2       HT       0.417000       1.00800           0
     72717 TIP3     16779    TIP3     OH2      OT      -0.834000       15.9994           0
     72718 TIP3     16779    TIP3     H1       HT       0.417000       1.00800           0
     72719 TIP3     16779    TIP3     H2       HT       0.417000       1.00800           0
     72720 TIP3     16780    TIP3     OH2      OT      -0.834000       15.9994           0
     72721 TIP3     16780    TIP3     H1       HT       0.417000       1.00800           0
     72722 TIP3     16780    TIP3     H2       HT       0.417000       1.00800           0
     72723 TIP3     16781    TIP3     OH2      OT      -0.834000       15.9994           0
     72724 TIP3     16781    TIP3     H1       HT       0.417000       1.00800           0
     72725 TIP3     16781    TIP3     H2       HT       0.417000       1.00800           0
     72726 TIP3     16782    TIP3     OH2      OT      -0.834000       15.9994           0
     72727 TIP3     16782    TIP3     H1       HT       0.417000       1.00800           0
     72728 TIP3     16782    TIP3     H2       HT       0.417000       1.00800           0
     72729 TIP3     16783    TIP3     OH2      OT      -0.834000       15.9994           0
     72730 TIP3     16783    TIP3     H1       HT       0.417000       1.00800           0
     72731 TIP3     16783    TIP3     H2       HT       0.417000       1.00800           0
     72732 TIP3     16784    TIP3     OH2      OT      -0.834000       15.9994           0
     72733 TIP3     16784    TIP3     H1       HT       0.417000       1.00800           0
     72734 TIP3     16784    TIP3     H2       HT       0.417000       1.00800           0
     72735 TIP3     16785    TIP3     OH2      OT      -0.834000       15.9994           0
     72736 TIP3     16785    TIP3     H1       HT       0.417000       1.00800           0
     72737 TIP3     16785    TIP3     H2       HT       0.417000       1.00800           0
     72738 TIP3     16786    TIP3     OH2      OT      -0.834000       15.9994           0
     72739 TIP3     16786    TIP3     H1       HT       0.417000       1.00800           0
     72740 TIP3     16786    TIP3     H2       HT       0.417000       1.00800           0
     72741 TIP3     16787    TIP3     OH2      OT      -0.834000       15.9994           0
     72742 TIP3     16787    TIP3     H1       HT       0.417000       1.00800           0
     72743 TIP3     16787    TIP3     H2       HT       0.417000       1.00800           0
     72744 TIP3     16788    TIP3     OH2      OT      -0.834000       15.9994           0
     72745 TIP3     16788    TIP3     H1       HT       0.417000       1.00800           0
     72746 TIP3     16788    TIP3     H2       HT       0.417000       1.00800           0
     72747 TIP3     16789    TIP3     OH2      OT      -0.834000       15.9994           0
     72748 TIP3     16789    TIP3     H1       HT       0.417000       1.00800           0
     72749 TIP3     16789    TIP3     H2       HT       0.417000       1.00800           0
     72750 TIP3     16790    TIP3     OH2      OT      -0.834000       15.9994           0
     72751 TIP3     16790    TIP3     H1       HT       0.417000       1.00800           0
     72752 TIP3     16790    TIP3     H2       HT       0.417000       1.00800           0
     72753 TIP3     16791    TIP3     OH2      OT      -0.834000       15.9994           0
     72754 TIP3     16791    TIP3     H1       HT       0.417000       1.00800           0
     72755 TIP3     16791    TIP3     H2       HT       0.417000       1.00800           0
     72756 TIP3     16792    TIP3     OH2      OT      -0.834000       15.9994           0
     72757 TIP3     16792    TIP3     H1       HT       0.417000       1.00800           0
     72758 TIP3     16792    TIP3     H2       HT       0.417000       1.00800           0
     72759 TIP3     16793    TIP3     OH2      OT      -0.834000       15.9994           0
     72760 TIP3     16793    TIP3     H1       HT       0.417000       1.00800           0
     72761 TIP3     16793    TIP3     H2       HT       0.417000       1.00800           0
     72762 TIP3     16794    TIP3     OH2      OT      -0.834000       15.9994           0
     72763 TIP3     16794    TIP3     H1       HT       0.417000       1.00800           0
     72764 TIP3     16794    TIP3     H2       HT       0.417000       1.00800           0
     72765 TIP3     16795    TIP3     OH2      OT      -0.834000       15.9994           0
     72766 TIP3     16795    TIP3     H1       HT       0.417000       1.00800           0
     72767 TIP3     16795    TIP3     H2       HT       0.417000       1.00800           0
     72768 TIP3     16796    TIP3     OH2      OT      -0.834000       15.9994           0
     72769 TIP3     16796    TIP3     H1       HT       0.417000       1.00800           0
     72770 TIP3     16796    TIP3     H2       HT       0.417000       1.00800           0
     72771 TIP3     16797    TIP3     OH2      OT      -0.834000       15.9994           0
     72772 TIP3     16797    TIP3     H1       HT       0.417000       1.00800           0
     72773 TIP3     16797    TIP3     H2       HT       0.417000       1.00800           0
     72774 TIP3     16798    TIP3     OH2      OT      -0.834000       15.9994           0
     72775 TIP3     16798    TIP3     H1       HT       0.417000       1.00800           0
     72776 TIP3     16798    TIP3     H2       HT       0.417000       1.00800           0
     72777 TIP3     16799    TIP3     OH2      OT      -0.834000       15.9994           0
     72778 TIP3     16799    TIP3     H1       HT       0.417000       1.00800           0
     72779 TIP3     16799    TIP3     H2       HT       0.417000       1.00800           0
     72780 TIP3     16800    TIP3     OH2      OT      -0.834000       15.9994           0
     72781 TIP3     16800    TIP3     H1       HT       0.417000       1.00800           0
     72782 TIP3     16800    TIP3     H2       HT       0.417000       1.00800           0
     72783 TIP3     16801    TIP3     OH2      OT      -0.834000       15.9994           0
     72784 TIP3     16801    TIP3     H1       HT       0.417000       1.00800           0
     72785 TIP3     16801    TIP3     H2       HT       0.417000       1.00800           0
     72786 TIP3     16802    TIP3     OH2      OT      -0.834000       15.9994           0
     72787 TIP3     16802    TIP3     H1       HT       0.417000       1.00800           0
     72788 TIP3     16802    TIP3     H2       HT       0.417000       1.00800           0
     72789 TIP3     16803    TIP3     OH2      OT      -0.834000       15.9994           0
     72790 TIP3     16803    TIP3     H1       HT       0.417000       1.00800           0
     72791 TIP3     16803    TIP3     H2       HT       0.417000       1.00800           0
     72792 TIP3     16804    TIP3     OH2      OT      -0.834000       15.9994           0
     72793 TIP3     16804    TIP3     H1       HT       0.417000       1.00800           0
     72794 TIP3     16804    TIP3     H2       HT       0.417000       1.00800           0
     72795 TIP3     16805    TIP3     OH2      OT      -0.834000       15.9994           0
     72796 TIP3     16805    TIP3     H1       HT       0.417000       1.00800           0
     72797 TIP3     16805    TIP3     H2       HT       0.417000       1.00800           0
     72798 TIP3     16806    TIP3     OH2      OT      -0.834000       15.9994           0
     72799 TIP3     16806    TIP3     H1       HT       0.417000       1.00800           0
     72800 TIP3     16806    TIP3     H2       HT       0.417000       1.00800           0
     72801 TIP3     16807    TIP3     OH2      OT      -0.834000       15.9994           0
     72802 TIP3     16807    TIP3     H1       HT       0.417000       1.00800           0
     72803 TIP3     16807    TIP3     H2       HT       0.417000       1.00800           0
     72804 TIP3     16808    TIP3     OH2      OT      -0.834000       15.9994           0
     72805 TIP3     16808    TIP3     H1       HT       0.417000       1.00800           0
     72806 TIP3     16808    TIP3     H2       HT       0.417000       1.00800           0
     72807 TIP3     16809    TIP3     OH2      OT      -0.834000       15.9994           0
     72808 TIP3     16809    TIP3     H1       HT       0.417000       1.00800           0
     72809 TIP3     16809    TIP3     H2       HT       0.417000       1.00800           0
     72810 TIP3     16810    TIP3     OH2      OT      -0.834000       15.9994           0
     72811 TIP3     16810    TIP3     H1       HT       0.417000       1.00800           0
     72812 TIP3     16810    TIP3     H2       HT       0.417000       1.00800           0
     72813 TIP3     16811    TIP3     OH2      OT      -0.834000       15.9994           0
     72814 TIP3     16811    TIP3     H1       HT       0.417000       1.00800           0
     72815 TIP3     16811    TIP3     H2       HT       0.417000       1.00800           0
     72816 TIP3     16812    TIP3     OH2      OT      -0.834000       15.9994           0
     72817 TIP3     16812    TIP3     H1       HT       0.417000       1.00800           0
     72818 TIP3     16812    TIP3     H2       HT       0.417000       1.00800           0
     72819 TIP3     16813    TIP3     OH2      OT      -0.834000       15.9994           0
     72820 TIP3     16813    TIP3     H1       HT       0.417000       1.00800           0
     72821 TIP3     16813    TIP3     H2       HT       0.417000       1.00800           0
     72822 TIP3     16814    TIP3     OH2      OT      -0.834000       15.9994           0
     72823 TIP3     16814    TIP3     H1       HT       0.417000       1.00800           0
     72824 TIP3     16814    TIP3     H2       HT       0.417000       1.00800           0
     72825 TIP3     16815    TIP3     OH2      OT      -0.834000       15.9994           0
     72826 TIP3     16815    TIP3     H1       HT       0.417000       1.00800           0
     72827 TIP3     16815    TIP3     H2       HT       0.417000       1.00800           0
     72828 TIP3     16816    TIP3     OH2      OT      -0.834000       15.9994           0
     72829 TIP3     16816    TIP3     H1       HT       0.417000       1.00800           0
     72830 TIP3     16816    TIP3     H2       HT       0.417000       1.00800           0
     72831 TIP3     16817    TIP3     OH2      OT      -0.834000       15.9994           0
     72832 TIP3     16817    TIP3     H1       HT       0.417000       1.00800           0
     72833 TIP3     16817    TIP3     H2       HT       0.417000       1.00800           0
     72834 TIP3     16818    TIP3     OH2      OT      -0.834000       15.9994           0
     72835 TIP3     16818    TIP3     H1       HT       0.417000       1.00800           0
     72836 TIP3     16818    TIP3     H2       HT       0.417000       1.00800           0
     72837 TIP3     16819    TIP3     OH2      OT      -0.834000       15.9994           0
     72838 TIP3     16819    TIP3     H1       HT       0.417000       1.00800           0
     72839 TIP3     16819    TIP3     H2       HT       0.417000       1.00800           0
     72840 TIP3     16820    TIP3     OH2      OT      -0.834000       15.9994           0
     72841 TIP3     16820    TIP3     H1       HT       0.417000       1.00800           0
     72842 TIP3     16820    TIP3     H2       HT       0.417000       1.00800           0
     72843 TIP3     16821    TIP3     OH2      OT      -0.834000       15.9994           0
     72844 TIP3     16821    TIP3     H1       HT       0.417000       1.00800           0
     72845 TIP3     16821    TIP3     H2       HT       0.417000       1.00800           0
     72846 TIP3     16822    TIP3     OH2      OT      -0.834000       15.9994           0
     72847 TIP3     16822    TIP3     H1       HT       0.417000       1.00800           0
     72848 TIP3     16822    TIP3     H2       HT       0.417000       1.00800           0
     72849 TIP3     16823    TIP3     OH2      OT      -0.834000       15.9994           0
     72850 TIP3     16823    TIP3     H1       HT       0.417000       1.00800           0
     72851 TIP3     16823    TIP3     H2       HT       0.417000       1.00800           0
     72852 TIP3     16824    TIP3     OH2      OT      -0.834000       15.9994           0
     72853 TIP3     16824    TIP3     H1       HT       0.417000       1.00800           0
     72854 TIP3     16824    TIP3     H2       HT       0.417000       1.00800           0
     72855 TIP3     16825    TIP3     OH2      OT      -0.834000       15.9994           0
     72856 TIP3     16825    TIP3     H1       HT       0.417000       1.00800           0
     72857 TIP3     16825    TIP3     H2       HT       0.417000       1.00800           0
     72858 TIP3     16826    TIP3     OH2      OT      -0.834000       15.9994           0
     72859 TIP3     16826    TIP3     H1       HT       0.417000       1.00800           0
     72860 TIP3     16826    TIP3     H2       HT       0.417000       1.00800           0
     72861 TIP3     16827    TIP3     OH2      OT      -0.834000       15.9994           0
     72862 TIP3     16827    TIP3     H1       HT       0.417000       1.00800           0
     72863 TIP3     16827    TIP3     H2       HT       0.417000       1.00800           0
     72864 TIP3     16828    TIP3     OH2      OT      -0.834000       15.9994           0
     72865 TIP3     16828    TIP3     H1       HT       0.417000       1.00800           0
     72866 TIP3     16828    TIP3     H2       HT       0.417000       1.00800           0
     72867 TIP3     16829    TIP3     OH2      OT      -0.834000       15.9994           0
     72868 TIP3     16829    TIP3     H1       HT       0.417000       1.00800           0
     72869 TIP3     16829    TIP3     H2       HT       0.417000       1.00800           0
     72870 TIP3     16830    TIP3     OH2      OT      -0.834000       15.9994           0
     72871 TIP3     16830    TIP3     H1       HT       0.417000       1.00800           0
     72872 TIP3     16830    TIP3     H2       HT       0.417000       1.00800           0
     72873 TIP3     16831    TIP3     OH2      OT      -0.834000       15.9994           0
     72874 TIP3     16831    TIP3     H1       HT       0.417000       1.00800           0
     72875 TIP3     16831    TIP3     H2       HT       0.417000       1.00800           0
     72876 TIP3     16832    TIP3     OH2      OT      -0.834000       15.9994           0
     72877 TIP3     16832    TIP3     H1       HT       0.417000       1.00800           0
     72878 TIP3     16832    TIP3     H2       HT       0.417000       1.00800           0
     72879 TIP3     16833    TIP3     OH2      OT      -0.834000       15.9994           0
     72880 TIP3     16833    TIP3     H1       HT       0.417000       1.00800           0
     72881 TIP3     16833    TIP3     H2       HT       0.417000       1.00800           0
     72882 TIP3     16834    TIP3     OH2      OT      -0.834000       15.9994           0
     72883 TIP3     16834    TIP3     H1       HT       0.417000       1.00800           0
     72884 TIP3     16834    TIP3     H2       HT       0.417000       1.00800           0
     72885 TIP3     16835    TIP3     OH2      OT      -0.834000       15.9994           0
     72886 TIP3     16835    TIP3     H1       HT       0.417000       1.00800           0
     72887 TIP3     16835    TIP3     H2       HT       0.417000       1.00800           0
     72888 TIP3     16836    TIP3     OH2      OT      -0.834000       15.9994           0
     72889 TIP3     16836    TIP3     H1       HT       0.417000       1.00800           0
     72890 TIP3     16836    TIP3     H2       HT       0.417000       1.00800           0
     72891 TIP3     16837    TIP3     OH2      OT      -0.834000       15.9994           0
     72892 TIP3     16837    TIP3     H1       HT       0.417000       1.00800           0
     72893 TIP3     16837    TIP3     H2       HT       0.417000       1.00800           0
     72894 TIP3     16838    TIP3     OH2      OT      -0.834000       15.9994           0
     72895 TIP3     16838    TIP3     H1       HT       0.417000       1.00800           0
     72896 TIP3     16838    TIP3     H2       HT       0.417000       1.00800           0
     72897 TIP3     16839    TIP3     OH2      OT      -0.834000       15.9994           0
     72898 TIP3     16839    TIP3     H1       HT       0.417000       1.00800           0
     72899 TIP3     16839    TIP3     H2       HT       0.417000       1.00800           0
     72900 TIP3     16840    TIP3     OH2      OT      -0.834000       15.9994           0
     72901 TIP3     16840    TIP3     H1       HT       0.417000       1.00800           0
     72902 TIP3     16840    TIP3     H2       HT       0.417000       1.00800           0
     72903 TIP3     16841    TIP3     OH2      OT      -0.834000       15.9994           0
     72904 TIP3     16841    TIP3     H1       HT       0.417000       1.00800           0
     72905 TIP3     16841    TIP3     H2       HT       0.417000       1.00800           0
     72906 TIP3     16842    TIP3     OH2      OT      -0.834000       15.9994           0
     72907 TIP3     16842    TIP3     H1       HT       0.417000       1.00800           0
     72908 TIP3     16842    TIP3     H2       HT       0.417000       1.00800           0
     72909 TIP3     16843    TIP3     OH2      OT      -0.834000       15.9994           0
     72910 TIP3     16843    TIP3     H1       HT       0.417000       1.00800           0
     72911 TIP3     16843    TIP3     H2       HT       0.417000       1.00800           0
     72912 TIP3     16844    TIP3     OH2      OT      -0.834000       15.9994           0
     72913 TIP3     16844    TIP3     H1       HT       0.417000       1.00800           0
     72914 TIP3     16844    TIP3     H2       HT       0.417000       1.00800           0
     72915 TIP3     16845    TIP3     OH2      OT      -0.834000       15.9994           0
     72916 TIP3     16845    TIP3     H1       HT       0.417000       1.00800           0
     72917 TIP3     16845    TIP3     H2       HT       0.417000       1.00800           0
     72918 TIP3     16846    TIP3     OH2      OT      -0.834000       15.9994           0
     72919 TIP3     16846    TIP3     H1       HT       0.417000       1.00800           0
     72920 TIP3     16846    TIP3     H2       HT       0.417000       1.00800           0
     72921 TIP3     16847    TIP3     OH2      OT      -0.834000       15.9994           0
     72922 TIP3     16847    TIP3     H1       HT       0.417000       1.00800           0
     72923 TIP3     16847    TIP3     H2       HT       0.417000       1.00800           0
     72924 TIP3     16848    TIP3     OH2      OT      -0.834000       15.9994           0
     72925 TIP3     16848    TIP3     H1       HT       0.417000       1.00800           0
     72926 TIP3     16848    TIP3     H2       HT       0.417000       1.00800           0
     72927 TIP3     16849    TIP3     OH2      OT      -0.834000       15.9994           0
     72928 TIP3     16849    TIP3     H1       HT       0.417000       1.00800           0
     72929 TIP3     16849    TIP3     H2       HT       0.417000       1.00800           0
     72930 TIP3     16850    TIP3     OH2      OT      -0.834000       15.9994           0
     72931 TIP3     16850    TIP3     H1       HT       0.417000       1.00800           0
     72932 TIP3     16850    TIP3     H2       HT       0.417000       1.00800           0
     72933 TIP3     16851    TIP3     OH2      OT      -0.834000       15.9994           0
     72934 TIP3     16851    TIP3     H1       HT       0.417000       1.00800           0
     72935 TIP3     16851    TIP3     H2       HT       0.417000       1.00800           0
     72936 TIP3     16852    TIP3     OH2      OT      -0.834000       15.9994           0
     72937 TIP3     16852    TIP3     H1       HT       0.417000       1.00800           0
     72938 TIP3     16852    TIP3     H2       HT       0.417000       1.00800           0
     72939 TIP3     16853    TIP3     OH2      OT      -0.834000       15.9994           0
     72940 TIP3     16853    TIP3     H1       HT       0.417000       1.00800           0
     72941 TIP3     16853    TIP3     H2       HT       0.417000       1.00800           0
     72942 TIP3     16854    TIP3     OH2      OT      -0.834000       15.9994           0
     72943 TIP3     16854    TIP3     H1       HT       0.417000       1.00800           0
     72944 TIP3     16854    TIP3     H2       HT       0.417000       1.00800           0
     72945 TIP3     16855    TIP3     OH2      OT      -0.834000       15.9994           0
     72946 TIP3     16855    TIP3     H1       HT       0.417000       1.00800           0
     72947 TIP3     16855    TIP3     H2       HT       0.417000       1.00800           0
     72948 TIP3     16856    TIP3     OH2      OT      -0.834000       15.9994           0
     72949 TIP3     16856    TIP3     H1       HT       0.417000       1.00800           0
     72950 TIP3     16856    TIP3     H2       HT       0.417000       1.00800           0
     72951 TIP3     16857    TIP3     OH2      OT      -0.834000       15.9994           0
     72952 TIP3     16857    TIP3     H1       HT       0.417000       1.00800           0
     72953 TIP3     16857    TIP3     H2       HT       0.417000       1.00800           0
     72954 TIP3     16858    TIP3     OH2      OT      -0.834000       15.9994           0
     72955 TIP3     16858    TIP3     H1       HT       0.417000       1.00800           0
     72956 TIP3     16858    TIP3     H2       HT       0.417000       1.00800           0
     72957 TIP3     16859    TIP3     OH2      OT      -0.834000       15.9994           0
     72958 TIP3     16859    TIP3     H1       HT       0.417000       1.00800           0
     72959 TIP3     16859    TIP3     H2       HT       0.417000       1.00800           0
     72960 TIP3     16860    TIP3     OH2      OT      -0.834000       15.9994           0
     72961 TIP3     16860    TIP3     H1       HT       0.417000       1.00800           0
     72962 TIP3     16860    TIP3     H2       HT       0.417000       1.00800           0
     72963 TIP3     16861    TIP3     OH2      OT      -0.834000       15.9994           0
     72964 TIP3     16861    TIP3     H1       HT       0.417000       1.00800           0
     72965 TIP3     16861    TIP3     H2       HT       0.417000       1.00800           0
     72966 TIP3     16862    TIP3     OH2      OT      -0.834000       15.9994           0
     72967 TIP3     16862    TIP3     H1       HT       0.417000       1.00800           0
     72968 TIP3     16862    TIP3     H2       HT       0.417000       1.00800           0
     72969 TIP3     16863    TIP3     OH2      OT      -0.834000       15.9994           0
     72970 TIP3     16863    TIP3     H1       HT       0.417000       1.00800           0
     72971 TIP3     16863    TIP3     H2       HT       0.417000       1.00800           0
     72972 TIP3     16864    TIP3     OH2      OT      -0.834000       15.9994           0
     72973 TIP3     16864    TIP3     H1       HT       0.417000       1.00800           0
     72974 TIP3     16864    TIP3     H2       HT       0.417000       1.00800           0
     72975 TIP3     16865    TIP3     OH2      OT      -0.834000       15.9994           0
     72976 TIP3     16865    TIP3     H1       HT       0.417000       1.00800           0
     72977 TIP3     16865    TIP3     H2       HT       0.417000       1.00800           0
     72978 TIP3     16866    TIP3     OH2      OT      -0.834000       15.9994           0
     72979 TIP3     16866    TIP3     H1       HT       0.417000       1.00800           0
     72980 TIP3     16866    TIP3     H2       HT       0.417000       1.00800           0
     72981 TIP3     16867    TIP3     OH2      OT      -0.834000       15.9994           0
     72982 TIP3     16867    TIP3     H1       HT       0.417000       1.00800           0
     72983 TIP3     16867    TIP3     H2       HT       0.417000       1.00800           0
     72984 TIP3     16868    TIP3     OH2      OT      -0.834000       15.9994           0
     72985 TIP3     16868    TIP3     H1       HT       0.417000       1.00800           0
     72986 TIP3     16868    TIP3     H2       HT       0.417000       1.00800           0
     72987 TIP3     16869    TIP3     OH2      OT      -0.834000       15.9994           0
     72988 TIP3     16869    TIP3     H1       HT       0.417000       1.00800           0
     72989 TIP3     16869    TIP3     H2       HT       0.417000       1.00800           0
     72990 TIP3     16870    TIP3     OH2      OT      -0.834000       15.9994           0
     72991 TIP3     16870    TIP3     H1       HT       0.417000       1.00800           0
     72992 TIP3     16870    TIP3     H2       HT       0.417000       1.00800           0
     72993 TIP3     16871    TIP3     OH2      OT      -0.834000       15.9994           0
     72994 TIP3     16871    TIP3     H1       HT       0.417000       1.00800           0
     72995 TIP3     16871    TIP3     H2       HT       0.417000       1.00800           0
     72996 TIP3     16872    TIP3     OH2      OT      -0.834000       15.9994           0
     72997 TIP3     16872    TIP3     H1       HT       0.417000       1.00800           0
     72998 TIP3     16872    TIP3     H2       HT       0.417000       1.00800           0
     72999 TIP3     16873    TIP3     OH2      OT      -0.834000       15.9994           0
     73000 TIP3     16873    TIP3     H1       HT       0.417000       1.00800           0
     73001 TIP3     16873    TIP3     H2       HT       0.417000       1.00800           0
     73002 TIP3     16874    TIP3     OH2      OT      -0.834000       15.9994           0
     73003 TIP3     16874    TIP3     H1       HT       0.417000       1.00800           0
     73004 TIP3     16874    TIP3     H2       HT       0.417000       1.00800           0
     73005 TIP3     16875    TIP3     OH2      OT      -0.834000       15.9994           0
     73006 TIP3     16875    TIP3     H1       HT       0.417000       1.00800           0
     73007 TIP3     16875    TIP3     H2       HT       0.417000       1.00800           0
     73008 TIP3     16876    TIP3     OH2      OT      -0.834000       15.9994           0
     73009 TIP3     16876    TIP3     H1       HT       0.417000       1.00800           0
     73010 TIP3     16876    TIP3     H2       HT       0.417000       1.00800           0
     73011 TIP3     16877    TIP3     OH2      OT      -0.834000       15.9994           0
     73012 TIP3     16877    TIP3     H1       HT       0.417000       1.00800           0
     73013 TIP3     16877    TIP3     H2       HT       0.417000       1.00800           0
     73014 TIP3     16878    TIP3     OH2      OT      -0.834000       15.9994           0
     73015 TIP3     16878    TIP3     H1       HT       0.417000       1.00800           0
     73016 TIP3     16878    TIP3     H2       HT       0.417000       1.00800           0
     73017 TIP3     16879    TIP3     OH2      OT      -0.834000       15.9994           0
     73018 TIP3     16879    TIP3     H1       HT       0.417000       1.00800           0
     73019 TIP3     16879    TIP3     H2       HT       0.417000       1.00800           0
     73020 TIP3     16880    TIP3     OH2      OT      -0.834000       15.9994           0
     73021 TIP3     16880    TIP3     H1       HT       0.417000       1.00800           0
     73022 TIP3     16880    TIP3     H2       HT       0.417000       1.00800           0
     73023 TIP3     16881    TIP3     OH2      OT      -0.834000       15.9994           0
     73024 TIP3     16881    TIP3     H1       HT       0.417000       1.00800           0
     73025 TIP3     16881    TIP3     H2       HT       0.417000       1.00800           0
     73026 TIP3     16882    TIP3     OH2      OT      -0.834000       15.9994           0
     73027 TIP3     16882    TIP3     H1       HT       0.417000       1.00800           0
     73028 TIP3     16882    TIP3     H2       HT       0.417000       1.00800           0
     73029 TIP3     16883    TIP3     OH2      OT      -0.834000       15.9994           0
     73030 TIP3     16883    TIP3     H1       HT       0.417000       1.00800           0
     73031 TIP3     16883    TIP3     H2       HT       0.417000       1.00800           0
     73032 TIP3     16884    TIP3     OH2      OT      -0.834000       15.9994           0
     73033 TIP3     16884    TIP3     H1       HT       0.417000       1.00800           0
     73034 TIP3     16884    TIP3     H2       HT       0.417000       1.00800           0
     73035 TIP3     16885    TIP3     OH2      OT      -0.834000       15.9994           0
     73036 TIP3     16885    TIP3     H1       HT       0.417000       1.00800           0
     73037 TIP3     16885    TIP3     H2       HT       0.417000       1.00800           0
     73038 TIP3     16886    TIP3     OH2      OT      -0.834000       15.9994           0
     73039 TIP3     16886    TIP3     H1       HT       0.417000       1.00800           0
     73040 TIP3     16886    TIP3     H2       HT       0.417000       1.00800           0
     73041 TIP3     16887    TIP3     OH2      OT      -0.834000       15.9994           0
     73042 TIP3     16887    TIP3     H1       HT       0.417000       1.00800           0
     73043 TIP3     16887    TIP3     H2       HT       0.417000       1.00800           0
     73044 TIP3     16888    TIP3     OH2      OT      -0.834000       15.9994           0
     73045 TIP3     16888    TIP3     H1       HT       0.417000       1.00800           0
     73046 TIP3     16888    TIP3     H2       HT       0.417000       1.00800           0
     73047 TIP3     16889    TIP3     OH2      OT      -0.834000       15.9994           0
     73048 TIP3     16889    TIP3     H1       HT       0.417000       1.00800           0
     73049 TIP3     16889    TIP3     H2       HT       0.417000       1.00800           0
     73050 TIP3     16890    TIP3     OH2      OT      -0.834000       15.9994           0
     73051 TIP3     16890    TIP3     H1       HT       0.417000       1.00800           0
     73052 TIP3     16890    TIP3     H2       HT       0.417000       1.00800           0
     73053 TIP3     16891    TIP3     OH2      OT      -0.834000       15.9994           0
     73054 TIP3     16891    TIP3     H1       HT       0.417000       1.00800           0
     73055 TIP3     16891    TIP3     H2       HT       0.417000       1.00800           0
     73056 TIP3     16892    TIP3     OH2      OT      -0.834000       15.9994           0
     73057 TIP3     16892    TIP3     H1       HT       0.417000       1.00800           0
     73058 TIP3     16892    TIP3     H2       HT       0.417000       1.00800           0
     73059 TIP3     16893    TIP3     OH2      OT      -0.834000       15.9994           0
     73060 TIP3     16893    TIP3     H1       HT       0.417000       1.00800           0
     73061 TIP3     16893    TIP3     H2       HT       0.417000       1.00800           0
     73062 TIP3     16894    TIP3     OH2      OT      -0.834000       15.9994           0
     73063 TIP3     16894    TIP3     H1       HT       0.417000       1.00800           0
     73064 TIP3     16894    TIP3     H2       HT       0.417000       1.00800           0
     73065 TIP3     16895    TIP3     OH2      OT      -0.834000       15.9994           0
     73066 TIP3     16895    TIP3     H1       HT       0.417000       1.00800           0
     73067 TIP3     16895    TIP3     H2       HT       0.417000       1.00800           0
     73068 TIP3     16896    TIP3     OH2      OT      -0.834000       15.9994           0
     73069 TIP3     16896    TIP3     H1       HT       0.417000       1.00800           0
     73070 TIP3     16896    TIP3     H2       HT       0.417000       1.00800           0
     73071 TIP3     16897    TIP3     OH2      OT      -0.834000       15.9994           0
     73072 TIP3     16897    TIP3     H1       HT       0.417000       1.00800           0
     73073 TIP3     16897    TIP3     H2       HT       0.417000       1.00800           0
     73074 TIP3     16898    TIP3     OH2      OT      -0.834000       15.9994           0
     73075 TIP3     16898    TIP3     H1       HT       0.417000       1.00800           0
     73076 TIP3     16898    TIP3     H2       HT       0.417000       1.00800           0
     73077 TIP3     16899    TIP3     OH2      OT      -0.834000       15.9994           0
     73078 TIP3     16899    TIP3     H1       HT       0.417000       1.00800           0
     73079 TIP3     16899    TIP3     H2       HT       0.417000       1.00800           0
     73080 TIP3     16900    TIP3     OH2      OT      -0.834000       15.9994           0
     73081 TIP3     16900    TIP3     H1       HT       0.417000       1.00800           0
     73082 TIP3     16900    TIP3     H2       HT       0.417000       1.00800           0
     73083 TIP3     16901    TIP3     OH2      OT      -0.834000       15.9994           0
     73084 TIP3     16901    TIP3     H1       HT       0.417000       1.00800           0
     73085 TIP3     16901    TIP3     H2       HT       0.417000       1.00800           0
     73086 TIP3     16902    TIP3     OH2      OT      -0.834000       15.9994           0
     73087 TIP3     16902    TIP3     H1       HT       0.417000       1.00800           0
     73088 TIP3     16902    TIP3     H2       HT       0.417000       1.00800           0
     73089 TIP3     16903    TIP3     OH2      OT      -0.834000       15.9994           0
     73090 TIP3     16903    TIP3     H1       HT       0.417000       1.00800           0
     73091 TIP3     16903    TIP3     H2       HT       0.417000       1.00800           0
     73092 TIP3     16904    TIP3     OH2      OT      -0.834000       15.9994           0
     73093 TIP3     16904    TIP3     H1       HT       0.417000       1.00800           0
     73094 TIP3     16904    TIP3     H2       HT       0.417000       1.00800           0
     73095 TIP3     16905    TIP3     OH2      OT      -0.834000       15.9994           0
     73096 TIP3     16905    TIP3     H1       HT       0.417000       1.00800           0
     73097 TIP3     16905    TIP3     H2       HT       0.417000       1.00800           0
     73098 TIP3     16906    TIP3     OH2      OT      -0.834000       15.9994           0
     73099 TIP3     16906    TIP3     H1       HT       0.417000       1.00800           0
     73100 TIP3     16906    TIP3     H2       HT       0.417000       1.00800           0
     73101 TIP3     16907    TIP3     OH2      OT      -0.834000       15.9994           0
     73102 TIP3     16907    TIP3     H1       HT       0.417000       1.00800           0
     73103 TIP3     16907    TIP3     H2       HT       0.417000       1.00800           0
     73104 TIP3     16908    TIP3     OH2      OT      -0.834000       15.9994           0
     73105 TIP3     16908    TIP3     H1       HT       0.417000       1.00800           0
     73106 TIP3     16908    TIP3     H2       HT       0.417000       1.00800           0
     73107 TIP3     16909    TIP3     OH2      OT      -0.834000       15.9994           0
     73108 TIP3     16909    TIP3     H1       HT       0.417000       1.00800           0
     73109 TIP3     16909    TIP3     H2       HT       0.417000       1.00800           0
     73110 TIP3     16910    TIP3     OH2      OT      -0.834000       15.9994           0
     73111 TIP3     16910    TIP3     H1       HT       0.417000       1.00800           0
     73112 TIP3     16910    TIP3     H2       HT       0.417000       1.00800           0
     73113 TIP3     16911    TIP3     OH2      OT      -0.834000       15.9994           0
     73114 TIP3     16911    TIP3     H1       HT       0.417000       1.00800           0
     73115 TIP3     16911    TIP3     H2       HT       0.417000       1.00800           0
     73116 TIP3     16912    TIP3     OH2      OT      -0.834000       15.9994           0
     73117 TIP3     16912    TIP3     H1       HT       0.417000       1.00800           0
     73118 TIP3     16912    TIP3     H2       HT       0.417000       1.00800           0
     73119 TIP3     16913    TIP3     OH2      OT      -0.834000       15.9994           0
     73120 TIP3     16913    TIP3     H1       HT       0.417000       1.00800           0
     73121 TIP3     16913    TIP3     H2       HT       0.417000       1.00800           0
     73122 TIP3     16914    TIP3     OH2      OT      -0.834000       15.9994           0
     73123 TIP3     16914    TIP3     H1       HT       0.417000       1.00800           0
     73124 TIP3     16914    TIP3     H2       HT       0.417000       1.00800           0
     73125 TIP3     16915    TIP3     OH2      OT      -0.834000       15.9994           0
     73126 TIP3     16915    TIP3     H1       HT       0.417000       1.00800           0
     73127 TIP3     16915    TIP3     H2       HT       0.417000       1.00800           0
     73128 TIP3     16916    TIP3     OH2      OT      -0.834000       15.9994           0
     73129 TIP3     16916    TIP3     H1       HT       0.417000       1.00800           0
     73130 TIP3     16916    TIP3     H2       HT       0.417000       1.00800           0
     73131 TIP3     16917    TIP3     OH2      OT      -0.834000       15.9994           0
     73132 TIP3     16917    TIP3     H1       HT       0.417000       1.00800           0
     73133 TIP3     16917    TIP3     H2       HT       0.417000       1.00800           0
     73134 TIP3     16918    TIP3     OH2      OT      -0.834000       15.9994           0
     73135 TIP3     16918    TIP3     H1       HT       0.417000       1.00800           0
     73136 TIP3     16918    TIP3     H2       HT       0.417000       1.00800           0
     73137 TIP3     16919    TIP3     OH2      OT      -0.834000       15.9994           0
     73138 TIP3     16919    TIP3     H1       HT       0.417000       1.00800           0
     73139 TIP3     16919    TIP3     H2       HT       0.417000       1.00800           0
     73140 TIP3     16920    TIP3     OH2      OT      -0.834000       15.9994           0
     73141 TIP3     16920    TIP3     H1       HT       0.417000       1.00800           0
     73142 TIP3     16920    TIP3     H2       HT       0.417000       1.00800           0
     73143 TIP3     16921    TIP3     OH2      OT      -0.834000       15.9994           0
     73144 TIP3     16921    TIP3     H1       HT       0.417000       1.00800           0
     73145 TIP3     16921    TIP3     H2       HT       0.417000       1.00800           0
     73146 TIP3     16922    TIP3     OH2      OT      -0.834000       15.9994           0
     73147 TIP3     16922    TIP3     H1       HT       0.417000       1.00800           0
     73148 TIP3     16922    TIP3     H2       HT       0.417000       1.00800           0
     73149 TIP3     16923    TIP3     OH2      OT      -0.834000       15.9994           0
     73150 TIP3     16923    TIP3     H1       HT       0.417000       1.00800           0
     73151 TIP3     16923    TIP3     H2       HT       0.417000       1.00800           0
     73152 TIP3     16924    TIP3     OH2      OT      -0.834000       15.9994           0
     73153 TIP3     16924    TIP3     H1       HT       0.417000       1.00800           0
     73154 TIP3     16924    TIP3     H2       HT       0.417000       1.00800           0
     73155 TIP3     16925    TIP3     OH2      OT      -0.834000       15.9994           0
     73156 TIP3     16925    TIP3     H1       HT       0.417000       1.00800           0
     73157 TIP3     16925    TIP3     H2       HT       0.417000       1.00800           0
     73158 TIP3     16926    TIP3     OH2      OT      -0.834000       15.9994           0
     73159 TIP3     16926    TIP3     H1       HT       0.417000       1.00800           0
     73160 TIP3     16926    TIP3     H2       HT       0.417000       1.00800           0
     73161 TIP3     16927    TIP3     OH2      OT      -0.834000       15.9994           0
     73162 TIP3     16927    TIP3     H1       HT       0.417000       1.00800           0
     73163 TIP3     16927    TIP3     H2       HT       0.417000       1.00800           0
     73164 TIP3     16928    TIP3     OH2      OT      -0.834000       15.9994           0
     73165 TIP3     16928    TIP3     H1       HT       0.417000       1.00800           0
     73166 TIP3     16928    TIP3     H2       HT       0.417000       1.00800           0
     73167 TIP3     16929    TIP3     OH2      OT      -0.834000       15.9994           0
     73168 TIP3     16929    TIP3     H1       HT       0.417000       1.00800           0
     73169 TIP3     16929    TIP3     H2       HT       0.417000       1.00800           0
     73170 TIP3     16930    TIP3     OH2      OT      -0.834000       15.9994           0
     73171 TIP3     16930    TIP3     H1       HT       0.417000       1.00800           0
     73172 TIP3     16930    TIP3     H2       HT       0.417000       1.00800           0
     73173 TIP3     16931    TIP3     OH2      OT      -0.834000       15.9994           0
     73174 TIP3     16931    TIP3     H1       HT       0.417000       1.00800           0
     73175 TIP3     16931    TIP3     H2       HT       0.417000       1.00800           0
     73176 TIP3     16932    TIP3     OH2      OT      -0.834000       15.9994           0
     73177 TIP3     16932    TIP3     H1       HT       0.417000       1.00800           0
     73178 TIP3     16932    TIP3     H2       HT       0.417000       1.00800           0
     73179 TIP3     16933    TIP3     OH2      OT      -0.834000       15.9994           0
     73180 TIP3     16933    TIP3     H1       HT       0.417000       1.00800           0
     73181 TIP3     16933    TIP3     H2       HT       0.417000       1.00800           0
     73182 TIP3     16934    TIP3     OH2      OT      -0.834000       15.9994           0
     73183 TIP3     16934    TIP3     H1       HT       0.417000       1.00800           0
     73184 TIP3     16934    TIP3     H2       HT       0.417000       1.00800           0
     73185 TIP3     16935    TIP3     OH2      OT      -0.834000       15.9994           0
     73186 TIP3     16935    TIP3     H1       HT       0.417000       1.00800           0
     73187 TIP3     16935    TIP3     H2       HT       0.417000       1.00800           0
     73188 TIP3     16936    TIP3     OH2      OT      -0.834000       15.9994           0
     73189 TIP3     16936    TIP3     H1       HT       0.417000       1.00800           0
     73190 TIP3     16936    TIP3     H2       HT       0.417000       1.00800           0
     73191 TIP3     16937    TIP3     OH2      OT      -0.834000       15.9994           0
     73192 TIP3     16937    TIP3     H1       HT       0.417000       1.00800           0
     73193 TIP3     16937    TIP3     H2       HT       0.417000       1.00800           0
     73194 TIP3     16938    TIP3     OH2      OT      -0.834000       15.9994           0
     73195 TIP3     16938    TIP3     H1       HT       0.417000       1.00800           0
     73196 TIP3     16938    TIP3     H2       HT       0.417000       1.00800           0
     73197 TIP3     16939    TIP3     OH2      OT      -0.834000       15.9994           0
     73198 TIP3     16939    TIP3     H1       HT       0.417000       1.00800           0
     73199 TIP3     16939    TIP3     H2       HT       0.417000       1.00800           0
     73200 TIP3     16940    TIP3     OH2      OT      -0.834000       15.9994           0
     73201 TIP3     16940    TIP3     H1       HT       0.417000       1.00800           0
     73202 TIP3     16940    TIP3     H2       HT       0.417000       1.00800           0
     73203 TIP3     16941    TIP3     OH2      OT      -0.834000       15.9994           0
     73204 TIP3     16941    TIP3     H1       HT       0.417000       1.00800           0
     73205 TIP3     16941    TIP3     H2       HT       0.417000       1.00800           0
     73206 TIP3     16942    TIP3     OH2      OT      -0.834000       15.9994           0
     73207 TIP3     16942    TIP3     H1       HT       0.417000       1.00800           0
     73208 TIP3     16942    TIP3     H2       HT       0.417000       1.00800           0
     73209 TIP3     16943    TIP3     OH2      OT      -0.834000       15.9994           0
     73210 TIP3     16943    TIP3     H1       HT       0.417000       1.00800           0
     73211 TIP3     16943    TIP3     H2       HT       0.417000       1.00800           0
     73212 TIP3     16944    TIP3     OH2      OT      -0.834000       15.9994           0
     73213 TIP3     16944    TIP3     H1       HT       0.417000       1.00800           0
     73214 TIP3     16944    TIP3     H2       HT       0.417000       1.00800           0
     73215 TIP3     16945    TIP3     OH2      OT      -0.834000       15.9994           0
     73216 TIP3     16945    TIP3     H1       HT       0.417000       1.00800           0
     73217 TIP3     16945    TIP3     H2       HT       0.417000       1.00800           0
     73218 TIP3     16946    TIP3     OH2      OT      -0.834000       15.9994           0
     73219 TIP3     16946    TIP3     H1       HT       0.417000       1.00800           0
     73220 TIP3     16946    TIP3     H2       HT       0.417000       1.00800           0
     73221 TIP3     16947    TIP3     OH2      OT      -0.834000       15.9994           0
     73222 TIP3     16947    TIP3     H1       HT       0.417000       1.00800           0
     73223 TIP3     16947    TIP3     H2       HT       0.417000       1.00800           0
     73224 TIP3     16948    TIP3     OH2      OT      -0.834000       15.9994           0
     73225 TIP3     16948    TIP3     H1       HT       0.417000       1.00800           0
     73226 TIP3     16948    TIP3     H2       HT       0.417000       1.00800           0
     73227 TIP3     16949    TIP3     OH2      OT      -0.834000       15.9994           0
     73228 TIP3     16949    TIP3     H1       HT       0.417000       1.00800           0
     73229 TIP3     16949    TIP3     H2       HT       0.417000       1.00800           0
     73230 TIP3     16950    TIP3     OH2      OT      -0.834000       15.9994           0
     73231 TIP3     16950    TIP3     H1       HT       0.417000       1.00800           0
     73232 TIP3     16950    TIP3     H2       HT       0.417000       1.00800           0
     73233 TIP3     16951    TIP3     OH2      OT      -0.834000       15.9994           0
     73234 TIP3     16951    TIP3     H1       HT       0.417000       1.00800           0
     73235 TIP3     16951    TIP3     H2       HT       0.417000       1.00800           0
     73236 TIP3     16952    TIP3     OH2      OT      -0.834000       15.9994           0
     73237 TIP3     16952    TIP3     H1       HT       0.417000       1.00800           0
     73238 TIP3     16952    TIP3     H2       HT       0.417000       1.00800           0
     73239 TIP3     16953    TIP3     OH2      OT      -0.834000       15.9994           0
     73240 TIP3     16953    TIP3     H1       HT       0.417000       1.00800           0
     73241 TIP3     16953    TIP3     H2       HT       0.417000       1.00800           0
     73242 TIP3     16954    TIP3     OH2      OT      -0.834000       15.9994           0
     73243 TIP3     16954    TIP3     H1       HT       0.417000       1.00800           0
     73244 TIP3     16954    TIP3     H2       HT       0.417000       1.00800           0
     73245 TIP3     16955    TIP3     OH2      OT      -0.834000       15.9994           0
     73246 TIP3     16955    TIP3     H1       HT       0.417000       1.00800           0
     73247 TIP3     16955    TIP3     H2       HT       0.417000       1.00800           0
     73248 TIP3     16956    TIP3     OH2      OT      -0.834000       15.9994           0
     73249 TIP3     16956    TIP3     H1       HT       0.417000       1.00800           0
     73250 TIP3     16956    TIP3     H2       HT       0.417000       1.00800           0
     73251 TIP3     16957    TIP3     OH2      OT      -0.834000       15.9994           0
     73252 TIP3     16957    TIP3     H1       HT       0.417000       1.00800           0
     73253 TIP3     16957    TIP3     H2       HT       0.417000       1.00800           0
     73254 TIP3     16958    TIP3     OH2      OT      -0.834000       15.9994           0
     73255 TIP3     16958    TIP3     H1       HT       0.417000       1.00800           0
     73256 TIP3     16958    TIP3     H2       HT       0.417000       1.00800           0
     73257 TIP3     16959    TIP3     OH2      OT      -0.834000       15.9994           0
     73258 TIP3     16959    TIP3     H1       HT       0.417000       1.00800           0
     73259 TIP3     16959    TIP3     H2       HT       0.417000       1.00800           0
     73260 TIP3     16960    TIP3     OH2      OT      -0.834000       15.9994           0
     73261 TIP3     16960    TIP3     H1       HT       0.417000       1.00800           0
     73262 TIP3     16960    TIP3     H2       HT       0.417000       1.00800           0
     73263 TIP3     16961    TIP3     OH2      OT      -0.834000       15.9994           0
     73264 TIP3     16961    TIP3     H1       HT       0.417000       1.00800           0
     73265 TIP3     16961    TIP3     H2       HT       0.417000       1.00800           0
     73266 TIP3     16962    TIP3     OH2      OT      -0.834000       15.9994           0
     73267 TIP3     16962    TIP3     H1       HT       0.417000       1.00800           0
     73268 TIP3     16962    TIP3     H2       HT       0.417000       1.00800           0
     73269 TIP3     16963    TIP3     OH2      OT      -0.834000       15.9994           0
     73270 TIP3     16963    TIP3     H1       HT       0.417000       1.00800           0
     73271 TIP3     16963    TIP3     H2       HT       0.417000       1.00800           0
     73272 TIP3     16964    TIP3     OH2      OT      -0.834000       15.9994           0
     73273 TIP3     16964    TIP3     H1       HT       0.417000       1.00800           0
     73274 TIP3     16964    TIP3     H2       HT       0.417000       1.00800           0
     73275 TIP3     16965    TIP3     OH2      OT      -0.834000       15.9994           0
     73276 TIP3     16965    TIP3     H1       HT       0.417000       1.00800           0
     73277 TIP3     16965    TIP3     H2       HT       0.417000       1.00800           0
     73278 TIP3     16966    TIP3     OH2      OT      -0.834000       15.9994           0
     73279 TIP3     16966    TIP3     H1       HT       0.417000       1.00800           0
     73280 TIP3     16966    TIP3     H2       HT       0.417000       1.00800           0
     73281 TIP3     16967    TIP3     OH2      OT      -0.834000       15.9994           0
     73282 TIP3     16967    TIP3     H1       HT       0.417000       1.00800           0
     73283 TIP3     16967    TIP3     H2       HT       0.417000       1.00800           0
     73284 TIP3     16968    TIP3     OH2      OT      -0.834000       15.9994           0
     73285 TIP3     16968    TIP3     H1       HT       0.417000       1.00800           0
     73286 TIP3     16968    TIP3     H2       HT       0.417000       1.00800           0
     73287 TIP3     16969    TIP3     OH2      OT      -0.834000       15.9994           0
     73288 TIP3     16969    TIP3     H1       HT       0.417000       1.00800           0
     73289 TIP3     16969    TIP3     H2       HT       0.417000       1.00800           0
     73290 TIP3     16970    TIP3     OH2      OT      -0.834000       15.9994           0
     73291 TIP3     16970    TIP3     H1       HT       0.417000       1.00800           0
     73292 TIP3     16970    TIP3     H2       HT       0.417000       1.00800           0
     73293 TIP3     16971    TIP3     OH2      OT      -0.834000       15.9994           0
     73294 TIP3     16971    TIP3     H1       HT       0.417000       1.00800           0
     73295 TIP3     16971    TIP3     H2       HT       0.417000       1.00800           0
     73296 TIP3     16972    TIP3     OH2      OT      -0.834000       15.9994           0
     73297 TIP3     16972    TIP3     H1       HT       0.417000       1.00800           0
     73298 TIP3     16972    TIP3     H2       HT       0.417000       1.00800           0
     73299 TIP3     16973    TIP3     OH2      OT      -0.834000       15.9994           0
     73300 TIP3     16973    TIP3     H1       HT       0.417000       1.00800           0
     73301 TIP3     16973    TIP3     H2       HT       0.417000       1.00800           0
     73302 TIP3     16974    TIP3     OH2      OT      -0.834000       15.9994           0
     73303 TIP3     16974    TIP3     H1       HT       0.417000       1.00800           0
     73304 TIP3     16974    TIP3     H2       HT       0.417000       1.00800           0
     73305 TIP3     16975    TIP3     OH2      OT      -0.834000       15.9994           0
     73306 TIP3     16975    TIP3     H1       HT       0.417000       1.00800           0
     73307 TIP3     16975    TIP3     H2       HT       0.417000       1.00800           0
     73308 TIP3     16976    TIP3     OH2      OT      -0.834000       15.9994           0
     73309 TIP3     16976    TIP3     H1       HT       0.417000       1.00800           0
     73310 TIP3     16976    TIP3     H2       HT       0.417000       1.00800           0
     73311 TIP3     16977    TIP3     OH2      OT      -0.834000       15.9994           0
     73312 TIP3     16977    TIP3     H1       HT       0.417000       1.00800           0
     73313 TIP3     16977    TIP3     H2       HT       0.417000       1.00800           0
     73314 TIP3     16978    TIP3     OH2      OT      -0.834000       15.9994           0
     73315 TIP3     16978    TIP3     H1       HT       0.417000       1.00800           0
     73316 TIP3     16978    TIP3     H2       HT       0.417000       1.00800           0
     73317 TIP3     16979    TIP3     OH2      OT      -0.834000       15.9994           0
     73318 TIP3     16979    TIP3     H1       HT       0.417000       1.00800           0
     73319 TIP3     16979    TIP3     H2       HT       0.417000       1.00800           0
     73320 TIP3     16980    TIP3     OH2      OT      -0.834000       15.9994           0
     73321 TIP3     16980    TIP3     H1       HT       0.417000       1.00800           0
     73322 TIP3     16980    TIP3     H2       HT       0.417000       1.00800           0
     73323 TIP3     16981    TIP3     OH2      OT      -0.834000       15.9994           0
     73324 TIP3     16981    TIP3     H1       HT       0.417000       1.00800           0
     73325 TIP3     16981    TIP3     H2       HT       0.417000       1.00800           0
     73326 TIP3     16982    TIP3     OH2      OT      -0.834000       15.9994           0
     73327 TIP3     16982    TIP3     H1       HT       0.417000       1.00800           0
     73328 TIP3     16982    TIP3     H2       HT       0.417000       1.00800           0
     73329 TIP3     16983    TIP3     OH2      OT      -0.834000       15.9994           0
     73330 TIP3     16983    TIP3     H1       HT       0.417000       1.00800           0
     73331 TIP3     16983    TIP3     H2       HT       0.417000       1.00800           0
     73332 TIP3     16984    TIP3     OH2      OT      -0.834000       15.9994           0
     73333 TIP3     16984    TIP3     H1       HT       0.417000       1.00800           0
     73334 TIP3     16984    TIP3     H2       HT       0.417000       1.00800           0
     73335 TIP3     16985    TIP3     OH2      OT      -0.834000       15.9994           0
     73336 TIP3     16985    TIP3     H1       HT       0.417000       1.00800           0
     73337 TIP3     16985    TIP3     H2       HT       0.417000       1.00800           0
     73338 TIP3     16986    TIP3     OH2      OT      -0.834000       15.9994           0
     73339 TIP3     16986    TIP3     H1       HT       0.417000       1.00800           0
     73340 TIP3     16986    TIP3     H2       HT       0.417000       1.00800           0
     73341 TIP3     16987    TIP3     OH2      OT      -0.834000       15.9994           0
     73342 TIP3     16987    TIP3     H1       HT       0.417000       1.00800           0
     73343 TIP3     16987    TIP3     H2       HT       0.417000       1.00800           0
     73344 TIP3     16988    TIP3     OH2      OT      -0.834000       15.9994           0
     73345 TIP3     16988    TIP3     H1       HT       0.417000       1.00800           0
     73346 TIP3     16988    TIP3     H2       HT       0.417000       1.00800           0
     73347 TIP3     16989    TIP3     OH2      OT      -0.834000       15.9994           0
     73348 TIP3     16989    TIP3     H1       HT       0.417000       1.00800           0
     73349 TIP3     16989    TIP3     H2       HT       0.417000       1.00800           0
     73350 TIP3     16990    TIP3     OH2      OT      -0.834000       15.9994           0
     73351 TIP3     16990    TIP3     H1       HT       0.417000       1.00800           0
     73352 TIP3     16990    TIP3     H2       HT       0.417000       1.00800           0
     73353 TIP3     16991    TIP3     OH2      OT      -0.834000       15.9994           0
     73354 TIP3     16991    TIP3     H1       HT       0.417000       1.00800           0
     73355 TIP3     16991    TIP3     H2       HT       0.417000       1.00800           0
     73356 TIP3     16992    TIP3     OH2      OT      -0.834000       15.9994           0
     73357 TIP3     16992    TIP3     H1       HT       0.417000       1.00800           0
     73358 TIP3     16992    TIP3     H2       HT       0.417000       1.00800           0
     73359 TIP3     16993    TIP3     OH2      OT      -0.834000       15.9994           0
     73360 TIP3     16993    TIP3     H1       HT       0.417000       1.00800           0
     73361 TIP3     16993    TIP3     H2       HT       0.417000       1.00800           0
     73362 TIP3     16994    TIP3     OH2      OT      -0.834000       15.9994           0
     73363 TIP3     16994    TIP3     H1       HT       0.417000       1.00800           0
     73364 TIP3     16994    TIP3     H2       HT       0.417000       1.00800           0
     73365 TIP3     16995    TIP3     OH2      OT      -0.834000       15.9994           0
     73366 TIP3     16995    TIP3     H1       HT       0.417000       1.00800           0
     73367 TIP3     16995    TIP3     H2       HT       0.417000       1.00800           0
     73368 TIP3     16996    TIP3     OH2      OT      -0.834000       15.9994           0
     73369 TIP3     16996    TIP3     H1       HT       0.417000       1.00800           0
     73370 TIP3     16996    TIP3     H2       HT       0.417000       1.00800           0
     73371 TIP3     16997    TIP3     OH2      OT      -0.834000       15.9994           0
     73372 TIP3     16997    TIP3     H1       HT       0.417000       1.00800           0
     73373 TIP3     16997    TIP3     H2       HT       0.417000       1.00800           0
     73374 TIP3     16998    TIP3     OH2      OT      -0.834000       15.9994           0
     73375 TIP3     16998    TIP3     H1       HT       0.417000       1.00800           0
     73376 TIP3     16998    TIP3     H2       HT       0.417000       1.00800           0
     73377 TIP3     16999    TIP3     OH2      OT      -0.834000       15.9994           0
     73378 TIP3     16999    TIP3     H1       HT       0.417000       1.00800           0
     73379 TIP3     16999    TIP3     H2       HT       0.417000       1.00800           0
     73380 TIP3     17000    TIP3     OH2      OT      -0.834000       15.9994           0
     73381 TIP3     17000    TIP3     H1       HT       0.417000       1.00800           0
     73382 TIP3     17000    TIP3     H2       HT       0.417000       1.00800           0
     73383 TIP3     17001    TIP3     OH2      OT      -0.834000       15.9994           0
     73384 TIP3     17001    TIP3     H1       HT       0.417000       1.00800           0
     73385 TIP3     17001    TIP3     H2       HT       0.417000       1.00800           0
     73386 TIP3     17002    TIP3     OH2      OT      -0.834000       15.9994           0
     73387 TIP3     17002    TIP3     H1       HT       0.417000       1.00800           0
     73388 TIP3     17002    TIP3     H2       HT       0.417000       1.00800           0
     73389 TIP3     17003    TIP3     OH2      OT      -0.834000       15.9994           0
     73390 TIP3     17003    TIP3     H1       HT       0.417000       1.00800           0
     73391 TIP3     17003    TIP3     H2       HT       0.417000       1.00800           0
     73392 TIP3     17004    TIP3     OH2      OT      -0.834000       15.9994           0
     73393 TIP3     17004    TIP3     H1       HT       0.417000       1.00800           0
     73394 TIP3     17004    TIP3     H2       HT       0.417000       1.00800           0
     73395 TIP3     17005    TIP3     OH2      OT      -0.834000       15.9994           0
     73396 TIP3     17005    TIP3     H1       HT       0.417000       1.00800           0
     73397 TIP3     17005    TIP3     H2       HT       0.417000       1.00800           0
     73398 TIP3     17006    TIP3     OH2      OT      -0.834000       15.9994           0
     73399 TIP3     17006    TIP3     H1       HT       0.417000       1.00800           0
     73400 TIP3     17006    TIP3     H2       HT       0.417000       1.00800           0
     73401 TIP3     17007    TIP3     OH2      OT      -0.834000       15.9994           0
     73402 TIP3     17007    TIP3     H1       HT       0.417000       1.00800           0
     73403 TIP3     17007    TIP3     H2       HT       0.417000       1.00800           0
     73404 TIP3     17008    TIP3     OH2      OT      -0.834000       15.9994           0
     73405 TIP3     17008    TIP3     H1       HT       0.417000       1.00800           0
     73406 TIP3     17008    TIP3     H2       HT       0.417000       1.00800           0
     73407 TIP3     17009    TIP3     OH2      OT      -0.834000       15.9994           0
     73408 TIP3     17009    TIP3     H1       HT       0.417000       1.00800           0
     73409 TIP3     17009    TIP3     H2       HT       0.417000       1.00800           0
     73410 TIP3     17010    TIP3     OH2      OT      -0.834000       15.9994           0
     73411 TIP3     17010    TIP3     H1       HT       0.417000       1.00800           0
     73412 TIP3     17010    TIP3     H2       HT       0.417000       1.00800           0
     73413 TIP3     17011    TIP3     OH2      OT      -0.834000       15.9994           0
     73414 TIP3     17011    TIP3     H1       HT       0.417000       1.00800           0
     73415 TIP3     17011    TIP3     H2       HT       0.417000       1.00800           0
     73416 TIP3     17012    TIP3     OH2      OT      -0.834000       15.9994           0
     73417 TIP3     17012    TIP3     H1       HT       0.417000       1.00800           0
     73418 TIP3     17012    TIP3     H2       HT       0.417000       1.00800           0
     73419 TIP3     17013    TIP3     OH2      OT      -0.834000       15.9994           0
     73420 TIP3     17013    TIP3     H1       HT       0.417000       1.00800           0
     73421 TIP3     17013    TIP3     H2       HT       0.417000       1.00800           0
     73422 TIP3     17014    TIP3     OH2      OT      -0.834000       15.9994           0
     73423 TIP3     17014    TIP3     H1       HT       0.417000       1.00800           0
     73424 TIP3     17014    TIP3     H2       HT       0.417000       1.00800           0
     73425 TIP3     17015    TIP3     OH2      OT      -0.834000       15.9994           0
     73426 TIP3     17015    TIP3     H1       HT       0.417000       1.00800           0
     73427 TIP3     17015    TIP3     H2       HT       0.417000       1.00800           0
     73428 TIP3     17016    TIP3     OH2      OT      -0.834000       15.9994           0
     73429 TIP3     17016    TIP3     H1       HT       0.417000       1.00800           0
     73430 TIP3     17016    TIP3     H2       HT       0.417000       1.00800           0
     73431 TIP3     17017    TIP3     OH2      OT      -0.834000       15.9994           0
     73432 TIP3     17017    TIP3     H1       HT       0.417000       1.00800           0
     73433 TIP3     17017    TIP3     H2       HT       0.417000       1.00800           0
     73434 TIP3     17018    TIP3     OH2      OT      -0.834000       15.9994           0
     73435 TIP3     17018    TIP3     H1       HT       0.417000       1.00800           0
     73436 TIP3     17018    TIP3     H2       HT       0.417000       1.00800           0
     73437 TIP3     17019    TIP3     OH2      OT      -0.834000       15.9994           0
     73438 TIP3     17019    TIP3     H1       HT       0.417000       1.00800           0
     73439 TIP3     17019    TIP3     H2       HT       0.417000       1.00800           0
     73440 TIP3     17020    TIP3     OH2      OT      -0.834000       15.9994           0
     73441 TIP3     17020    TIP3     H1       HT       0.417000       1.00800           0
     73442 TIP3     17020    TIP3     H2       HT       0.417000       1.00800           0
     73443 TIP3     17021    TIP3     OH2      OT      -0.834000       15.9994           0
     73444 TIP3     17021    TIP3     H1       HT       0.417000       1.00800           0
     73445 TIP3     17021    TIP3     H2       HT       0.417000       1.00800           0
     73446 TIP3     17022    TIP3     OH2      OT      -0.834000       15.9994           0
     73447 TIP3     17022    TIP3     H1       HT       0.417000       1.00800           0
     73448 TIP3     17022    TIP3     H2       HT       0.417000       1.00800           0
     73449 TIP3     17023    TIP3     OH2      OT      -0.834000       15.9994           0
     73450 TIP3     17023    TIP3     H1       HT       0.417000       1.00800           0
     73451 TIP3     17023    TIP3     H2       HT       0.417000       1.00800           0
     73452 TIP3     17024    TIP3     OH2      OT      -0.834000       15.9994           0
     73453 TIP3     17024    TIP3     H1       HT       0.417000       1.00800           0
     73454 TIP3     17024    TIP3     H2       HT       0.417000       1.00800           0
     73455 TIP3     17025    TIP3     OH2      OT      -0.834000       15.9994           0
     73456 TIP3     17025    TIP3     H1       HT       0.417000       1.00800           0
     73457 TIP3     17025    TIP3     H2       HT       0.417000       1.00800           0
     73458 TIP3     17026    TIP3     OH2      OT      -0.834000       15.9994           0
     73459 TIP3     17026    TIP3     H1       HT       0.417000       1.00800           0
     73460 TIP3     17026    TIP3     H2       HT       0.417000       1.00800           0
     73461 TIP3     17027    TIP3     OH2      OT      -0.834000       15.9994           0
     73462 TIP3     17027    TIP3     H1       HT       0.417000       1.00800           0
     73463 TIP3     17027    TIP3     H2       HT       0.417000       1.00800           0
     73464 TIP3     17028    TIP3     OH2      OT      -0.834000       15.9994           0
     73465 TIP3     17028    TIP3     H1       HT       0.417000       1.00800           0
     73466 TIP3     17028    TIP3     H2       HT       0.417000       1.00800           0
     73467 TIP3     17029    TIP3     OH2      OT      -0.834000       15.9994           0
     73468 TIP3     17029    TIP3     H1       HT       0.417000       1.00800           0
     73469 TIP3     17029    TIP3     H2       HT       0.417000       1.00800           0
     73470 TIP3     17030    TIP3     OH2      OT      -0.834000       15.9994           0
     73471 TIP3     17030    TIP3     H1       HT       0.417000       1.00800           0
     73472 TIP3     17030    TIP3     H2       HT       0.417000       1.00800           0
     73473 TIP3     17031    TIP3     OH2      OT      -0.834000       15.9994           0
     73474 TIP3     17031    TIP3     H1       HT       0.417000       1.00800           0
     73475 TIP3     17031    TIP3     H2       HT       0.417000       1.00800           0
     73476 TIP3     17032    TIP3     OH2      OT      -0.834000       15.9994           0
     73477 TIP3     17032    TIP3     H1       HT       0.417000       1.00800           0
     73478 TIP3     17032    TIP3     H2       HT       0.417000       1.00800           0
     73479 TIP3     17033    TIP3     OH2      OT      -0.834000       15.9994           0
     73480 TIP3     17033    TIP3     H1       HT       0.417000       1.00800           0
     73481 TIP3     17033    TIP3     H2       HT       0.417000       1.00800           0
     73482 TIP3     17034    TIP3     OH2      OT      -0.834000       15.9994           0
     73483 TIP3     17034    TIP3     H1       HT       0.417000       1.00800           0
     73484 TIP3     17034    TIP3     H2       HT       0.417000       1.00800           0
     73485 TIP3     17035    TIP3     OH2      OT      -0.834000       15.9994           0
     73486 TIP3     17035    TIP3     H1       HT       0.417000       1.00800           0
     73487 TIP3     17035    TIP3     H2       HT       0.417000       1.00800           0
     73488 TIP3     17036    TIP3     OH2      OT      -0.834000       15.9994           0
     73489 TIP3     17036    TIP3     H1       HT       0.417000       1.00800           0
     73490 TIP3     17036    TIP3     H2       HT       0.417000       1.00800           0
     73491 TIP3     17037    TIP3     OH2      OT      -0.834000       15.9994           0
     73492 TIP3     17037    TIP3     H1       HT       0.417000       1.00800           0
     73493 TIP3     17037    TIP3     H2       HT       0.417000       1.00800           0
     73494 TIP3     17038    TIP3     OH2      OT      -0.834000       15.9994           0
     73495 TIP3     17038    TIP3     H1       HT       0.417000       1.00800           0
     73496 TIP3     17038    TIP3     H2       HT       0.417000       1.00800           0
     73497 TIP3     17039    TIP3     OH2      OT      -0.834000       15.9994           0
     73498 TIP3     17039    TIP3     H1       HT       0.417000       1.00800           0
     73499 TIP3     17039    TIP3     H2       HT       0.417000       1.00800           0
     73500 TIP3     17040    TIP3     OH2      OT      -0.834000       15.9994           0
     73501 TIP3     17040    TIP3     H1       HT       0.417000       1.00800           0
     73502 TIP3     17040    TIP3     H2       HT       0.417000       1.00800           0
     73503 TIP3     17041    TIP3     OH2      OT      -0.834000       15.9994           0
     73504 TIP3     17041    TIP3     H1       HT       0.417000       1.00800           0
     73505 TIP3     17041    TIP3     H2       HT       0.417000       1.00800           0
     73506 TIP3     17042    TIP3     OH2      OT      -0.834000       15.9994           0
     73507 TIP3     17042    TIP3     H1       HT       0.417000       1.00800           0
     73508 TIP3     17042    TIP3     H2       HT       0.417000       1.00800           0
     73509 TIP3     17043    TIP3     OH2      OT      -0.834000       15.9994           0
     73510 TIP3     17043    TIP3     H1       HT       0.417000       1.00800           0
     73511 TIP3     17043    TIP3     H2       HT       0.417000       1.00800           0
     73512 TIP3     17044    TIP3     OH2      OT      -0.834000       15.9994           0
     73513 TIP3     17044    TIP3     H1       HT       0.417000       1.00800           0
     73514 TIP3     17044    TIP3     H2       HT       0.417000       1.00800           0
     73515 TIP3     17045    TIP3     OH2      OT      -0.834000       15.9994           0
     73516 TIP3     17045    TIP3     H1       HT       0.417000       1.00800           0
     73517 TIP3     17045    TIP3     H2       HT       0.417000       1.00800           0
     73518 TIP3     17046    TIP3     OH2      OT      -0.834000       15.9994           0
     73519 TIP3     17046    TIP3     H1       HT       0.417000       1.00800           0
     73520 TIP3     17046    TIP3     H2       HT       0.417000       1.00800           0
     73521 TIP3     17047    TIP3     OH2      OT      -0.834000       15.9994           0
     73522 TIP3     17047    TIP3     H1       HT       0.417000       1.00800           0
     73523 TIP3     17047    TIP3     H2       HT       0.417000       1.00800           0
     73524 TIP3     17048    TIP3     OH2      OT      -0.834000       15.9994           0
     73525 TIP3     17048    TIP3     H1       HT       0.417000       1.00800           0
     73526 TIP3     17048    TIP3     H2       HT       0.417000       1.00800           0
     73527 TIP3     17049    TIP3     OH2      OT      -0.834000       15.9994           0
     73528 TIP3     17049    TIP3     H1       HT       0.417000       1.00800           0
     73529 TIP3     17049    TIP3     H2       HT       0.417000       1.00800           0
     73530 TIP3     17050    TIP3     OH2      OT      -0.834000       15.9994           0
     73531 TIP3     17050    TIP3     H1       HT       0.417000       1.00800           0
     73532 TIP3     17050    TIP3     H2       HT       0.417000       1.00800           0
     73533 TIP3     17051    TIP3     OH2      OT      -0.834000       15.9994           0
     73534 TIP3     17051    TIP3     H1       HT       0.417000       1.00800           0
     73535 TIP3     17051    TIP3     H2       HT       0.417000       1.00800           0
     73536 TIP3     17052    TIP3     OH2      OT      -0.834000       15.9994           0
     73537 TIP3     17052    TIP3     H1       HT       0.417000       1.00800           0
     73538 TIP3     17052    TIP3     H2       HT       0.417000       1.00800           0
     73539 TIP3     17053    TIP3     OH2      OT      -0.834000       15.9994           0
     73540 TIP3     17053    TIP3     H1       HT       0.417000       1.00800           0
     73541 TIP3     17053    TIP3     H2       HT       0.417000       1.00800           0
     73542 TIP3     17054    TIP3     OH2      OT      -0.834000       15.9994           0
     73543 TIP3     17054    TIP3     H1       HT       0.417000       1.00800           0
     73544 TIP3     17054    TIP3     H2       HT       0.417000       1.00800           0
     73545 TIP3     17055    TIP3     OH2      OT      -0.834000       15.9994           0
     73546 TIP3     17055    TIP3     H1       HT       0.417000       1.00800           0
     73547 TIP3     17055    TIP3     H2       HT       0.417000       1.00800           0
     73548 TIP3     17056    TIP3     OH2      OT      -0.834000       15.9994           0
     73549 TIP3     17056    TIP3     H1       HT       0.417000       1.00800           0
     73550 TIP3     17056    TIP3     H2       HT       0.417000       1.00800           0
     73551 TIP3     17057    TIP3     OH2      OT      -0.834000       15.9994           0
     73552 TIP3     17057    TIP3     H1       HT       0.417000       1.00800           0
     73553 TIP3     17057    TIP3     H2       HT       0.417000       1.00800           0
     73554 TIP3     17058    TIP3     OH2      OT      -0.834000       15.9994           0
     73555 TIP3     17058    TIP3     H1       HT       0.417000       1.00800           0
     73556 TIP3     17058    TIP3     H2       HT       0.417000       1.00800           0
     73557 TIP3     17059    TIP3     OH2      OT      -0.834000       15.9994           0
     73558 TIP3     17059    TIP3     H1       HT       0.417000       1.00800           0
     73559 TIP3     17059    TIP3     H2       HT       0.417000       1.00800           0
     73560 TIP3     17060    TIP3     OH2      OT      -0.834000       15.9994           0
     73561 TIP3     17060    TIP3     H1       HT       0.417000       1.00800           0
     73562 TIP3     17060    TIP3     H2       HT       0.417000       1.00800           0
     73563 TIP3     17061    TIP3     OH2      OT      -0.834000       15.9994           0
     73564 TIP3     17061    TIP3     H1       HT       0.417000       1.00800           0
     73565 TIP3     17061    TIP3     H2       HT       0.417000       1.00800           0
     73566 TIP3     17062    TIP3     OH2      OT      -0.834000       15.9994           0
     73567 TIP3     17062    TIP3     H1       HT       0.417000       1.00800           0
     73568 TIP3     17062    TIP3     H2       HT       0.417000       1.00800           0
     73569 TIP3     17063    TIP3     OH2      OT      -0.834000       15.9994           0
     73570 TIP3     17063    TIP3     H1       HT       0.417000       1.00800           0
     73571 TIP3     17063    TIP3     H2       HT       0.417000       1.00800           0
     73572 TIP3     17064    TIP3     OH2      OT      -0.834000       15.9994           0
     73573 TIP3     17064    TIP3     H1       HT       0.417000       1.00800           0
     73574 TIP3     17064    TIP3     H2       HT       0.417000       1.00800           0
     73575 TIP3     17065    TIP3     OH2      OT      -0.834000       15.9994           0
     73576 TIP3     17065    TIP3     H1       HT       0.417000       1.00800           0
     73577 TIP3     17065    TIP3     H2       HT       0.417000       1.00800           0
     73578 TIP3     17066    TIP3     OH2      OT      -0.834000       15.9994           0
     73579 TIP3     17066    TIP3     H1       HT       0.417000       1.00800           0
     73580 TIP3     17066    TIP3     H2       HT       0.417000       1.00800           0
     73581 TIP3     17067    TIP3     OH2      OT      -0.834000       15.9994           0
     73582 TIP3     17067    TIP3     H1       HT       0.417000       1.00800           0
     73583 TIP3     17067    TIP3     H2       HT       0.417000       1.00800           0
     73584 TIP3     17068    TIP3     OH2      OT      -0.834000       15.9994           0
     73585 TIP3     17068    TIP3     H1       HT       0.417000       1.00800           0
     73586 TIP3     17068    TIP3     H2       HT       0.417000       1.00800           0
     73587 TIP3     17069    TIP3     OH2      OT      -0.834000       15.9994           0
     73588 TIP3     17069    TIP3     H1       HT       0.417000       1.00800           0
     73589 TIP3     17069    TIP3     H2       HT       0.417000       1.00800           0
     73590 TIP3     17070    TIP3     OH2      OT      -0.834000       15.9994           0
     73591 TIP3     17070    TIP3     H1       HT       0.417000       1.00800           0
     73592 TIP3     17070    TIP3     H2       HT       0.417000       1.00800           0
     73593 TIP3     17071    TIP3     OH2      OT      -0.834000       15.9994           0
     73594 TIP3     17071    TIP3     H1       HT       0.417000       1.00800           0
     73595 TIP3     17071    TIP3     H2       HT       0.417000       1.00800           0
     73596 TIP3     17072    TIP3     OH2      OT      -0.834000       15.9994           0
     73597 TIP3     17072    TIP3     H1       HT       0.417000       1.00800           0
     73598 TIP3     17072    TIP3     H2       HT       0.417000       1.00800           0
     73599 TIP3     17073    TIP3     OH2      OT      -0.834000       15.9994           0
     73600 TIP3     17073    TIP3     H1       HT       0.417000       1.00800           0
     73601 TIP3     17073    TIP3     H2       HT       0.417000       1.00800           0
     73602 TIP3     17074    TIP3     OH2      OT      -0.834000       15.9994           0
     73603 TIP3     17074    TIP3     H1       HT       0.417000       1.00800           0
     73604 TIP3     17074    TIP3     H2       HT       0.417000       1.00800           0
     73605 TIP3     17075    TIP3     OH2      OT      -0.834000       15.9994           0
     73606 TIP3     17075    TIP3     H1       HT       0.417000       1.00800           0
     73607 TIP3     17075    TIP3     H2       HT       0.417000       1.00800           0
     73608 TIP3     17076    TIP3     OH2      OT      -0.834000       15.9994           0
     73609 TIP3     17076    TIP3     H1       HT       0.417000       1.00800           0
     73610 TIP3     17076    TIP3     H2       HT       0.417000       1.00800           0
     73611 TIP3     17077    TIP3     OH2      OT      -0.834000       15.9994           0
     73612 TIP3     17077    TIP3     H1       HT       0.417000       1.00800           0
     73613 TIP3     17077    TIP3     H2       HT       0.417000       1.00800           0
     73614 TIP3     17078    TIP3     OH2      OT      -0.834000       15.9994           0
     73615 TIP3     17078    TIP3     H1       HT       0.417000       1.00800           0
     73616 TIP3     17078    TIP3     H2       HT       0.417000       1.00800           0
     73617 TIP3     17079    TIP3     OH2      OT      -0.834000       15.9994           0
     73618 TIP3     17079    TIP3     H1       HT       0.417000       1.00800           0
     73619 TIP3     17079    TIP3     H2       HT       0.417000       1.00800           0
     73620 TIP3     17080    TIP3     OH2      OT      -0.834000       15.9994           0
     73621 TIP3     17080    TIP3     H1       HT       0.417000       1.00800           0
     73622 TIP3     17080    TIP3     H2       HT       0.417000       1.00800           0
     73623 TIP3     17081    TIP3     OH2      OT      -0.834000       15.9994           0
     73624 TIP3     17081    TIP3     H1       HT       0.417000       1.00800           0
     73625 TIP3     17081    TIP3     H2       HT       0.417000       1.00800           0
     73626 TIP3     17082    TIP3     OH2      OT      -0.834000       15.9994           0
     73627 TIP3     17082    TIP3     H1       HT       0.417000       1.00800           0
     73628 TIP3     17082    TIP3     H2       HT       0.417000       1.00800           0
     73629 TIP3     17083    TIP3     OH2      OT      -0.834000       15.9994           0
     73630 TIP3     17083    TIP3     H1       HT       0.417000       1.00800           0
     73631 TIP3     17083    TIP3     H2       HT       0.417000       1.00800           0
     73632 TIP3     17084    TIP3     OH2      OT      -0.834000       15.9994           0
     73633 TIP3     17084    TIP3     H1       HT       0.417000       1.00800           0
     73634 TIP3     17084    TIP3     H2       HT       0.417000       1.00800           0
     73635 TIP3     17085    TIP3     OH2      OT      -0.834000       15.9994           0
     73636 TIP3     17085    TIP3     H1       HT       0.417000       1.00800           0
     73637 TIP3     17085    TIP3     H2       HT       0.417000       1.00800           0
     73638 TIP3     17086    TIP3     OH2      OT      -0.834000       15.9994           0
     73639 TIP3     17086    TIP3     H1       HT       0.417000       1.00800           0
     73640 TIP3     17086    TIP3     H2       HT       0.417000       1.00800           0
     73641 TIP3     17087    TIP3     OH2      OT      -0.834000       15.9994           0
     73642 TIP3     17087    TIP3     H1       HT       0.417000       1.00800           0
     73643 TIP3     17087    TIP3     H2       HT       0.417000       1.00800           0
     73644 TIP3     17088    TIP3     OH2      OT      -0.834000       15.9994           0
     73645 TIP3     17088    TIP3     H1       HT       0.417000       1.00800           0
     73646 TIP3     17088    TIP3     H2       HT       0.417000       1.00800           0
     73647 TIP3     17089    TIP3     OH2      OT      -0.834000       15.9994           0
     73648 TIP3     17089    TIP3     H1       HT       0.417000       1.00800           0
     73649 TIP3     17089    TIP3     H2       HT       0.417000       1.00800           0
     73650 TIP3     17090    TIP3     OH2      OT      -0.834000       15.9994           0
     73651 TIP3     17090    TIP3     H1       HT       0.417000       1.00800           0
     73652 TIP3     17090    TIP3     H2       HT       0.417000       1.00800           0
     73653 TIP3     17091    TIP3     OH2      OT      -0.834000       15.9994           0
     73654 TIP3     17091    TIP3     H1       HT       0.417000       1.00800           0
     73655 TIP3     17091    TIP3     H2       HT       0.417000       1.00800           0
     73656 TIP3     17092    TIP3     OH2      OT      -0.834000       15.9994           0
     73657 TIP3     17092    TIP3     H1       HT       0.417000       1.00800           0
     73658 TIP3     17092    TIP3     H2       HT       0.417000       1.00800           0
     73659 TIP3     17093    TIP3     OH2      OT      -0.834000       15.9994           0
     73660 TIP3     17093    TIP3     H1       HT       0.417000       1.00800           0
     73661 TIP3     17093    TIP3     H2       HT       0.417000       1.00800           0
     73662 TIP3     17094    TIP3     OH2      OT      -0.834000       15.9994           0
     73663 TIP3     17094    TIP3     H1       HT       0.417000       1.00800           0
     73664 TIP3     17094    TIP3     H2       HT       0.417000       1.00800           0
     73665 TIP3     17095    TIP3     OH2      OT      -0.834000       15.9994           0
     73666 TIP3     17095    TIP3     H1       HT       0.417000       1.00800           0
     73667 TIP3     17095    TIP3     H2       HT       0.417000       1.00800           0
     73668 TIP3     17096    TIP3     OH2      OT      -0.834000       15.9994           0
     73669 TIP3     17096    TIP3     H1       HT       0.417000       1.00800           0
     73670 TIP3     17096    TIP3     H2       HT       0.417000       1.00800           0
     73671 TIP3     17097    TIP3     OH2      OT      -0.834000       15.9994           0
     73672 TIP3     17097    TIP3     H1       HT       0.417000       1.00800           0
     73673 TIP3     17097    TIP3     H2       HT       0.417000       1.00800           0
     73674 TIP3     17098    TIP3     OH2      OT      -0.834000       15.9994           0
     73675 TIP3     17098    TIP3     H1       HT       0.417000       1.00800           0
     73676 TIP3     17098    TIP3     H2       HT       0.417000       1.00800           0
     73677 TIP3     17099    TIP3     OH2      OT      -0.834000       15.9994           0
     73678 TIP3     17099    TIP3     H1       HT       0.417000       1.00800           0
     73679 TIP3     17099    TIP3     H2       HT       0.417000       1.00800           0
     73680 TIP3     17100    TIP3     OH2      OT      -0.834000       15.9994           0
     73681 TIP3     17100    TIP3     H1       HT       0.417000       1.00800           0
     73682 TIP3     17100    TIP3     H2       HT       0.417000       1.00800           0
     73683 TIP3     17101    TIP3     OH2      OT      -0.834000       15.9994           0
     73684 TIP3     17101    TIP3     H1       HT       0.417000       1.00800           0
     73685 TIP3     17101    TIP3     H2       HT       0.417000       1.00800           0
     73686 TIP3     17102    TIP3     OH2      OT      -0.834000       15.9994           0
     73687 TIP3     17102    TIP3     H1       HT       0.417000       1.00800           0
     73688 TIP3     17102    TIP3     H2       HT       0.417000       1.00800           0
     73689 TIP3     17103    TIP3     OH2      OT      -0.834000       15.9994           0
     73690 TIP3     17103    TIP3     H1       HT       0.417000       1.00800           0
     73691 TIP3     17103    TIP3     H2       HT       0.417000       1.00800           0
     73692 TIP3     17104    TIP3     OH2      OT      -0.834000       15.9994           0
     73693 TIP3     17104    TIP3     H1       HT       0.417000       1.00800           0
     73694 TIP3     17104    TIP3     H2       HT       0.417000       1.00800           0
     73695 TIP3     17105    TIP3     OH2      OT      -0.834000       15.9994           0
     73696 TIP3     17105    TIP3     H1       HT       0.417000       1.00800           0
     73697 TIP3     17105    TIP3     H2       HT       0.417000       1.00800           0
     73698 TIP3     17106    TIP3     OH2      OT      -0.834000       15.9994           0
     73699 TIP3     17106    TIP3     H1       HT       0.417000       1.00800           0
     73700 TIP3     17106    TIP3     H2       HT       0.417000       1.00800           0
     73701 TIP3     17107    TIP3     OH2      OT      -0.834000       15.9994           0
     73702 TIP3     17107    TIP3     H1       HT       0.417000       1.00800           0
     73703 TIP3     17107    TIP3     H2       HT       0.417000       1.00800           0
     73704 TIP3     17108    TIP3     OH2      OT      -0.834000       15.9994           0
     73705 TIP3     17108    TIP3     H1       HT       0.417000       1.00800           0
     73706 TIP3     17108    TIP3     H2       HT       0.417000       1.00800           0
     73707 TIP3     17109    TIP3     OH2      OT      -0.834000       15.9994           0
     73708 TIP3     17109    TIP3     H1       HT       0.417000       1.00800           0
     73709 TIP3     17109    TIP3     H2       HT       0.417000       1.00800           0
     73710 TIP3     17110    TIP3     OH2      OT      -0.834000       15.9994           0
     73711 TIP3     17110    TIP3     H1       HT       0.417000       1.00800           0
     73712 TIP3     17110    TIP3     H2       HT       0.417000       1.00800           0
     73713 TIP3     17111    TIP3     OH2      OT      -0.834000       15.9994           0
     73714 TIP3     17111    TIP3     H1       HT       0.417000       1.00800           0
     73715 TIP3     17111    TIP3     H2       HT       0.417000       1.00800           0
     73716 TIP3     17112    TIP3     OH2      OT      -0.834000       15.9994           0
     73717 TIP3     17112    TIP3     H1       HT       0.417000       1.00800           0
     73718 TIP3     17112    TIP3     H2       HT       0.417000       1.00800           0
     73719 TIP3     17113    TIP3     OH2      OT      -0.834000       15.9994           0
     73720 TIP3     17113    TIP3     H1       HT       0.417000       1.00800           0
     73721 TIP3     17113    TIP3     H2       HT       0.417000       1.00800           0
     73722 TIP3     17114    TIP3     OH2      OT      -0.834000       15.9994           0
     73723 TIP3     17114    TIP3     H1       HT       0.417000       1.00800           0
     73724 TIP3     17114    TIP3     H2       HT       0.417000       1.00800           0
     73725 TIP3     17115    TIP3     OH2      OT      -0.834000       15.9994           0
     73726 TIP3     17115    TIP3     H1       HT       0.417000       1.00800           0
     73727 TIP3     17115    TIP3     H2       HT       0.417000       1.00800           0
     73728 TIP3     17116    TIP3     OH2      OT      -0.834000       15.9994           0
     73729 TIP3     17116    TIP3     H1       HT       0.417000       1.00800           0
     73730 TIP3     17116    TIP3     H2       HT       0.417000       1.00800           0
     73731 TIP3     17117    TIP3     OH2      OT      -0.834000       15.9994           0
     73732 TIP3     17117    TIP3     H1       HT       0.417000       1.00800           0
     73733 TIP3     17117    TIP3     H2       HT       0.417000       1.00800           0
     73734 TIP3     17118    TIP3     OH2      OT      -0.834000       15.9994           0
     73735 TIP3     17118    TIP3     H1       HT       0.417000       1.00800           0
     73736 TIP3     17118    TIP3     H2       HT       0.417000       1.00800           0
     73737 TIP3     17119    TIP3     OH2      OT      -0.834000       15.9994           0
     73738 TIP3     17119    TIP3     H1       HT       0.417000       1.00800           0
     73739 TIP3     17119    TIP3     H2       HT       0.417000       1.00800           0
     73740 TIP3     17120    TIP3     OH2      OT      -0.834000       15.9994           0
     73741 TIP3     17120    TIP3     H1       HT       0.417000       1.00800           0
     73742 TIP3     17120    TIP3     H2       HT       0.417000       1.00800           0
     73743 TIP3     17121    TIP3     OH2      OT      -0.834000       15.9994           0
     73744 TIP3     17121    TIP3     H1       HT       0.417000       1.00800           0
     73745 TIP3     17121    TIP3     H2       HT       0.417000       1.00800           0
     73746 TIP3     17122    TIP3     OH2      OT      -0.834000       15.9994           0
     73747 TIP3     17122    TIP3     H1       HT       0.417000       1.00800           0
     73748 TIP3     17122    TIP3     H2       HT       0.417000       1.00800           0
     73749 TIP3     17123    TIP3     OH2      OT      -0.834000       15.9994           0
     73750 TIP3     17123    TIP3     H1       HT       0.417000       1.00800           0
     73751 TIP3     17123    TIP3     H2       HT       0.417000       1.00800           0
     73752 TIP3     17124    TIP3     OH2      OT      -0.834000       15.9994           0
     73753 TIP3     17124    TIP3     H1       HT       0.417000       1.00800           0
     73754 TIP3     17124    TIP3     H2       HT       0.417000       1.00800           0
     73755 TIP3     17125    TIP3     OH2      OT      -0.834000       15.9994           0
     73756 TIP3     17125    TIP3     H1       HT       0.417000       1.00800           0
     73757 TIP3     17125    TIP3     H2       HT       0.417000       1.00800           0
     73758 TIP3     17126    TIP3     OH2      OT      -0.834000       15.9994           0
     73759 TIP3     17126    TIP3     H1       HT       0.417000       1.00800           0
     73760 TIP3     17126    TIP3     H2       HT       0.417000       1.00800           0
     73761 TIP3     17127    TIP3     OH2      OT      -0.834000       15.9994           0
     73762 TIP3     17127    TIP3     H1       HT       0.417000       1.00800           0
     73763 TIP3     17127    TIP3     H2       HT       0.417000       1.00800           0
     73764 TIP3     17128    TIP3     OH2      OT      -0.834000       15.9994           0
     73765 TIP3     17128    TIP3     H1       HT       0.417000       1.00800           0
     73766 TIP3     17128    TIP3     H2       HT       0.417000       1.00800           0
     73767 TIP3     17129    TIP3     OH2      OT      -0.834000       15.9994           0
     73768 TIP3     17129    TIP3     H1       HT       0.417000       1.00800           0
     73769 TIP3     17129    TIP3     H2       HT       0.417000       1.00800           0
     73770 TIP3     17130    TIP3     OH2      OT      -0.834000       15.9994           0
     73771 TIP3     17130    TIP3     H1       HT       0.417000       1.00800           0
     73772 TIP3     17130    TIP3     H2       HT       0.417000       1.00800           0
     73773 TIP3     17131    TIP3     OH2      OT      -0.834000       15.9994           0
     73774 TIP3     17131    TIP3     H1       HT       0.417000       1.00800           0
     73775 TIP3     17131    TIP3     H2       HT       0.417000       1.00800           0
     73776 TIP3     17132    TIP3     OH2      OT      -0.834000       15.9994           0
     73777 TIP3     17132    TIP3     H1       HT       0.417000       1.00800           0
     73778 TIP3     17132    TIP3     H2       HT       0.417000       1.00800           0
     73779 TIP3     17133    TIP3     OH2      OT      -0.834000       15.9994           0
     73780 TIP3     17133    TIP3     H1       HT       0.417000       1.00800           0
     73781 TIP3     17133    TIP3     H2       HT       0.417000       1.00800           0
     73782 TIP3     17134    TIP3     OH2      OT      -0.834000       15.9994           0
     73783 TIP3     17134    TIP3     H1       HT       0.417000       1.00800           0
     73784 TIP3     17134    TIP3     H2       HT       0.417000       1.00800           0
     73785 TIP3     17135    TIP3     OH2      OT      -0.834000       15.9994           0
     73786 TIP3     17135    TIP3     H1       HT       0.417000       1.00800           0
     73787 TIP3     17135    TIP3     H2       HT       0.417000       1.00800           0
     73788 TIP3     17136    TIP3     OH2      OT      -0.834000       15.9994           0
     73789 TIP3     17136    TIP3     H1       HT       0.417000       1.00800           0
     73790 TIP3     17136    TIP3     H2       HT       0.417000       1.00800           0
     73791 TIP3     17137    TIP3     OH2      OT      -0.834000       15.9994           0
     73792 TIP3     17137    TIP3     H1       HT       0.417000       1.00800           0
     73793 TIP3     17137    TIP3     H2       HT       0.417000       1.00800           0
     73794 TIP3     17138    TIP3     OH2      OT      -0.834000       15.9994           0
     73795 TIP3     17138    TIP3     H1       HT       0.417000       1.00800           0
     73796 TIP3     17138    TIP3     H2       HT       0.417000       1.00800           0
     73797 TIP3     17139    TIP3     OH2      OT      -0.834000       15.9994           0
     73798 TIP3     17139    TIP3     H1       HT       0.417000       1.00800           0
     73799 TIP3     17139    TIP3     H2       HT       0.417000       1.00800           0
     73800 TIP3     17140    TIP3     OH2      OT      -0.834000       15.9994           0
     73801 TIP3     17140    TIP3     H1       HT       0.417000       1.00800           0
     73802 TIP3     17140    TIP3     H2       HT       0.417000       1.00800           0
     73803 TIP3     17141    TIP3     OH2      OT      -0.834000       15.9994           0
     73804 TIP3     17141    TIP3     H1       HT       0.417000       1.00800           0
     73805 TIP3     17141    TIP3     H2       HT       0.417000       1.00800           0
     73806 TIP3     17142    TIP3     OH2      OT      -0.834000       15.9994           0
     73807 TIP3     17142    TIP3     H1       HT       0.417000       1.00800           0
     73808 TIP3     17142    TIP3     H2       HT       0.417000       1.00800           0
     73809 TIP3     17143    TIP3     OH2      OT      -0.834000       15.9994           0
     73810 TIP3     17143    TIP3     H1       HT       0.417000       1.00800           0
     73811 TIP3     17143    TIP3     H2       HT       0.417000       1.00800           0
     73812 TIP3     17144    TIP3     OH2      OT      -0.834000       15.9994           0
     73813 TIP3     17144    TIP3     H1       HT       0.417000       1.00800           0
     73814 TIP3     17144    TIP3     H2       HT       0.417000       1.00800           0
     73815 TIP3     17145    TIP3     OH2      OT      -0.834000       15.9994           0
     73816 TIP3     17145    TIP3     H1       HT       0.417000       1.00800           0
     73817 TIP3     17145    TIP3     H2       HT       0.417000       1.00800           0
     73818 TIP3     17146    TIP3     OH2      OT      -0.834000       15.9994           0
     73819 TIP3     17146    TIP3     H1       HT       0.417000       1.00800           0
     73820 TIP3     17146    TIP3     H2       HT       0.417000       1.00800           0
     73821 TIP3     17147    TIP3     OH2      OT      -0.834000       15.9994           0
     73822 TIP3     17147    TIP3     H1       HT       0.417000       1.00800           0
     73823 TIP3     17147    TIP3     H2       HT       0.417000       1.00800           0
     73824 TIP3     17148    TIP3     OH2      OT      -0.834000       15.9994           0
     73825 TIP3     17148    TIP3     H1       HT       0.417000       1.00800           0
     73826 TIP3     17148    TIP3     H2       HT       0.417000       1.00800           0
     73827 TIP3     17149    TIP3     OH2      OT      -0.834000       15.9994           0
     73828 TIP3     17149    TIP3     H1       HT       0.417000       1.00800           0
     73829 TIP3     17149    TIP3     H2       HT       0.417000       1.00800           0
     73830 TIP3     17150    TIP3     OH2      OT      -0.834000       15.9994           0
     73831 TIP3     17150    TIP3     H1       HT       0.417000       1.00800           0
     73832 TIP3     17150    TIP3     H2       HT       0.417000       1.00800           0
     73833 TIP3     17151    TIP3     OH2      OT      -0.834000       15.9994           0
     73834 TIP3     17151    TIP3     H1       HT       0.417000       1.00800           0
     73835 TIP3     17151    TIP3     H2       HT       0.417000       1.00800           0
     73836 TIP3     17152    TIP3     OH2      OT      -0.834000       15.9994           0
     73837 TIP3     17152    TIP3     H1       HT       0.417000       1.00800           0
     73838 TIP3     17152    TIP3     H2       HT       0.417000       1.00800           0
     73839 TIP3     17153    TIP3     OH2      OT      -0.834000       15.9994           0
     73840 TIP3     17153    TIP3     H1       HT       0.417000       1.00800           0
     73841 TIP3     17153    TIP3     H2       HT       0.417000       1.00800           0
     73842 TIP3     17154    TIP3     OH2      OT      -0.834000       15.9994           0
     73843 TIP3     17154    TIP3     H1       HT       0.417000       1.00800           0
     73844 TIP3     17154    TIP3     H2       HT       0.417000       1.00800           0
     73845 TIP3     17155    TIP3     OH2      OT      -0.834000       15.9994           0
     73846 TIP3     17155    TIP3     H1       HT       0.417000       1.00800           0
     73847 TIP3     17155    TIP3     H2       HT       0.417000       1.00800           0
     73848 TIP3     17156    TIP3     OH2      OT      -0.834000       15.9994           0
     73849 TIP3     17156    TIP3     H1       HT       0.417000       1.00800           0
     73850 TIP3     17156    TIP3     H2       HT       0.417000       1.00800           0
     73851 TIP3     17157    TIP3     OH2      OT      -0.834000       15.9994           0
     73852 TIP3     17157    TIP3     H1       HT       0.417000       1.00800           0
     73853 TIP3     17157    TIP3     H2       HT       0.417000       1.00800           0
     73854 TIP3     17158    TIP3     OH2      OT      -0.834000       15.9994           0
     73855 TIP3     17158    TIP3     H1       HT       0.417000       1.00800           0
     73856 TIP3     17158    TIP3     H2       HT       0.417000       1.00800           0
     73857 TIP3     17159    TIP3     OH2      OT      -0.834000       15.9994           0
     73858 TIP3     17159    TIP3     H1       HT       0.417000       1.00800           0
     73859 TIP3     17159    TIP3     H2       HT       0.417000       1.00800           0
     73860 TIP3     17160    TIP3     OH2      OT      -0.834000       15.9994           0
     73861 TIP3     17160    TIP3     H1       HT       0.417000       1.00800           0
     73862 TIP3     17160    TIP3     H2       HT       0.417000       1.00800           0
     73863 TIP3     17161    TIP3     OH2      OT      -0.834000       15.9994           0
     73864 TIP3     17161    TIP3     H1       HT       0.417000       1.00800           0
     73865 TIP3     17161    TIP3     H2       HT       0.417000       1.00800           0
     73866 TIP3     17162    TIP3     OH2      OT      -0.834000       15.9994           0
     73867 TIP3     17162    TIP3     H1       HT       0.417000       1.00800           0
     73868 TIP3     17162    TIP3     H2       HT       0.417000       1.00800           0
     73869 TIP3     17163    TIP3     OH2      OT      -0.834000       15.9994           0
     73870 TIP3     17163    TIP3     H1       HT       0.417000       1.00800           0
     73871 TIP3     17163    TIP3     H2       HT       0.417000       1.00800           0
     73872 TIP3     17164    TIP3     OH2      OT      -0.834000       15.9994           0
     73873 TIP3     17164    TIP3     H1       HT       0.417000       1.00800           0
     73874 TIP3     17164    TIP3     H2       HT       0.417000       1.00800           0
     73875 TIP3     17165    TIP3     OH2      OT      -0.834000       15.9994           0
     73876 TIP3     17165    TIP3     H1       HT       0.417000       1.00800           0
     73877 TIP3     17165    TIP3     H2       HT       0.417000       1.00800           0
     73878 TIP3     17166    TIP3     OH2      OT      -0.834000       15.9994           0
     73879 TIP3     17166    TIP3     H1       HT       0.417000       1.00800           0
     73880 TIP3     17166    TIP3     H2       HT       0.417000       1.00800           0
     73881 TIP3     17167    TIP3     OH2      OT      -0.834000       15.9994           0
     73882 TIP3     17167    TIP3     H1       HT       0.417000       1.00800           0
     73883 TIP3     17167    TIP3     H2       HT       0.417000       1.00800           0
     73884 TIP3     17168    TIP3     OH2      OT      -0.834000       15.9994           0
     73885 TIP3     17168    TIP3     H1       HT       0.417000       1.00800           0
     73886 TIP3     17168    TIP3     H2       HT       0.417000       1.00800           0
     73887 TIP3     17169    TIP3     OH2      OT      -0.834000       15.9994           0
     73888 TIP3     17169    TIP3     H1       HT       0.417000       1.00800           0
     73889 TIP3     17169    TIP3     H2       HT       0.417000       1.00800           0
     73890 TIP3     17170    TIP3     OH2      OT      -0.834000       15.9994           0
     73891 TIP3     17170    TIP3     H1       HT       0.417000       1.00800           0
     73892 TIP3     17170    TIP3     H2       HT       0.417000       1.00800           0
     73893 TIP3     17171    TIP3     OH2      OT      -0.834000       15.9994           0
     73894 TIP3     17171    TIP3     H1       HT       0.417000       1.00800           0
     73895 TIP3     17171    TIP3     H2       HT       0.417000       1.00800           0
     73896 TIP3     17172    TIP3     OH2      OT      -0.834000       15.9994           0
     73897 TIP3     17172    TIP3     H1       HT       0.417000       1.00800           0
     73898 TIP3     17172    TIP3     H2       HT       0.417000       1.00800           0
     73899 TIP3     17173    TIP3     OH2      OT      -0.834000       15.9994           0
     73900 TIP3     17173    TIP3     H1       HT       0.417000       1.00800           0
     73901 TIP3     17173    TIP3     H2       HT       0.417000       1.00800           0
     73902 TIP3     17174    TIP3     OH2      OT      -0.834000       15.9994           0
     73903 TIP3     17174    TIP3     H1       HT       0.417000       1.00800           0
     73904 TIP3     17174    TIP3     H2       HT       0.417000       1.00800           0
     73905 TIP3     17175    TIP3     OH2      OT      -0.834000       15.9994           0
     73906 TIP3     17175    TIP3     H1       HT       0.417000       1.00800           0
     73907 TIP3     17175    TIP3     H2       HT       0.417000       1.00800           0
     73908 TIP3     17176    TIP3     OH2      OT      -0.834000       15.9994           0
     73909 TIP3     17176    TIP3     H1       HT       0.417000       1.00800           0
     73910 TIP3     17176    TIP3     H2       HT       0.417000       1.00800           0
     73911 TIP3     17177    TIP3     OH2      OT      -0.834000       15.9994           0
     73912 TIP3     17177    TIP3     H1       HT       0.417000       1.00800           0
     73913 TIP3     17177    TIP3     H2       HT       0.417000       1.00800           0
     73914 TIP3     17178    TIP3     OH2      OT      -0.834000       15.9994           0
     73915 TIP3     17178    TIP3     H1       HT       0.417000       1.00800           0
     73916 TIP3     17178    TIP3     H2       HT       0.417000       1.00800           0
     73917 TIP3     17179    TIP3     OH2      OT      -0.834000       15.9994           0
     73918 TIP3     17179    TIP3     H1       HT       0.417000       1.00800           0
     73919 TIP3     17179    TIP3     H2       HT       0.417000       1.00800           0
     73920 TIP3     17180    TIP3     OH2      OT      -0.834000       15.9994           0
     73921 TIP3     17180    TIP3     H1       HT       0.417000       1.00800           0
     73922 TIP3     17180    TIP3     H2       HT       0.417000       1.00800           0
     73923 TIP3     17181    TIP3     OH2      OT      -0.834000       15.9994           0
     73924 TIP3     17181    TIP3     H1       HT       0.417000       1.00800           0
     73925 TIP3     17181    TIP3     H2       HT       0.417000       1.00800           0
     73926 TIP3     17182    TIP3     OH2      OT      -0.834000       15.9994           0
     73927 TIP3     17182    TIP3     H1       HT       0.417000       1.00800           0
     73928 TIP3     17182    TIP3     H2       HT       0.417000       1.00800           0
     73929 TIP3     17183    TIP3     OH2      OT      -0.834000       15.9994           0
     73930 TIP3     17183    TIP3     H1       HT       0.417000       1.00800           0
     73931 TIP3     17183    TIP3     H2       HT       0.417000       1.00800           0
     73932 TIP3     17184    TIP3     OH2      OT      -0.834000       15.9994           0
     73933 TIP3     17184    TIP3     H1       HT       0.417000       1.00800           0
     73934 TIP3     17184    TIP3     H2       HT       0.417000       1.00800           0
     73935 TIP3     17185    TIP3     OH2      OT      -0.834000       15.9994           0
     73936 TIP3     17185    TIP3     H1       HT       0.417000       1.00800           0
     73937 TIP3     17185    TIP3     H2       HT       0.417000       1.00800           0
     73938 TIP3     17186    TIP3     OH2      OT      -0.834000       15.9994           0
     73939 TIP3     17186    TIP3     H1       HT       0.417000       1.00800           0
     73940 TIP3     17186    TIP3     H2       HT       0.417000       1.00800           0
     73941 TIP3     17187    TIP3     OH2      OT      -0.834000       15.9994           0
     73942 TIP3     17187    TIP3     H1       HT       0.417000       1.00800           0
     73943 TIP3     17187    TIP3     H2       HT       0.417000       1.00800           0
     73944 TIP3     17188    TIP3     OH2      OT      -0.834000       15.9994           0
     73945 TIP3     17188    TIP3     H1       HT       0.417000       1.00800           0
     73946 TIP3     17188    TIP3     H2       HT       0.417000       1.00800           0
     73947 TIP3     17189    TIP3     OH2      OT      -0.834000       15.9994           0
     73948 TIP3     17189    TIP3     H1       HT       0.417000       1.00800           0
     73949 TIP3     17189    TIP3     H2       HT       0.417000       1.00800           0
     73950 TIP3     17190    TIP3     OH2      OT      -0.834000       15.9994           0
     73951 TIP3     17190    TIP3     H1       HT       0.417000       1.00800           0
     73952 TIP3     17190    TIP3     H2       HT       0.417000       1.00800           0
     73953 TIP3     17191    TIP3     OH2      OT      -0.834000       15.9994           0
     73954 TIP3     17191    TIP3     H1       HT       0.417000       1.00800           0
     73955 TIP3     17191    TIP3     H2       HT       0.417000       1.00800           0
     73956 TIP3     17192    TIP3     OH2      OT      -0.834000       15.9994           0
     73957 TIP3     17192    TIP3     H1       HT       0.417000       1.00800           0
     73958 TIP3     17192    TIP3     H2       HT       0.417000       1.00800           0
     73959 TIP3     17193    TIP3     OH2      OT      -0.834000       15.9994           0
     73960 TIP3     17193    TIP3     H1       HT       0.417000       1.00800           0
     73961 TIP3     17193    TIP3     H2       HT       0.417000       1.00800           0
     73962 TIP3     17194    TIP3     OH2      OT      -0.834000       15.9994           0
     73963 TIP3     17194    TIP3     H1       HT       0.417000       1.00800           0
     73964 TIP3     17194    TIP3     H2       HT       0.417000       1.00800           0
     73965 TIP3     17195    TIP3     OH2      OT      -0.834000       15.9994           0
     73966 TIP3     17195    TIP3     H1       HT       0.417000       1.00800           0
     73967 TIP3     17195    TIP3     H2       HT       0.417000       1.00800           0
     73968 TIP3     17196    TIP3     OH2      OT      -0.834000       15.9994           0
     73969 TIP3     17196    TIP3     H1       HT       0.417000       1.00800           0
     73970 TIP3     17196    TIP3     H2       HT       0.417000       1.00800           0
     73971 TIP3     17197    TIP3     OH2      OT      -0.834000       15.9994           0
     73972 TIP3     17197    TIP3     H1       HT       0.417000       1.00800           0
     73973 TIP3     17197    TIP3     H2       HT       0.417000       1.00800           0
     73974 TIP3     17198    TIP3     OH2      OT      -0.834000       15.9994           0
     73975 TIP3     17198    TIP3     H1       HT       0.417000       1.00800           0
     73976 TIP3     17198    TIP3     H2       HT       0.417000       1.00800           0
     73977 TIP3     17199    TIP3     OH2      OT      -0.834000       15.9994           0
     73978 TIP3     17199    TIP3     H1       HT       0.417000       1.00800           0
     73979 TIP3     17199    TIP3     H2       HT       0.417000       1.00800           0
     73980 TIP3     17200    TIP3     OH2      OT      -0.834000       15.9994           0
     73981 TIP3     17200    TIP3     H1       HT       0.417000       1.00800           0
     73982 TIP3     17200    TIP3     H2       HT       0.417000       1.00800           0
     73983 TIP3     17201    TIP3     OH2      OT      -0.834000       15.9994           0
     73984 TIP3     17201    TIP3     H1       HT       0.417000       1.00800           0
     73985 TIP3     17201    TIP3     H2       HT       0.417000       1.00800           0
     73986 TIP3     17202    TIP3     OH2      OT      -0.834000       15.9994           0
     73987 TIP3     17202    TIP3     H1       HT       0.417000       1.00800           0
     73988 TIP3     17202    TIP3     H2       HT       0.417000       1.00800           0
     73989 TIP3     17203    TIP3     OH2      OT      -0.834000       15.9994           0
     73990 TIP3     17203    TIP3     H1       HT       0.417000       1.00800           0
     73991 TIP3     17203    TIP3     H2       HT       0.417000       1.00800           0
     73992 TIP3     17204    TIP3     OH2      OT      -0.834000       15.9994           0
     73993 TIP3     17204    TIP3     H1       HT       0.417000       1.00800           0
     73994 TIP3     17204    TIP3     H2       HT       0.417000       1.00800           0
     73995 TIP3     17205    TIP3     OH2      OT      -0.834000       15.9994           0
     73996 TIP3     17205    TIP3     H1       HT       0.417000       1.00800           0
     73997 TIP3     17205    TIP3     H2       HT       0.417000       1.00800           0
     73998 TIP3     17206    TIP3     OH2      OT      -0.834000       15.9994           0
     73999 TIP3     17206    TIP3     H1       HT       0.417000       1.00800           0
     74000 TIP3     17206    TIP3     H2       HT       0.417000       1.00800           0
     74001 TIP3     17207    TIP3     OH2      OT      -0.834000       15.9994           0
     74002 TIP3     17207    TIP3     H1       HT       0.417000       1.00800           0
     74003 TIP3     17207    TIP3     H2       HT       0.417000       1.00800           0
     74004 TIP3     17208    TIP3     OH2      OT      -0.834000       15.9994           0
     74005 TIP3     17208    TIP3     H1       HT       0.417000       1.00800           0
     74006 TIP3     17208    TIP3     H2       HT       0.417000       1.00800           0
     74007 TIP3     17209    TIP3     OH2      OT      -0.834000       15.9994           0
     74008 TIP3     17209    TIP3     H1       HT       0.417000       1.00800           0
     74009 TIP3     17209    TIP3     H2       HT       0.417000       1.00800           0
     74010 TIP3     17210    TIP3     OH2      OT      -0.834000       15.9994           0
     74011 TIP3     17210    TIP3     H1       HT       0.417000       1.00800           0
     74012 TIP3     17210    TIP3     H2       HT       0.417000       1.00800           0
     74013 TIP3     17211    TIP3     OH2      OT      -0.834000       15.9994           0
     74014 TIP3     17211    TIP3     H1       HT       0.417000       1.00800           0
     74015 TIP3     17211    TIP3     H2       HT       0.417000       1.00800           0
     74016 TIP3     17212    TIP3     OH2      OT      -0.834000       15.9994           0
     74017 TIP3     17212    TIP3     H1       HT       0.417000       1.00800           0
     74018 TIP3     17212    TIP3     H2       HT       0.417000       1.00800           0
     74019 TIP3     17213    TIP3     OH2      OT      -0.834000       15.9994           0
     74020 TIP3     17213    TIP3     H1       HT       0.417000       1.00800           0
     74021 TIP3     17213    TIP3     H2       HT       0.417000       1.00800           0
     74022 TIP3     17214    TIP3     OH2      OT      -0.834000       15.9994           0
     74023 TIP3     17214    TIP3     H1       HT       0.417000       1.00800           0
     74024 TIP3     17214    TIP3     H2       HT       0.417000       1.00800           0
     74025 TIP3     17215    TIP3     OH2      OT      -0.834000       15.9994           0
     74026 TIP3     17215    TIP3     H1       HT       0.417000       1.00800           0
     74027 TIP3     17215    TIP3     H2       HT       0.417000       1.00800           0
     74028 TIP3     17216    TIP3     OH2      OT      -0.834000       15.9994           0
     74029 TIP3     17216    TIP3     H1       HT       0.417000       1.00800           0
     74030 TIP3     17216    TIP3     H2       HT       0.417000       1.00800           0
     74031 TIP3     17217    TIP3     OH2      OT      -0.834000       15.9994           0
     74032 TIP3     17217    TIP3     H1       HT       0.417000       1.00800           0
     74033 TIP3     17217    TIP3     H2       HT       0.417000       1.00800           0
     74034 TIP3     17218    TIP3     OH2      OT      -0.834000       15.9994           0
     74035 TIP3     17218    TIP3     H1       HT       0.417000       1.00800           0
     74036 TIP3     17218    TIP3     H2       HT       0.417000       1.00800           0
     74037 TIP3     17219    TIP3     OH2      OT      -0.834000       15.9994           0
     74038 TIP3     17219    TIP3     H1       HT       0.417000       1.00800           0
     74039 TIP3     17219    TIP3     H2       HT       0.417000       1.00800           0
     74040 TIP3     17220    TIP3     OH2      OT      -0.834000       15.9994           0
     74041 TIP3     17220    TIP3     H1       HT       0.417000       1.00800           0
     74042 TIP3     17220    TIP3     H2       HT       0.417000       1.00800           0
     74043 TIP3     17221    TIP3     OH2      OT      -0.834000       15.9994           0
     74044 TIP3     17221    TIP3     H1       HT       0.417000       1.00800           0
     74045 TIP3     17221    TIP3     H2       HT       0.417000       1.00800           0
     74046 TIP3     17222    TIP3     OH2      OT      -0.834000       15.9994           0
     74047 TIP3     17222    TIP3     H1       HT       0.417000       1.00800           0
     74048 TIP3     17222    TIP3     H2       HT       0.417000       1.00800           0
     74049 TIP3     17223    TIP3     OH2      OT      -0.834000       15.9994           0
     74050 TIP3     17223    TIP3     H1       HT       0.417000       1.00800           0
     74051 TIP3     17223    TIP3     H2       HT       0.417000       1.00800           0
     74052 TIP3     17224    TIP3     OH2      OT      -0.834000       15.9994           0
     74053 TIP3     17224    TIP3     H1       HT       0.417000       1.00800           0
     74054 TIP3     17224    TIP3     H2       HT       0.417000       1.00800           0
     74055 TIP3     17225    TIP3     OH2      OT      -0.834000       15.9994           0
     74056 TIP3     17225    TIP3     H1       HT       0.417000       1.00800           0
     74057 TIP3     17225    TIP3     H2       HT       0.417000       1.00800           0
     74058 TIP3     17226    TIP3     OH2      OT      -0.834000       15.9994           0
     74059 TIP3     17226    TIP3     H1       HT       0.417000       1.00800           0
     74060 TIP3     17226    TIP3     H2       HT       0.417000       1.00800           0
     74061 TIP3     17227    TIP3     OH2      OT      -0.834000       15.9994           0
     74062 TIP3     17227    TIP3     H1       HT       0.417000       1.00800           0
     74063 TIP3     17227    TIP3     H2       HT       0.417000       1.00800           0
     74064 TIP3     17228    TIP3     OH2      OT      -0.834000       15.9994           0
     74065 TIP3     17228    TIP3     H1       HT       0.417000       1.00800           0
     74066 TIP3     17228    TIP3     H2       HT       0.417000       1.00800           0
     74067 TIP3     17229    TIP3     OH2      OT      -0.834000       15.9994           0
     74068 TIP3     17229    TIP3     H1       HT       0.417000       1.00800           0
     74069 TIP3     17229    TIP3     H2       HT       0.417000       1.00800           0
     74070 TIP3     17230    TIP3     OH2      OT      -0.834000       15.9994           0
     74071 TIP3     17230    TIP3     H1       HT       0.417000       1.00800           0
     74072 TIP3     17230    TIP3     H2       HT       0.417000       1.00800           0
     74073 TIP3     17231    TIP3     OH2      OT      -0.834000       15.9994           0
     74074 TIP3     17231    TIP3     H1       HT       0.417000       1.00800           0
     74075 TIP3     17231    TIP3     H2       HT       0.417000       1.00800           0
     74076 TIP3     17232    TIP3     OH2      OT      -0.834000       15.9994           0
     74077 TIP3     17232    TIP3     H1       HT       0.417000       1.00800           0
     74078 TIP3     17232    TIP3     H2       HT       0.417000       1.00800           0
     74079 TIP3     17233    TIP3     OH2      OT      -0.834000       15.9994           0
     74080 TIP3     17233    TIP3     H1       HT       0.417000       1.00800           0
     74081 TIP3     17233    TIP3     H2       HT       0.417000       1.00800           0
     74082 TIP3     17234    TIP3     OH2      OT      -0.834000       15.9994           0
     74083 TIP3     17234    TIP3     H1       HT       0.417000       1.00800           0
     74084 TIP3     17234    TIP3     H2       HT       0.417000       1.00800           0
     74085 TIP3     17235    TIP3     OH2      OT      -0.834000       15.9994           0
     74086 TIP3     17235    TIP3     H1       HT       0.417000       1.00800           0
     74087 TIP3     17235    TIP3     H2       HT       0.417000       1.00800           0
     74088 TIP3     17236    TIP3     OH2      OT      -0.834000       15.9994           0
     74089 TIP3     17236    TIP3     H1       HT       0.417000       1.00800           0
     74090 TIP3     17236    TIP3     H2       HT       0.417000       1.00800           0
     74091 TIP3     17237    TIP3     OH2      OT      -0.834000       15.9994           0
     74092 TIP3     17237    TIP3     H1       HT       0.417000       1.00800           0
     74093 TIP3     17237    TIP3     H2       HT       0.417000       1.00800           0
     74094 TIP3     17238    TIP3     OH2      OT      -0.834000       15.9994           0
     74095 TIP3     17238    TIP3     H1       HT       0.417000       1.00800           0
     74096 TIP3     17238    TIP3     H2       HT       0.417000       1.00800           0
     74097 TIP3     17239    TIP3     OH2      OT      -0.834000       15.9994           0
     74098 TIP3     17239    TIP3     H1       HT       0.417000       1.00800           0
     74099 TIP3     17239    TIP3     H2       HT       0.417000       1.00800           0
     74100 TIP3     17240    TIP3     OH2      OT      -0.834000       15.9994           0
     74101 TIP3     17240    TIP3     H1       HT       0.417000       1.00800           0
     74102 TIP3     17240    TIP3     H2       HT       0.417000       1.00800           0
     74103 TIP3     17241    TIP3     OH2      OT      -0.834000       15.9994           0
     74104 TIP3     17241    TIP3     H1       HT       0.417000       1.00800           0
     74105 TIP3     17241    TIP3     H2       HT       0.417000       1.00800           0
     74106 TIP3     17242    TIP3     OH2      OT      -0.834000       15.9994           0
     74107 TIP3     17242    TIP3     H1       HT       0.417000       1.00800           0
     74108 TIP3     17242    TIP3     H2       HT       0.417000       1.00800           0
     74109 TIP3     17243    TIP3     OH2      OT      -0.834000       15.9994           0
     74110 TIP3     17243    TIP3     H1       HT       0.417000       1.00800           0
     74111 TIP3     17243    TIP3     H2       HT       0.417000       1.00800           0
     74112 TIP3     17244    TIP3     OH2      OT      -0.834000       15.9994           0
     74113 TIP3     17244    TIP3     H1       HT       0.417000       1.00800           0
     74114 TIP3     17244    TIP3     H2       HT       0.417000       1.00800           0
     74115 TIP3     17245    TIP3     OH2      OT      -0.834000       15.9994           0
     74116 TIP3     17245    TIP3     H1       HT       0.417000       1.00800           0
     74117 TIP3     17245    TIP3     H2       HT       0.417000       1.00800           0
     74118 TIP3     17246    TIP3     OH2      OT      -0.834000       15.9994           0
     74119 TIP3     17246    TIP3     H1       HT       0.417000       1.00800           0
     74120 TIP3     17246    TIP3     H2       HT       0.417000       1.00800           0
     74121 TIP3     17247    TIP3     OH2      OT      -0.834000       15.9994           0
     74122 TIP3     17247    TIP3     H1       HT       0.417000       1.00800           0
     74123 TIP3     17247    TIP3     H2       HT       0.417000       1.00800           0
     74124 TIP3     17248    TIP3     OH2      OT      -0.834000       15.9994           0
     74125 TIP3     17248    TIP3     H1       HT       0.417000       1.00800           0
     74126 TIP3     17248    TIP3     H2       HT       0.417000       1.00800           0
     74127 TIP3     17249    TIP3     OH2      OT      -0.834000       15.9994           0
     74128 TIP3     17249    TIP3     H1       HT       0.417000       1.00800           0
     74129 TIP3     17249    TIP3     H2       HT       0.417000       1.00800           0
     74130 TIP3     17250    TIP3     OH2      OT      -0.834000       15.9994           0
     74131 TIP3     17250    TIP3     H1       HT       0.417000       1.00800           0
     74132 TIP3     17250    TIP3     H2       HT       0.417000       1.00800           0
     74133 TIP3     17251    TIP3     OH2      OT      -0.834000       15.9994           0
     74134 TIP3     17251    TIP3     H1       HT       0.417000       1.00800           0
     74135 TIP3     17251    TIP3     H2       HT       0.417000       1.00800           0
     74136 TIP3     17252    TIP3     OH2      OT      -0.834000       15.9994           0
     74137 TIP3     17252    TIP3     H1       HT       0.417000       1.00800           0
     74138 TIP3     17252    TIP3     H2       HT       0.417000       1.00800           0
     74139 TIP3     17253    TIP3     OH2      OT      -0.834000       15.9994           0
     74140 TIP3     17253    TIP3     H1       HT       0.417000       1.00800           0
     74141 TIP3     17253    TIP3     H2       HT       0.417000       1.00800           0
     74142 TIP3     17254    TIP3     OH2      OT      -0.834000       15.9994           0
     74143 TIP3     17254    TIP3     H1       HT       0.417000       1.00800           0
     74144 TIP3     17254    TIP3     H2       HT       0.417000       1.00800           0
     74145 TIP3     17255    TIP3     OH2      OT      -0.834000       15.9994           0
     74146 TIP3     17255    TIP3     H1       HT       0.417000       1.00800           0
     74147 TIP3     17255    TIP3     H2       HT       0.417000       1.00800           0
     74148 TIP3     17256    TIP3     OH2      OT      -0.834000       15.9994           0
     74149 TIP3     17256    TIP3     H1       HT       0.417000       1.00800           0
     74150 TIP3     17256    TIP3     H2       HT       0.417000       1.00800           0
     74151 TIP3     17257    TIP3     OH2      OT      -0.834000       15.9994           0
     74152 TIP3     17257    TIP3     H1       HT       0.417000       1.00800           0
     74153 TIP3     17257    TIP3     H2       HT       0.417000       1.00800           0
     74154 TIP3     17258    TIP3     OH2      OT      -0.834000       15.9994           0
     74155 TIP3     17258    TIP3     H1       HT       0.417000       1.00800           0
     74156 TIP3     17258    TIP3     H2       HT       0.417000       1.00800           0
     74157 TIP3     17259    TIP3     OH2      OT      -0.834000       15.9994           0
     74158 TIP3     17259    TIP3     H1       HT       0.417000       1.00800           0
     74159 TIP3     17259    TIP3     H2       HT       0.417000       1.00800           0
     74160 TIP3     17260    TIP3     OH2      OT      -0.834000       15.9994           0
     74161 TIP3     17260    TIP3     H1       HT       0.417000       1.00800           0
     74162 TIP3     17260    TIP3     H2       HT       0.417000       1.00800           0
     74163 TIP3     17261    TIP3     OH2      OT      -0.834000       15.9994           0
     74164 TIP3     17261    TIP3     H1       HT       0.417000       1.00800           0
     74165 TIP3     17261    TIP3     H2       HT       0.417000       1.00800           0
     74166 TIP3     17262    TIP3     OH2      OT      -0.834000       15.9994           0
     74167 TIP3     17262    TIP3     H1       HT       0.417000       1.00800           0
     74168 TIP3     17262    TIP3     H2       HT       0.417000       1.00800           0
     74169 TIP3     17263    TIP3     OH2      OT      -0.834000       15.9994           0
     74170 TIP3     17263    TIP3     H1       HT       0.417000       1.00800           0
     74171 TIP3     17263    TIP3     H2       HT       0.417000       1.00800           0
     74172 TIP3     17264    TIP3     OH2      OT      -0.834000       15.9994           0
     74173 TIP3     17264    TIP3     H1       HT       0.417000       1.00800           0
     74174 TIP3     17264    TIP3     H2       HT       0.417000       1.00800           0
     74175 TIP3     17265    TIP3     OH2      OT      -0.834000       15.9994           0
     74176 TIP3     17265    TIP3     H1       HT       0.417000       1.00800           0
     74177 TIP3     17265    TIP3     H2       HT       0.417000       1.00800           0
     74178 TIP3     17266    TIP3     OH2      OT      -0.834000       15.9994           0
     74179 TIP3     17266    TIP3     H1       HT       0.417000       1.00800           0
     74180 TIP3     17266    TIP3     H2       HT       0.417000       1.00800           0
     74181 TIP3     17267    TIP3     OH2      OT      -0.834000       15.9994           0
     74182 TIP3     17267    TIP3     H1       HT       0.417000       1.00800           0
     74183 TIP3     17267    TIP3     H2       HT       0.417000       1.00800           0
     74184 TIP3     17268    TIP3     OH2      OT      -0.834000       15.9994           0
     74185 TIP3     17268    TIP3     H1       HT       0.417000       1.00800           0
     74186 TIP3     17268    TIP3     H2       HT       0.417000       1.00800           0
     74187 TIP3     17269    TIP3     OH2      OT      -0.834000       15.9994           0
     74188 TIP3     17269    TIP3     H1       HT       0.417000       1.00800           0
     74189 TIP3     17269    TIP3     H2       HT       0.417000       1.00800           0
     74190 TIP3     17270    TIP3     OH2      OT      -0.834000       15.9994           0
     74191 TIP3     17270    TIP3     H1       HT       0.417000       1.00800           0
     74192 TIP3     17270    TIP3     H2       HT       0.417000       1.00800           0
     74193 TIP3     17271    TIP3     OH2      OT      -0.834000       15.9994           0
     74194 TIP3     17271    TIP3     H1       HT       0.417000       1.00800           0
     74195 TIP3     17271    TIP3     H2       HT       0.417000       1.00800           0
     74196 TIP3     17272    TIP3     OH2      OT      -0.834000       15.9994           0
     74197 TIP3     17272    TIP3     H1       HT       0.417000       1.00800           0
     74198 TIP3     17272    TIP3     H2       HT       0.417000       1.00800           0
     74199 TIP3     17273    TIP3     OH2      OT      -0.834000       15.9994           0
     74200 TIP3     17273    TIP3     H1       HT       0.417000       1.00800           0
     74201 TIP3     17273    TIP3     H2       HT       0.417000       1.00800           0
     74202 TIP3     17274    TIP3     OH2      OT      -0.834000       15.9994           0
     74203 TIP3     17274    TIP3     H1       HT       0.417000       1.00800           0
     74204 TIP3     17274    TIP3     H2       HT       0.417000       1.00800           0
     74205 TIP3     17275    TIP3     OH2      OT      -0.834000       15.9994           0
     74206 TIP3     17275    TIP3     H1       HT       0.417000       1.00800           0
     74207 TIP3     17275    TIP3     H2       HT       0.417000       1.00800           0
     74208 TIP3     17276    TIP3     OH2      OT      -0.834000       15.9994           0
     74209 TIP3     17276    TIP3     H1       HT       0.417000       1.00800           0
     74210 TIP3     17276    TIP3     H2       HT       0.417000       1.00800           0
     74211 TIP3     17277    TIP3     OH2      OT      -0.834000       15.9994           0
     74212 TIP3     17277    TIP3     H1       HT       0.417000       1.00800           0
     74213 TIP3     17277    TIP3     H2       HT       0.417000       1.00800           0
     74214 TIP3     17278    TIP3     OH2      OT      -0.834000       15.9994           0
     74215 TIP3     17278    TIP3     H1       HT       0.417000       1.00800           0
     74216 TIP3     17278    TIP3     H2       HT       0.417000       1.00800           0
     74217 TIP3     17279    TIP3     OH2      OT      -0.834000       15.9994           0
     74218 TIP3     17279    TIP3     H1       HT       0.417000       1.00800           0
     74219 TIP3     17279    TIP3     H2       HT       0.417000       1.00800           0
     74220 TIP3     17280    TIP3     OH2      OT      -0.834000       15.9994           0
     74221 TIP3     17280    TIP3     H1       HT       0.417000       1.00800           0
     74222 TIP3     17280    TIP3     H2       HT       0.417000       1.00800           0
     74223 TIP3     17281    TIP3     OH2      OT      -0.834000       15.9994           0
     74224 TIP3     17281    TIP3     H1       HT       0.417000       1.00800           0
     74225 TIP3     17281    TIP3     H2       HT       0.417000       1.00800           0
     74226 TIP3     17282    TIP3     OH2      OT      -0.834000       15.9994           0
     74227 TIP3     17282    TIP3     H1       HT       0.417000       1.00800           0
     74228 TIP3     17282    TIP3     H2       HT       0.417000       1.00800           0
     74229 TIP3     17283    TIP3     OH2      OT      -0.834000       15.9994           0
     74230 TIP3     17283    TIP3     H1       HT       0.417000       1.00800           0
     74231 TIP3     17283    TIP3     H2       HT       0.417000       1.00800           0
     74232 TIP3     17284    TIP3     OH2      OT      -0.834000       15.9994           0
     74233 TIP3     17284    TIP3     H1       HT       0.417000       1.00800           0
     74234 TIP3     17284    TIP3     H2       HT       0.417000       1.00800           0
     74235 TIP3     17285    TIP3     OH2      OT      -0.834000       15.9994           0
     74236 TIP3     17285    TIP3     H1       HT       0.417000       1.00800           0
     74237 TIP3     17285    TIP3     H2       HT       0.417000       1.00800           0
     74238 TIP3     17286    TIP3     OH2      OT      -0.834000       15.9994           0
     74239 TIP3     17286    TIP3     H1       HT       0.417000       1.00800           0
     74240 TIP3     17286    TIP3     H2       HT       0.417000       1.00800           0
     74241 TIP3     17287    TIP3     OH2      OT      -0.834000       15.9994           0
     74242 TIP3     17287    TIP3     H1       HT       0.417000       1.00800           0
     74243 TIP3     17287    TIP3     H2       HT       0.417000       1.00800           0
     74244 TIP3     17288    TIP3     OH2      OT      -0.834000       15.9994           0
     74245 TIP3     17288    TIP3     H1       HT       0.417000       1.00800           0
     74246 TIP3     17288    TIP3     H2       HT       0.417000       1.00800           0
     74247 TIP3     17289    TIP3     OH2      OT      -0.834000       15.9994           0
     74248 TIP3     17289    TIP3     H1       HT       0.417000       1.00800           0
     74249 TIP3     17289    TIP3     H2       HT       0.417000       1.00800           0
     74250 TIP3     17290    TIP3     OH2      OT      -0.834000       15.9994           0
     74251 TIP3     17290    TIP3     H1       HT       0.417000       1.00800           0
     74252 TIP3     17290    TIP3     H2       HT       0.417000       1.00800           0
     74253 TIP3     17291    TIP3     OH2      OT      -0.834000       15.9994           0
     74254 TIP3     17291    TIP3     H1       HT       0.417000       1.00800           0
     74255 TIP3     17291    TIP3     H2       HT       0.417000       1.00800           0
     74256 TIP3     17292    TIP3     OH2      OT      -0.834000       15.9994           0
     74257 TIP3     17292    TIP3     H1       HT       0.417000       1.00800           0
     74258 TIP3     17292    TIP3     H2       HT       0.417000       1.00800           0
     74259 TIP3     17293    TIP3     OH2      OT      -0.834000       15.9994           0
     74260 TIP3     17293    TIP3     H1       HT       0.417000       1.00800           0
     74261 TIP3     17293    TIP3     H2       HT       0.417000       1.00800           0
     74262 TIP3     17294    TIP3     OH2      OT      -0.834000       15.9994           0
     74263 TIP3     17294    TIP3     H1       HT       0.417000       1.00800           0
     74264 TIP3     17294    TIP3     H2       HT       0.417000       1.00800           0
     74265 TIP3     17295    TIP3     OH2      OT      -0.834000       15.9994           0
     74266 TIP3     17295    TIP3     H1       HT       0.417000       1.00800           0
     74267 TIP3     17295    TIP3     H2       HT       0.417000       1.00800           0
     74268 TIP3     17296    TIP3     OH2      OT      -0.834000       15.9994           0
     74269 TIP3     17296    TIP3     H1       HT       0.417000       1.00800           0
     74270 TIP3     17296    TIP3     H2       HT       0.417000       1.00800           0
     74271 TIP3     17297    TIP3     OH2      OT      -0.834000       15.9994           0
     74272 TIP3     17297    TIP3     H1       HT       0.417000       1.00800           0
     74273 TIP3     17297    TIP3     H2       HT       0.417000       1.00800           0
     74274 TIP3     17298    TIP3     OH2      OT      -0.834000       15.9994           0
     74275 TIP3     17298    TIP3     H1       HT       0.417000       1.00800           0
     74276 TIP3     17298    TIP3     H2       HT       0.417000       1.00800           0
     74277 TIP3     17299    TIP3     OH2      OT      -0.834000       15.9994           0
     74278 TIP3     17299    TIP3     H1       HT       0.417000       1.00800           0
     74279 TIP3     17299    TIP3     H2       HT       0.417000       1.00800           0
     74280 TIP3     17300    TIP3     OH2      OT      -0.834000       15.9994           0
     74281 TIP3     17300    TIP3     H1       HT       0.417000       1.00800           0
     74282 TIP3     17300    TIP3     H2       HT       0.417000       1.00800           0
     74283 TIP3     17301    TIP3     OH2      OT      -0.834000       15.9994           0
     74284 TIP3     17301    TIP3     H1       HT       0.417000       1.00800           0
     74285 TIP3     17301    TIP3     H2       HT       0.417000       1.00800           0
     74286 TIP3     17302    TIP3     OH2      OT      -0.834000       15.9994           0
     74287 TIP3     17302    TIP3     H1       HT       0.417000       1.00800           0
     74288 TIP3     17302    TIP3     H2       HT       0.417000       1.00800           0
     74289 TIP3     17303    TIP3     OH2      OT      -0.834000       15.9994           0
     74290 TIP3     17303    TIP3     H1       HT       0.417000       1.00800           0
     74291 TIP3     17303    TIP3     H2       HT       0.417000       1.00800           0
     74292 TIP3     17304    TIP3     OH2      OT      -0.834000       15.9994           0
     74293 TIP3     17304    TIP3     H1       HT       0.417000       1.00800           0
     74294 TIP3     17304    TIP3     H2       HT       0.417000       1.00800           0
     74295 TIP3     17305    TIP3     OH2      OT      -0.834000       15.9994           0
     74296 TIP3     17305    TIP3     H1       HT       0.417000       1.00800           0
     74297 TIP3     17305    TIP3     H2       HT       0.417000       1.00800           0
     74298 TIP3     17306    TIP3     OH2      OT      -0.834000       15.9994           0
     74299 TIP3     17306    TIP3     H1       HT       0.417000       1.00800           0
     74300 TIP3     17306    TIP3     H2       HT       0.417000       1.00800           0
     74301 TIP3     17307    TIP3     OH2      OT      -0.834000       15.9994           0
     74302 TIP3     17307    TIP3     H1       HT       0.417000       1.00800           0
     74303 TIP3     17307    TIP3     H2       HT       0.417000       1.00800           0
     74304 TIP3     17308    TIP3     OH2      OT      -0.834000       15.9994           0
     74305 TIP3     17308    TIP3     H1       HT       0.417000       1.00800           0
     74306 TIP3     17308    TIP3     H2       HT       0.417000       1.00800           0
     74307 TIP3     17309    TIP3     OH2      OT      -0.834000       15.9994           0
     74308 TIP3     17309    TIP3     H1       HT       0.417000       1.00800           0
     74309 TIP3     17309    TIP3     H2       HT       0.417000       1.00800           0
     74310 TIP3     17310    TIP3     OH2      OT      -0.834000       15.9994           0
     74311 TIP3     17310    TIP3     H1       HT       0.417000       1.00800           0
     74312 TIP3     17310    TIP3     H2       HT       0.417000       1.00800           0
     74313 TIP3     17311    TIP3     OH2      OT      -0.834000       15.9994           0
     74314 TIP3     17311    TIP3     H1       HT       0.417000       1.00800           0
     74315 TIP3     17311    TIP3     H2       HT       0.417000       1.00800           0
     74316 TIP3     17312    TIP3     OH2      OT      -0.834000       15.9994           0
     74317 TIP3     17312    TIP3     H1       HT       0.417000       1.00800           0
     74318 TIP3     17312    TIP3     H2       HT       0.417000       1.00800           0
     74319 TIP3     17313    TIP3     OH2      OT      -0.834000       15.9994           0
     74320 TIP3     17313    TIP3     H1       HT       0.417000       1.00800           0
     74321 TIP3     17313    TIP3     H2       HT       0.417000       1.00800           0
     74322 TIP3     17314    TIP3     OH2      OT      -0.834000       15.9994           0
     74323 TIP3     17314    TIP3     H1       HT       0.417000       1.00800           0
     74324 TIP3     17314    TIP3     H2       HT       0.417000       1.00800           0
     74325 TIP3     17315    TIP3     OH2      OT      -0.834000       15.9994           0
     74326 TIP3     17315    TIP3     H1       HT       0.417000       1.00800           0
     74327 TIP3     17315    TIP3     H2       HT       0.417000       1.00800           0
     74328 TIP3     17316    TIP3     OH2      OT      -0.834000       15.9994           0
     74329 TIP3     17316    TIP3     H1       HT       0.417000       1.00800           0
     74330 TIP3     17316    TIP3     H2       HT       0.417000       1.00800           0
     74331 TIP3     17317    TIP3     OH2      OT      -0.834000       15.9994           0
     74332 TIP3     17317    TIP3     H1       HT       0.417000       1.00800           0
     74333 TIP3     17317    TIP3     H2       HT       0.417000       1.00800           0
     74334 TIP3     17318    TIP3     OH2      OT      -0.834000       15.9994           0
     74335 TIP3     17318    TIP3     H1       HT       0.417000       1.00800           0
     74336 TIP3     17318    TIP3     H2       HT       0.417000       1.00800           0
     74337 TIP3     17319    TIP3     OH2      OT      -0.834000       15.9994           0
     74338 TIP3     17319    TIP3     H1       HT       0.417000       1.00800           0
     74339 TIP3     17319    TIP3     H2       HT       0.417000       1.00800           0
     74340 TIP3     17320    TIP3     OH2      OT      -0.834000       15.9994           0
     74341 TIP3     17320    TIP3     H1       HT       0.417000       1.00800           0
     74342 TIP3     17320    TIP3     H2       HT       0.417000       1.00800           0
     74343 TIP3     17321    TIP3     OH2      OT      -0.834000       15.9994           0
     74344 TIP3     17321    TIP3     H1       HT       0.417000       1.00800           0
     74345 TIP3     17321    TIP3     H2       HT       0.417000       1.00800           0
     74346 TIP3     17322    TIP3     OH2      OT      -0.834000       15.9994           0
     74347 TIP3     17322    TIP3     H1       HT       0.417000       1.00800           0
     74348 TIP3     17322    TIP3     H2       HT       0.417000       1.00800           0
     74349 TIP3     17323    TIP3     OH2      OT      -0.834000       15.9994           0
     74350 TIP3     17323    TIP3     H1       HT       0.417000       1.00800           0
     74351 TIP3     17323    TIP3     H2       HT       0.417000       1.00800           0
     74352 TIP3     17324    TIP3     OH2      OT      -0.834000       15.9994           0
     74353 TIP3     17324    TIP3     H1       HT       0.417000       1.00800           0
     74354 TIP3     17324    TIP3     H2       HT       0.417000       1.00800           0
     74355 TIP3     17325    TIP3     OH2      OT      -0.834000       15.9994           0
     74356 TIP3     17325    TIP3     H1       HT       0.417000       1.00800           0
     74357 TIP3     17325    TIP3     H2       HT       0.417000       1.00800           0
     74358 TIP3     17326    TIP3     OH2      OT      -0.834000       15.9994           0
     74359 TIP3     17326    TIP3     H1       HT       0.417000       1.00800           0
     74360 TIP3     17326    TIP3     H2       HT       0.417000       1.00800           0
     74361 TIP3     17327    TIP3     OH2      OT      -0.834000       15.9994           0
     74362 TIP3     17327    TIP3     H1       HT       0.417000       1.00800           0
     74363 TIP3     17327    TIP3     H2       HT       0.417000       1.00800           0
     74364 TIP3     17328    TIP3     OH2      OT      -0.834000       15.9994           0
     74365 TIP3     17328    TIP3     H1       HT       0.417000       1.00800           0
     74366 TIP3     17328    TIP3     H2       HT       0.417000       1.00800           0
     74367 TIP3     17329    TIP3     OH2      OT      -0.834000       15.9994           0
     74368 TIP3     17329    TIP3     H1       HT       0.417000       1.00800           0
     74369 TIP3     17329    TIP3     H2       HT       0.417000       1.00800           0
     74370 TIP3     17330    TIP3     OH2      OT      -0.834000       15.9994           0
     74371 TIP3     17330    TIP3     H1       HT       0.417000       1.00800           0
     74372 TIP3     17330    TIP3     H2       HT       0.417000       1.00800           0
     74373 TIP3     17331    TIP3     OH2      OT      -0.834000       15.9994           0
     74374 TIP3     17331    TIP3     H1       HT       0.417000       1.00800           0
     74375 TIP3     17331    TIP3     H2       HT       0.417000       1.00800           0
     74376 TIP3     17332    TIP3     OH2      OT      -0.834000       15.9994           0
     74377 TIP3     17332    TIP3     H1       HT       0.417000       1.00800           0
     74378 TIP3     17332    TIP3     H2       HT       0.417000       1.00800           0
     74379 TIP3     17333    TIP3     OH2      OT      -0.834000       15.9994           0
     74380 TIP3     17333    TIP3     H1       HT       0.417000       1.00800           0
     74381 TIP3     17333    TIP3     H2       HT       0.417000       1.00800           0
     74382 TIP3     17334    TIP3     OH2      OT      -0.834000       15.9994           0
     74383 TIP3     17334    TIP3     H1       HT       0.417000       1.00800           0
     74384 TIP3     17334    TIP3     H2       HT       0.417000       1.00800           0
     74385 TIP3     17335    TIP3     OH2      OT      -0.834000       15.9994           0
     74386 TIP3     17335    TIP3     H1       HT       0.417000       1.00800           0
     74387 TIP3     17335    TIP3     H2       HT       0.417000       1.00800           0
     74388 TIP3     17336    TIP3     OH2      OT      -0.834000       15.9994           0
     74389 TIP3     17336    TIP3     H1       HT       0.417000       1.00800           0
     74390 TIP3     17336    TIP3     H2       HT       0.417000       1.00800           0
     74391 TIP3     17337    TIP3     OH2      OT      -0.834000       15.9994           0
     74392 TIP3     17337    TIP3     H1       HT       0.417000       1.00800           0
     74393 TIP3     17337    TIP3     H2       HT       0.417000       1.00800           0
     74394 TIP3     17338    TIP3     OH2      OT      -0.834000       15.9994           0
     74395 TIP3     17338    TIP3     H1       HT       0.417000       1.00800           0
     74396 TIP3     17338    TIP3     H2       HT       0.417000       1.00800           0
     74397 TIP3     17339    TIP3     OH2      OT      -0.834000       15.9994           0
     74398 TIP3     17339    TIP3     H1       HT       0.417000       1.00800           0
     74399 TIP3     17339    TIP3     H2       HT       0.417000       1.00800           0
     74400 TIP3     17340    TIP3     OH2      OT      -0.834000       15.9994           0
     74401 TIP3     17340    TIP3     H1       HT       0.417000       1.00800           0
     74402 TIP3     17340    TIP3     H2       HT       0.417000       1.00800           0
     74403 TIP3     17341    TIP3     OH2      OT      -0.834000       15.9994           0
     74404 TIP3     17341    TIP3     H1       HT       0.417000       1.00800           0
     74405 TIP3     17341    TIP3     H2       HT       0.417000       1.00800           0
     74406 TIP3     17342    TIP3     OH2      OT      -0.834000       15.9994           0
     74407 TIP3     17342    TIP3     H1       HT       0.417000       1.00800           0
     74408 TIP3     17342    TIP3     H2       HT       0.417000       1.00800           0
     74409 TIP3     17343    TIP3     OH2      OT      -0.834000       15.9994           0
     74410 TIP3     17343    TIP3     H1       HT       0.417000       1.00800           0
     74411 TIP3     17343    TIP3     H2       HT       0.417000       1.00800           0
     74412 TIP3     17344    TIP3     OH2      OT      -0.834000       15.9994           0
     74413 TIP3     17344    TIP3     H1       HT       0.417000       1.00800           0
     74414 TIP3     17344    TIP3     H2       HT       0.417000       1.00800           0
     74415 TIP3     17345    TIP3     OH2      OT      -0.834000       15.9994           0
     74416 TIP3     17345    TIP3     H1       HT       0.417000       1.00800           0
     74417 TIP3     17345    TIP3     H2       HT       0.417000       1.00800           0
     74418 TIP3     17346    TIP3     OH2      OT      -0.834000       15.9994           0
     74419 TIP3     17346    TIP3     H1       HT       0.417000       1.00800           0
     74420 TIP3     17346    TIP3     H2       HT       0.417000       1.00800           0
     74421 TIP3     17347    TIP3     OH2      OT      -0.834000       15.9994           0
     74422 TIP3     17347    TIP3     H1       HT       0.417000       1.00800           0
     74423 TIP3     17347    TIP3     H2       HT       0.417000       1.00800           0
     74424 TIP3     17348    TIP3     OH2      OT      -0.834000       15.9994           0
     74425 TIP3     17348    TIP3     H1       HT       0.417000       1.00800           0
     74426 TIP3     17348    TIP3     H2       HT       0.417000       1.00800           0
     74427 TIP3     17349    TIP3     OH2      OT      -0.834000       15.9994           0
     74428 TIP3     17349    TIP3     H1       HT       0.417000       1.00800           0
     74429 TIP3     17349    TIP3     H2       HT       0.417000       1.00800           0
     74430 TIP3     17350    TIP3     OH2      OT      -0.834000       15.9994           0
     74431 TIP3     17350    TIP3     H1       HT       0.417000       1.00800           0
     74432 TIP3     17350    TIP3     H2       HT       0.417000       1.00800           0
     74433 TIP3     17351    TIP3     OH2      OT      -0.834000       15.9994           0
     74434 TIP3     17351    TIP3     H1       HT       0.417000       1.00800           0
     74435 TIP3     17351    TIP3     H2       HT       0.417000       1.00800           0
     74436 TIP3     17352    TIP3     OH2      OT      -0.834000       15.9994           0
     74437 TIP3     17352    TIP3     H1       HT       0.417000       1.00800           0
     74438 TIP3     17352    TIP3     H2       HT       0.417000       1.00800           0
     74439 TIP3     17353    TIP3     OH2      OT      -0.834000       15.9994           0
     74440 TIP3     17353    TIP3     H1       HT       0.417000       1.00800           0
     74441 TIP3     17353    TIP3     H2       HT       0.417000       1.00800           0
     74442 TIP3     17354    TIP3     OH2      OT      -0.834000       15.9994           0
     74443 TIP3     17354    TIP3     H1       HT       0.417000       1.00800           0
     74444 TIP3     17354    TIP3     H2       HT       0.417000       1.00800           0
     74445 TIP3     17355    TIP3     OH2      OT      -0.834000       15.9994           0
     74446 TIP3     17355    TIP3     H1       HT       0.417000       1.00800           0
     74447 TIP3     17355    TIP3     H2       HT       0.417000       1.00800           0
     74448 TIP3     17356    TIP3     OH2      OT      -0.834000       15.9994           0
     74449 TIP3     17356    TIP3     H1       HT       0.417000       1.00800           0
     74450 TIP3     17356    TIP3     H2       HT       0.417000       1.00800           0
     74451 TIP3     17357    TIP3     OH2      OT      -0.834000       15.9994           0
     74452 TIP3     17357    TIP3     H1       HT       0.417000       1.00800           0
     74453 TIP3     17357    TIP3     H2       HT       0.417000       1.00800           0
     74454 TIP3     17358    TIP3     OH2      OT      -0.834000       15.9994           0
     74455 TIP3     17358    TIP3     H1       HT       0.417000       1.00800           0
     74456 TIP3     17358    TIP3     H2       HT       0.417000       1.00800           0
     74457 TIP3     17359    TIP3     OH2      OT      -0.834000       15.9994           0
     74458 TIP3     17359    TIP3     H1       HT       0.417000       1.00800           0
     74459 TIP3     17359    TIP3     H2       HT       0.417000       1.00800           0
     74460 TIP3     17360    TIP3     OH2      OT      -0.834000       15.9994           0
     74461 TIP3     17360    TIP3     H1       HT       0.417000       1.00800           0
     74462 TIP3     17360    TIP3     H2       HT       0.417000       1.00800           0
     74463 TIP3     17361    TIP3     OH2      OT      -0.834000       15.9994           0
     74464 TIP3     17361    TIP3     H1       HT       0.417000       1.00800           0
     74465 TIP3     17361    TIP3     H2       HT       0.417000       1.00800           0
     74466 TIP3     17362    TIP3     OH2      OT      -0.834000       15.9994           0
     74467 TIP3     17362    TIP3     H1       HT       0.417000       1.00800           0
     74468 TIP3     17362    TIP3     H2       HT       0.417000       1.00800           0
     74469 TIP3     17363    TIP3     OH2      OT      -0.834000       15.9994           0
     74470 TIP3     17363    TIP3     H1       HT       0.417000       1.00800           0
     74471 TIP3     17363    TIP3     H2       HT       0.417000       1.00800           0
     74472 TIP3     17364    TIP3     OH2      OT      -0.834000       15.9994           0
     74473 TIP3     17364    TIP3     H1       HT       0.417000       1.00800           0
     74474 TIP3     17364    TIP3     H2       HT       0.417000       1.00800           0
     74475 TIP3     17365    TIP3     OH2      OT      -0.834000       15.9994           0
     74476 TIP3     17365    TIP3     H1       HT       0.417000       1.00800           0
     74477 TIP3     17365    TIP3     H2       HT       0.417000       1.00800           0
     74478 TIP3     17366    TIP3     OH2      OT      -0.834000       15.9994           0
     74479 TIP3     17366    TIP3     H1       HT       0.417000       1.00800           0
     74480 TIP3     17366    TIP3     H2       HT       0.417000       1.00800           0
     74481 TIP3     17367    TIP3     OH2      OT      -0.834000       15.9994           0
     74482 TIP3     17367    TIP3     H1       HT       0.417000       1.00800           0
     74483 TIP3     17367    TIP3     H2       HT       0.417000       1.00800           0
     74484 TIP3     17368    TIP3     OH2      OT      -0.834000       15.9994           0
     74485 TIP3     17368    TIP3     H1       HT       0.417000       1.00800           0
     74486 TIP3     17368    TIP3     H2       HT       0.417000       1.00800           0
     74487 TIP3     17369    TIP3     OH2      OT      -0.834000       15.9994           0
     74488 TIP3     17369    TIP3     H1       HT       0.417000       1.00800           0
     74489 TIP3     17369    TIP3     H2       HT       0.417000       1.00800           0
     74490 TIP3     17370    TIP3     OH2      OT      -0.834000       15.9994           0
     74491 TIP3     17370    TIP3     H1       HT       0.417000       1.00800           0
     74492 TIP3     17370    TIP3     H2       HT       0.417000       1.00800           0
     74493 TIP3     17371    TIP3     OH2      OT      -0.834000       15.9994           0
     74494 TIP3     17371    TIP3     H1       HT       0.417000       1.00800           0
     74495 TIP3     17371    TIP3     H2       HT       0.417000       1.00800           0
     74496 TIP3     17372    TIP3     OH2      OT      -0.834000       15.9994           0
     74497 TIP3     17372    TIP3     H1       HT       0.417000       1.00800           0
     74498 TIP3     17372    TIP3     H2       HT       0.417000       1.00800           0
     74499 TIP3     17373    TIP3     OH2      OT      -0.834000       15.9994           0
     74500 TIP3     17373    TIP3     H1       HT       0.417000       1.00800           0
     74501 TIP3     17373    TIP3     H2       HT       0.417000       1.00800           0
     74502 TIP3     17374    TIP3     OH2      OT      -0.834000       15.9994           0
     74503 TIP3     17374    TIP3     H1       HT       0.417000       1.00800           0
     74504 TIP3     17374    TIP3     H2       HT       0.417000       1.00800           0
     74505 TIP3     17375    TIP3     OH2      OT      -0.834000       15.9994           0
     74506 TIP3     17375    TIP3     H1       HT       0.417000       1.00800           0
     74507 TIP3     17375    TIP3     H2       HT       0.417000       1.00800           0
     74508 TIP3     17376    TIP3     OH2      OT      -0.834000       15.9994           0
     74509 TIP3     17376    TIP3     H1       HT       0.417000       1.00800           0
     74510 TIP3     17376    TIP3     H2       HT       0.417000       1.00800           0
     74511 TIP3     17377    TIP3     OH2      OT      -0.834000       15.9994           0
     74512 TIP3     17377    TIP3     H1       HT       0.417000       1.00800           0
     74513 TIP3     17377    TIP3     H2       HT       0.417000       1.00800           0
     74514 TIP3     17378    TIP3     OH2      OT      -0.834000       15.9994           0
     74515 TIP3     17378    TIP3     H1       HT       0.417000       1.00800           0
     74516 TIP3     17378    TIP3     H2       HT       0.417000       1.00800           0
     74517 TIP3     17379    TIP3     OH2      OT      -0.834000       15.9994           0
     74518 TIP3     17379    TIP3     H1       HT       0.417000       1.00800           0
     74519 TIP3     17379    TIP3     H2       HT       0.417000       1.00800           0
     74520 TIP3     17380    TIP3     OH2      OT      -0.834000       15.9994           0
     74521 TIP3     17380    TIP3     H1       HT       0.417000       1.00800           0
     74522 TIP3     17380    TIP3     H2       HT       0.417000       1.00800           0
     74523 TIP3     17381    TIP3     OH2      OT      -0.834000       15.9994           0
     74524 TIP3     17381    TIP3     H1       HT       0.417000       1.00800           0
     74525 TIP3     17381    TIP3     H2       HT       0.417000       1.00800           0
     74526 TIP3     17382    TIP3     OH2      OT      -0.834000       15.9994           0
     74527 TIP3     17382    TIP3     H1       HT       0.417000       1.00800           0
     74528 TIP3     17382    TIP3     H2       HT       0.417000       1.00800           0
     74529 TIP3     17383    TIP3     OH2      OT      -0.834000       15.9994           0
     74530 TIP3     17383    TIP3     H1       HT       0.417000       1.00800           0
     74531 TIP3     17383    TIP3     H2       HT       0.417000       1.00800           0
     74532 TIP3     17384    TIP3     OH2      OT      -0.834000       15.9994           0
     74533 TIP3     17384    TIP3     H1       HT       0.417000       1.00800           0
     74534 TIP3     17384    TIP3     H2       HT       0.417000       1.00800           0
     74535 TIP3     17385    TIP3     OH2      OT      -0.834000       15.9994           0
     74536 TIP3     17385    TIP3     H1       HT       0.417000       1.00800           0
     74537 TIP3     17385    TIP3     H2       HT       0.417000       1.00800           0
     74538 TIP3     17386    TIP3     OH2      OT      -0.834000       15.9994           0
     74539 TIP3     17386    TIP3     H1       HT       0.417000       1.00800           0
     74540 TIP3     17386    TIP3     H2       HT       0.417000       1.00800           0
     74541 TIP3     17387    TIP3     OH2      OT      -0.834000       15.9994           0
     74542 TIP3     17387    TIP3     H1       HT       0.417000       1.00800           0
     74543 TIP3     17387    TIP3     H2       HT       0.417000       1.00800           0
     74544 TIP3     17388    TIP3     OH2      OT      -0.834000       15.9994           0
     74545 TIP3     17388    TIP3     H1       HT       0.417000       1.00800           0
     74546 TIP3     17388    TIP3     H2       HT       0.417000       1.00800           0
     74547 TIP3     17389    TIP3     OH2      OT      -0.834000       15.9994           0
     74548 TIP3     17389    TIP3     H1       HT       0.417000       1.00800           0
     74549 TIP3     17389    TIP3     H2       HT       0.417000       1.00800           0
     74550 TIP3     17390    TIP3     OH2      OT      -0.834000       15.9994           0
     74551 TIP3     17390    TIP3     H1       HT       0.417000       1.00800           0
     74552 TIP3     17390    TIP3     H2       HT       0.417000       1.00800           0
     74553 TIP3     17391    TIP3     OH2      OT      -0.834000       15.9994           0
     74554 TIP3     17391    TIP3     H1       HT       0.417000       1.00800           0
     74555 TIP3     17391    TIP3     H2       HT       0.417000       1.00800           0
     74556 TIP3     17392    TIP3     OH2      OT      -0.834000       15.9994           0
     74557 TIP3     17392    TIP3     H1       HT       0.417000       1.00800           0
     74558 TIP3     17392    TIP3     H2       HT       0.417000       1.00800           0
     74559 TIP3     17393    TIP3     OH2      OT      -0.834000       15.9994           0
     74560 TIP3     17393    TIP3     H1       HT       0.417000       1.00800           0
     74561 TIP3     17393    TIP3     H2       HT       0.417000       1.00800           0
     74562 TIP3     17394    TIP3     OH2      OT      -0.834000       15.9994           0
     74563 TIP3     17394    TIP3     H1       HT       0.417000       1.00800           0
     74564 TIP3     17394    TIP3     H2       HT       0.417000       1.00800           0
     74565 TIP3     17395    TIP3     OH2      OT      -0.834000       15.9994           0
     74566 TIP3     17395    TIP3     H1       HT       0.417000       1.00800           0
     74567 TIP3     17395    TIP3     H2       HT       0.417000       1.00800           0
     74568 TIP3     17396    TIP3     OH2      OT      -0.834000       15.9994           0
     74569 TIP3     17396    TIP3     H1       HT       0.417000       1.00800           0
     74570 TIP3     17396    TIP3     H2       HT       0.417000       1.00800           0
     74571 TIP3     17397    TIP3     OH2      OT      -0.834000       15.9994           0
     74572 TIP3     17397    TIP3     H1       HT       0.417000       1.00800           0
     74573 TIP3     17397    TIP3     H2       HT       0.417000       1.00800           0
     74574 TIP3     17398    TIP3     OH2      OT      -0.834000       15.9994           0
     74575 TIP3     17398    TIP3     H1       HT       0.417000       1.00800           0
     74576 TIP3     17398    TIP3     H2       HT       0.417000       1.00800           0
     74577 TIP3     17399    TIP3     OH2      OT      -0.834000       15.9994           0
     74578 TIP3     17399    TIP3     H1       HT       0.417000       1.00800           0
     74579 TIP3     17399    TIP3     H2       HT       0.417000       1.00800           0
     74580 TIP3     17400    TIP3     OH2      OT      -0.834000       15.9994           0
     74581 TIP3     17400    TIP3     H1       HT       0.417000       1.00800           0
     74582 TIP3     17400    TIP3     H2       HT       0.417000       1.00800           0
     74583 TIP3     17401    TIP3     OH2      OT      -0.834000       15.9994           0
     74584 TIP3     17401    TIP3     H1       HT       0.417000       1.00800           0
     74585 TIP3     17401    TIP3     H2       HT       0.417000       1.00800           0
     74586 TIP3     17402    TIP3     OH2      OT      -0.834000       15.9994           0
     74587 TIP3     17402    TIP3     H1       HT       0.417000       1.00800           0
     74588 TIP3     17402    TIP3     H2       HT       0.417000       1.00800           0
     74589 TIP3     17403    TIP3     OH2      OT      -0.834000       15.9994           0
     74590 TIP3     17403    TIP3     H1       HT       0.417000       1.00800           0
     74591 TIP3     17403    TIP3     H2       HT       0.417000       1.00800           0
     74592 TIP3     17404    TIP3     OH2      OT      -0.834000       15.9994           0
     74593 TIP3     17404    TIP3     H1       HT       0.417000       1.00800           0
     74594 TIP3     17404    TIP3     H2       HT       0.417000       1.00800           0
     74595 TIP3     17405    TIP3     OH2      OT      -0.834000       15.9994           0
     74596 TIP3     17405    TIP3     H1       HT       0.417000       1.00800           0
     74597 TIP3     17405    TIP3     H2       HT       0.417000       1.00800           0
     74598 TIP3     17406    TIP3     OH2      OT      -0.834000       15.9994           0
     74599 TIP3     17406    TIP3     H1       HT       0.417000       1.00800           0
     74600 TIP3     17406    TIP3     H2       HT       0.417000       1.00800           0
     74601 TIP3     17407    TIP3     OH2      OT      -0.834000       15.9994           0
     74602 TIP3     17407    TIP3     H1       HT       0.417000       1.00800           0
     74603 TIP3     17407    TIP3     H2       HT       0.417000       1.00800           0
     74604 TIP3     17408    TIP3     OH2      OT      -0.834000       15.9994           0
     74605 TIP3     17408    TIP3     H1       HT       0.417000       1.00800           0
     74606 TIP3     17408    TIP3     H2       HT       0.417000       1.00800           0
     74607 TIP3     17409    TIP3     OH2      OT      -0.834000       15.9994           0
     74608 TIP3     17409    TIP3     H1       HT       0.417000       1.00800           0
     74609 TIP3     17409    TIP3     H2       HT       0.417000       1.00800           0
     74610 TIP3     17410    TIP3     OH2      OT      -0.834000       15.9994           0
     74611 TIP3     17410    TIP3     H1       HT       0.417000       1.00800           0
     74612 TIP3     17410    TIP3     H2       HT       0.417000       1.00800           0
     74613 TIP3     17411    TIP3     OH2      OT      -0.834000       15.9994           0
     74614 TIP3     17411    TIP3     H1       HT       0.417000       1.00800           0
     74615 TIP3     17411    TIP3     H2       HT       0.417000       1.00800           0
     74616 TIP3     17412    TIP3     OH2      OT      -0.834000       15.9994           0
     74617 TIP3     17412    TIP3     H1       HT       0.417000       1.00800           0
     74618 TIP3     17412    TIP3     H2       HT       0.417000       1.00800           0
     74619 TIP3     17413    TIP3     OH2      OT      -0.834000       15.9994           0
     74620 TIP3     17413    TIP3     H1       HT       0.417000       1.00800           0
     74621 TIP3     17413    TIP3     H2       HT       0.417000       1.00800           0
     74622 TIP3     17414    TIP3     OH2      OT      -0.834000       15.9994           0
     74623 TIP3     17414    TIP3     H1       HT       0.417000       1.00800           0
     74624 TIP3     17414    TIP3     H2       HT       0.417000       1.00800           0
     74625 TIP3     17415    TIP3     OH2      OT      -0.834000       15.9994           0
     74626 TIP3     17415    TIP3     H1       HT       0.417000       1.00800           0
     74627 TIP3     17415    TIP3     H2       HT       0.417000       1.00800           0
     74628 TIP3     17416    TIP3     OH2      OT      -0.834000       15.9994           0
     74629 TIP3     17416    TIP3     H1       HT       0.417000       1.00800           0
     74630 TIP3     17416    TIP3     H2       HT       0.417000       1.00800           0
     74631 TIP3     17417    TIP3     OH2      OT      -0.834000       15.9994           0
     74632 TIP3     17417    TIP3     H1       HT       0.417000       1.00800           0
     74633 TIP3     17417    TIP3     H2       HT       0.417000       1.00800           0
     74634 TIP3     17418    TIP3     OH2      OT      -0.834000       15.9994           0
     74635 TIP3     17418    TIP3     H1       HT       0.417000       1.00800           0
     74636 TIP3     17418    TIP3     H2       HT       0.417000       1.00800           0
     74637 TIP3     17419    TIP3     OH2      OT      -0.834000       15.9994           0
     74638 TIP3     17419    TIP3     H1       HT       0.417000       1.00800           0
     74639 TIP3     17419    TIP3     H2       HT       0.417000       1.00800           0
     74640 TIP3     17420    TIP3     OH2      OT      -0.834000       15.9994           0
     74641 TIP3     17420    TIP3     H1       HT       0.417000       1.00800           0
     74642 TIP3     17420    TIP3     H2       HT       0.417000       1.00800           0
     74643 TIP3     17421    TIP3     OH2      OT      -0.834000       15.9994           0
     74644 TIP3     17421    TIP3     H1       HT       0.417000       1.00800           0
     74645 TIP3     17421    TIP3     H2       HT       0.417000       1.00800           0
     74646 TIP3     17422    TIP3     OH2      OT      -0.834000       15.9994           0
     74647 TIP3     17422    TIP3     H1       HT       0.417000       1.00800           0
     74648 TIP3     17422    TIP3     H2       HT       0.417000       1.00800           0
     74649 TIP3     17423    TIP3     OH2      OT      -0.834000       15.9994           0
     74650 TIP3     17423    TIP3     H1       HT       0.417000       1.00800           0
     74651 TIP3     17423    TIP3     H2       HT       0.417000       1.00800           0
     74652 TIP3     17424    TIP3     OH2      OT      -0.834000       15.9994           0
     74653 TIP3     17424    TIP3     H1       HT       0.417000       1.00800           0
     74654 TIP3     17424    TIP3     H2       HT       0.417000       1.00800           0
     74655 TIP3     17425    TIP3     OH2      OT      -0.834000       15.9994           0
     74656 TIP3     17425    TIP3     H1       HT       0.417000       1.00800           0
     74657 TIP3     17425    TIP3     H2       HT       0.417000       1.00800           0
     74658 TIP3     17426    TIP3     OH2      OT      -0.834000       15.9994           0
     74659 TIP3     17426    TIP3     H1       HT       0.417000       1.00800           0
     74660 TIP3     17426    TIP3     H2       HT       0.417000       1.00800           0
     74661 TIP3     17427    TIP3     OH2      OT      -0.834000       15.9994           0
     74662 TIP3     17427    TIP3     H1       HT       0.417000       1.00800           0
     74663 TIP3     17427    TIP3     H2       HT       0.417000       1.00800           0
     74664 TIP3     17428    TIP3     OH2      OT      -0.834000       15.9994           0
     74665 TIP3     17428    TIP3     H1       HT       0.417000       1.00800           0
     74666 TIP3     17428    TIP3     H2       HT       0.417000       1.00800           0
     74667 TIP3     17429    TIP3     OH2      OT      -0.834000       15.9994           0
     74668 TIP3     17429    TIP3     H1       HT       0.417000       1.00800           0
     74669 TIP3     17429    TIP3     H2       HT       0.417000       1.00800           0
     74670 TIP3     17430    TIP3     OH2      OT      -0.834000       15.9994           0
     74671 TIP3     17430    TIP3     H1       HT       0.417000       1.00800           0
     74672 TIP3     17430    TIP3     H2       HT       0.417000       1.00800           0
     74673 TIP3     17431    TIP3     OH2      OT      -0.834000       15.9994           0
     74674 TIP3     17431    TIP3     H1       HT       0.417000       1.00800           0
     74675 TIP3     17431    TIP3     H2       HT       0.417000       1.00800           0
     74676 TIP3     17432    TIP3     OH2      OT      -0.834000       15.9994           0
     74677 TIP3     17432    TIP3     H1       HT       0.417000       1.00800           0
     74678 TIP3     17432    TIP3     H2       HT       0.417000       1.00800           0
     74679 TIP3     17433    TIP3     OH2      OT      -0.834000       15.9994           0
     74680 TIP3     17433    TIP3     H1       HT       0.417000       1.00800           0
     74681 TIP3     17433    TIP3     H2       HT       0.417000       1.00800           0
     74682 TIP3     17434    TIP3     OH2      OT      -0.834000       15.9994           0
     74683 TIP3     17434    TIP3     H1       HT       0.417000       1.00800           0
     74684 TIP3     17434    TIP3     H2       HT       0.417000       1.00800           0
     74685 TIP3     17435    TIP3     OH2      OT      -0.834000       15.9994           0
     74686 TIP3     17435    TIP3     H1       HT       0.417000       1.00800           0
     74687 TIP3     17435    TIP3     H2       HT       0.417000       1.00800           0
     74688 TIP3     17436    TIP3     OH2      OT      -0.834000       15.9994           0
     74689 TIP3     17436    TIP3     H1       HT       0.417000       1.00800           0
     74690 TIP3     17436    TIP3     H2       HT       0.417000       1.00800           0
     74691 TIP3     17437    TIP3     OH2      OT      -0.834000       15.9994           0
     74692 TIP3     17437    TIP3     H1       HT       0.417000       1.00800           0
     74693 TIP3     17437    TIP3     H2       HT       0.417000       1.00800           0
     74694 TIP3     17438    TIP3     OH2      OT      -0.834000       15.9994           0
     74695 TIP3     17438    TIP3     H1       HT       0.417000       1.00800           0
     74696 TIP3     17438    TIP3     H2       HT       0.417000       1.00800           0
     74697 TIP3     17439    TIP3     OH2      OT      -0.834000       15.9994           0
     74698 TIP3     17439    TIP3     H1       HT       0.417000       1.00800           0
     74699 TIP3     17439    TIP3     H2       HT       0.417000       1.00800           0
     74700 TIP3     17440    TIP3     OH2      OT      -0.834000       15.9994           0
     74701 TIP3     17440    TIP3     H1       HT       0.417000       1.00800           0
     74702 TIP3     17440    TIP3     H2       HT       0.417000       1.00800           0
     74703 TIP3     17441    TIP3     OH2      OT      -0.834000       15.9994           0
     74704 TIP3     17441    TIP3     H1       HT       0.417000       1.00800           0
     74705 TIP3     17441    TIP3     H2       HT       0.417000       1.00800           0
     74706 TIP3     17442    TIP3     OH2      OT      -0.834000       15.9994           0
     74707 TIP3     17442    TIP3     H1       HT       0.417000       1.00800           0
     74708 TIP3     17442    TIP3     H2       HT       0.417000       1.00800           0
     74709 TIP3     17443    TIP3     OH2      OT      -0.834000       15.9994           0
     74710 TIP3     17443    TIP3     H1       HT       0.417000       1.00800           0
     74711 TIP3     17443    TIP3     H2       HT       0.417000       1.00800           0
     74712 TIP3     17444    TIP3     OH2      OT      -0.834000       15.9994           0
     74713 TIP3     17444    TIP3     H1       HT       0.417000       1.00800           0
     74714 TIP3     17444    TIP3     H2       HT       0.417000       1.00800           0
     74715 TIP3     17445    TIP3     OH2      OT      -0.834000       15.9994           0
     74716 TIP3     17445    TIP3     H1       HT       0.417000       1.00800           0
     74717 TIP3     17445    TIP3     H2       HT       0.417000       1.00800           0
     74718 TIP3     17446    TIP3     OH2      OT      -0.834000       15.9994           0
     74719 TIP3     17446    TIP3     H1       HT       0.417000       1.00800           0
     74720 TIP3     17446    TIP3     H2       HT       0.417000       1.00800           0
     74721 TIP3     17447    TIP3     OH2      OT      -0.834000       15.9994           0
     74722 TIP3     17447    TIP3     H1       HT       0.417000       1.00800           0
     74723 TIP3     17447    TIP3     H2       HT       0.417000       1.00800           0
     74724 TIP3     17448    TIP3     OH2      OT      -0.834000       15.9994           0
     74725 TIP3     17448    TIP3     H1       HT       0.417000       1.00800           0
     74726 TIP3     17448    TIP3     H2       HT       0.417000       1.00800           0
     74727 TIP3     17449    TIP3     OH2      OT      -0.834000       15.9994           0
     74728 TIP3     17449    TIP3     H1       HT       0.417000       1.00800           0
     74729 TIP3     17449    TIP3     H2       HT       0.417000       1.00800           0
     74730 TIP3     17450    TIP3     OH2      OT      -0.834000       15.9994           0
     74731 TIP3     17450    TIP3     H1       HT       0.417000       1.00800           0
     74732 TIP3     17450    TIP3     H2       HT       0.417000       1.00800           0
     74733 TIP3     17451    TIP3     OH2      OT      -0.834000       15.9994           0
     74734 TIP3     17451    TIP3     H1       HT       0.417000       1.00800           0
     74735 TIP3     17451    TIP3     H2       HT       0.417000       1.00800           0
     74736 TIP3     17452    TIP3     OH2      OT      -0.834000       15.9994           0
     74737 TIP3     17452    TIP3     H1       HT       0.417000       1.00800           0
     74738 TIP3     17452    TIP3     H2       HT       0.417000       1.00800           0
     74739 TIP3     17453    TIP3     OH2      OT      -0.834000       15.9994           0
     74740 TIP3     17453    TIP3     H1       HT       0.417000       1.00800           0
     74741 TIP3     17453    TIP3     H2       HT       0.417000       1.00800           0
     74742 TIP3     17454    TIP3     OH2      OT      -0.834000       15.9994           0
     74743 TIP3     17454    TIP3     H1       HT       0.417000       1.00800           0
     74744 TIP3     17454    TIP3     H2       HT       0.417000       1.00800           0
     74745 TIP3     17455    TIP3     OH2      OT      -0.834000       15.9994           0
     74746 TIP3     17455    TIP3     H1       HT       0.417000       1.00800           0
     74747 TIP3     17455    TIP3     H2       HT       0.417000       1.00800           0
     74748 TIP3     17456    TIP3     OH2      OT      -0.834000       15.9994           0
     74749 TIP3     17456    TIP3     H1       HT       0.417000       1.00800           0
     74750 TIP3     17456    TIP3     H2       HT       0.417000       1.00800           0
     74751 TIP3     17457    TIP3     OH2      OT      -0.834000       15.9994           0
     74752 TIP3     17457    TIP3     H1       HT       0.417000       1.00800           0
     74753 TIP3     17457    TIP3     H2       HT       0.417000       1.00800           0
     74754 TIP3     17458    TIP3     OH2      OT      -0.834000       15.9994           0
     74755 TIP3     17458    TIP3     H1       HT       0.417000       1.00800           0
     74756 TIP3     17458    TIP3     H2       HT       0.417000       1.00800           0
     74757 TIP3     17459    TIP3     OH2      OT      -0.834000       15.9994           0
     74758 TIP3     17459    TIP3     H1       HT       0.417000       1.00800           0
     74759 TIP3     17459    TIP3     H2       HT       0.417000       1.00800           0
     74760 TIP3     17460    TIP3     OH2      OT      -0.834000       15.9994           0
     74761 TIP3     17460    TIP3     H1       HT       0.417000       1.00800           0
     74762 TIP3     17460    TIP3     H2       HT       0.417000       1.00800           0
     74763 TIP3     17461    TIP3     OH2      OT      -0.834000       15.9994           0
     74764 TIP3     17461    TIP3     H1       HT       0.417000       1.00800           0
     74765 TIP3     17461    TIP3     H2       HT       0.417000       1.00800           0
     74766 TIP3     17462    TIP3     OH2      OT      -0.834000       15.9994           0
     74767 TIP3     17462    TIP3     H1       HT       0.417000       1.00800           0
     74768 TIP3     17462    TIP3     H2       HT       0.417000       1.00800           0
     74769 TIP3     17463    TIP3     OH2      OT      -0.834000       15.9994           0
     74770 TIP3     17463    TIP3     H1       HT       0.417000       1.00800           0
     74771 TIP3     17463    TIP3     H2       HT       0.417000       1.00800           0
     74772 TIP3     17464    TIP3     OH2      OT      -0.834000       15.9994           0
     74773 TIP3     17464    TIP3     H1       HT       0.417000       1.00800           0
     74774 TIP3     17464    TIP3     H2       HT       0.417000       1.00800           0
     74775 TIP3     17465    TIP3     OH2      OT      -0.834000       15.9994           0
     74776 TIP3     17465    TIP3     H1       HT       0.417000       1.00800           0
     74777 TIP3     17465    TIP3     H2       HT       0.417000       1.00800           0
     74778 TIP3     17466    TIP3     OH2      OT      -0.834000       15.9994           0
     74779 TIP3     17466    TIP3     H1       HT       0.417000       1.00800           0
     74780 TIP3     17466    TIP3     H2       HT       0.417000       1.00800           0
     74781 TIP3     17467    TIP3     OH2      OT      -0.834000       15.9994           0
     74782 TIP3     17467    TIP3     H1       HT       0.417000       1.00800           0
     74783 TIP3     17467    TIP3     H2       HT       0.417000       1.00800           0
     74784 TIP3     17468    TIP3     OH2      OT      -0.834000       15.9994           0
     74785 TIP3     17468    TIP3     H1       HT       0.417000       1.00800           0
     74786 TIP3     17468    TIP3     H2       HT       0.417000       1.00800           0
     74787 TIP3     17469    TIP3     OH2      OT      -0.834000       15.9994           0
     74788 TIP3     17469    TIP3     H1       HT       0.417000       1.00800           0
     74789 TIP3     17469    TIP3     H2       HT       0.417000       1.00800           0
     74790 TIP3     17470    TIP3     OH2      OT      -0.834000       15.9994           0
     74791 TIP3     17470    TIP3     H1       HT       0.417000       1.00800           0
     74792 TIP3     17470    TIP3     H2       HT       0.417000       1.00800           0
     74793 TIP3     17471    TIP3     OH2      OT      -0.834000       15.9994           0
     74794 TIP3     17471    TIP3     H1       HT       0.417000       1.00800           0
     74795 TIP3     17471    TIP3     H2       HT       0.417000       1.00800           0
     74796 TIP3     17472    TIP3     OH2      OT      -0.834000       15.9994           0
     74797 TIP3     17472    TIP3     H1       HT       0.417000       1.00800           0
     74798 TIP3     17472    TIP3     H2       HT       0.417000       1.00800           0
     74799 TIP3     17473    TIP3     OH2      OT      -0.834000       15.9994           0
     74800 TIP3     17473    TIP3     H1       HT       0.417000       1.00800           0
     74801 TIP3     17473    TIP3     H2       HT       0.417000       1.00800           0
     74802 TIP3     17474    TIP3     OH2      OT      -0.834000       15.9994           0
     74803 TIP3     17474    TIP3     H1       HT       0.417000       1.00800           0
     74804 TIP3     17474    TIP3     H2       HT       0.417000       1.00800           0
     74805 TIP3     17475    TIP3     OH2      OT      -0.834000       15.9994           0
     74806 TIP3     17475    TIP3     H1       HT       0.417000       1.00800           0
     74807 TIP3     17475    TIP3     H2       HT       0.417000       1.00800           0
     74808 TIP3     17476    TIP3     OH2      OT      -0.834000       15.9994           0
     74809 TIP3     17476    TIP3     H1       HT       0.417000       1.00800           0
     74810 TIP3     17476    TIP3     H2       HT       0.417000       1.00800           0
     74811 TIP3     17477    TIP3     OH2      OT      -0.834000       15.9994           0
     74812 TIP3     17477    TIP3     H1       HT       0.417000       1.00800           0
     74813 TIP3     17477    TIP3     H2       HT       0.417000       1.00800           0
     74814 TIP3     17478    TIP3     OH2      OT      -0.834000       15.9994           0
     74815 TIP3     17478    TIP3     H1       HT       0.417000       1.00800           0
     74816 TIP3     17478    TIP3     H2       HT       0.417000       1.00800           0
     74817 TIP3     17479    TIP3     OH2      OT      -0.834000       15.9994           0
     74818 TIP3     17479    TIP3     H1       HT       0.417000       1.00800           0
     74819 TIP3     17479    TIP3     H2       HT       0.417000       1.00800           0
     74820 TIP3     17480    TIP3     OH2      OT      -0.834000       15.9994           0
     74821 TIP3     17480    TIP3     H1       HT       0.417000       1.00800           0
     74822 TIP3     17480    TIP3     H2       HT       0.417000       1.00800           0
     74823 TIP3     17481    TIP3     OH2      OT      -0.834000       15.9994           0
     74824 TIP3     17481    TIP3     H1       HT       0.417000       1.00800           0
     74825 TIP3     17481    TIP3     H2       HT       0.417000       1.00800           0
     74826 TIP3     17482    TIP3     OH2      OT      -0.834000       15.9994           0
     74827 TIP3     17482    TIP3     H1       HT       0.417000       1.00800           0
     74828 TIP3     17482    TIP3     H2       HT       0.417000       1.00800           0
     74829 TIP3     17483    TIP3     OH2      OT      -0.834000       15.9994           0
     74830 TIP3     17483    TIP3     H1       HT       0.417000       1.00800           0
     74831 TIP3     17483    TIP3     H2       HT       0.417000       1.00800           0
     74832 TIP3     17484    TIP3     OH2      OT      -0.834000       15.9994           0
     74833 TIP3     17484    TIP3     H1       HT       0.417000       1.00800           0
     74834 TIP3     17484    TIP3     H2       HT       0.417000       1.00800           0
     74835 TIP3     17485    TIP3     OH2      OT      -0.834000       15.9994           0
     74836 TIP3     17485    TIP3     H1       HT       0.417000       1.00800           0
     74837 TIP3     17485    TIP3     H2       HT       0.417000       1.00800           0
     74838 TIP3     17486    TIP3     OH2      OT      -0.834000       15.9994           0
     74839 TIP3     17486    TIP3     H1       HT       0.417000       1.00800           0
     74840 TIP3     17486    TIP3     H2       HT       0.417000       1.00800           0
     74841 TIP3     17487    TIP3     OH2      OT      -0.834000       15.9994           0
     74842 TIP3     17487    TIP3     H1       HT       0.417000       1.00800           0
     74843 TIP3     17487    TIP3     H2       HT       0.417000       1.00800           0
     74844 TIP3     17488    TIP3     OH2      OT      -0.834000       15.9994           0
     74845 TIP3     17488    TIP3     H1       HT       0.417000       1.00800           0
     74846 TIP3     17488    TIP3     H2       HT       0.417000       1.00800           0
     74847 TIP3     17489    TIP3     OH2      OT      -0.834000       15.9994           0
     74848 TIP3     17489    TIP3     H1       HT       0.417000       1.00800           0
     74849 TIP3     17489    TIP3     H2       HT       0.417000       1.00800           0
     74850 TIP3     17490    TIP3     OH2      OT      -0.834000       15.9994           0
     74851 TIP3     17490    TIP3     H1       HT       0.417000       1.00800           0
     74852 TIP3     17490    TIP3     H2       HT       0.417000       1.00800           0
     74853 TIP3     17491    TIP3     OH2      OT      -0.834000       15.9994           0
     74854 TIP3     17491    TIP3     H1       HT       0.417000       1.00800           0
     74855 TIP3     17491    TIP3     H2       HT       0.417000       1.00800           0
     74856 TIP3     17492    TIP3     OH2      OT      -0.834000       15.9994           0
     74857 TIP3     17492    TIP3     H1       HT       0.417000       1.00800           0
     74858 TIP3     17492    TIP3     H2       HT       0.417000       1.00800           0
     74859 TIP3     17493    TIP3     OH2      OT      -0.834000       15.9994           0
     74860 TIP3     17493    TIP3     H1       HT       0.417000       1.00800           0
     74861 TIP3     17493    TIP3     H2       HT       0.417000       1.00800           0
     74862 TIP3     17494    TIP3     OH2      OT      -0.834000       15.9994           0
     74863 TIP3     17494    TIP3     H1       HT       0.417000       1.00800           0
     74864 TIP3     17494    TIP3     H2       HT       0.417000       1.00800           0
     74865 TIP3     17495    TIP3     OH2      OT      -0.834000       15.9994           0
     74866 TIP3     17495    TIP3     H1       HT       0.417000       1.00800           0
     74867 TIP3     17495    TIP3     H2       HT       0.417000       1.00800           0
     74868 TIP3     17496    TIP3     OH2      OT      -0.834000       15.9994           0
     74869 TIP3     17496    TIP3     H1       HT       0.417000       1.00800           0
     74870 TIP3     17496    TIP3     H2       HT       0.417000       1.00800           0
     74871 TIP3     17497    TIP3     OH2      OT      -0.834000       15.9994           0
     74872 TIP3     17497    TIP3     H1       HT       0.417000       1.00800           0
     74873 TIP3     17497    TIP3     H2       HT       0.417000       1.00800           0
     74874 TIP3     17498    TIP3     OH2      OT      -0.834000       15.9994           0
     74875 TIP3     17498    TIP3     H1       HT       0.417000       1.00800           0
     74876 TIP3     17498    TIP3     H2       HT       0.417000       1.00800           0
     74877 TIP3     17499    TIP3     OH2      OT      -0.834000       15.9994           0
     74878 TIP3     17499    TIP3     H1       HT       0.417000       1.00800           0
     74879 TIP3     17499    TIP3     H2       HT       0.417000       1.00800           0
     74880 TIP3     17500    TIP3     OH2      OT      -0.834000       15.9994           0
     74881 TIP3     17500    TIP3     H1       HT       0.417000       1.00800           0
     74882 TIP3     17500    TIP3     H2       HT       0.417000       1.00800           0
     74883 TIP3     17501    TIP3     OH2      OT      -0.834000       15.9994           0
     74884 TIP3     17501    TIP3     H1       HT       0.417000       1.00800           0
     74885 TIP3     17501    TIP3     H2       HT       0.417000       1.00800           0
     74886 TIP3     17502    TIP3     OH2      OT      -0.834000       15.9994           0
     74887 TIP3     17502    TIP3     H1       HT       0.417000       1.00800           0
     74888 TIP3     17502    TIP3     H2       HT       0.417000       1.00800           0
     74889 TIP3     17503    TIP3     OH2      OT      -0.834000       15.9994           0
     74890 TIP3     17503    TIP3     H1       HT       0.417000       1.00800           0
     74891 TIP3     17503    TIP3     H2       HT       0.417000       1.00800           0
     74892 TIP3     17504    TIP3     OH2      OT      -0.834000       15.9994           0
     74893 TIP3     17504    TIP3     H1       HT       0.417000       1.00800           0
     74894 TIP3     17504    TIP3     H2       HT       0.417000       1.00800           0
     74895 TIP3     17505    TIP3     OH2      OT      -0.834000       15.9994           0
     74896 TIP3     17505    TIP3     H1       HT       0.417000       1.00800           0
     74897 TIP3     17505    TIP3     H2       HT       0.417000       1.00800           0
     74898 TIP3     17506    TIP3     OH2      OT      -0.834000       15.9994           0
     74899 TIP3     17506    TIP3     H1       HT       0.417000       1.00800           0
     74900 TIP3     17506    TIP3     H2       HT       0.417000       1.00800           0
     74901 TIP3     17507    TIP3     OH2      OT      -0.834000       15.9994           0
     74902 TIP3     17507    TIP3     H1       HT       0.417000       1.00800           0
     74903 TIP3     17507    TIP3     H2       HT       0.417000       1.00800           0
     74904 TIP3     17508    TIP3     OH2      OT      -0.834000       15.9994           0
     74905 TIP3     17508    TIP3     H1       HT       0.417000       1.00800           0
     74906 TIP3     17508    TIP3     H2       HT       0.417000       1.00800           0
     74907 TIP3     17509    TIP3     OH2      OT      -0.834000       15.9994           0
     74908 TIP3     17509    TIP3     H1       HT       0.417000       1.00800           0
     74909 TIP3     17509    TIP3     H2       HT       0.417000       1.00800           0
     74910 TIP3     17510    TIP3     OH2      OT      -0.834000       15.9994           0
     74911 TIP3     17510    TIP3     H1       HT       0.417000       1.00800           0
     74912 TIP3     17510    TIP3     H2       HT       0.417000       1.00800           0
     74913 TIP3     17511    TIP3     OH2      OT      -0.834000       15.9994           0
     74914 TIP3     17511    TIP3     H1       HT       0.417000       1.00800           0
     74915 TIP3     17511    TIP3     H2       HT       0.417000       1.00800           0
     74916 TIP3     17512    TIP3     OH2      OT      -0.834000       15.9994           0
     74917 TIP3     17512    TIP3     H1       HT       0.417000       1.00800           0
     74918 TIP3     17512    TIP3     H2       HT       0.417000       1.00800           0
     74919 TIP3     17513    TIP3     OH2      OT      -0.834000       15.9994           0
     74920 TIP3     17513    TIP3     H1       HT       0.417000       1.00800           0
     74921 TIP3     17513    TIP3     H2       HT       0.417000       1.00800           0
     74922 TIP3     17514    TIP3     OH2      OT      -0.834000       15.9994           0
     74923 TIP3     17514    TIP3     H1       HT       0.417000       1.00800           0
     74924 TIP3     17514    TIP3     H2       HT       0.417000       1.00800           0
     74925 TIP3     17515    TIP3     OH2      OT      -0.834000       15.9994           0
     74926 TIP3     17515    TIP3     H1       HT       0.417000       1.00800           0
     74927 TIP3     17515    TIP3     H2       HT       0.417000       1.00800           0
     74928 TIP3     17516    TIP3     OH2      OT      -0.834000       15.9994           0
     74929 TIP3     17516    TIP3     H1       HT       0.417000       1.00800           0
     74930 TIP3     17516    TIP3     H2       HT       0.417000       1.00800           0
     74931 TIP3     17517    TIP3     OH2      OT      -0.834000       15.9994           0
     74932 TIP3     17517    TIP3     H1       HT       0.417000       1.00800           0
     74933 TIP3     17517    TIP3     H2       HT       0.417000       1.00800           0
     74934 TIP3     17518    TIP3     OH2      OT      -0.834000       15.9994           0
     74935 TIP3     17518    TIP3     H1       HT       0.417000       1.00800           0
     74936 TIP3     17518    TIP3     H2       HT       0.417000       1.00800           0
     74937 TIP3     17519    TIP3     OH2      OT      -0.834000       15.9994           0
     74938 TIP3     17519    TIP3     H1       HT       0.417000       1.00800           0
     74939 TIP3     17519    TIP3     H2       HT       0.417000       1.00800           0
     74940 TIP3     17520    TIP3     OH2      OT      -0.834000       15.9994           0
     74941 TIP3     17520    TIP3     H1       HT       0.417000       1.00800           0
     74942 TIP3     17520    TIP3     H2       HT       0.417000       1.00800           0
     74943 TIP3     17521    TIP3     OH2      OT      -0.834000       15.9994           0
     74944 TIP3     17521    TIP3     H1       HT       0.417000       1.00800           0
     74945 TIP3     17521    TIP3     H2       HT       0.417000       1.00800           0
     74946 TIP3     17522    TIP3     OH2      OT      -0.834000       15.9994           0
     74947 TIP3     17522    TIP3     H1       HT       0.417000       1.00800           0
     74948 TIP3     17522    TIP3     H2       HT       0.417000       1.00800           0
     74949 TIP3     17523    TIP3     OH2      OT      -0.834000       15.9994           0
     74950 TIP3     17523    TIP3     H1       HT       0.417000       1.00800           0
     74951 TIP3     17523    TIP3     H2       HT       0.417000       1.00800           0
     74952 TIP3     17524    TIP3     OH2      OT      -0.834000       15.9994           0
     74953 TIP3     17524    TIP3     H1       HT       0.417000       1.00800           0
     74954 TIP3     17524    TIP3     H2       HT       0.417000       1.00800           0
     74955 TIP3     17525    TIP3     OH2      OT      -0.834000       15.9994           0
     74956 TIP3     17525    TIP3     H1       HT       0.417000       1.00800           0
     74957 TIP3     17525    TIP3     H2       HT       0.417000       1.00800           0
     74958 TIP3     17526    TIP3     OH2      OT      -0.834000       15.9994           0
     74959 TIP3     17526    TIP3     H1       HT       0.417000       1.00800           0
     74960 TIP3     17526    TIP3     H2       HT       0.417000       1.00800           0
     74961 TIP3     17527    TIP3     OH2      OT      -0.834000       15.9994           0
     74962 TIP3     17527    TIP3     H1       HT       0.417000       1.00800           0
     74963 TIP3     17527    TIP3     H2       HT       0.417000       1.00800           0
     74964 TIP3     17528    TIP3     OH2      OT      -0.834000       15.9994           0
     74965 TIP3     17528    TIP3     H1       HT       0.417000       1.00800           0
     74966 TIP3     17528    TIP3     H2       HT       0.417000       1.00800           0
     74967 TIP3     17529    TIP3     OH2      OT      -0.834000       15.9994           0
     74968 TIP3     17529    TIP3     H1       HT       0.417000       1.00800           0
     74969 TIP3     17529    TIP3     H2       HT       0.417000       1.00800           0
     74970 TIP3     17530    TIP3     OH2      OT      -0.834000       15.9994           0
     74971 TIP3     17530    TIP3     H1       HT       0.417000       1.00800           0
     74972 TIP3     17530    TIP3     H2       HT       0.417000       1.00800           0
     74973 TIP3     17531    TIP3     OH2      OT      -0.834000       15.9994           0
     74974 TIP3     17531    TIP3     H1       HT       0.417000       1.00800           0
     74975 TIP3     17531    TIP3     H2       HT       0.417000       1.00800           0
     74976 TIP3     17532    TIP3     OH2      OT      -0.834000       15.9994           0
     74977 TIP3     17532    TIP3     H1       HT       0.417000       1.00800           0
     74978 TIP3     17532    TIP3     H2       HT       0.417000       1.00800           0
     74979 TIP3     17533    TIP3     OH2      OT      -0.834000       15.9994           0
     74980 TIP3     17533    TIP3     H1       HT       0.417000       1.00800           0
     74981 TIP3     17533    TIP3     H2       HT       0.417000       1.00800           0
     74982 TIP3     17534    TIP3     OH2      OT      -0.834000       15.9994           0
     74983 TIP3     17534    TIP3     H1       HT       0.417000       1.00800           0
     74984 TIP3     17534    TIP3     H2       HT       0.417000       1.00800           0
     74985 TIP3     17535    TIP3     OH2      OT      -0.834000       15.9994           0
     74986 TIP3     17535    TIP3     H1       HT       0.417000       1.00800           0
     74987 TIP3     17535    TIP3     H2       HT       0.417000       1.00800           0
     74988 TIP3     17536    TIP3     OH2      OT      -0.834000       15.9994           0
     74989 TIP3     17536    TIP3     H1       HT       0.417000       1.00800           0
     74990 TIP3     17536    TIP3     H2       HT       0.417000       1.00800           0
     74991 TIP3     17537    TIP3     OH2      OT      -0.834000       15.9994           0
     74992 TIP3     17537    TIP3     H1       HT       0.417000       1.00800           0
     74993 TIP3     17537    TIP3     H2       HT       0.417000       1.00800           0
     74994 TIP3     17538    TIP3     OH2      OT      -0.834000       15.9994           0
     74995 TIP3     17538    TIP3     H1       HT       0.417000       1.00800           0
     74996 TIP3     17538    TIP3     H2       HT       0.417000       1.00800           0
     74997 TIP3     17539    TIP3     OH2      OT      -0.834000       15.9994           0
     74998 TIP3     17539    TIP3     H1       HT       0.417000       1.00800           0
     74999 TIP3     17539    TIP3     H2       HT       0.417000       1.00800           0
     75000 TIP3     17540    TIP3     OH2      OT      -0.834000       15.9994           0
     75001 TIP3     17540    TIP3     H1       HT       0.417000       1.00800           0
     75002 TIP3     17540    TIP3     H2       HT       0.417000       1.00800           0
     75003 TIP3     17541    TIP3     OH2      OT      -0.834000       15.9994           0
     75004 TIP3     17541    TIP3     H1       HT       0.417000       1.00800           0
     75005 TIP3     17541    TIP3     H2       HT       0.417000       1.00800           0
     75006 TIP3     17542    TIP3     OH2      OT      -0.834000       15.9994           0
     75007 TIP3     17542    TIP3     H1       HT       0.417000       1.00800           0
     75008 TIP3     17542    TIP3     H2       HT       0.417000       1.00800           0
     75009 TIP3     17543    TIP3     OH2      OT      -0.834000       15.9994           0
     75010 TIP3     17543    TIP3     H1       HT       0.417000       1.00800           0
     75011 TIP3     17543    TIP3     H2       HT       0.417000       1.00800           0
     75012 TIP3     17544    TIP3     OH2      OT      -0.834000       15.9994           0
     75013 TIP3     17544    TIP3     H1       HT       0.417000       1.00800           0
     75014 TIP3     17544    TIP3     H2       HT       0.417000       1.00800           0
     75015 TIP3     17545    TIP3     OH2      OT      -0.834000       15.9994           0
     75016 TIP3     17545    TIP3     H1       HT       0.417000       1.00800           0
     75017 TIP3     17545    TIP3     H2       HT       0.417000       1.00800           0
     75018 TIP3     17546    TIP3     OH2      OT      -0.834000       15.9994           0
     75019 TIP3     17546    TIP3     H1       HT       0.417000       1.00800           0
     75020 TIP3     17546    TIP3     H2       HT       0.417000       1.00800           0
     75021 TIP3     17547    TIP3     OH2      OT      -0.834000       15.9994           0
     75022 TIP3     17547    TIP3     H1       HT       0.417000       1.00800           0
     75023 TIP3     17547    TIP3     H2       HT       0.417000       1.00800           0
     75024 TIP3     17548    TIP3     OH2      OT      -0.834000       15.9994           0
     75025 TIP3     17548    TIP3     H1       HT       0.417000       1.00800           0
     75026 TIP3     17548    TIP3     H2       HT       0.417000       1.00800           0
     75027 TIP3     17549    TIP3     OH2      OT      -0.834000       15.9994           0
     75028 TIP3     17549    TIP3     H1       HT       0.417000       1.00800           0
     75029 TIP3     17549    TIP3     H2       HT       0.417000       1.00800           0
     75030 TIP3     17550    TIP3     OH2      OT      -0.834000       15.9994           0
     75031 TIP3     17550    TIP3     H1       HT       0.417000       1.00800           0
     75032 TIP3     17550    TIP3     H2       HT       0.417000       1.00800           0
     75033 TIP3     17551    TIP3     OH2      OT      -0.834000       15.9994           0
     75034 TIP3     17551    TIP3     H1       HT       0.417000       1.00800           0
     75035 TIP3     17551    TIP3     H2       HT       0.417000       1.00800           0
     75036 TIP3     17552    TIP3     OH2      OT      -0.834000       15.9994           0
     75037 TIP3     17552    TIP3     H1       HT       0.417000       1.00800           0
     75038 TIP3     17552    TIP3     H2       HT       0.417000       1.00800           0
     75039 TIP3     17553    TIP3     OH2      OT      -0.834000       15.9994           0
     75040 TIP3     17553    TIP3     H1       HT       0.417000       1.00800           0
     75041 TIP3     17553    TIP3     H2       HT       0.417000       1.00800           0
     75042 TIP3     17554    TIP3     OH2      OT      -0.834000       15.9994           0
     75043 TIP3     17554    TIP3     H1       HT       0.417000       1.00800           0
     75044 TIP3     17554    TIP3     H2       HT       0.417000       1.00800           0
     75045 TIP3     17555    TIP3     OH2      OT      -0.834000       15.9994           0
     75046 TIP3     17555    TIP3     H1       HT       0.417000       1.00800           0
     75047 TIP3     17555    TIP3     H2       HT       0.417000       1.00800           0
     75048 TIP3     17556    TIP3     OH2      OT      -0.834000       15.9994           0
     75049 TIP3     17556    TIP3     H1       HT       0.417000       1.00800           0
     75050 TIP3     17556    TIP3     H2       HT       0.417000       1.00800           0
     75051 TIP3     17557    TIP3     OH2      OT      -0.834000       15.9994           0
     75052 TIP3     17557    TIP3     H1       HT       0.417000       1.00800           0
     75053 TIP3     17557    TIP3     H2       HT       0.417000       1.00800           0
     75054 TIP3     17558    TIP3     OH2      OT      -0.834000       15.9994           0
     75055 TIP3     17558    TIP3     H1       HT       0.417000       1.00800           0
     75056 TIP3     17558    TIP3     H2       HT       0.417000       1.00800           0
     75057 TIP3     17559    TIP3     OH2      OT      -0.834000       15.9994           0
     75058 TIP3     17559    TIP3     H1       HT       0.417000       1.00800           0
     75059 TIP3     17559    TIP3     H2       HT       0.417000       1.00800           0
     75060 TIP3     17560    TIP3     OH2      OT      -0.834000       15.9994           0
     75061 TIP3     17560    TIP3     H1       HT       0.417000       1.00800           0
     75062 TIP3     17560    TIP3     H2       HT       0.417000       1.00800           0
     75063 TIP3     17561    TIP3     OH2      OT      -0.834000       15.9994           0
     75064 TIP3     17561    TIP3     H1       HT       0.417000       1.00800           0
     75065 TIP3     17561    TIP3     H2       HT       0.417000       1.00800           0
     75066 TIP3     17562    TIP3     OH2      OT      -0.834000       15.9994           0
     75067 TIP3     17562    TIP3     H1       HT       0.417000       1.00800           0
     75068 TIP3     17562    TIP3     H2       HT       0.417000       1.00800           0
     75069 TIP3     17563    TIP3     OH2      OT      -0.834000       15.9994           0
     75070 TIP3     17563    TIP3     H1       HT       0.417000       1.00800           0
     75071 TIP3     17563    TIP3     H2       HT       0.417000       1.00800           0
     75072 TIP3     17564    TIP3     OH2      OT      -0.834000       15.9994           0
     75073 TIP3     17564    TIP3     H1       HT       0.417000       1.00800           0
     75074 TIP3     17564    TIP3     H2       HT       0.417000       1.00800           0
     75075 TIP3     17565    TIP3     OH2      OT      -0.834000       15.9994           0
     75076 TIP3     17565    TIP3     H1       HT       0.417000       1.00800           0
     75077 TIP3     17565    TIP3     H2       HT       0.417000       1.00800           0
     75078 TIP3     17566    TIP3     OH2      OT      -0.834000       15.9994           0
     75079 TIP3     17566    TIP3     H1       HT       0.417000       1.00800           0
     75080 TIP3     17566    TIP3     H2       HT       0.417000       1.00800           0
     75081 TIP3     17567    TIP3     OH2      OT      -0.834000       15.9994           0
     75082 TIP3     17567    TIP3     H1       HT       0.417000       1.00800           0
     75083 TIP3     17567    TIP3     H2       HT       0.417000       1.00800           0
     75084 TIP3     17568    TIP3     OH2      OT      -0.834000       15.9994           0
     75085 TIP3     17568    TIP3     H1       HT       0.417000       1.00800           0
     75086 TIP3     17568    TIP3     H2       HT       0.417000       1.00800           0
     75087 TIP3     17569    TIP3     OH2      OT      -0.834000       15.9994           0
     75088 TIP3     17569    TIP3     H1       HT       0.417000       1.00800           0
     75089 TIP3     17569    TIP3     H2       HT       0.417000       1.00800           0
     75090 TIP3     17570    TIP3     OH2      OT      -0.834000       15.9994           0
     75091 TIP3     17570    TIP3     H1       HT       0.417000       1.00800           0
     75092 TIP3     17570    TIP3     H2       HT       0.417000       1.00800           0
     75093 TIP3     17571    TIP3     OH2      OT      -0.834000       15.9994           0
     75094 TIP3     17571    TIP3     H1       HT       0.417000       1.00800           0
     75095 TIP3     17571    TIP3     H2       HT       0.417000       1.00800           0
     75096 TIP3     17572    TIP3     OH2      OT      -0.834000       15.9994           0
     75097 TIP3     17572    TIP3     H1       HT       0.417000       1.00800           0
     75098 TIP3     17572    TIP3     H2       HT       0.417000       1.00800           0
     75099 TIP3     17573    TIP3     OH2      OT      -0.834000       15.9994           0
     75100 TIP3     17573    TIP3     H1       HT       0.417000       1.00800           0
     75101 TIP3     17573    TIP3     H2       HT       0.417000       1.00800           0
     75102 TIP3     17574    TIP3     OH2      OT      -0.834000       15.9994           0
     75103 TIP3     17574    TIP3     H1       HT       0.417000       1.00800           0
     75104 TIP3     17574    TIP3     H2       HT       0.417000       1.00800           0
     75105 TIP3     17575    TIP3     OH2      OT      -0.834000       15.9994           0
     75106 TIP3     17575    TIP3     H1       HT       0.417000       1.00800           0
     75107 TIP3     17575    TIP3     H2       HT       0.417000       1.00800           0
     75108 TIP3     17576    TIP3     OH2      OT      -0.834000       15.9994           0
     75109 TIP3     17576    TIP3     H1       HT       0.417000       1.00800           0
     75110 TIP3     17576    TIP3     H2       HT       0.417000       1.00800           0
     75111 TIP3     17577    TIP3     OH2      OT      -0.834000       15.9994           0
     75112 TIP3     17577    TIP3     H1       HT       0.417000       1.00800           0
     75113 TIP3     17577    TIP3     H2       HT       0.417000       1.00800           0
     75114 TIP3     17578    TIP3     OH2      OT      -0.834000       15.9994           0
     75115 TIP3     17578    TIP3     H1       HT       0.417000       1.00800           0
     75116 TIP3     17578    TIP3     H2       HT       0.417000       1.00800           0
     75117 TIP3     17579    TIP3     OH2      OT      -0.834000       15.9994           0
     75118 TIP3     17579    TIP3     H1       HT       0.417000       1.00800           0
     75119 TIP3     17579    TIP3     H2       HT       0.417000       1.00800           0
     75120 TIP3     17580    TIP3     OH2      OT      -0.834000       15.9994           0
     75121 TIP3     17580    TIP3     H1       HT       0.417000       1.00800           0
     75122 TIP3     17580    TIP3     H2       HT       0.417000       1.00800           0
     75123 TIP3     17581    TIP3     OH2      OT      -0.834000       15.9994           0
     75124 TIP3     17581    TIP3     H1       HT       0.417000       1.00800           0
     75125 TIP3     17581    TIP3     H2       HT       0.417000       1.00800           0
     75126 TIP3     17582    TIP3     OH2      OT      -0.834000       15.9994           0
     75127 TIP3     17582    TIP3     H1       HT       0.417000       1.00800           0
     75128 TIP3     17582    TIP3     H2       HT       0.417000       1.00800           0
     75129 TIP3     17583    TIP3     OH2      OT      -0.834000       15.9994           0
     75130 TIP3     17583    TIP3     H1       HT       0.417000       1.00800           0
     75131 TIP3     17583    TIP3     H2       HT       0.417000       1.00800           0
     75132 TIP3     17584    TIP3     OH2      OT      -0.834000       15.9994           0
     75133 TIP3     17584    TIP3     H1       HT       0.417000       1.00800           0
     75134 TIP3     17584    TIP3     H2       HT       0.417000       1.00800           0
     75135 TIP3     17585    TIP3     OH2      OT      -0.834000       15.9994           0
     75136 TIP3     17585    TIP3     H1       HT       0.417000       1.00800           0
     75137 TIP3     17585    TIP3     H2       HT       0.417000       1.00800           0
     75138 TIP3     17586    TIP3     OH2      OT      -0.834000       15.9994           0
     75139 TIP3     17586    TIP3     H1       HT       0.417000       1.00800           0
     75140 TIP3     17586    TIP3     H2       HT       0.417000       1.00800           0
     75141 TIP3     17587    TIP3     OH2      OT      -0.834000       15.9994           0
     75142 TIP3     17587    TIP3     H1       HT       0.417000       1.00800           0
     75143 TIP3     17587    TIP3     H2       HT       0.417000       1.00800           0
     75144 TIP3     17588    TIP3     OH2      OT      -0.834000       15.9994           0
     75145 TIP3     17588    TIP3     H1       HT       0.417000       1.00800           0
     75146 TIP3     17588    TIP3     H2       HT       0.417000       1.00800           0
     75147 TIP3     17589    TIP3     OH2      OT      -0.834000       15.9994           0
     75148 TIP3     17589    TIP3     H1       HT       0.417000       1.00800           0
     75149 TIP3     17589    TIP3     H2       HT       0.417000       1.00800           0
     75150 TIP3     17590    TIP3     OH2      OT      -0.834000       15.9994           0
     75151 TIP3     17590    TIP3     H1       HT       0.417000       1.00800           0
     75152 TIP3     17590    TIP3     H2       HT       0.417000       1.00800           0
     75153 TIP3     17591    TIP3     OH2      OT      -0.834000       15.9994           0
     75154 TIP3     17591    TIP3     H1       HT       0.417000       1.00800           0
     75155 TIP3     17591    TIP3     H2       HT       0.417000       1.00800           0
     75156 TIP3     17592    TIP3     OH2      OT      -0.834000       15.9994           0
     75157 TIP3     17592    TIP3     H1       HT       0.417000       1.00800           0
     75158 TIP3     17592    TIP3     H2       HT       0.417000       1.00800           0
     75159 TIP3     17593    TIP3     OH2      OT      -0.834000       15.9994           0
     75160 TIP3     17593    TIP3     H1       HT       0.417000       1.00800           0
     75161 TIP3     17593    TIP3     H2       HT       0.417000       1.00800           0
     75162 TIP3     17594    TIP3     OH2      OT      -0.834000       15.9994           0
     75163 TIP3     17594    TIP3     H1       HT       0.417000       1.00800           0
     75164 TIP3     17594    TIP3     H2       HT       0.417000       1.00800           0
     75165 TIP3     17595    TIP3     OH2      OT      -0.834000       15.9994           0
     75166 TIP3     17595    TIP3     H1       HT       0.417000       1.00800           0
     75167 TIP3     17595    TIP3     H2       HT       0.417000       1.00800           0
     75168 TIP3     17596    TIP3     OH2      OT      -0.834000       15.9994           0
     75169 TIP3     17596    TIP3     H1       HT       0.417000       1.00800           0
     75170 TIP3     17596    TIP3     H2       HT       0.417000       1.00800           0
     75171 TIP3     17597    TIP3     OH2      OT      -0.834000       15.9994           0
     75172 TIP3     17597    TIP3     H1       HT       0.417000       1.00800           0
     75173 TIP3     17597    TIP3     H2       HT       0.417000       1.00800           0
     75174 TIP3     17598    TIP3     OH2      OT      -0.834000       15.9994           0
     75175 TIP3     17598    TIP3     H1       HT       0.417000       1.00800           0
     75176 TIP3     17598    TIP3     H2       HT       0.417000       1.00800           0
     75177 TIP3     17599    TIP3     OH2      OT      -0.834000       15.9994           0
     75178 TIP3     17599    TIP3     H1       HT       0.417000       1.00800           0
     75179 TIP3     17599    TIP3     H2       HT       0.417000       1.00800           0
     75180 TIP3     17600    TIP3     OH2      OT      -0.834000       15.9994           0
     75181 TIP3     17600    TIP3     H1       HT       0.417000       1.00800           0
     75182 TIP3     17600    TIP3     H2       HT       0.417000       1.00800           0
     75183 TIP3     17601    TIP3     OH2      OT      -0.834000       15.9994           0
     75184 TIP3     17601    TIP3     H1       HT       0.417000       1.00800           0
     75185 TIP3     17601    TIP3     H2       HT       0.417000       1.00800           0
     75186 TIP3     17602    TIP3     OH2      OT      -0.834000       15.9994           0
     75187 TIP3     17602    TIP3     H1       HT       0.417000       1.00800           0
     75188 TIP3     17602    TIP3     H2       HT       0.417000       1.00800           0
     75189 TIP3     17603    TIP3     OH2      OT      -0.834000       15.9994           0
     75190 TIP3     17603    TIP3     H1       HT       0.417000       1.00800           0
     75191 TIP3     17603    TIP3     H2       HT       0.417000       1.00800           0
     75192 TIP3     17604    TIP3     OH2      OT      -0.834000       15.9994           0
     75193 TIP3     17604    TIP3     H1       HT       0.417000       1.00800           0
     75194 TIP3     17604    TIP3     H2       HT       0.417000       1.00800           0
     75195 TIP3     17605    TIP3     OH2      OT      -0.834000       15.9994           0
     75196 TIP3     17605    TIP3     H1       HT       0.417000       1.00800           0
     75197 TIP3     17605    TIP3     H2       HT       0.417000       1.00800           0
     75198 TIP3     17606    TIP3     OH2      OT      -0.834000       15.9994           0
     75199 TIP3     17606    TIP3     H1       HT       0.417000       1.00800           0
     75200 TIP3     17606    TIP3     H2       HT       0.417000       1.00800           0
     75201 TIP3     17607    TIP3     OH2      OT      -0.834000       15.9994           0
     75202 TIP3     17607    TIP3     H1       HT       0.417000       1.00800           0
     75203 TIP3     17607    TIP3     H2       HT       0.417000       1.00800           0
     75204 TIP3     17608    TIP3     OH2      OT      -0.834000       15.9994           0
     75205 TIP3     17608    TIP3     H1       HT       0.417000       1.00800           0
     75206 TIP3     17608    TIP3     H2       HT       0.417000       1.00800           0
     75207 TIP3     17609    TIP3     OH2      OT      -0.834000       15.9994           0
     75208 TIP3     17609    TIP3     H1       HT       0.417000       1.00800           0
     75209 TIP3     17609    TIP3     H2       HT       0.417000       1.00800           0
     75210 TIP3     17610    TIP3     OH2      OT      -0.834000       15.9994           0
     75211 TIP3     17610    TIP3     H1       HT       0.417000       1.00800           0
     75212 TIP3     17610    TIP3     H2       HT       0.417000       1.00800           0
     75213 TIP3     17611    TIP3     OH2      OT      -0.834000       15.9994           0
     75214 TIP3     17611    TIP3     H1       HT       0.417000       1.00800           0
     75215 TIP3     17611    TIP3     H2       HT       0.417000       1.00800           0
     75216 TIP3     17612    TIP3     OH2      OT      -0.834000       15.9994           0
     75217 TIP3     17612    TIP3     H1       HT       0.417000       1.00800           0
     75218 TIP3     17612    TIP3     H2       HT       0.417000       1.00800           0
     75219 TIP3     17613    TIP3     OH2      OT      -0.834000       15.9994           0
     75220 TIP3     17613    TIP3     H1       HT       0.417000       1.00800           0
     75221 TIP3     17613    TIP3     H2       HT       0.417000       1.00800           0
     75222 TIP3     17614    TIP3     OH2      OT      -0.834000       15.9994           0
     75223 TIP3     17614    TIP3     H1       HT       0.417000       1.00800           0
     75224 TIP3     17614    TIP3     H2       HT       0.417000       1.00800           0
     75225 TIP3     17615    TIP3     OH2      OT      -0.834000       15.9994           0
     75226 TIP3     17615    TIP3     H1       HT       0.417000       1.00800           0
     75227 TIP3     17615    TIP3     H2       HT       0.417000       1.00800           0
     75228 TIP3     17616    TIP3     OH2      OT      -0.834000       15.9994           0
     75229 TIP3     17616    TIP3     H1       HT       0.417000       1.00800           0
     75230 TIP3     17616    TIP3     H2       HT       0.417000       1.00800           0
     75231 TIP3     17617    TIP3     OH2      OT      -0.834000       15.9994           0
     75232 TIP3     17617    TIP3     H1       HT       0.417000       1.00800           0
     75233 TIP3     17617    TIP3     H2       HT       0.417000       1.00800           0
     75234 TIP3     17618    TIP3     OH2      OT      -0.834000       15.9994           0
     75235 TIP3     17618    TIP3     H1       HT       0.417000       1.00800           0
     75236 TIP3     17618    TIP3     H2       HT       0.417000       1.00800           0
     75237 TIP3     17619    TIP3     OH2      OT      -0.834000       15.9994           0
     75238 TIP3     17619    TIP3     H1       HT       0.417000       1.00800           0
     75239 TIP3     17619    TIP3     H2       HT       0.417000       1.00800           0
     75240 TIP3     17620    TIP3     OH2      OT      -0.834000       15.9994           0
     75241 TIP3     17620    TIP3     H1       HT       0.417000       1.00800           0
     75242 TIP3     17620    TIP3     H2       HT       0.417000       1.00800           0
     75243 TIP3     17621    TIP3     OH2      OT      -0.834000       15.9994           0
     75244 TIP3     17621    TIP3     H1       HT       0.417000       1.00800           0
     75245 TIP3     17621    TIP3     H2       HT       0.417000       1.00800           0
     75246 TIP3     17622    TIP3     OH2      OT      -0.834000       15.9994           0
     75247 TIP3     17622    TIP3     H1       HT       0.417000       1.00800           0
     75248 TIP3     17622    TIP3     H2       HT       0.417000       1.00800           0
     75249 TIP3     17623    TIP3     OH2      OT      -0.834000       15.9994           0
     75250 TIP3     17623    TIP3     H1       HT       0.417000       1.00800           0
     75251 TIP3     17623    TIP3     H2       HT       0.417000       1.00800           0
     75252 TIP3     17624    TIP3     OH2      OT      -0.834000       15.9994           0
     75253 TIP3     17624    TIP3     H1       HT       0.417000       1.00800           0
     75254 TIP3     17624    TIP3     H2       HT       0.417000       1.00800           0
     75255 TIP3     17625    TIP3     OH2      OT      -0.834000       15.9994           0
     75256 TIP3     17625    TIP3     H1       HT       0.417000       1.00800           0
     75257 TIP3     17625    TIP3     H2       HT       0.417000       1.00800           0
     75258 TIP3     17626    TIP3     OH2      OT      -0.834000       15.9994           0
     75259 TIP3     17626    TIP3     H1       HT       0.417000       1.00800           0
     75260 TIP3     17626    TIP3     H2       HT       0.417000       1.00800           0
     75261 TIP3     17627    TIP3     OH2      OT      -0.834000       15.9994           0
     75262 TIP3     17627    TIP3     H1       HT       0.417000       1.00800           0
     75263 TIP3     17627    TIP3     H2       HT       0.417000       1.00800           0
     75264 TIP3     17628    TIP3     OH2      OT      -0.834000       15.9994           0
     75265 TIP3     17628    TIP3     H1       HT       0.417000       1.00800           0
     75266 TIP3     17628    TIP3     H2       HT       0.417000       1.00800           0
     75267 TIP3     17629    TIP3     OH2      OT      -0.834000       15.9994           0
     75268 TIP3     17629    TIP3     H1       HT       0.417000       1.00800           0
     75269 TIP3     17629    TIP3     H2       HT       0.417000       1.00800           0
     75270 TIP3     17630    TIP3     OH2      OT      -0.834000       15.9994           0
     75271 TIP3     17630    TIP3     H1       HT       0.417000       1.00800           0
     75272 TIP3     17630    TIP3     H2       HT       0.417000       1.00800           0
     75273 TIP3     17631    TIP3     OH2      OT      -0.834000       15.9994           0
     75274 TIP3     17631    TIP3     H1       HT       0.417000       1.00800           0
     75275 TIP3     17631    TIP3     H2       HT       0.417000       1.00800           0
     75276 TIP3     17632    TIP3     OH2      OT      -0.834000       15.9994           0
     75277 TIP3     17632    TIP3     H1       HT       0.417000       1.00800           0
     75278 TIP3     17632    TIP3     H2       HT       0.417000       1.00800           0
     75279 TIP3     17633    TIP3     OH2      OT      -0.834000       15.9994           0
     75280 TIP3     17633    TIP3     H1       HT       0.417000       1.00800           0
     75281 TIP3     17633    TIP3     H2       HT       0.417000       1.00800           0
     75282 TIP3     17634    TIP3     OH2      OT      -0.834000       15.9994           0
     75283 TIP3     17634    TIP3     H1       HT       0.417000       1.00800           0
     75284 TIP3     17634    TIP3     H2       HT       0.417000       1.00800           0
     75285 TIP3     17635    TIP3     OH2      OT      -0.834000       15.9994           0
     75286 TIP3     17635    TIP3     H1       HT       0.417000       1.00800           0
     75287 TIP3     17635    TIP3     H2       HT       0.417000       1.00800           0
     75288 TIP3     17636    TIP3     OH2      OT      -0.834000       15.9994           0
     75289 TIP3     17636    TIP3     H1       HT       0.417000       1.00800           0
     75290 TIP3     17636    TIP3     H2       HT       0.417000       1.00800           0
     75291 TIP3     17637    TIP3     OH2      OT      -0.834000       15.9994           0
     75292 TIP3     17637    TIP3     H1       HT       0.417000       1.00800           0
     75293 TIP3     17637    TIP3     H2       HT       0.417000       1.00800           0
     75294 TIP3     17638    TIP3     OH2      OT      -0.834000       15.9994           0
     75295 TIP3     17638    TIP3     H1       HT       0.417000       1.00800           0
     75296 TIP3     17638    TIP3     H2       HT       0.417000       1.00800           0
     75297 TIP3     17639    TIP3     OH2      OT      -0.834000       15.9994           0
     75298 TIP3     17639    TIP3     H1       HT       0.417000       1.00800           0
     75299 TIP3     17639    TIP3     H2       HT       0.417000       1.00800           0
     75300 TIP3     17640    TIP3     OH2      OT      -0.834000       15.9994           0
     75301 TIP3     17640    TIP3     H1       HT       0.417000       1.00800           0
     75302 TIP3     17640    TIP3     H2       HT       0.417000       1.00800           0
     75303 TIP3     17641    TIP3     OH2      OT      -0.834000       15.9994           0
     75304 TIP3     17641    TIP3     H1       HT       0.417000       1.00800           0
     75305 TIP3     17641    TIP3     H2       HT       0.417000       1.00800           0
     75306 TIP3     17642    TIP3     OH2      OT      -0.834000       15.9994           0
     75307 TIP3     17642    TIP3     H1       HT       0.417000       1.00800           0
     75308 TIP3     17642    TIP3     H2       HT       0.417000       1.00800           0
     75309 TIP3     17643    TIP3     OH2      OT      -0.834000       15.9994           0
     75310 TIP3     17643    TIP3     H1       HT       0.417000       1.00800           0
     75311 TIP3     17643    TIP3     H2       HT       0.417000       1.00800           0
     75312 TIP3     17644    TIP3     OH2      OT      -0.834000       15.9994           0
     75313 TIP3     17644    TIP3     H1       HT       0.417000       1.00800           0
     75314 TIP3     17644    TIP3     H2       HT       0.417000       1.00800           0
     75315 TIP3     17645    TIP3     OH2      OT      -0.834000       15.9994           0
     75316 TIP3     17645    TIP3     H1       HT       0.417000       1.00800           0
     75317 TIP3     17645    TIP3     H2       HT       0.417000       1.00800           0
     75318 TIP3     17646    TIP3     OH2      OT      -0.834000       15.9994           0
     75319 TIP3     17646    TIP3     H1       HT       0.417000       1.00800           0
     75320 TIP3     17646    TIP3     H2       HT       0.417000       1.00800           0
     75321 TIP3     17647    TIP3     OH2      OT      -0.834000       15.9994           0
     75322 TIP3     17647    TIP3     H1       HT       0.417000       1.00800           0
     75323 TIP3     17647    TIP3     H2       HT       0.417000       1.00800           0
     75324 TIP3     17648    TIP3     OH2      OT      -0.834000       15.9994           0
     75325 TIP3     17648    TIP3     H1       HT       0.417000       1.00800           0
     75326 TIP3     17648    TIP3     H2       HT       0.417000       1.00800           0
     75327 TIP3     17649    TIP3     OH2      OT      -0.834000       15.9994           0
     75328 TIP3     17649    TIP3     H1       HT       0.417000       1.00800           0
     75329 TIP3     17649    TIP3     H2       HT       0.417000       1.00800           0
     75330 TIP3     17650    TIP3     OH2      OT      -0.834000       15.9994           0
     75331 TIP3     17650    TIP3     H1       HT       0.417000       1.00800           0
     75332 TIP3     17650    TIP3     H2       HT       0.417000       1.00800           0
     75333 TIP3     17651    TIP3     OH2      OT      -0.834000       15.9994           0
     75334 TIP3     17651    TIP3     H1       HT       0.417000       1.00800           0
     75335 TIP3     17651    TIP3     H2       HT       0.417000       1.00800           0
     75336 TIP3     17652    TIP3     OH2      OT      -0.834000       15.9994           0
     75337 TIP3     17652    TIP3     H1       HT       0.417000       1.00800           0
     75338 TIP3     17652    TIP3     H2       HT       0.417000       1.00800           0
     75339 TIP3     17653    TIP3     OH2      OT      -0.834000       15.9994           0
     75340 TIP3     17653    TIP3     H1       HT       0.417000       1.00800           0
     75341 TIP3     17653    TIP3     H2       HT       0.417000       1.00800           0
     75342 TIP3     17654    TIP3     OH2      OT      -0.834000       15.9994           0
     75343 TIP3     17654    TIP3     H1       HT       0.417000       1.00800           0
     75344 TIP3     17654    TIP3     H2       HT       0.417000       1.00800           0
     75345 TIP3     17655    TIP3     OH2      OT      -0.834000       15.9994           0
     75346 TIP3     17655    TIP3     H1       HT       0.417000       1.00800           0
     75347 TIP3     17655    TIP3     H2       HT       0.417000       1.00800           0
     75348 TIP3     17656    TIP3     OH2      OT      -0.834000       15.9994           0
     75349 TIP3     17656    TIP3     H1       HT       0.417000       1.00800           0
     75350 TIP3     17656    TIP3     H2       HT       0.417000       1.00800           0
     75351 TIP3     17657    TIP3     OH2      OT      -0.834000       15.9994           0
     75352 TIP3     17657    TIP3     H1       HT       0.417000       1.00800           0
     75353 TIP3     17657    TIP3     H2       HT       0.417000       1.00800           0
     75354 TIP3     17658    TIP3     OH2      OT      -0.834000       15.9994           0
     75355 TIP3     17658    TIP3     H1       HT       0.417000       1.00800           0
     75356 TIP3     17658    TIP3     H2       HT       0.417000       1.00800           0
     75357 TIP3     17659    TIP3     OH2      OT      -0.834000       15.9994           0
     75358 TIP3     17659    TIP3     H1       HT       0.417000       1.00800           0
     75359 TIP3     17659    TIP3     H2       HT       0.417000       1.00800           0
     75360 TIP3     17660    TIP3     OH2      OT      -0.834000       15.9994           0
     75361 TIP3     17660    TIP3     H1       HT       0.417000       1.00800           0
     75362 TIP3     17660    TIP3     H2       HT       0.417000       1.00800           0
     75363 TIP3     17661    TIP3     OH2      OT      -0.834000       15.9994           0
     75364 TIP3     17661    TIP3     H1       HT       0.417000       1.00800           0
     75365 TIP3     17661    TIP3     H2       HT       0.417000       1.00800           0
     75366 TIP3     17662    TIP3     OH2      OT      -0.834000       15.9994           0
     75367 TIP3     17662    TIP3     H1       HT       0.417000       1.00800           0
     75368 TIP3     17662    TIP3     H2       HT       0.417000       1.00800           0
     75369 TIP3     17663    TIP3     OH2      OT      -0.834000       15.9994           0
     75370 TIP3     17663    TIP3     H1       HT       0.417000       1.00800           0
     75371 TIP3     17663    TIP3     H2       HT       0.417000       1.00800           0
     75372 TIP3     17664    TIP3     OH2      OT      -0.834000       15.9994           0
     75373 TIP3     17664    TIP3     H1       HT       0.417000       1.00800           0
     75374 TIP3     17664    TIP3     H2       HT       0.417000       1.00800           0
     75375 TIP3     17665    TIP3     OH2      OT      -0.834000       15.9994           0
     75376 TIP3     17665    TIP3     H1       HT       0.417000       1.00800           0
     75377 TIP3     17665    TIP3     H2       HT       0.417000       1.00800           0
     75378 TIP3     17666    TIP3     OH2      OT      -0.834000       15.9994           0
     75379 TIP3     17666    TIP3     H1       HT       0.417000       1.00800           0
     75380 TIP3     17666    TIP3     H2       HT       0.417000       1.00800           0
     75381 TIP3     17667    TIP3     OH2      OT      -0.834000       15.9994           0
     75382 TIP3     17667    TIP3     H1       HT       0.417000       1.00800           0
     75383 TIP3     17667    TIP3     H2       HT       0.417000       1.00800           0
     75384 TIP3     17668    TIP3     OH2      OT      -0.834000       15.9994           0
     75385 TIP3     17668    TIP3     H1       HT       0.417000       1.00800           0
     75386 TIP3     17668    TIP3     H2       HT       0.417000       1.00800           0
     75387 TIP3     17669    TIP3     OH2      OT      -0.834000       15.9994           0
     75388 TIP3     17669    TIP3     H1       HT       0.417000       1.00800           0
     75389 TIP3     17669    TIP3     H2       HT       0.417000       1.00800           0
     75390 TIP3     17670    TIP3     OH2      OT      -0.834000       15.9994           0
     75391 TIP3     17670    TIP3     H1       HT       0.417000       1.00800           0
     75392 TIP3     17670    TIP3     H2       HT       0.417000       1.00800           0
     75393 TIP3     17671    TIP3     OH2      OT      -0.834000       15.9994           0
     75394 TIP3     17671    TIP3     H1       HT       0.417000       1.00800           0
     75395 TIP3     17671    TIP3     H2       HT       0.417000       1.00800           0
     75396 TIP3     17672    TIP3     OH2      OT      -0.834000       15.9994           0
     75397 TIP3     17672    TIP3     H1       HT       0.417000       1.00800           0
     75398 TIP3     17672    TIP3     H2       HT       0.417000       1.00800           0
     75399 TIP3     17673    TIP3     OH2      OT      -0.834000       15.9994           0
     75400 TIP3     17673    TIP3     H1       HT       0.417000       1.00800           0
     75401 TIP3     17673    TIP3     H2       HT       0.417000       1.00800           0
     75402 TIP3     17674    TIP3     OH2      OT      -0.834000       15.9994           0
     75403 TIP3     17674    TIP3     H1       HT       0.417000       1.00800           0
     75404 TIP3     17674    TIP3     H2       HT       0.417000       1.00800           0
     75405 TIP3     17675    TIP3     OH2      OT      -0.834000       15.9994           0
     75406 TIP3     17675    TIP3     H1       HT       0.417000       1.00800           0
     75407 TIP3     17675    TIP3     H2       HT       0.417000       1.00800           0
     75408 TIP3     17676    TIP3     OH2      OT      -0.834000       15.9994           0
     75409 TIP3     17676    TIP3     H1       HT       0.417000       1.00800           0
     75410 TIP3     17676    TIP3     H2       HT       0.417000       1.00800           0
     75411 TIP3     17677    TIP3     OH2      OT      -0.834000       15.9994           0
     75412 TIP3     17677    TIP3     H1       HT       0.417000       1.00800           0
     75413 TIP3     17677    TIP3     H2       HT       0.417000       1.00800           0
     75414 TIP3     17678    TIP3     OH2      OT      -0.834000       15.9994           0
     75415 TIP3     17678    TIP3     H1       HT       0.417000       1.00800           0
     75416 TIP3     17678    TIP3     H2       HT       0.417000       1.00800           0
     75417 TIP3     17679    TIP3     OH2      OT      -0.834000       15.9994           0
     75418 TIP3     17679    TIP3     H1       HT       0.417000       1.00800           0
     75419 TIP3     17679    TIP3     H2       HT       0.417000       1.00800           0
     75420 TIP3     17680    TIP3     OH2      OT      -0.834000       15.9994           0
     75421 TIP3     17680    TIP3     H1       HT       0.417000       1.00800           0
     75422 TIP3     17680    TIP3     H2       HT       0.417000       1.00800           0
     75423 TIP3     17681    TIP3     OH2      OT      -0.834000       15.9994           0
     75424 TIP3     17681    TIP3     H1       HT       0.417000       1.00800           0
     75425 TIP3     17681    TIP3     H2       HT       0.417000       1.00800           0
     75426 TIP3     17682    TIP3     OH2      OT      -0.834000       15.9994           0
     75427 TIP3     17682    TIP3     H1       HT       0.417000       1.00800           0
     75428 TIP3     17682    TIP3     H2       HT       0.417000       1.00800           0
     75429 TIP3     17683    TIP3     OH2      OT      -0.834000       15.9994           0
     75430 TIP3     17683    TIP3     H1       HT       0.417000       1.00800           0
     75431 TIP3     17683    TIP3     H2       HT       0.417000       1.00800           0
     75432 TIP3     17684    TIP3     OH2      OT      -0.834000       15.9994           0
     75433 TIP3     17684    TIP3     H1       HT       0.417000       1.00800           0
     75434 TIP3     17684    TIP3     H2       HT       0.417000       1.00800           0
     75435 TIP3     17685    TIP3     OH2      OT      -0.834000       15.9994           0
     75436 TIP3     17685    TIP3     H1       HT       0.417000       1.00800           0
     75437 TIP3     17685    TIP3     H2       HT       0.417000       1.00800           0
     75438 TIP3     17686    TIP3     OH2      OT      -0.834000       15.9994           0
     75439 TIP3     17686    TIP3     H1       HT       0.417000       1.00800           0
     75440 TIP3     17686    TIP3     H2       HT       0.417000       1.00800           0
     75441 TIP3     17687    TIP3     OH2      OT      -0.834000       15.9994           0
     75442 TIP3     17687    TIP3     H1       HT       0.417000       1.00800           0
     75443 TIP3     17687    TIP3     H2       HT       0.417000       1.00800           0
     75444 TIP3     17688    TIP3     OH2      OT      -0.834000       15.9994           0
     75445 TIP3     17688    TIP3     H1       HT       0.417000       1.00800           0
     75446 TIP3     17688    TIP3     H2       HT       0.417000       1.00800           0
     75447 TIP3     17689    TIP3     OH2      OT      -0.834000       15.9994           0
     75448 TIP3     17689    TIP3     H1       HT       0.417000       1.00800           0
     75449 TIP3     17689    TIP3     H2       HT       0.417000       1.00800           0
     75450 TIP3     17690    TIP3     OH2      OT      -0.834000       15.9994           0
     75451 TIP3     17690    TIP3     H1       HT       0.417000       1.00800           0
     75452 TIP3     17690    TIP3     H2       HT       0.417000       1.00800           0
     75453 TIP3     17691    TIP3     OH2      OT      -0.834000       15.9994           0
     75454 TIP3     17691    TIP3     H1       HT       0.417000       1.00800           0
     75455 TIP3     17691    TIP3     H2       HT       0.417000       1.00800           0
     75456 TIP3     17692    TIP3     OH2      OT      -0.834000       15.9994           0
     75457 TIP3     17692    TIP3     H1       HT       0.417000       1.00800           0
     75458 TIP3     17692    TIP3     H2       HT       0.417000       1.00800           0
     75459 TIP3     17693    TIP3     OH2      OT      -0.834000       15.9994           0
     75460 TIP3     17693    TIP3     H1       HT       0.417000       1.00800           0
     75461 TIP3     17693    TIP3     H2       HT       0.417000       1.00800           0
     75462 TIP3     17694    TIP3     OH2      OT      -0.834000       15.9994           0
     75463 TIP3     17694    TIP3     H1       HT       0.417000       1.00800           0
     75464 TIP3     17694    TIP3     H2       HT       0.417000       1.00800           0
     75465 TIP3     17695    TIP3     OH2      OT      -0.834000       15.9994           0
     75466 TIP3     17695    TIP3     H1       HT       0.417000       1.00800           0
     75467 TIP3     17695    TIP3     H2       HT       0.417000       1.00800           0
     75468 TIP3     17696    TIP3     OH2      OT      -0.834000       15.9994           0
     75469 TIP3     17696    TIP3     H1       HT       0.417000       1.00800           0
     75470 TIP3     17696    TIP3     H2       HT       0.417000       1.00800           0
     75471 TIP3     17697    TIP3     OH2      OT      -0.834000       15.9994           0
     75472 TIP3     17697    TIP3     H1       HT       0.417000       1.00800           0
     75473 TIP3     17697    TIP3     H2       HT       0.417000       1.00800           0
     75474 TIP3     17698    TIP3     OH2      OT      -0.834000       15.9994           0
     75475 TIP3     17698    TIP3     H1       HT       0.417000       1.00800           0
     75476 TIP3     17698    TIP3     H2       HT       0.417000       1.00800           0
     75477 TIP3     17699    TIP3     OH2      OT      -0.834000       15.9994           0
     75478 TIP3     17699    TIP3     H1       HT       0.417000       1.00800           0
     75479 TIP3     17699    TIP3     H2       HT       0.417000       1.00800           0
     75480 TIP3     17700    TIP3     OH2      OT      -0.834000       15.9994           0
     75481 TIP3     17700    TIP3     H1       HT       0.417000       1.00800           0
     75482 TIP3     17700    TIP3     H2       HT       0.417000       1.00800           0
     75483 TIP3     17701    TIP3     OH2      OT      -0.834000       15.9994           0
     75484 TIP3     17701    TIP3     H1       HT       0.417000       1.00800           0
     75485 TIP3     17701    TIP3     H2       HT       0.417000       1.00800           0
     75486 TIP3     17702    TIP3     OH2      OT      -0.834000       15.9994           0
     75487 TIP3     17702    TIP3     H1       HT       0.417000       1.00800           0
     75488 TIP3     17702    TIP3     H2       HT       0.417000       1.00800           0
     75489 TIP3     17703    TIP3     OH2      OT      -0.834000       15.9994           0
     75490 TIP3     17703    TIP3     H1       HT       0.417000       1.00800           0
     75491 TIP3     17703    TIP3     H2       HT       0.417000       1.00800           0
     75492 TIP3     17704    TIP3     OH2      OT      -0.834000       15.9994           0
     75493 TIP3     17704    TIP3     H1       HT       0.417000       1.00800           0
     75494 TIP3     17704    TIP3     H2       HT       0.417000       1.00800           0
     75495 TIP3     17705    TIP3     OH2      OT      -0.834000       15.9994           0
     75496 TIP3     17705    TIP3     H1       HT       0.417000       1.00800           0
     75497 TIP3     17705    TIP3     H2       HT       0.417000       1.00800           0
     75498 TIP3     17706    TIP3     OH2      OT      -0.834000       15.9994           0
     75499 TIP3     17706    TIP3     H1       HT       0.417000       1.00800           0
     75500 TIP3     17706    TIP3     H2       HT       0.417000       1.00800           0
     75501 TIP3     17707    TIP3     OH2      OT      -0.834000       15.9994           0
     75502 TIP3     17707    TIP3     H1       HT       0.417000       1.00800           0
     75503 TIP3     17707    TIP3     H2       HT       0.417000       1.00800           0
     75504 TIP3     17708    TIP3     OH2      OT      -0.834000       15.9994           0
     75505 TIP3     17708    TIP3     H1       HT       0.417000       1.00800           0
     75506 TIP3     17708    TIP3     H2       HT       0.417000       1.00800           0
     75507 TIP3     17709    TIP3     OH2      OT      -0.834000       15.9994           0
     75508 TIP3     17709    TIP3     H1       HT       0.417000       1.00800           0
     75509 TIP3     17709    TIP3     H2       HT       0.417000       1.00800           0
     75510 TIP3     17710    TIP3     OH2      OT      -0.834000       15.9994           0
     75511 TIP3     17710    TIP3     H1       HT       0.417000       1.00800           0
     75512 TIP3     17710    TIP3     H2       HT       0.417000       1.00800           0
     75513 TIP3     17711    TIP3     OH2      OT      -0.834000       15.9994           0
     75514 TIP3     17711    TIP3     H1       HT       0.417000       1.00800           0
     75515 TIP3     17711    TIP3     H2       HT       0.417000       1.00800           0
     75516 TIP3     17712    TIP3     OH2      OT      -0.834000       15.9994           0
     75517 TIP3     17712    TIP3     H1       HT       0.417000       1.00800           0
     75518 TIP3     17712    TIP3     H2       HT       0.417000       1.00800           0
     75519 TIP3     17713    TIP3     OH2      OT      -0.834000       15.9994           0
     75520 TIP3     17713    TIP3     H1       HT       0.417000       1.00800           0
     75521 TIP3     17713    TIP3     H2       HT       0.417000       1.00800           0
     75522 TIP3     17714    TIP3     OH2      OT      -0.834000       15.9994           0
     75523 TIP3     17714    TIP3     H1       HT       0.417000       1.00800           0
     75524 TIP3     17714    TIP3     H2       HT       0.417000       1.00800           0
     75525 TIP3     17715    TIP3     OH2      OT      -0.834000       15.9994           0
     75526 TIP3     17715    TIP3     H1       HT       0.417000       1.00800           0
     75527 TIP3     17715    TIP3     H2       HT       0.417000       1.00800           0
     75528 TIP3     17716    TIP3     OH2      OT      -0.834000       15.9994           0
     75529 TIP3     17716    TIP3     H1       HT       0.417000       1.00800           0
     75530 TIP3     17716    TIP3     H2       HT       0.417000       1.00800           0
     75531 TIP3     17717    TIP3     OH2      OT      -0.834000       15.9994           0
     75532 TIP3     17717    TIP3     H1       HT       0.417000       1.00800           0
     75533 TIP3     17717    TIP3     H2       HT       0.417000       1.00800           0
     75534 TIP3     17718    TIP3     OH2      OT      -0.834000       15.9994           0
     75535 TIP3     17718    TIP3     H1       HT       0.417000       1.00800           0
     75536 TIP3     17718    TIP3     H2       HT       0.417000       1.00800           0
     75537 TIP3     17719    TIP3     OH2      OT      -0.834000       15.9994           0
     75538 TIP3     17719    TIP3     H1       HT       0.417000       1.00800           0
     75539 TIP3     17719    TIP3     H2       HT       0.417000       1.00800           0
     75540 TIP3     17720    TIP3     OH2      OT      -0.834000       15.9994           0
     75541 TIP3     17720    TIP3     H1       HT       0.417000       1.00800           0
     75542 TIP3     17720    TIP3     H2       HT       0.417000       1.00800           0
     75543 TIP3     17721    TIP3     OH2      OT      -0.834000       15.9994           0
     75544 TIP3     17721    TIP3     H1       HT       0.417000       1.00800           0
     75545 TIP3     17721    TIP3     H2       HT       0.417000       1.00800           0
     75546 TIP3     17722    TIP3     OH2      OT      -0.834000       15.9994           0
     75547 TIP3     17722    TIP3     H1       HT       0.417000       1.00800           0
     75548 TIP3     17722    TIP3     H2       HT       0.417000       1.00800           0
     75549 TIP3     17723    TIP3     OH2      OT      -0.834000       15.9994           0
     75550 TIP3     17723    TIP3     H1       HT       0.417000       1.00800           0
     75551 TIP3     17723    TIP3     H2       HT       0.417000       1.00800           0
     75552 TIP3     17724    TIP3     OH2      OT      -0.834000       15.9994           0
     75553 TIP3     17724    TIP3     H1       HT       0.417000       1.00800           0
     75554 TIP3     17724    TIP3     H2       HT       0.417000       1.00800           0
     75555 TIP3     17725    TIP3     OH2      OT      -0.834000       15.9994           0
     75556 TIP3     17725    TIP3     H1       HT       0.417000       1.00800           0
     75557 TIP3     17725    TIP3     H2       HT       0.417000       1.00800           0
     75558 TIP3     17726    TIP3     OH2      OT      -0.834000       15.9994           0
     75559 TIP3     17726    TIP3     H1       HT       0.417000       1.00800           0
     75560 TIP3     17726    TIP3     H2       HT       0.417000       1.00800           0
     75561 TIP3     17727    TIP3     OH2      OT      -0.834000       15.9994           0
     75562 TIP3     17727    TIP3     H1       HT       0.417000       1.00800           0
     75563 TIP3     17727    TIP3     H2       HT       0.417000       1.00800           0
     75564 TIP3     17728    TIP3     OH2      OT      -0.834000       15.9994           0
     75565 TIP3     17728    TIP3     H1       HT       0.417000       1.00800           0
     75566 TIP3     17728    TIP3     H2       HT       0.417000       1.00800           0
     75567 TIP3     17729    TIP3     OH2      OT      -0.834000       15.9994           0
     75568 TIP3     17729    TIP3     H1       HT       0.417000       1.00800           0
     75569 TIP3     17729    TIP3     H2       HT       0.417000       1.00800           0
     75570 TIP3     17730    TIP3     OH2      OT      -0.834000       15.9994           0
     75571 TIP3     17730    TIP3     H1       HT       0.417000       1.00800           0
     75572 TIP3     17730    TIP3     H2       HT       0.417000       1.00800           0
     75573 TIP3     17731    TIP3     OH2      OT      -0.834000       15.9994           0
     75574 TIP3     17731    TIP3     H1       HT       0.417000       1.00800           0
     75575 TIP3     17731    TIP3     H2       HT       0.417000       1.00800           0
     75576 TIP3     17732    TIP3     OH2      OT      -0.834000       15.9994           0
     75577 TIP3     17732    TIP3     H1       HT       0.417000       1.00800           0
     75578 TIP3     17732    TIP3     H2       HT       0.417000       1.00800           0
     75579 TIP3     17733    TIP3     OH2      OT      -0.834000       15.9994           0
     75580 TIP3     17733    TIP3     H1       HT       0.417000       1.00800           0
     75581 TIP3     17733    TIP3     H2       HT       0.417000       1.00800           0
     75582 TIP3     17734    TIP3     OH2      OT      -0.834000       15.9994           0
     75583 TIP3     17734    TIP3     H1       HT       0.417000       1.00800           0
     75584 TIP3     17734    TIP3     H2       HT       0.417000       1.00800           0
     75585 TIP3     17735    TIP3     OH2      OT      -0.834000       15.9994           0
     75586 TIP3     17735    TIP3     H1       HT       0.417000       1.00800           0
     75587 TIP3     17735    TIP3     H2       HT       0.417000       1.00800           0
     75588 TIP3     17736    TIP3     OH2      OT      -0.834000       15.9994           0
     75589 TIP3     17736    TIP3     H1       HT       0.417000       1.00800           0
     75590 TIP3     17736    TIP3     H2       HT       0.417000       1.00800           0
     75591 TIP3     17737    TIP3     OH2      OT      -0.834000       15.9994           0
     75592 TIP3     17737    TIP3     H1       HT       0.417000       1.00800           0
     75593 TIP3     17737    TIP3     H2       HT       0.417000       1.00800           0
     75594 TIP3     17738    TIP3     OH2      OT      -0.834000       15.9994           0
     75595 TIP3     17738    TIP3     H1       HT       0.417000       1.00800           0
     75596 TIP3     17738    TIP3     H2       HT       0.417000       1.00800           0
     75597 TIP3     17739    TIP3     OH2      OT      -0.834000       15.9994           0
     75598 TIP3     17739    TIP3     H1       HT       0.417000       1.00800           0
     75599 TIP3     17739    TIP3     H2       HT       0.417000       1.00800           0
     75600 TIP3     17740    TIP3     OH2      OT      -0.834000       15.9994           0
     75601 TIP3     17740    TIP3     H1       HT       0.417000       1.00800           0
     75602 TIP3     17740    TIP3     H2       HT       0.417000       1.00800           0
     75603 TIP3     17741    TIP3     OH2      OT      -0.834000       15.9994           0
     75604 TIP3     17741    TIP3     H1       HT       0.417000       1.00800           0
     75605 TIP3     17741    TIP3     H2       HT       0.417000       1.00800           0
     75606 TIP3     17742    TIP3     OH2      OT      -0.834000       15.9994           0
     75607 TIP3     17742    TIP3     H1       HT       0.417000       1.00800           0
     75608 TIP3     17742    TIP3     H2       HT       0.417000       1.00800           0
     75609 TIP3     17743    TIP3     OH2      OT      -0.834000       15.9994           0
     75610 TIP3     17743    TIP3     H1       HT       0.417000       1.00800           0
     75611 TIP3     17743    TIP3     H2       HT       0.417000       1.00800           0
     75612 TIP3     17744    TIP3     OH2      OT      -0.834000       15.9994           0
     75613 TIP3     17744    TIP3     H1       HT       0.417000       1.00800           0
     75614 TIP3     17744    TIP3     H2       HT       0.417000       1.00800           0
     75615 TIP3     17745    TIP3     OH2      OT      -0.834000       15.9994           0
     75616 TIP3     17745    TIP3     H1       HT       0.417000       1.00800           0
     75617 TIP3     17745    TIP3     H2       HT       0.417000       1.00800           0
     75618 TIP3     17746    TIP3     OH2      OT      -0.834000       15.9994           0
     75619 TIP3     17746    TIP3     H1       HT       0.417000       1.00800           0
     75620 TIP3     17746    TIP3     H2       HT       0.417000       1.00800           0
     75621 TIP3     17747    TIP3     OH2      OT      -0.834000       15.9994           0
     75622 TIP3     17747    TIP3     H1       HT       0.417000       1.00800           0
     75623 TIP3     17747    TIP3     H2       HT       0.417000       1.00800           0
     75624 TIP3     17748    TIP3     OH2      OT      -0.834000       15.9994           0
     75625 TIP3     17748    TIP3     H1       HT       0.417000       1.00800           0
     75626 TIP3     17748    TIP3     H2       HT       0.417000       1.00800           0
     75627 TIP3     17749    TIP3     OH2      OT      -0.834000       15.9994           0
     75628 TIP3     17749    TIP3     H1       HT       0.417000       1.00800           0
     75629 TIP3     17749    TIP3     H2       HT       0.417000       1.00800           0
     75630 TIP3     17750    TIP3     OH2      OT      -0.834000       15.9994           0
     75631 TIP3     17750    TIP3     H1       HT       0.417000       1.00800           0
     75632 TIP3     17750    TIP3     H2       HT       0.417000       1.00800           0
     75633 TIP3     17751    TIP3     OH2      OT      -0.834000       15.9994           0
     75634 TIP3     17751    TIP3     H1       HT       0.417000       1.00800           0
     75635 TIP3     17751    TIP3     H2       HT       0.417000       1.00800           0
     75636 TIP3     17752    TIP3     OH2      OT      -0.834000       15.9994           0
     75637 TIP3     17752    TIP3     H1       HT       0.417000       1.00800           0
     75638 TIP3     17752    TIP3     H2       HT       0.417000       1.00800           0
     75639 TIP3     17753    TIP3     OH2      OT      -0.834000       15.9994           0
     75640 TIP3     17753    TIP3     H1       HT       0.417000       1.00800           0
     75641 TIP3     17753    TIP3     H2       HT       0.417000       1.00800           0
     75642 TIP3     17754    TIP3     OH2      OT      -0.834000       15.9994           0
     75643 TIP3     17754    TIP3     H1       HT       0.417000       1.00800           0
     75644 TIP3     17754    TIP3     H2       HT       0.417000       1.00800           0
     75645 TIP3     17755    TIP3     OH2      OT      -0.834000       15.9994           0
     75646 TIP3     17755    TIP3     H1       HT       0.417000       1.00800           0
     75647 TIP3     17755    TIP3     H2       HT       0.417000       1.00800           0
     75648 TIP3     17756    TIP3     OH2      OT      -0.834000       15.9994           0
     75649 TIP3     17756    TIP3     H1       HT       0.417000       1.00800           0
     75650 TIP3     17756    TIP3     H2       HT       0.417000       1.00800           0
     75651 TIP3     17757    TIP3     OH2      OT      -0.834000       15.9994           0
     75652 TIP3     17757    TIP3     H1       HT       0.417000       1.00800           0
     75653 TIP3     17757    TIP3     H2       HT       0.417000       1.00800           0
     75654 TIP3     17758    TIP3     OH2      OT      -0.834000       15.9994           0
     75655 TIP3     17758    TIP3     H1       HT       0.417000       1.00800           0
     75656 TIP3     17758    TIP3     H2       HT       0.417000       1.00800           0
     75657 TIP3     17759    TIP3     OH2      OT      -0.834000       15.9994           0
     75658 TIP3     17759    TIP3     H1       HT       0.417000       1.00800           0
     75659 TIP3     17759    TIP3     H2       HT       0.417000       1.00800           0
     75660 TIP3     17760    TIP3     OH2      OT      -0.834000       15.9994           0
     75661 TIP3     17760    TIP3     H1       HT       0.417000       1.00800           0
     75662 TIP3     17760    TIP3     H2       HT       0.417000       1.00800           0
     75663 TIP3     17761    TIP3     OH2      OT      -0.834000       15.9994           0
     75664 TIP3     17761    TIP3     H1       HT       0.417000       1.00800           0
     75665 TIP3     17761    TIP3     H2       HT       0.417000       1.00800           0
     75666 TIP3     17762    TIP3     OH2      OT      -0.834000       15.9994           0
     75667 TIP3     17762    TIP3     H1       HT       0.417000       1.00800           0
     75668 TIP3     17762    TIP3     H2       HT       0.417000       1.00800           0
     75669 TIP3     17763    TIP3     OH2      OT      -0.834000       15.9994           0
     75670 TIP3     17763    TIP3     H1       HT       0.417000       1.00800           0
     75671 TIP3     17763    TIP3     H2       HT       0.417000       1.00800           0
     75672 TIP3     17764    TIP3     OH2      OT      -0.834000       15.9994           0
     75673 TIP3     17764    TIP3     H1       HT       0.417000       1.00800           0
     75674 TIP3     17764    TIP3     H2       HT       0.417000       1.00800           0
     75675 TIP3     17765    TIP3     OH2      OT      -0.834000       15.9994           0
     75676 TIP3     17765    TIP3     H1       HT       0.417000       1.00800           0
     75677 TIP3     17765    TIP3     H2       HT       0.417000       1.00800           0
     75678 TIP3     17766    TIP3     OH2      OT      -0.834000       15.9994           0
     75679 TIP3     17766    TIP3     H1       HT       0.417000       1.00800           0
     75680 TIP3     17766    TIP3     H2       HT       0.417000       1.00800           0
     75681 TIP3     17767    TIP3     OH2      OT      -0.834000       15.9994           0
     75682 TIP3     17767    TIP3     H1       HT       0.417000       1.00800           0
     75683 TIP3     17767    TIP3     H2       HT       0.417000       1.00800           0
     75684 TIP3     17768    TIP3     OH2      OT      -0.834000       15.9994           0
     75685 TIP3     17768    TIP3     H1       HT       0.417000       1.00800           0
     75686 TIP3     17768    TIP3     H2       HT       0.417000       1.00800           0
     75687 TIP3     17769    TIP3     OH2      OT      -0.834000       15.9994           0
     75688 TIP3     17769    TIP3     H1       HT       0.417000       1.00800           0
     75689 TIP3     17769    TIP3     H2       HT       0.417000       1.00800           0
     75690 TIP3     17770    TIP3     OH2      OT      -0.834000       15.9994           0
     75691 TIP3     17770    TIP3     H1       HT       0.417000       1.00800           0
     75692 TIP3     17770    TIP3     H2       HT       0.417000       1.00800           0
     75693 TIP3     17771    TIP3     OH2      OT      -0.834000       15.9994           0
     75694 TIP3     17771    TIP3     H1       HT       0.417000       1.00800           0
     75695 TIP3     17771    TIP3     H2       HT       0.417000       1.00800           0
     75696 TIP3     17772    TIP3     OH2      OT      -0.834000       15.9994           0
     75697 TIP3     17772    TIP3     H1       HT       0.417000       1.00800           0
     75698 TIP3     17772    TIP3     H2       HT       0.417000       1.00800           0
     75699 TIP3     17773    TIP3     OH2      OT      -0.834000       15.9994           0
     75700 TIP3     17773    TIP3     H1       HT       0.417000       1.00800           0
     75701 TIP3     17773    TIP3     H2       HT       0.417000       1.00800           0
     75702 TIP3     17774    TIP3     OH2      OT      -0.834000       15.9994           0
     75703 TIP3     17774    TIP3     H1       HT       0.417000       1.00800           0
     75704 TIP3     17774    TIP3     H2       HT       0.417000       1.00800           0
     75705 TIP3     17775    TIP3     OH2      OT      -0.834000       15.9994           0
     75706 TIP3     17775    TIP3     H1       HT       0.417000       1.00800           0
     75707 TIP3     17775    TIP3     H2       HT       0.417000       1.00800           0
     75708 TIP3     17776    TIP3     OH2      OT      -0.834000       15.9994           0
     75709 TIP3     17776    TIP3     H1       HT       0.417000       1.00800           0
     75710 TIP3     17776    TIP3     H2       HT       0.417000       1.00800           0
     75711 TIP3     17777    TIP3     OH2      OT      -0.834000       15.9994           0
     75712 TIP3     17777    TIP3     H1       HT       0.417000       1.00800           0
     75713 TIP3     17777    TIP3     H2       HT       0.417000       1.00800           0
     75714 TIP3     17778    TIP3     OH2      OT      -0.834000       15.9994           0
     75715 TIP3     17778    TIP3     H1       HT       0.417000       1.00800           0
     75716 TIP3     17778    TIP3     H2       HT       0.417000       1.00800           0
     75717 TIP3     17779    TIP3     OH2      OT      -0.834000       15.9994           0
     75718 TIP3     17779    TIP3     H1       HT       0.417000       1.00800           0
     75719 TIP3     17779    TIP3     H2       HT       0.417000       1.00800           0
     75720 TIP3     17780    TIP3     OH2      OT      -0.834000       15.9994           0
     75721 TIP3     17780    TIP3     H1       HT       0.417000       1.00800           0
     75722 TIP3     17780    TIP3     H2       HT       0.417000       1.00800           0
     75723 TIP3     17781    TIP3     OH2      OT      -0.834000       15.9994           0
     75724 TIP3     17781    TIP3     H1       HT       0.417000       1.00800           0
     75725 TIP3     17781    TIP3     H2       HT       0.417000       1.00800           0
     75726 TIP3     17782    TIP3     OH2      OT      -0.834000       15.9994           0
     75727 TIP3     17782    TIP3     H1       HT       0.417000       1.00800           0
     75728 TIP3     17782    TIP3     H2       HT       0.417000       1.00800           0
     75729 TIP3     17783    TIP3     OH2      OT      -0.834000       15.9994           0
     75730 TIP3     17783    TIP3     H1       HT       0.417000       1.00800           0
     75731 TIP3     17783    TIP3     H2       HT       0.417000       1.00800           0
     75732 TIP3     17784    TIP3     OH2      OT      -0.834000       15.9994           0
     75733 TIP3     17784    TIP3     H1       HT       0.417000       1.00800           0
     75734 TIP3     17784    TIP3     H2       HT       0.417000       1.00800           0
     75735 TIP3     17785    TIP3     OH2      OT      -0.834000       15.9994           0
     75736 TIP3     17785    TIP3     H1       HT       0.417000       1.00800           0
     75737 TIP3     17785    TIP3     H2       HT       0.417000       1.00800           0
     75738 TIP3     17786    TIP3     OH2      OT      -0.834000       15.9994           0
     75739 TIP3     17786    TIP3     H1       HT       0.417000       1.00800           0
     75740 TIP3     17786    TIP3     H2       HT       0.417000       1.00800           0
     75741 TIP3     17787    TIP3     OH2      OT      -0.834000       15.9994           0
     75742 TIP3     17787    TIP3     H1       HT       0.417000       1.00800           0
     75743 TIP3     17787    TIP3     H2       HT       0.417000       1.00800           0
     75744 TIP3     17788    TIP3     OH2      OT      -0.834000       15.9994           0
     75745 TIP3     17788    TIP3     H1       HT       0.417000       1.00800           0
     75746 TIP3     17788    TIP3     H2       HT       0.417000       1.00800           0
     75747 TIP3     17789    TIP3     OH2      OT      -0.834000       15.9994           0
     75748 TIP3     17789    TIP3     H1       HT       0.417000       1.00800           0
     75749 TIP3     17789    TIP3     H2       HT       0.417000       1.00800           0
     75750 TIP3     17790    TIP3     OH2      OT      -0.834000       15.9994           0
     75751 TIP3     17790    TIP3     H1       HT       0.417000       1.00800           0
     75752 TIP3     17790    TIP3     H2       HT       0.417000       1.00800           0
     75753 TIP3     17791    TIP3     OH2      OT      -0.834000       15.9994           0
     75754 TIP3     17791    TIP3     H1       HT       0.417000       1.00800           0
     75755 TIP3     17791    TIP3     H2       HT       0.417000       1.00800           0
     75756 TIP3     17792    TIP3     OH2      OT      -0.834000       15.9994           0
     75757 TIP3     17792    TIP3     H1       HT       0.417000       1.00800           0
     75758 TIP3     17792    TIP3     H2       HT       0.417000       1.00800           0
     75759 TIP3     17793    TIP3     OH2      OT      -0.834000       15.9994           0
     75760 TIP3     17793    TIP3     H1       HT       0.417000       1.00800           0
     75761 TIP3     17793    TIP3     H2       HT       0.417000       1.00800           0
     75762 TIP3     17794    TIP3     OH2      OT      -0.834000       15.9994           0
     75763 TIP3     17794    TIP3     H1       HT       0.417000       1.00800           0
     75764 TIP3     17794    TIP3     H2       HT       0.417000       1.00800           0
     75765 TIP3     17795    TIP3     OH2      OT      -0.834000       15.9994           0
     75766 TIP3     17795    TIP3     H1       HT       0.417000       1.00800           0
     75767 TIP3     17795    TIP3     H2       HT       0.417000       1.00800           0
     75768 TIP3     17796    TIP3     OH2      OT      -0.834000       15.9994           0
     75769 TIP3     17796    TIP3     H1       HT       0.417000       1.00800           0
     75770 TIP3     17796    TIP3     H2       HT       0.417000       1.00800           0
     75771 TIP3     17797    TIP3     OH2      OT      -0.834000       15.9994           0
     75772 TIP3     17797    TIP3     H1       HT       0.417000       1.00800           0
     75773 TIP3     17797    TIP3     H2       HT       0.417000       1.00800           0
     75774 TIP3     17798    TIP3     OH2      OT      -0.834000       15.9994           0
     75775 TIP3     17798    TIP3     H1       HT       0.417000       1.00800           0
     75776 TIP3     17798    TIP3     H2       HT       0.417000       1.00800           0
     75777 TIP3     17799    TIP3     OH2      OT      -0.834000       15.9994           0
     75778 TIP3     17799    TIP3     H1       HT       0.417000       1.00800           0
     75779 TIP3     17799    TIP3     H2       HT       0.417000       1.00800           0
     75780 TIP3     17800    TIP3     OH2      OT      -0.834000       15.9994           0
     75781 TIP3     17800    TIP3     H1       HT       0.417000       1.00800           0
     75782 TIP3     17800    TIP3     H2       HT       0.417000       1.00800           0
     75783 TIP3     17801    TIP3     OH2      OT      -0.834000       15.9994           0
     75784 TIP3     17801    TIP3     H1       HT       0.417000       1.00800           0
     75785 TIP3     17801    TIP3     H2       HT       0.417000       1.00800           0
     75786 TIP3     17802    TIP3     OH2      OT      -0.834000       15.9994           0
     75787 TIP3     17802    TIP3     H1       HT       0.417000       1.00800           0
     75788 TIP3     17802    TIP3     H2       HT       0.417000       1.00800           0
     75789 TIP3     17803    TIP3     OH2      OT      -0.834000       15.9994           0
     75790 TIP3     17803    TIP3     H1       HT       0.417000       1.00800           0
     75791 TIP3     17803    TIP3     H2       HT       0.417000       1.00800           0
     75792 TIP3     17804    TIP3     OH2      OT      -0.834000       15.9994           0
     75793 TIP3     17804    TIP3     H1       HT       0.417000       1.00800           0
     75794 TIP3     17804    TIP3     H2       HT       0.417000       1.00800           0
     75795 TIP3     17805    TIP3     OH2      OT      -0.834000       15.9994           0
     75796 TIP3     17805    TIP3     H1       HT       0.417000       1.00800           0
     75797 TIP3     17805    TIP3     H2       HT       0.417000       1.00800           0
     75798 TIP3     17806    TIP3     OH2      OT      -0.834000       15.9994           0
     75799 TIP3     17806    TIP3     H1       HT       0.417000       1.00800           0
     75800 TIP3     17806    TIP3     H2       HT       0.417000       1.00800           0
     75801 TIP3     17807    TIP3     OH2      OT      -0.834000       15.9994           0
     75802 TIP3     17807    TIP3     H1       HT       0.417000       1.00800           0
     75803 TIP3     17807    TIP3     H2       HT       0.417000       1.00800           0
     75804 TIP3     17808    TIP3     OH2      OT      -0.834000       15.9994           0
     75805 TIP3     17808    TIP3     H1       HT       0.417000       1.00800           0
     75806 TIP3     17808    TIP3     H2       HT       0.417000       1.00800           0
     75807 TIP3     17809    TIP3     OH2      OT      -0.834000       15.9994           0
     75808 TIP3     17809    TIP3     H1       HT       0.417000       1.00800           0
     75809 TIP3     17809    TIP3     H2       HT       0.417000       1.00800           0
     75810 TIP3     17810    TIP3     OH2      OT      -0.834000       15.9994           0
     75811 TIP3     17810    TIP3     H1       HT       0.417000       1.00800           0
     75812 TIP3     17810    TIP3     H2       HT       0.417000       1.00800           0
     75813 TIP3     17811    TIP3     OH2      OT      -0.834000       15.9994           0
     75814 TIP3     17811    TIP3     H1       HT       0.417000       1.00800           0
     75815 TIP3     17811    TIP3     H2       HT       0.417000       1.00800           0
     75816 TIP3     17812    TIP3     OH2      OT      -0.834000       15.9994           0
     75817 TIP3     17812    TIP3     H1       HT       0.417000       1.00800           0
     75818 TIP3     17812    TIP3     H2       HT       0.417000       1.00800           0
     75819 TIP3     17813    TIP3     OH2      OT      -0.834000       15.9994           0
     75820 TIP3     17813    TIP3     H1       HT       0.417000       1.00800           0
     75821 TIP3     17813    TIP3     H2       HT       0.417000       1.00800           0
     75822 TIP3     17814    TIP3     OH2      OT      -0.834000       15.9994           0
     75823 TIP3     17814    TIP3     H1       HT       0.417000       1.00800           0
     75824 TIP3     17814    TIP3     H2       HT       0.417000       1.00800           0
     75825 TIP3     17815    TIP3     OH2      OT      -0.834000       15.9994           0
     75826 TIP3     17815    TIP3     H1       HT       0.417000       1.00800           0
     75827 TIP3     17815    TIP3     H2       HT       0.417000       1.00800           0
     75828 TIP3     17816    TIP3     OH2      OT      -0.834000       15.9994           0
     75829 TIP3     17816    TIP3     H1       HT       0.417000       1.00800           0
     75830 TIP3     17816    TIP3     H2       HT       0.417000       1.00800           0
     75831 TIP3     17817    TIP3     OH2      OT      -0.834000       15.9994           0
     75832 TIP3     17817    TIP3     H1       HT       0.417000       1.00800           0
     75833 TIP3     17817    TIP3     H2       HT       0.417000       1.00800           0
     75834 TIP3     17818    TIP3     OH2      OT      -0.834000       15.9994           0
     75835 TIP3     17818    TIP3     H1       HT       0.417000       1.00800           0
     75836 TIP3     17818    TIP3     H2       HT       0.417000       1.00800           0
     75837 TIP3     17819    TIP3     OH2      OT      -0.834000       15.9994           0
     75838 TIP3     17819    TIP3     H1       HT       0.417000       1.00800           0
     75839 TIP3     17819    TIP3     H2       HT       0.417000       1.00800           0
     75840 TIP3     17820    TIP3     OH2      OT      -0.834000       15.9994           0
     75841 TIP3     17820    TIP3     H1       HT       0.417000       1.00800           0
     75842 TIP3     17820    TIP3     H2       HT       0.417000       1.00800           0
     75843 TIP3     17821    TIP3     OH2      OT      -0.834000       15.9994           0
     75844 TIP3     17821    TIP3     H1       HT       0.417000       1.00800           0
     75845 TIP3     17821    TIP3     H2       HT       0.417000       1.00800           0
     75846 TIP3     17822    TIP3     OH2      OT      -0.834000       15.9994           0
     75847 TIP3     17822    TIP3     H1       HT       0.417000       1.00800           0
     75848 TIP3     17822    TIP3     H2       HT       0.417000       1.00800           0
     75849 TIP3     17823    TIP3     OH2      OT      -0.834000       15.9994           0
     75850 TIP3     17823    TIP3     H1       HT       0.417000       1.00800           0
     75851 TIP3     17823    TIP3     H2       HT       0.417000       1.00800           0
     75852 TIP3     17824    TIP3     OH2      OT      -0.834000       15.9994           0
     75853 TIP3     17824    TIP3     H1       HT       0.417000       1.00800           0
     75854 TIP3     17824    TIP3     H2       HT       0.417000       1.00800           0
     75855 TIP3     17825    TIP3     OH2      OT      -0.834000       15.9994           0
     75856 TIP3     17825    TIP3     H1       HT       0.417000       1.00800           0
     75857 TIP3     17825    TIP3     H2       HT       0.417000       1.00800           0
     75858 TIP3     17826    TIP3     OH2      OT      -0.834000       15.9994           0
     75859 TIP3     17826    TIP3     H1       HT       0.417000       1.00800           0
     75860 TIP3     17826    TIP3     H2       HT       0.417000       1.00800           0
     75861 TIP3     17827    TIP3     OH2      OT      -0.834000       15.9994           0
     75862 TIP3     17827    TIP3     H1       HT       0.417000       1.00800           0
     75863 TIP3     17827    TIP3     H2       HT       0.417000       1.00800           0
     75864 TIP3     17828    TIP3     OH2      OT      -0.834000       15.9994           0
     75865 TIP3     17828    TIP3     H1       HT       0.417000       1.00800           0
     75866 TIP3     17828    TIP3     H2       HT       0.417000       1.00800           0
     75867 TIP3     17829    TIP3     OH2      OT      -0.834000       15.9994           0
     75868 TIP3     17829    TIP3     H1       HT       0.417000       1.00800           0
     75869 TIP3     17829    TIP3     H2       HT       0.417000       1.00800           0
     75870 TIP3     17830    TIP3     OH2      OT      -0.834000       15.9994           0
     75871 TIP3     17830    TIP3     H1       HT       0.417000       1.00800           0
     75872 TIP3     17830    TIP3     H2       HT       0.417000       1.00800           0
     75873 TIP3     17831    TIP3     OH2      OT      -0.834000       15.9994           0
     75874 TIP3     17831    TIP3     H1       HT       0.417000       1.00800           0
     75875 TIP3     17831    TIP3     H2       HT       0.417000       1.00800           0
     75876 TIP3     17832    TIP3     OH2      OT      -0.834000       15.9994           0
     75877 TIP3     17832    TIP3     H1       HT       0.417000       1.00800           0
     75878 TIP3     17832    TIP3     H2       HT       0.417000       1.00800           0
     75879 TIP3     17833    TIP3     OH2      OT      -0.834000       15.9994           0
     75880 TIP3     17833    TIP3     H1       HT       0.417000       1.00800           0
     75881 TIP3     17833    TIP3     H2       HT       0.417000       1.00800           0
     75882 TIP3     17834    TIP3     OH2      OT      -0.834000       15.9994           0
     75883 TIP3     17834    TIP3     H1       HT       0.417000       1.00800           0
     75884 TIP3     17834    TIP3     H2       HT       0.417000       1.00800           0
     75885 TIP3     17835    TIP3     OH2      OT      -0.834000       15.9994           0
     75886 TIP3     17835    TIP3     H1       HT       0.417000       1.00800           0
     75887 TIP3     17835    TIP3     H2       HT       0.417000       1.00800           0
     75888 TIP3     17836    TIP3     OH2      OT      -0.834000       15.9994           0
     75889 TIP3     17836    TIP3     H1       HT       0.417000       1.00800           0
     75890 TIP3     17836    TIP3     H2       HT       0.417000       1.00800           0
     75891 TIP3     17837    TIP3     OH2      OT      -0.834000       15.9994           0
     75892 TIP3     17837    TIP3     H1       HT       0.417000       1.00800           0
     75893 TIP3     17837    TIP3     H2       HT       0.417000       1.00800           0
     75894 TIP3     17838    TIP3     OH2      OT      -0.834000       15.9994           0
     75895 TIP3     17838    TIP3     H1       HT       0.417000       1.00800           0
     75896 TIP3     17838    TIP3     H2       HT       0.417000       1.00800           0
     75897 TIP3     17839    TIP3     OH2      OT      -0.834000       15.9994           0
     75898 TIP3     17839    TIP3     H1       HT       0.417000       1.00800           0
     75899 TIP3     17839    TIP3     H2       HT       0.417000       1.00800           0
     75900 TIP3     17840    TIP3     OH2      OT      -0.834000       15.9994           0
     75901 TIP3     17840    TIP3     H1       HT       0.417000       1.00800           0
     75902 TIP3     17840    TIP3     H2       HT       0.417000       1.00800           0
     75903 TIP3     17841    TIP3     OH2      OT      -0.834000       15.9994           0
     75904 TIP3     17841    TIP3     H1       HT       0.417000       1.00800           0
     75905 TIP3     17841    TIP3     H2       HT       0.417000       1.00800           0
     75906 TIP3     17842    TIP3     OH2      OT      -0.834000       15.9994           0
     75907 TIP3     17842    TIP3     H1       HT       0.417000       1.00800           0
     75908 TIP3     17842    TIP3     H2       HT       0.417000       1.00800           0
     75909 TIP3     17843    TIP3     OH2      OT      -0.834000       15.9994           0
     75910 TIP3     17843    TIP3     H1       HT       0.417000       1.00800           0
     75911 TIP3     17843    TIP3     H2       HT       0.417000       1.00800           0
     75912 TIP3     17844    TIP3     OH2      OT      -0.834000       15.9994           0
     75913 TIP3     17844    TIP3     H1       HT       0.417000       1.00800           0
     75914 TIP3     17844    TIP3     H2       HT       0.417000       1.00800           0
     75915 TIP3     17845    TIP3     OH2      OT      -0.834000       15.9994           0
     75916 TIP3     17845    TIP3     H1       HT       0.417000       1.00800           0
     75917 TIP3     17845    TIP3     H2       HT       0.417000       1.00800           0
     75918 TIP3     17846    TIP3     OH2      OT      -0.834000       15.9994           0
     75919 TIP3     17846    TIP3     H1       HT       0.417000       1.00800           0
     75920 TIP3     17846    TIP3     H2       HT       0.417000       1.00800           0
     75921 TIP3     17847    TIP3     OH2      OT      -0.834000       15.9994           0
     75922 TIP3     17847    TIP3     H1       HT       0.417000       1.00800           0
     75923 TIP3     17847    TIP3     H2       HT       0.417000       1.00800           0
     75924 TIP3     17848    TIP3     OH2      OT      -0.834000       15.9994           0
     75925 TIP3     17848    TIP3     H1       HT       0.417000       1.00800           0
     75926 TIP3     17848    TIP3     H2       HT       0.417000       1.00800           0
     75927 TIP3     17849    TIP3     OH2      OT      -0.834000       15.9994           0
     75928 TIP3     17849    TIP3     H1       HT       0.417000       1.00800           0
     75929 TIP3     17849    TIP3     H2       HT       0.417000       1.00800           0
     75930 TIP3     17850    TIP3     OH2      OT      -0.834000       15.9994           0
     75931 TIP3     17850    TIP3     H1       HT       0.417000       1.00800           0
     75932 TIP3     17850    TIP3     H2       HT       0.417000       1.00800           0
     75933 TIP3     17851    TIP3     OH2      OT      -0.834000       15.9994           0
     75934 TIP3     17851    TIP3     H1       HT       0.417000       1.00800           0
     75935 TIP3     17851    TIP3     H2       HT       0.417000       1.00800           0
     75936 TIP3     17852    TIP3     OH2      OT      -0.834000       15.9994           0
     75937 TIP3     17852    TIP3     H1       HT       0.417000       1.00800           0
     75938 TIP3     17852    TIP3     H2       HT       0.417000       1.00800           0
     75939 TIP3     17853    TIP3     OH2      OT      -0.834000       15.9994           0
     75940 TIP3     17853    TIP3     H1       HT       0.417000       1.00800           0
     75941 TIP3     17853    TIP3     H2       HT       0.417000       1.00800           0
     75942 TIP3     17854    TIP3     OH2      OT      -0.834000       15.9994           0
     75943 TIP3     17854    TIP3     H1       HT       0.417000       1.00800           0
     75944 TIP3     17854    TIP3     H2       HT       0.417000       1.00800           0
     75945 TIP3     17855    TIP3     OH2      OT      -0.834000       15.9994           0
     75946 TIP3     17855    TIP3     H1       HT       0.417000       1.00800           0
     75947 TIP3     17855    TIP3     H2       HT       0.417000       1.00800           0
     75948 TIP3     17856    TIP3     OH2      OT      -0.834000       15.9994           0
     75949 TIP3     17856    TIP3     H1       HT       0.417000       1.00800           0
     75950 TIP3     17856    TIP3     H2       HT       0.417000       1.00800           0
     75951 TIP3     17857    TIP3     OH2      OT      -0.834000       15.9994           0
     75952 TIP3     17857    TIP3     H1       HT       0.417000       1.00800           0
     75953 TIP3     17857    TIP3     H2       HT       0.417000       1.00800           0
     75954 TIP3     17858    TIP3     OH2      OT      -0.834000       15.9994           0
     75955 TIP3     17858    TIP3     H1       HT       0.417000       1.00800           0
     75956 TIP3     17858    TIP3     H2       HT       0.417000       1.00800           0
     75957 TIP3     17859    TIP3     OH2      OT      -0.834000       15.9994           0
     75958 TIP3     17859    TIP3     H1       HT       0.417000       1.00800           0
     75959 TIP3     17859    TIP3     H2       HT       0.417000       1.00800           0
     75960 TIP3     17860    TIP3     OH2      OT      -0.834000       15.9994           0
     75961 TIP3     17860    TIP3     H1       HT       0.417000       1.00800           0
     75962 TIP3     17860    TIP3     H2       HT       0.417000       1.00800           0
     75963 TIP3     17861    TIP3     OH2      OT      -0.834000       15.9994           0
     75964 TIP3     17861    TIP3     H1       HT       0.417000       1.00800           0
     75965 TIP3     17861    TIP3     H2       HT       0.417000       1.00800           0
     75966 TIP3     17862    TIP3     OH2      OT      -0.834000       15.9994           0
     75967 TIP3     17862    TIP3     H1       HT       0.417000       1.00800           0
     75968 TIP3     17862    TIP3     H2       HT       0.417000       1.00800           0
     75969 TIP3     17863    TIP3     OH2      OT      -0.834000       15.9994           0
     75970 TIP3     17863    TIP3     H1       HT       0.417000       1.00800           0
     75971 TIP3     17863    TIP3     H2       HT       0.417000       1.00800           0
     75972 TIP3     17864    TIP3     OH2      OT      -0.834000       15.9994           0
     75973 TIP3     17864    TIP3     H1       HT       0.417000       1.00800           0
     75974 TIP3     17864    TIP3     H2       HT       0.417000       1.00800           0
     75975 TIP3     17865    TIP3     OH2      OT      -0.834000       15.9994           0
     75976 TIP3     17865    TIP3     H1       HT       0.417000       1.00800           0
     75977 TIP3     17865    TIP3     H2       HT       0.417000       1.00800           0
     75978 TIP3     17866    TIP3     OH2      OT      -0.834000       15.9994           0
     75979 TIP3     17866    TIP3     H1       HT       0.417000       1.00800           0
     75980 TIP3     17866    TIP3     H2       HT       0.417000       1.00800           0
     75981 TIP3     17867    TIP3     OH2      OT      -0.834000       15.9994           0
     75982 TIP3     17867    TIP3     H1       HT       0.417000       1.00800           0
     75983 TIP3     17867    TIP3     H2       HT       0.417000       1.00800           0
     75984 TIP3     17868    TIP3     OH2      OT      -0.834000       15.9994           0
     75985 TIP3     17868    TIP3     H1       HT       0.417000       1.00800           0
     75986 TIP3     17868    TIP3     H2       HT       0.417000       1.00800           0
     75987 TIP3     17869    TIP3     OH2      OT      -0.834000       15.9994           0
     75988 TIP3     17869    TIP3     H1       HT       0.417000       1.00800           0
     75989 TIP3     17869    TIP3     H2       HT       0.417000       1.00800           0
     75990 TIP3     17870    TIP3     OH2      OT      -0.834000       15.9994           0
     75991 TIP3     17870    TIP3     H1       HT       0.417000       1.00800           0
     75992 TIP3     17870    TIP3     H2       HT       0.417000       1.00800           0
     75993 TIP3     17871    TIP3     OH2      OT      -0.834000       15.9994           0
     75994 TIP3     17871    TIP3     H1       HT       0.417000       1.00800           0
     75995 TIP3     17871    TIP3     H2       HT       0.417000       1.00800           0
     75996 TIP3     17872    TIP3     OH2      OT      -0.834000       15.9994           0
     75997 TIP3     17872    TIP3     H1       HT       0.417000       1.00800           0
     75998 TIP3     17872    TIP3     H2       HT       0.417000       1.00800           0
     75999 TIP3     17873    TIP3     OH2      OT      -0.834000       15.9994           0
     76000 TIP3     17873    TIP3     H1       HT       0.417000       1.00800           0
     76001 TIP3     17873    TIP3     H2       HT       0.417000       1.00800           0
     76002 TIP3     17874    TIP3     OH2      OT      -0.834000       15.9994           0
     76003 TIP3     17874    TIP3     H1       HT       0.417000       1.00800           0
     76004 TIP3     17874    TIP3     H2       HT       0.417000       1.00800           0
     76005 TIP3     17875    TIP3     OH2      OT      -0.834000       15.9994           0
     76006 TIP3     17875    TIP3     H1       HT       0.417000       1.00800           0
     76007 TIP3     17875    TIP3     H2       HT       0.417000       1.00800           0
     76008 TIP3     17876    TIP3     OH2      OT      -0.834000       15.9994           0
     76009 TIP3     17876    TIP3     H1       HT       0.417000       1.00800           0
     76010 TIP3     17876    TIP3     H2       HT       0.417000       1.00800           0
     76011 TIP3     17877    TIP3     OH2      OT      -0.834000       15.9994           0
     76012 TIP3     17877    TIP3     H1       HT       0.417000       1.00800           0
     76013 TIP3     17877    TIP3     H2       HT       0.417000       1.00800           0
     76014 TIP3     17878    TIP3     OH2      OT      -0.834000       15.9994           0
     76015 TIP3     17878    TIP3     H1       HT       0.417000       1.00800           0
     76016 TIP3     17878    TIP3     H2       HT       0.417000       1.00800           0
     76017 TIP3     17879    TIP3     OH2      OT      -0.834000       15.9994           0
     76018 TIP3     17879    TIP3     H1       HT       0.417000       1.00800           0
     76019 TIP3     17879    TIP3     H2       HT       0.417000       1.00800           0
     76020 TIP3     17880    TIP3     OH2      OT      -0.834000       15.9994           0
     76021 TIP3     17880    TIP3     H1       HT       0.417000       1.00800           0
     76022 TIP3     17880    TIP3     H2       HT       0.417000       1.00800           0
     76023 TIP3     17881    TIP3     OH2      OT      -0.834000       15.9994           0
     76024 TIP3     17881    TIP3     H1       HT       0.417000       1.00800           0
     76025 TIP3     17881    TIP3     H2       HT       0.417000       1.00800           0
     76026 TIP3     17882    TIP3     OH2      OT      -0.834000       15.9994           0
     76027 TIP3     17882    TIP3     H1       HT       0.417000       1.00800           0
     76028 TIP3     17882    TIP3     H2       HT       0.417000       1.00800           0
     76029 TIP3     17883    TIP3     OH2      OT      -0.834000       15.9994           0
     76030 TIP3     17883    TIP3     H1       HT       0.417000       1.00800           0
     76031 TIP3     17883    TIP3     H2       HT       0.417000       1.00800           0
     76032 TIP3     17884    TIP3     OH2      OT      -0.834000       15.9994           0
     76033 TIP3     17884    TIP3     H1       HT       0.417000       1.00800           0
     76034 TIP3     17884    TIP3     H2       HT       0.417000       1.00800           0
     76035 TIP3     17885    TIP3     OH2      OT      -0.834000       15.9994           0
     76036 TIP3     17885    TIP3     H1       HT       0.417000       1.00800           0
     76037 TIP3     17885    TIP3     H2       HT       0.417000       1.00800           0
     76038 TIP3     17886    TIP3     OH2      OT      -0.834000       15.9994           0
     76039 TIP3     17886    TIP3     H1       HT       0.417000       1.00800           0
     76040 TIP3     17886    TIP3     H2       HT       0.417000       1.00800           0
     76041 TIP3     17887    TIP3     OH2      OT      -0.834000       15.9994           0
     76042 TIP3     17887    TIP3     H1       HT       0.417000       1.00800           0
     76043 TIP3     17887    TIP3     H2       HT       0.417000       1.00800           0
     76044 TIP3     17888    TIP3     OH2      OT      -0.834000       15.9994           0
     76045 TIP3     17888    TIP3     H1       HT       0.417000       1.00800           0
     76046 TIP3     17888    TIP3     H2       HT       0.417000       1.00800           0
     76047 TIP3     17889    TIP3     OH2      OT      -0.834000       15.9994           0
     76048 TIP3     17889    TIP3     H1       HT       0.417000       1.00800           0
     76049 TIP3     17889    TIP3     H2       HT       0.417000       1.00800           0
     76050 TIP3     17890    TIP3     OH2      OT      -0.834000       15.9994           0
     76051 TIP3     17890    TIP3     H1       HT       0.417000       1.00800           0
     76052 TIP3     17890    TIP3     H2       HT       0.417000       1.00800           0
     76053 TIP3     17891    TIP3     OH2      OT      -0.834000       15.9994           0
     76054 TIP3     17891    TIP3     H1       HT       0.417000       1.00800           0
     76055 TIP3     17891    TIP3     H2       HT       0.417000       1.00800           0
     76056 TIP3     17892    TIP3     OH2      OT      -0.834000       15.9994           0
     76057 TIP3     17892    TIP3     H1       HT       0.417000       1.00800           0
     76058 TIP3     17892    TIP3     H2       HT       0.417000       1.00800           0
     76059 TIP3     17893    TIP3     OH2      OT      -0.834000       15.9994           0
     76060 TIP3     17893    TIP3     H1       HT       0.417000       1.00800           0
     76061 TIP3     17893    TIP3     H2       HT       0.417000       1.00800           0
     76062 TIP3     17894    TIP3     OH2      OT      -0.834000       15.9994           0
     76063 TIP3     17894    TIP3     H1       HT       0.417000       1.00800           0
     76064 TIP3     17894    TIP3     H2       HT       0.417000       1.00800           0
     76065 TIP3     17895    TIP3     OH2      OT      -0.834000       15.9994           0
     76066 TIP3     17895    TIP3     H1       HT       0.417000       1.00800           0
     76067 TIP3     17895    TIP3     H2       HT       0.417000       1.00800           0
     76068 TIP3     17896    TIP3     OH2      OT      -0.834000       15.9994           0
     76069 TIP3     17896    TIP3     H1       HT       0.417000       1.00800           0
     76070 TIP3     17896    TIP3     H2       HT       0.417000       1.00800           0
     76071 TIP3     17897    TIP3     OH2      OT      -0.834000       15.9994           0
     76072 TIP3     17897    TIP3     H1       HT       0.417000       1.00800           0
     76073 TIP3     17897    TIP3     H2       HT       0.417000       1.00800           0
     76074 TIP3     17898    TIP3     OH2      OT      -0.834000       15.9994           0
     76075 TIP3     17898    TIP3     H1       HT       0.417000       1.00800           0
     76076 TIP3     17898    TIP3     H2       HT       0.417000       1.00800           0
     76077 TIP3     17899    TIP3     OH2      OT      -0.834000       15.9994           0
     76078 TIP3     17899    TIP3     H1       HT       0.417000       1.00800           0
     76079 TIP3     17899    TIP3     H2       HT       0.417000       1.00800           0
     76080 TIP3     17900    TIP3     OH2      OT      -0.834000       15.9994           0
     76081 TIP3     17900    TIP3     H1       HT       0.417000       1.00800           0
     76082 TIP3     17900    TIP3     H2       HT       0.417000       1.00800           0
     76083 TIP3     17901    TIP3     OH2      OT      -0.834000       15.9994           0
     76084 TIP3     17901    TIP3     H1       HT       0.417000       1.00800           0
     76085 TIP3     17901    TIP3     H2       HT       0.417000       1.00800           0
     76086 TIP3     17902    TIP3     OH2      OT      -0.834000       15.9994           0
     76087 TIP3     17902    TIP3     H1       HT       0.417000       1.00800           0
     76088 TIP3     17902    TIP3     H2       HT       0.417000       1.00800           0
     76089 TIP3     17903    TIP3     OH2      OT      -0.834000       15.9994           0
     76090 TIP3     17903    TIP3     H1       HT       0.417000       1.00800           0
     76091 TIP3     17903    TIP3     H2       HT       0.417000       1.00800           0
     76092 TIP3     17904    TIP3     OH2      OT      -0.834000       15.9994           0
     76093 TIP3     17904    TIP3     H1       HT       0.417000       1.00800           0
     76094 TIP3     17904    TIP3     H2       HT       0.417000       1.00800           0
     76095 TIP3     17905    TIP3     OH2      OT      -0.834000       15.9994           0
     76096 TIP3     17905    TIP3     H1       HT       0.417000       1.00800           0
     76097 TIP3     17905    TIP3     H2       HT       0.417000       1.00800           0
     76098 TIP3     17906    TIP3     OH2      OT      -0.834000       15.9994           0
     76099 TIP3     17906    TIP3     H1       HT       0.417000       1.00800           0
     76100 TIP3     17906    TIP3     H2       HT       0.417000       1.00800           0
     76101 TIP3     17907    TIP3     OH2      OT      -0.834000       15.9994           0
     76102 TIP3     17907    TIP3     H1       HT       0.417000       1.00800           0
     76103 TIP3     17907    TIP3     H2       HT       0.417000       1.00800           0
     76104 TIP3     17908    TIP3     OH2      OT      -0.834000       15.9994           0
     76105 TIP3     17908    TIP3     H1       HT       0.417000       1.00800           0
     76106 TIP3     17908    TIP3     H2       HT       0.417000       1.00800           0
     76107 TIP3     17909    TIP3     OH2      OT      -0.834000       15.9994           0
     76108 TIP3     17909    TIP3     H1       HT       0.417000       1.00800           0
     76109 TIP3     17909    TIP3     H2       HT       0.417000       1.00800           0
     76110 TIP3     17910    TIP3     OH2      OT      -0.834000       15.9994           0
     76111 TIP3     17910    TIP3     H1       HT       0.417000       1.00800           0
     76112 TIP3     17910    TIP3     H2       HT       0.417000       1.00800           0
     76113 TIP3     17911    TIP3     OH2      OT      -0.834000       15.9994           0
     76114 TIP3     17911    TIP3     H1       HT       0.417000       1.00800           0
     76115 TIP3     17911    TIP3     H2       HT       0.417000       1.00800           0
     76116 TIP3     17912    TIP3     OH2      OT      -0.834000       15.9994           0
     76117 TIP3     17912    TIP3     H1       HT       0.417000       1.00800           0
     76118 TIP3     17912    TIP3     H2       HT       0.417000       1.00800           0
     76119 TIP3     17913    TIP3     OH2      OT      -0.834000       15.9994           0
     76120 TIP3     17913    TIP3     H1       HT       0.417000       1.00800           0
     76121 TIP3     17913    TIP3     H2       HT       0.417000       1.00800           0
     76122 TIP3     17914    TIP3     OH2      OT      -0.834000       15.9994           0
     76123 TIP3     17914    TIP3     H1       HT       0.417000       1.00800           0
     76124 TIP3     17914    TIP3     H2       HT       0.417000       1.00800           0
     76125 TIP3     17915    TIP3     OH2      OT      -0.834000       15.9994           0
     76126 TIP3     17915    TIP3     H1       HT       0.417000       1.00800           0
     76127 TIP3     17915    TIP3     H2       HT       0.417000       1.00800           0
     76128 TIP3     17916    TIP3     OH2      OT      -0.834000       15.9994           0
     76129 TIP3     17916    TIP3     H1       HT       0.417000       1.00800           0
     76130 TIP3     17916    TIP3     H2       HT       0.417000       1.00800           0
     76131 TIP3     17917    TIP3     OH2      OT      -0.834000       15.9994           0
     76132 TIP3     17917    TIP3     H1       HT       0.417000       1.00800           0
     76133 TIP3     17917    TIP3     H2       HT       0.417000       1.00800           0
     76134 TIP3     17918    TIP3     OH2      OT      -0.834000       15.9994           0
     76135 TIP3     17918    TIP3     H1       HT       0.417000       1.00800           0
     76136 TIP3     17918    TIP3     H2       HT       0.417000       1.00800           0
     76137 TIP3     17919    TIP3     OH2      OT      -0.834000       15.9994           0
     76138 TIP3     17919    TIP3     H1       HT       0.417000       1.00800           0
     76139 TIP3     17919    TIP3     H2       HT       0.417000       1.00800           0
     76140 TIP3     17920    TIP3     OH2      OT      -0.834000       15.9994           0
     76141 TIP3     17920    TIP3     H1       HT       0.417000       1.00800           0
     76142 TIP3     17920    TIP3     H2       HT       0.417000       1.00800           0
     76143 TIP3     17921    TIP3     OH2      OT      -0.834000       15.9994           0
     76144 TIP3     17921    TIP3     H1       HT       0.417000       1.00800           0
     76145 TIP3     17921    TIP3     H2       HT       0.417000       1.00800           0
     76146 TIP3     17922    TIP3     OH2      OT      -0.834000       15.9994           0
     76147 TIP3     17922    TIP3     H1       HT       0.417000       1.00800           0
     76148 TIP3     17922    TIP3     H2       HT       0.417000       1.00800           0
     76149 TIP3     17923    TIP3     OH2      OT      -0.834000       15.9994           0
     76150 TIP3     17923    TIP3     H1       HT       0.417000       1.00800           0
     76151 TIP3     17923    TIP3     H2       HT       0.417000       1.00800           0
     76152 TIP3     17924    TIP3     OH2      OT      -0.834000       15.9994           0
     76153 TIP3     17924    TIP3     H1       HT       0.417000       1.00800           0
     76154 TIP3     17924    TIP3     H2       HT       0.417000       1.00800           0
     76155 TIP3     17925    TIP3     OH2      OT      -0.834000       15.9994           0
     76156 TIP3     17925    TIP3     H1       HT       0.417000       1.00800           0
     76157 TIP3     17925    TIP3     H2       HT       0.417000       1.00800           0
     76158 TIP3     17926    TIP3     OH2      OT      -0.834000       15.9994           0
     76159 TIP3     17926    TIP3     H1       HT       0.417000       1.00800           0
     76160 TIP3     17926    TIP3     H2       HT       0.417000       1.00800           0
     76161 TIP3     17927    TIP3     OH2      OT      -0.834000       15.9994           0
     76162 TIP3     17927    TIP3     H1       HT       0.417000       1.00800           0
     76163 TIP3     17927    TIP3     H2       HT       0.417000       1.00800           0
     76164 TIP3     17928    TIP3     OH2      OT      -0.834000       15.9994           0
     76165 TIP3     17928    TIP3     H1       HT       0.417000       1.00800           0
     76166 TIP3     17928    TIP3     H2       HT       0.417000       1.00800           0
     76167 TIP3     17929    TIP3     OH2      OT      -0.834000       15.9994           0
     76168 TIP3     17929    TIP3     H1       HT       0.417000       1.00800           0
     76169 TIP3     17929    TIP3     H2       HT       0.417000       1.00800           0
     76170 TIP3     17930    TIP3     OH2      OT      -0.834000       15.9994           0
     76171 TIP3     17930    TIP3     H1       HT       0.417000       1.00800           0
     76172 TIP3     17930    TIP3     H2       HT       0.417000       1.00800           0
     76173 TIP3     17931    TIP3     OH2      OT      -0.834000       15.9994           0
     76174 TIP3     17931    TIP3     H1       HT       0.417000       1.00800           0
     76175 TIP3     17931    TIP3     H2       HT       0.417000       1.00800           0
     76176 TIP3     17932    TIP3     OH2      OT      -0.834000       15.9994           0
     76177 TIP3     17932    TIP3     H1       HT       0.417000       1.00800           0
     76178 TIP3     17932    TIP3     H2       HT       0.417000       1.00800           0
     76179 TIP3     17933    TIP3     OH2      OT      -0.834000       15.9994           0
     76180 TIP3     17933    TIP3     H1       HT       0.417000       1.00800           0
     76181 TIP3     17933    TIP3     H2       HT       0.417000       1.00800           0
     76182 TIP3     17934    TIP3     OH2      OT      -0.834000       15.9994           0
     76183 TIP3     17934    TIP3     H1       HT       0.417000       1.00800           0
     76184 TIP3     17934    TIP3     H2       HT       0.417000       1.00800           0
     76185 TIP3     17935    TIP3     OH2      OT      -0.834000       15.9994           0
     76186 TIP3     17935    TIP3     H1       HT       0.417000       1.00800           0
     76187 TIP3     17935    TIP3     H2       HT       0.417000       1.00800           0
     76188 TIP3     17936    TIP3     OH2      OT      -0.834000       15.9994           0
     76189 TIP3     17936    TIP3     H1       HT       0.417000       1.00800           0
     76190 TIP3     17936    TIP3     H2       HT       0.417000       1.00800           0
     76191 TIP3     17937    TIP3     OH2      OT      -0.834000       15.9994           0
     76192 TIP3     17937    TIP3     H1       HT       0.417000       1.00800           0
     76193 TIP3     17937    TIP3     H2       HT       0.417000       1.00800           0
     76194 TIP3     17938    TIP3     OH2      OT      -0.834000       15.9994           0
     76195 TIP3     17938    TIP3     H1       HT       0.417000       1.00800           0
     76196 TIP3     17938    TIP3     H2       HT       0.417000       1.00800           0
     76197 TIP3     17939    TIP3     OH2      OT      -0.834000       15.9994           0
     76198 TIP3     17939    TIP3     H1       HT       0.417000       1.00800           0
     76199 TIP3     17939    TIP3     H2       HT       0.417000       1.00800           0
     76200 TIP3     17940    TIP3     OH2      OT      -0.834000       15.9994           0
     76201 TIP3     17940    TIP3     H1       HT       0.417000       1.00800           0
     76202 TIP3     17940    TIP3     H2       HT       0.417000       1.00800           0
     76203 TIP3     17941    TIP3     OH2      OT      -0.834000       15.9994           0
     76204 TIP3     17941    TIP3     H1       HT       0.417000       1.00800           0
     76205 TIP3     17941    TIP3     H2       HT       0.417000       1.00800           0
     76206 TIP3     17942    TIP3     OH2      OT      -0.834000       15.9994           0
     76207 TIP3     17942    TIP3     H1       HT       0.417000       1.00800           0
     76208 TIP3     17942    TIP3     H2       HT       0.417000       1.00800           0
     76209 TIP3     17943    TIP3     OH2      OT      -0.834000       15.9994           0
     76210 TIP3     17943    TIP3     H1       HT       0.417000       1.00800           0
     76211 TIP3     17943    TIP3     H2       HT       0.417000       1.00800           0
     76212 TIP3     17944    TIP3     OH2      OT      -0.834000       15.9994           0
     76213 TIP3     17944    TIP3     H1       HT       0.417000       1.00800           0
     76214 TIP3     17944    TIP3     H2       HT       0.417000       1.00800           0
     76215 TIP3     17945    TIP3     OH2      OT      -0.834000       15.9994           0
     76216 TIP3     17945    TIP3     H1       HT       0.417000       1.00800           0
     76217 TIP3     17945    TIP3     H2       HT       0.417000       1.00800           0
     76218 TIP3     17946    TIP3     OH2      OT      -0.834000       15.9994           0
     76219 TIP3     17946    TIP3     H1       HT       0.417000       1.00800           0
     76220 TIP3     17946    TIP3     H2       HT       0.417000       1.00800           0
     76221 TIP3     17947    TIP3     OH2      OT      -0.834000       15.9994           0
     76222 TIP3     17947    TIP3     H1       HT       0.417000       1.00800           0
     76223 TIP3     17947    TIP3     H2       HT       0.417000       1.00800           0
     76224 TIP3     17948    TIP3     OH2      OT      -0.834000       15.9994           0
     76225 TIP3     17948    TIP3     H1       HT       0.417000       1.00800           0
     76226 TIP3     17948    TIP3     H2       HT       0.417000       1.00800           0
     76227 TIP3     17949    TIP3     OH2      OT      -0.834000       15.9994           0
     76228 TIP3     17949    TIP3     H1       HT       0.417000       1.00800           0
     76229 TIP3     17949    TIP3     H2       HT       0.417000       1.00800           0
     76230 TIP3     17950    TIP3     OH2      OT      -0.834000       15.9994           0
     76231 TIP3     17950    TIP3     H1       HT       0.417000       1.00800           0
     76232 TIP3     17950    TIP3     H2       HT       0.417000       1.00800           0
     76233 TIP3     17951    TIP3     OH2      OT      -0.834000       15.9994           0
     76234 TIP3     17951    TIP3     H1       HT       0.417000       1.00800           0
     76235 TIP3     17951    TIP3     H2       HT       0.417000       1.00800           0
     76236 TIP3     17952    TIP3     OH2      OT      -0.834000       15.9994           0
     76237 TIP3     17952    TIP3     H1       HT       0.417000       1.00800           0
     76238 TIP3     17952    TIP3     H2       HT       0.417000       1.00800           0
     76239 TIP3     17953    TIP3     OH2      OT      -0.834000       15.9994           0
     76240 TIP3     17953    TIP3     H1       HT       0.417000       1.00800           0
     76241 TIP3     17953    TIP3     H2       HT       0.417000       1.00800           0
     76242 TIP3     17954    TIP3     OH2      OT      -0.834000       15.9994           0
     76243 TIP3     17954    TIP3     H1       HT       0.417000       1.00800           0
     76244 TIP3     17954    TIP3     H2       HT       0.417000       1.00800           0
     76245 TIP3     17955    TIP3     OH2      OT      -0.834000       15.9994           0
     76246 TIP3     17955    TIP3     H1       HT       0.417000       1.00800           0
     76247 TIP3     17955    TIP3     H2       HT       0.417000       1.00800           0
     76248 TIP3     17956    TIP3     OH2      OT      -0.834000       15.9994           0
     76249 TIP3     17956    TIP3     H1       HT       0.417000       1.00800           0
     76250 TIP3     17956    TIP3     H2       HT       0.417000       1.00800           0
     76251 TIP3     17957    TIP3     OH2      OT      -0.834000       15.9994           0
     76252 TIP3     17957    TIP3     H1       HT       0.417000       1.00800           0
     76253 TIP3     17957    TIP3     H2       HT       0.417000       1.00800           0
     76254 TIP3     17958    TIP3     OH2      OT      -0.834000       15.9994           0
     76255 TIP3     17958    TIP3     H1       HT       0.417000       1.00800           0
     76256 TIP3     17958    TIP3     H2       HT       0.417000       1.00800           0
     76257 TIP3     17959    TIP3     OH2      OT      -0.834000       15.9994           0
     76258 TIP3     17959    TIP3     H1       HT       0.417000       1.00800           0
     76259 TIP3     17959    TIP3     H2       HT       0.417000       1.00800           0
     76260 TIP3     17960    TIP3     OH2      OT      -0.834000       15.9994           0
     76261 TIP3     17960    TIP3     H1       HT       0.417000       1.00800           0
     76262 TIP3     17960    TIP3     H2       HT       0.417000       1.00800           0
     76263 TIP3     17961    TIP3     OH2      OT      -0.834000       15.9994           0
     76264 TIP3     17961    TIP3     H1       HT       0.417000       1.00800           0
     76265 TIP3     17961    TIP3     H2       HT       0.417000       1.00800           0
     76266 TIP3     17962    TIP3     OH2      OT      -0.834000       15.9994           0
     76267 TIP3     17962    TIP3     H1       HT       0.417000       1.00800           0
     76268 TIP3     17962    TIP3     H2       HT       0.417000       1.00800           0
     76269 TIP3     17963    TIP3     OH2      OT      -0.834000       15.9994           0
     76270 TIP3     17963    TIP3     H1       HT       0.417000       1.00800           0
     76271 TIP3     17963    TIP3     H2       HT       0.417000       1.00800           0
     76272 TIP3     17964    TIP3     OH2      OT      -0.834000       15.9994           0
     76273 TIP3     17964    TIP3     H1       HT       0.417000       1.00800           0
     76274 TIP3     17964    TIP3     H2       HT       0.417000       1.00800           0
     76275 TIP3     17965    TIP3     OH2      OT      -0.834000       15.9994           0
     76276 TIP3     17965    TIP3     H1       HT       0.417000       1.00800           0
     76277 TIP3     17965    TIP3     H2       HT       0.417000       1.00800           0
     76278 TIP3     17966    TIP3     OH2      OT      -0.834000       15.9994           0
     76279 TIP3     17966    TIP3     H1       HT       0.417000       1.00800           0
     76280 TIP3     17966    TIP3     H2       HT       0.417000       1.00800           0
     76281 TIP3     17967    TIP3     OH2      OT      -0.834000       15.9994           0
     76282 TIP3     17967    TIP3     H1       HT       0.417000       1.00800           0
     76283 TIP3     17967    TIP3     H2       HT       0.417000       1.00800           0
     76284 TIP3     17968    TIP3     OH2      OT      -0.834000       15.9994           0
     76285 TIP3     17968    TIP3     H1       HT       0.417000       1.00800           0
     76286 TIP3     17968    TIP3     H2       HT       0.417000       1.00800           0
     76287 TIP3     17969    TIP3     OH2      OT      -0.834000       15.9994           0
     76288 TIP3     17969    TIP3     H1       HT       0.417000       1.00800           0
     76289 TIP3     17969    TIP3     H2       HT       0.417000       1.00800           0
     76290 TIP3     17970    TIP3     OH2      OT      -0.834000       15.9994           0
     76291 TIP3     17970    TIP3     H1       HT       0.417000       1.00800           0
     76292 TIP3     17970    TIP3     H2       HT       0.417000       1.00800           0
     76293 TIP3     17971    TIP3     OH2      OT      -0.834000       15.9994           0
     76294 TIP3     17971    TIP3     H1       HT       0.417000       1.00800           0
     76295 TIP3     17971    TIP3     H2       HT       0.417000       1.00800           0
     76296 TIP3     17972    TIP3     OH2      OT      -0.834000       15.9994           0
     76297 TIP3     17972    TIP3     H1       HT       0.417000       1.00800           0
     76298 TIP3     17972    TIP3     H2       HT       0.417000       1.00800           0
     76299 TIP3     17973    TIP3     OH2      OT      -0.834000       15.9994           0
     76300 TIP3     17973    TIP3     H1       HT       0.417000       1.00800           0
     76301 TIP3     17973    TIP3     H2       HT       0.417000       1.00800           0
     76302 TIP3     17974    TIP3     OH2      OT      -0.834000       15.9994           0
     76303 TIP3     17974    TIP3     H1       HT       0.417000       1.00800           0
     76304 TIP3     17974    TIP3     H2       HT       0.417000       1.00800           0
     76305 TIP3     17975    TIP3     OH2      OT      -0.834000       15.9994           0
     76306 TIP3     17975    TIP3     H1       HT       0.417000       1.00800           0
     76307 TIP3     17975    TIP3     H2       HT       0.417000       1.00800           0
     76308 TIP3     17976    TIP3     OH2      OT      -0.834000       15.9994           0
     76309 TIP3     17976    TIP3     H1       HT       0.417000       1.00800           0
     76310 TIP3     17976    TIP3     H2       HT       0.417000       1.00800           0
     76311 TIP3     17977    TIP3     OH2      OT      -0.834000       15.9994           0
     76312 TIP3     17977    TIP3     H1       HT       0.417000       1.00800           0
     76313 TIP3     17977    TIP3     H2       HT       0.417000       1.00800           0
     76314 TIP3     17978    TIP3     OH2      OT      -0.834000       15.9994           0
     76315 TIP3     17978    TIP3     H1       HT       0.417000       1.00800           0
     76316 TIP3     17978    TIP3     H2       HT       0.417000       1.00800           0
     76317 TIP3     17979    TIP3     OH2      OT      -0.834000       15.9994           0
     76318 TIP3     17979    TIP3     H1       HT       0.417000       1.00800           0
     76319 TIP3     17979    TIP3     H2       HT       0.417000       1.00800           0
     76320 TIP3     17980    TIP3     OH2      OT      -0.834000       15.9994           0
     76321 TIP3     17980    TIP3     H1       HT       0.417000       1.00800           0
     76322 TIP3     17980    TIP3     H2       HT       0.417000       1.00800           0
     76323 TIP3     17981    TIP3     OH2      OT      -0.834000       15.9994           0
     76324 TIP3     17981    TIP3     H1       HT       0.417000       1.00800           0
     76325 TIP3     17981    TIP3     H2       HT       0.417000       1.00800           0
     76326 TIP3     17982    TIP3     OH2      OT      -0.834000       15.9994           0
     76327 TIP3     17982    TIP3     H1       HT       0.417000       1.00800           0
     76328 TIP3     17982    TIP3     H2       HT       0.417000       1.00800           0
     76329 TIP3     17983    TIP3     OH2      OT      -0.834000       15.9994           0
     76330 TIP3     17983    TIP3     H1       HT       0.417000       1.00800           0
     76331 TIP3     17983    TIP3     H2       HT       0.417000       1.00800           0
     76332 TIP3     17984    TIP3     OH2      OT      -0.834000       15.9994           0
     76333 TIP3     17984    TIP3     H1       HT       0.417000       1.00800           0
     76334 TIP3     17984    TIP3     H2       HT       0.417000       1.00800           0
     76335 TIP3     17985    TIP3     OH2      OT      -0.834000       15.9994           0
     76336 TIP3     17985    TIP3     H1       HT       0.417000       1.00800           0
     76337 TIP3     17985    TIP3     H2       HT       0.417000       1.00800           0
     76338 TIP3     17986    TIP3     OH2      OT      -0.834000       15.9994           0
     76339 TIP3     17986    TIP3     H1       HT       0.417000       1.00800           0
     76340 TIP3     17986    TIP3     H2       HT       0.417000       1.00800           0
     76341 TIP3     17987    TIP3     OH2      OT      -0.834000       15.9994           0
     76342 TIP3     17987    TIP3     H1       HT       0.417000       1.00800           0
     76343 TIP3     17987    TIP3     H2       HT       0.417000       1.00800           0
     76344 TIP3     17988    TIP3     OH2      OT      -0.834000       15.9994           0
     76345 TIP3     17988    TIP3     H1       HT       0.417000       1.00800           0
     76346 TIP3     17988    TIP3     H2       HT       0.417000       1.00800           0
     76347 TIP3     17989    TIP3     OH2      OT      -0.834000       15.9994           0
     76348 TIP3     17989    TIP3     H1       HT       0.417000       1.00800           0
     76349 TIP3     17989    TIP3     H2       HT       0.417000       1.00800           0
     76350 TIP3     17990    TIP3     OH2      OT      -0.834000       15.9994           0
     76351 TIP3     17990    TIP3     H1       HT       0.417000       1.00800           0
     76352 TIP3     17990    TIP3     H2       HT       0.417000       1.00800           0
     76353 TIP3     17991    TIP3     OH2      OT      -0.834000       15.9994           0
     76354 TIP3     17991    TIP3     H1       HT       0.417000       1.00800           0
     76355 TIP3     17991    TIP3     H2       HT       0.417000       1.00800           0
     76356 TIP3     17992    TIP3     OH2      OT      -0.834000       15.9994           0
     76357 TIP3     17992    TIP3     H1       HT       0.417000       1.00800           0
     76358 TIP3     17992    TIP3     H2       HT       0.417000       1.00800           0
     76359 TIP3     17993    TIP3     OH2      OT      -0.834000       15.9994           0
     76360 TIP3     17993    TIP3     H1       HT       0.417000       1.00800           0
     76361 TIP3     17993    TIP3     H2       HT       0.417000       1.00800           0
     76362 TIP3     17994    TIP3     OH2      OT      -0.834000       15.9994           0
     76363 TIP3     17994    TIP3     H1       HT       0.417000       1.00800           0
     76364 TIP3     17994    TIP3     H2       HT       0.417000       1.00800           0
     76365 TIP3     17995    TIP3     OH2      OT      -0.834000       15.9994           0
     76366 TIP3     17995    TIP3     H1       HT       0.417000       1.00800           0
     76367 TIP3     17995    TIP3     H2       HT       0.417000       1.00800           0
     76368 TIP3     17996    TIP3     OH2      OT      -0.834000       15.9994           0
     76369 TIP3     17996    TIP3     H1       HT       0.417000       1.00800           0
     76370 TIP3     17996    TIP3     H2       HT       0.417000       1.00800           0
     76371 TIP3     17997    TIP3     OH2      OT      -0.834000       15.9994           0
     76372 TIP3     17997    TIP3     H1       HT       0.417000       1.00800           0
     76373 TIP3     17997    TIP3     H2       HT       0.417000       1.00800           0
     76374 TIP3     17998    TIP3     OH2      OT      -0.834000       15.9994           0
     76375 TIP3     17998    TIP3     H1       HT       0.417000       1.00800           0
     76376 TIP3     17998    TIP3     H2       HT       0.417000       1.00800           0
     76377 TIP3     17999    TIP3     OH2      OT      -0.834000       15.9994           0
     76378 TIP3     17999    TIP3     H1       HT       0.417000       1.00800           0
     76379 TIP3     17999    TIP3     H2       HT       0.417000       1.00800           0
     76380 TIP3     18000    TIP3     OH2      OT      -0.834000       15.9994           0
     76381 TIP3     18000    TIP3     H1       HT       0.417000       1.00800           0
     76382 TIP3     18000    TIP3     H2       HT       0.417000       1.00800           0
     76383 TIP3     18001    TIP3     OH2      OT      -0.834000       15.9994           0
     76384 TIP3     18001    TIP3     H1       HT       0.417000       1.00800           0
     76385 TIP3     18001    TIP3     H2       HT       0.417000       1.00800           0
     76386 TIP3     18002    TIP3     OH2      OT      -0.834000       15.9994           0
     76387 TIP3     18002    TIP3     H1       HT       0.417000       1.00800           0
     76388 TIP3     18002    TIP3     H2       HT       0.417000       1.00800           0
     76389 TIP3     18003    TIP3     OH2      OT      -0.834000       15.9994           0
     76390 TIP3     18003    TIP3     H1       HT       0.417000       1.00800           0
     76391 TIP3     18003    TIP3     H2       HT       0.417000       1.00800           0
     76392 TIP3     18004    TIP3     OH2      OT      -0.834000       15.9994           0
     76393 TIP3     18004    TIP3     H1       HT       0.417000       1.00800           0
     76394 TIP3     18004    TIP3     H2       HT       0.417000       1.00800           0
     76395 TIP3     18005    TIP3     OH2      OT      -0.834000       15.9994           0
     76396 TIP3     18005    TIP3     H1       HT       0.417000       1.00800           0
     76397 TIP3     18005    TIP3     H2       HT       0.417000       1.00800           0
     76398 TIP3     18006    TIP3     OH2      OT      -0.834000       15.9994           0
     76399 TIP3     18006    TIP3     H1       HT       0.417000       1.00800           0
     76400 TIP3     18006    TIP3     H2       HT       0.417000       1.00800           0
     76401 TIP3     18007    TIP3     OH2      OT      -0.834000       15.9994           0
     76402 TIP3     18007    TIP3     H1       HT       0.417000       1.00800           0
     76403 TIP3     18007    TIP3     H2       HT       0.417000       1.00800           0
     76404 TIP3     18008    TIP3     OH2      OT      -0.834000       15.9994           0
     76405 TIP3     18008    TIP3     H1       HT       0.417000       1.00800           0
     76406 TIP3     18008    TIP3     H2       HT       0.417000       1.00800           0
     76407 TIP3     18009    TIP3     OH2      OT      -0.834000       15.9994           0
     76408 TIP3     18009    TIP3     H1       HT       0.417000       1.00800           0
     76409 TIP3     18009    TIP3     H2       HT       0.417000       1.00800           0
     76410 TIP3     18010    TIP3     OH2      OT      -0.834000       15.9994           0
     76411 TIP3     18010    TIP3     H1       HT       0.417000       1.00800           0
     76412 TIP3     18010    TIP3     H2       HT       0.417000       1.00800           0
     76413 TIP3     18011    TIP3     OH2      OT      -0.834000       15.9994           0
     76414 TIP3     18011    TIP3     H1       HT       0.417000       1.00800           0
     76415 TIP3     18011    TIP3     H2       HT       0.417000       1.00800           0
     76416 TIP3     18012    TIP3     OH2      OT      -0.834000       15.9994           0
     76417 TIP3     18012    TIP3     H1       HT       0.417000       1.00800           0
     76418 TIP3     18012    TIP3     H2       HT       0.417000       1.00800           0
     76419 TIP3     18013    TIP3     OH2      OT      -0.834000       15.9994           0
     76420 TIP3     18013    TIP3     H1       HT       0.417000       1.00800           0
     76421 TIP3     18013    TIP3     H2       HT       0.417000       1.00800           0
     76422 TIP3     18014    TIP3     OH2      OT      -0.834000       15.9994           0
     76423 TIP3     18014    TIP3     H1       HT       0.417000       1.00800           0
     76424 TIP3     18014    TIP3     H2       HT       0.417000       1.00800           0
     76425 TIP3     18015    TIP3     OH2      OT      -0.834000       15.9994           0
     76426 TIP3     18015    TIP3     H1       HT       0.417000       1.00800           0
     76427 TIP3     18015    TIP3     H2       HT       0.417000       1.00800           0
     76428 TIP3     18016    TIP3     OH2      OT      -0.834000       15.9994           0
     76429 TIP3     18016    TIP3     H1       HT       0.417000       1.00800           0
     76430 TIP3     18016    TIP3     H2       HT       0.417000       1.00800           0
     76431 TIP3     18017    TIP3     OH2      OT      -0.834000       15.9994           0
     76432 TIP3     18017    TIP3     H1       HT       0.417000       1.00800           0
     76433 TIP3     18017    TIP3     H2       HT       0.417000       1.00800           0
     76434 TIP3     18018    TIP3     OH2      OT      -0.834000       15.9994           0
     76435 TIP3     18018    TIP3     H1       HT       0.417000       1.00800           0
     76436 TIP3     18018    TIP3     H2       HT       0.417000       1.00800           0
     76437 TIP3     18019    TIP3     OH2      OT      -0.834000       15.9994           0
     76438 TIP3     18019    TIP3     H1       HT       0.417000       1.00800           0
     76439 TIP3     18019    TIP3     H2       HT       0.417000       1.00800           0
     76440 TIP3     18020    TIP3     OH2      OT      -0.834000       15.9994           0
     76441 TIP3     18020    TIP3     H1       HT       0.417000       1.00800           0
     76442 TIP3     18020    TIP3     H2       HT       0.417000       1.00800           0
     76443 TIP3     18021    TIP3     OH2      OT      -0.834000       15.9994           0
     76444 TIP3     18021    TIP3     H1       HT       0.417000       1.00800           0
     76445 TIP3     18021    TIP3     H2       HT       0.417000       1.00800           0
     76446 TIP3     18022    TIP3     OH2      OT      -0.834000       15.9994           0
     76447 TIP3     18022    TIP3     H1       HT       0.417000       1.00800           0
     76448 TIP3     18022    TIP3     H2       HT       0.417000       1.00800           0
     76449 TIP3     18023    TIP3     OH2      OT      -0.834000       15.9994           0
     76450 TIP3     18023    TIP3     H1       HT       0.417000       1.00800           0
     76451 TIP3     18023    TIP3     H2       HT       0.417000       1.00800           0
     76452 TIP3     18024    TIP3     OH2      OT      -0.834000       15.9994           0
     76453 TIP3     18024    TIP3     H1       HT       0.417000       1.00800           0
     76454 TIP3     18024    TIP3     H2       HT       0.417000       1.00800           0
     76455 TIP3     18025    TIP3     OH2      OT      -0.834000       15.9994           0
     76456 TIP3     18025    TIP3     H1       HT       0.417000       1.00800           0
     76457 TIP3     18025    TIP3     H2       HT       0.417000       1.00800           0
     76458 TIP3     18026    TIP3     OH2      OT      -0.834000       15.9994           0
     76459 TIP3     18026    TIP3     H1       HT       0.417000       1.00800           0
     76460 TIP3     18026    TIP3     H2       HT       0.417000       1.00800           0
     76461 TIP3     18027    TIP3     OH2      OT      -0.834000       15.9994           0
     76462 TIP3     18027    TIP3     H1       HT       0.417000       1.00800           0
     76463 TIP3     18027    TIP3     H2       HT       0.417000       1.00800           0
     76464 TIP3     18028    TIP3     OH2      OT      -0.834000       15.9994           0
     76465 TIP3     18028    TIP3     H1       HT       0.417000       1.00800           0
     76466 TIP3     18028    TIP3     H2       HT       0.417000       1.00800           0
     76467 TIP3     18029    TIP3     OH2      OT      -0.834000       15.9994           0
     76468 TIP3     18029    TIP3     H1       HT       0.417000       1.00800           0
     76469 TIP3     18029    TIP3     H2       HT       0.417000       1.00800           0
     76470 TIP3     18030    TIP3     OH2      OT      -0.834000       15.9994           0
     76471 TIP3     18030    TIP3     H1       HT       0.417000       1.00800           0
     76472 TIP3     18030    TIP3     H2       HT       0.417000       1.00800           0
     76473 TIP3     18031    TIP3     OH2      OT      -0.834000       15.9994           0
     76474 TIP3     18031    TIP3     H1       HT       0.417000       1.00800           0
     76475 TIP3     18031    TIP3     H2       HT       0.417000       1.00800           0
     76476 TIP3     18032    TIP3     OH2      OT      -0.834000       15.9994           0
     76477 TIP3     18032    TIP3     H1       HT       0.417000       1.00800           0
     76478 TIP3     18032    TIP3     H2       HT       0.417000       1.00800           0
     76479 TIP3     18033    TIP3     OH2      OT      -0.834000       15.9994           0
     76480 TIP3     18033    TIP3     H1       HT       0.417000       1.00800           0
     76481 TIP3     18033    TIP3     H2       HT       0.417000       1.00800           0
     76482 TIP3     18034    TIP3     OH2      OT      -0.834000       15.9994           0
     76483 TIP3     18034    TIP3     H1       HT       0.417000       1.00800           0
     76484 TIP3     18034    TIP3     H2       HT       0.417000       1.00800           0
     76485 TIP3     18035    TIP3     OH2      OT      -0.834000       15.9994           0
     76486 TIP3     18035    TIP3     H1       HT       0.417000       1.00800           0
     76487 TIP3     18035    TIP3     H2       HT       0.417000       1.00800           0
     76488 TIP3     18036    TIP3     OH2      OT      -0.834000       15.9994           0
     76489 TIP3     18036    TIP3     H1       HT       0.417000       1.00800           0
     76490 TIP3     18036    TIP3     H2       HT       0.417000       1.00800           0
     76491 TIP3     18037    TIP3     OH2      OT      -0.834000       15.9994           0
     76492 TIP3     18037    TIP3     H1       HT       0.417000       1.00800           0
     76493 TIP3     18037    TIP3     H2       HT       0.417000       1.00800           0
     76494 TIP3     18038    TIP3     OH2      OT      -0.834000       15.9994           0
     76495 TIP3     18038    TIP3     H1       HT       0.417000       1.00800           0
     76496 TIP3     18038    TIP3     H2       HT       0.417000       1.00800           0
     76497 TIP3     18039    TIP3     OH2      OT      -0.834000       15.9994           0
     76498 TIP3     18039    TIP3     H1       HT       0.417000       1.00800           0
     76499 TIP3     18039    TIP3     H2       HT       0.417000       1.00800           0
     76500 TIP3     18040    TIP3     OH2      OT      -0.834000       15.9994           0
     76501 TIP3     18040    TIP3     H1       HT       0.417000       1.00800           0
     76502 TIP3     18040    TIP3     H2       HT       0.417000       1.00800           0
     76503 TIP3     18041    TIP3     OH2      OT      -0.834000       15.9994           0
     76504 TIP3     18041    TIP3     H1       HT       0.417000       1.00800           0
     76505 TIP3     18041    TIP3     H2       HT       0.417000       1.00800           0
     76506 TIP3     18042    TIP3     OH2      OT      -0.834000       15.9994           0
     76507 TIP3     18042    TIP3     H1       HT       0.417000       1.00800           0
     76508 TIP3     18042    TIP3     H2       HT       0.417000       1.00800           0
     76509 TIP3     18043    TIP3     OH2      OT      -0.834000       15.9994           0
     76510 TIP3     18043    TIP3     H1       HT       0.417000       1.00800           0
     76511 TIP3     18043    TIP3     H2       HT       0.417000       1.00800           0
     76512 TIP3     18044    TIP3     OH2      OT      -0.834000       15.9994           0
     76513 TIP3     18044    TIP3     H1       HT       0.417000       1.00800           0
     76514 TIP3     18044    TIP3     H2       HT       0.417000       1.00800           0
     76515 TIP3     18045    TIP3     OH2      OT      -0.834000       15.9994           0
     76516 TIP3     18045    TIP3     H1       HT       0.417000       1.00800           0
     76517 TIP3     18045    TIP3     H2       HT       0.417000       1.00800           0
     76518 TIP3     18046    TIP3     OH2      OT      -0.834000       15.9994           0
     76519 TIP3     18046    TIP3     H1       HT       0.417000       1.00800           0
     76520 TIP3     18046    TIP3     H2       HT       0.417000       1.00800           0
     76521 TIP3     18047    TIP3     OH2      OT      -0.834000       15.9994           0
     76522 TIP3     18047    TIP3     H1       HT       0.417000       1.00800           0
     76523 TIP3     18047    TIP3     H2       HT       0.417000       1.00800           0
     76524 TIP3     18048    TIP3     OH2      OT      -0.834000       15.9994           0
     76525 TIP3     18048    TIP3     H1       HT       0.417000       1.00800           0
     76526 TIP3     18048    TIP3     H2       HT       0.417000       1.00800           0
     76527 TIP3     18049    TIP3     OH2      OT      -0.834000       15.9994           0
     76528 TIP3     18049    TIP3     H1       HT       0.417000       1.00800           0
     76529 TIP3     18049    TIP3     H2       HT       0.417000       1.00800           0
     76530 TIP3     18050    TIP3     OH2      OT      -0.834000       15.9994           0
     76531 TIP3     18050    TIP3     H1       HT       0.417000       1.00800           0
     76532 TIP3     18050    TIP3     H2       HT       0.417000       1.00800           0
     76533 TIP3     18051    TIP3     OH2      OT      -0.834000       15.9994           0
     76534 TIP3     18051    TIP3     H1       HT       0.417000       1.00800           0
     76535 TIP3     18051    TIP3     H2       HT       0.417000       1.00800           0
     76536 TIP3     18052    TIP3     OH2      OT      -0.834000       15.9994           0
     76537 TIP3     18052    TIP3     H1       HT       0.417000       1.00800           0
     76538 TIP3     18052    TIP3     H2       HT       0.417000       1.00800           0
     76539 TIP3     18053    TIP3     OH2      OT      -0.834000       15.9994           0
     76540 TIP3     18053    TIP3     H1       HT       0.417000       1.00800           0
     76541 TIP3     18053    TIP3     H2       HT       0.417000       1.00800           0
     76542 TIP3     18054    TIP3     OH2      OT      -0.834000       15.9994           0
     76543 TIP3     18054    TIP3     H1       HT       0.417000       1.00800           0
     76544 TIP3     18054    TIP3     H2       HT       0.417000       1.00800           0
     76545 TIP3     18055    TIP3     OH2      OT      -0.834000       15.9994           0
     76546 TIP3     18055    TIP3     H1       HT       0.417000       1.00800           0
     76547 TIP3     18055    TIP3     H2       HT       0.417000       1.00800           0
     76548 TIP3     18056    TIP3     OH2      OT      -0.834000       15.9994           0
     76549 TIP3     18056    TIP3     H1       HT       0.417000       1.00800           0
     76550 TIP3     18056    TIP3     H2       HT       0.417000       1.00800           0
     76551 TIP3     18057    TIP3     OH2      OT      -0.834000       15.9994           0
     76552 TIP3     18057    TIP3     H1       HT       0.417000       1.00800           0
     76553 TIP3     18057    TIP3     H2       HT       0.417000       1.00800           0
     76554 TIP3     18058    TIP3     OH2      OT      -0.834000       15.9994           0
     76555 TIP3     18058    TIP3     H1       HT       0.417000       1.00800           0
     76556 TIP3     18058    TIP3     H2       HT       0.417000       1.00800           0
     76557 TIP3     18059    TIP3     OH2      OT      -0.834000       15.9994           0
     76558 TIP3     18059    TIP3     H1       HT       0.417000       1.00800           0
     76559 TIP3     18059    TIP3     H2       HT       0.417000       1.00800           0
     76560 TIP3     18060    TIP3     OH2      OT      -0.834000       15.9994           0
     76561 TIP3     18060    TIP3     H1       HT       0.417000       1.00800           0
     76562 TIP3     18060    TIP3     H2       HT       0.417000       1.00800           0
     76563 TIP3     18061    TIP3     OH2      OT      -0.834000       15.9994           0
     76564 TIP3     18061    TIP3     H1       HT       0.417000       1.00800           0
     76565 TIP3     18061    TIP3     H2       HT       0.417000       1.00800           0
     76566 TIP3     18062    TIP3     OH2      OT      -0.834000       15.9994           0
     76567 TIP3     18062    TIP3     H1       HT       0.417000       1.00800           0
     76568 TIP3     18062    TIP3     H2       HT       0.417000       1.00800           0
     76569 TIP3     18063    TIP3     OH2      OT      -0.834000       15.9994           0
     76570 TIP3     18063    TIP3     H1       HT       0.417000       1.00800           0
     76571 TIP3     18063    TIP3     H2       HT       0.417000       1.00800           0
     76572 TIP3     18064    TIP3     OH2      OT      -0.834000       15.9994           0
     76573 TIP3     18064    TIP3     H1       HT       0.417000       1.00800           0
     76574 TIP3     18064    TIP3     H2       HT       0.417000       1.00800           0
     76575 TIP3     18065    TIP3     OH2      OT      -0.834000       15.9994           0
     76576 TIP3     18065    TIP3     H1       HT       0.417000       1.00800           0
     76577 TIP3     18065    TIP3     H2       HT       0.417000       1.00800           0
     76578 TIP3     18066    TIP3     OH2      OT      -0.834000       15.9994           0
     76579 TIP3     18066    TIP3     H1       HT       0.417000       1.00800           0
     76580 TIP3     18066    TIP3     H2       HT       0.417000       1.00800           0
     76581 TIP3     18067    TIP3     OH2      OT      -0.834000       15.9994           0
     76582 TIP3     18067    TIP3     H1       HT       0.417000       1.00800           0
     76583 TIP3     18067    TIP3     H2       HT       0.417000       1.00800           0
     76584 TIP3     18068    TIP3     OH2      OT      -0.834000       15.9994           0
     76585 TIP3     18068    TIP3     H1       HT       0.417000       1.00800           0
     76586 TIP3     18068    TIP3     H2       HT       0.417000       1.00800           0
     76587 TIP3     18069    TIP3     OH2      OT      -0.834000       15.9994           0
     76588 TIP3     18069    TIP3     H1       HT       0.417000       1.00800           0
     76589 TIP3     18069    TIP3     H2       HT       0.417000       1.00800           0
     76590 TIP3     18070    TIP3     OH2      OT      -0.834000       15.9994           0
     76591 TIP3     18070    TIP3     H1       HT       0.417000       1.00800           0
     76592 TIP3     18070    TIP3     H2       HT       0.417000       1.00800           0
     76593 TIP3     18071    TIP3     OH2      OT      -0.834000       15.9994           0
     76594 TIP3     18071    TIP3     H1       HT       0.417000       1.00800           0
     76595 TIP3     18071    TIP3     H2       HT       0.417000       1.00800           0
     76596 TIP3     18072    TIP3     OH2      OT      -0.834000       15.9994           0
     76597 TIP3     18072    TIP3     H1       HT       0.417000       1.00800           0
     76598 TIP3     18072    TIP3     H2       HT       0.417000       1.00800           0
     76599 TIP3     18073    TIP3     OH2      OT      -0.834000       15.9994           0
     76600 TIP3     18073    TIP3     H1       HT       0.417000       1.00800           0
     76601 TIP3     18073    TIP3     H2       HT       0.417000       1.00800           0
     76602 TIP3     18074    TIP3     OH2      OT      -0.834000       15.9994           0
     76603 TIP3     18074    TIP3     H1       HT       0.417000       1.00800           0
     76604 TIP3     18074    TIP3     H2       HT       0.417000       1.00800           0
     76605 TIP3     18075    TIP3     OH2      OT      -0.834000       15.9994           0
     76606 TIP3     18075    TIP3     H1       HT       0.417000       1.00800           0
     76607 TIP3     18075    TIP3     H2       HT       0.417000       1.00800           0
     76608 TIP3     18076    TIP3     OH2      OT      -0.834000       15.9994           0
     76609 TIP3     18076    TIP3     H1       HT       0.417000       1.00800           0
     76610 TIP3     18076    TIP3     H2       HT       0.417000       1.00800           0
     76611 TIP3     18077    TIP3     OH2      OT      -0.834000       15.9994           0
     76612 TIP3     18077    TIP3     H1       HT       0.417000       1.00800           0
     76613 TIP3     18077    TIP3     H2       HT       0.417000       1.00800           0
     76614 TIP3     18078    TIP3     OH2      OT      -0.834000       15.9994           0
     76615 TIP3     18078    TIP3     H1       HT       0.417000       1.00800           0
     76616 TIP3     18078    TIP3     H2       HT       0.417000       1.00800           0
     76617 TIP3     18079    TIP3     OH2      OT      -0.834000       15.9994           0
     76618 TIP3     18079    TIP3     H1       HT       0.417000       1.00800           0
     76619 TIP3     18079    TIP3     H2       HT       0.417000       1.00800           0
     76620 TIP3     18080    TIP3     OH2      OT      -0.834000       15.9994           0
     76621 TIP3     18080    TIP3     H1       HT       0.417000       1.00800           0
     76622 TIP3     18080    TIP3     H2       HT       0.417000       1.00800           0
     76623 TIP3     18081    TIP3     OH2      OT      -0.834000       15.9994           0
     76624 TIP3     18081    TIP3     H1       HT       0.417000       1.00800           0
     76625 TIP3     18081    TIP3     H2       HT       0.417000       1.00800           0
     76626 TIP3     18082    TIP3     OH2      OT      -0.834000       15.9994           0
     76627 TIP3     18082    TIP3     H1       HT       0.417000       1.00800           0
     76628 TIP3     18082    TIP3     H2       HT       0.417000       1.00800           0
     76629 TIP3     18083    TIP3     OH2      OT      -0.834000       15.9994           0
     76630 TIP3     18083    TIP3     H1       HT       0.417000       1.00800           0
     76631 TIP3     18083    TIP3     H2       HT       0.417000       1.00800           0
     76632 TIP3     18084    TIP3     OH2      OT      -0.834000       15.9994           0
     76633 TIP3     18084    TIP3     H1       HT       0.417000       1.00800           0
     76634 TIP3     18084    TIP3     H2       HT       0.417000       1.00800           0
     76635 TIP3     18085    TIP3     OH2      OT      -0.834000       15.9994           0
     76636 TIP3     18085    TIP3     H1       HT       0.417000       1.00800           0
     76637 TIP3     18085    TIP3     H2       HT       0.417000       1.00800           0
     76638 TIP3     18086    TIP3     OH2      OT      -0.834000       15.9994           0
     76639 TIP3     18086    TIP3     H1       HT       0.417000       1.00800           0
     76640 TIP3     18086    TIP3     H2       HT       0.417000       1.00800           0
     76641 TIP3     18087    TIP3     OH2      OT      -0.834000       15.9994           0
     76642 TIP3     18087    TIP3     H1       HT       0.417000       1.00800           0
     76643 TIP3     18087    TIP3     H2       HT       0.417000       1.00800           0
     76644 TIP3     18088    TIP3     OH2      OT      -0.834000       15.9994           0
     76645 TIP3     18088    TIP3     H1       HT       0.417000       1.00800           0
     76646 TIP3     18088    TIP3     H2       HT       0.417000       1.00800           0
     76647 TIP3     18089    TIP3     OH2      OT      -0.834000       15.9994           0
     76648 TIP3     18089    TIP3     H1       HT       0.417000       1.00800           0
     76649 TIP3     18089    TIP3     H2       HT       0.417000       1.00800           0
     76650 TIP3     18090    TIP3     OH2      OT      -0.834000       15.9994           0
     76651 TIP3     18090    TIP3     H1       HT       0.417000       1.00800           0
     76652 TIP3     18090    TIP3     H2       HT       0.417000       1.00800           0
     76653 TIP3     18091    TIP3     OH2      OT      -0.834000       15.9994           0
     76654 TIP3     18091    TIP3     H1       HT       0.417000       1.00800           0
     76655 TIP3     18091    TIP3     H2       HT       0.417000       1.00800           0
     76656 TIP3     18092    TIP3     OH2      OT      -0.834000       15.9994           0
     76657 TIP3     18092    TIP3     H1       HT       0.417000       1.00800           0
     76658 TIP3     18092    TIP3     H2       HT       0.417000       1.00800           0
     76659 TIP3     18093    TIP3     OH2      OT      -0.834000       15.9994           0
     76660 TIP3     18093    TIP3     H1       HT       0.417000       1.00800           0
     76661 TIP3     18093    TIP3     H2       HT       0.417000       1.00800           0
     76662 TIP3     18094    TIP3     OH2      OT      -0.834000       15.9994           0
     76663 TIP3     18094    TIP3     H1       HT       0.417000       1.00800           0
     76664 TIP3     18094    TIP3     H2       HT       0.417000       1.00800           0
     76665 TIP3     18095    TIP3     OH2      OT      -0.834000       15.9994           0
     76666 TIP3     18095    TIP3     H1       HT       0.417000       1.00800           0
     76667 TIP3     18095    TIP3     H2       HT       0.417000       1.00800           0
     76668 TIP3     18096    TIP3     OH2      OT      -0.834000       15.9994           0
     76669 TIP3     18096    TIP3     H1       HT       0.417000       1.00800           0
     76670 TIP3     18096    TIP3     H2       HT       0.417000       1.00800           0
     76671 TIP3     18097    TIP3     OH2      OT      -0.834000       15.9994           0
     76672 TIP3     18097    TIP3     H1       HT       0.417000       1.00800           0
     76673 TIP3     18097    TIP3     H2       HT       0.417000       1.00800           0
     76674 TIP3     18098    TIP3     OH2      OT      -0.834000       15.9994           0
     76675 TIP3     18098    TIP3     H1       HT       0.417000       1.00800           0
     76676 TIP3     18098    TIP3     H2       HT       0.417000       1.00800           0
     76677 TIP3     18099    TIP3     OH2      OT      -0.834000       15.9994           0
     76678 TIP3     18099    TIP3     H1       HT       0.417000       1.00800           0
     76679 TIP3     18099    TIP3     H2       HT       0.417000       1.00800           0
     76680 TIP3     18100    TIP3     OH2      OT      -0.834000       15.9994           0
     76681 TIP3     18100    TIP3     H1       HT       0.417000       1.00800           0
     76682 TIP3     18100    TIP3     H2       HT       0.417000       1.00800           0
     76683 TIP3     18101    TIP3     OH2      OT      -0.834000       15.9994           0
     76684 TIP3     18101    TIP3     H1       HT       0.417000       1.00800           0
     76685 TIP3     18101    TIP3     H2       HT       0.417000       1.00800           0
     76686 TIP3     18102    TIP3     OH2      OT      -0.834000       15.9994           0
     76687 TIP3     18102    TIP3     H1       HT       0.417000       1.00800           0
     76688 TIP3     18102    TIP3     H2       HT       0.417000       1.00800           0
     76689 TIP3     18103    TIP3     OH2      OT      -0.834000       15.9994           0
     76690 TIP3     18103    TIP3     H1       HT       0.417000       1.00800           0
     76691 TIP3     18103    TIP3     H2       HT       0.417000       1.00800           0
     76692 TIP3     18104    TIP3     OH2      OT      -0.834000       15.9994           0
     76693 TIP3     18104    TIP3     H1       HT       0.417000       1.00800           0
     76694 TIP3     18104    TIP3     H2       HT       0.417000       1.00800           0
     76695 TIP3     18105    TIP3     OH2      OT      -0.834000       15.9994           0
     76696 TIP3     18105    TIP3     H1       HT       0.417000       1.00800           0
     76697 TIP3     18105    TIP3     H2       HT       0.417000       1.00800           0
     76698 TIP3     18106    TIP3     OH2      OT      -0.834000       15.9994           0
     76699 TIP3     18106    TIP3     H1       HT       0.417000       1.00800           0
     76700 TIP3     18106    TIP3     H2       HT       0.417000       1.00800           0
     76701 TIP3     18107    TIP3     OH2      OT      -0.834000       15.9994           0
     76702 TIP3     18107    TIP3     H1       HT       0.417000       1.00800           0
     76703 TIP3     18107    TIP3     H2       HT       0.417000       1.00800           0
     76704 TIP3     18108    TIP3     OH2      OT      -0.834000       15.9994           0
     76705 TIP3     18108    TIP3     H1       HT       0.417000       1.00800           0
     76706 TIP3     18108    TIP3     H2       HT       0.417000       1.00800           0
     76707 TIP3     18109    TIP3     OH2      OT      -0.834000       15.9994           0
     76708 TIP3     18109    TIP3     H1       HT       0.417000       1.00800           0
     76709 TIP3     18109    TIP3     H2       HT       0.417000       1.00800           0
     76710 TIP3     18110    TIP3     OH2      OT      -0.834000       15.9994           0
     76711 TIP3     18110    TIP3     H1       HT       0.417000       1.00800           0
     76712 TIP3     18110    TIP3     H2       HT       0.417000       1.00800           0
     76713 TIP3     18111    TIP3     OH2      OT      -0.834000       15.9994           0
     76714 TIP3     18111    TIP3     H1       HT       0.417000       1.00800           0
     76715 TIP3     18111    TIP3     H2       HT       0.417000       1.00800           0
     76716 TIP3     18112    TIP3     OH2      OT      -0.834000       15.9994           0
     76717 TIP3     18112    TIP3     H1       HT       0.417000       1.00800           0
     76718 TIP3     18112    TIP3     H2       HT       0.417000       1.00800           0
     76719 TIP3     18113    TIP3     OH2      OT      -0.834000       15.9994           0
     76720 TIP3     18113    TIP3     H1       HT       0.417000       1.00800           0
     76721 TIP3     18113    TIP3     H2       HT       0.417000       1.00800           0
     76722 TIP3     18114    TIP3     OH2      OT      -0.834000       15.9994           0
     76723 TIP3     18114    TIP3     H1       HT       0.417000       1.00800           0
     76724 TIP3     18114    TIP3     H2       HT       0.417000       1.00800           0
     76725 TIP3     18115    TIP3     OH2      OT      -0.834000       15.9994           0
     76726 TIP3     18115    TIP3     H1       HT       0.417000       1.00800           0
     76727 TIP3     18115    TIP3     H2       HT       0.417000       1.00800           0
     76728 TIP3     18116    TIP3     OH2      OT      -0.834000       15.9994           0
     76729 TIP3     18116    TIP3     H1       HT       0.417000       1.00800           0
     76730 TIP3     18116    TIP3     H2       HT       0.417000       1.00800           0
     76731 TIP3     18117    TIP3     OH2      OT      -0.834000       15.9994           0
     76732 TIP3     18117    TIP3     H1       HT       0.417000       1.00800           0
     76733 TIP3     18117    TIP3     H2       HT       0.417000       1.00800           0
     76734 TIP3     18118    TIP3     OH2      OT      -0.834000       15.9994           0
     76735 TIP3     18118    TIP3     H1       HT       0.417000       1.00800           0
     76736 TIP3     18118    TIP3     H2       HT       0.417000       1.00800           0
     76737 TIP3     18119    TIP3     OH2      OT      -0.834000       15.9994           0
     76738 TIP3     18119    TIP3     H1       HT       0.417000       1.00800           0
     76739 TIP3     18119    TIP3     H2       HT       0.417000       1.00800           0
     76740 TIP3     18120    TIP3     OH2      OT      -0.834000       15.9994           0
     76741 TIP3     18120    TIP3     H1       HT       0.417000       1.00800           0
     76742 TIP3     18120    TIP3     H2       HT       0.417000       1.00800           0
     76743 TIP3     18121    TIP3     OH2      OT      -0.834000       15.9994           0
     76744 TIP3     18121    TIP3     H1       HT       0.417000       1.00800           0
     76745 TIP3     18121    TIP3     H2       HT       0.417000       1.00800           0
     76746 TIP3     18122    TIP3     OH2      OT      -0.834000       15.9994           0
     76747 TIP3     18122    TIP3     H1       HT       0.417000       1.00800           0
     76748 TIP3     18122    TIP3     H2       HT       0.417000       1.00800           0
     76749 TIP3     18123    TIP3     OH2      OT      -0.834000       15.9994           0
     76750 TIP3     18123    TIP3     H1       HT       0.417000       1.00800           0
     76751 TIP3     18123    TIP3     H2       HT       0.417000       1.00800           0
     76752 TIP3     18124    TIP3     OH2      OT      -0.834000       15.9994           0
     76753 TIP3     18124    TIP3     H1       HT       0.417000       1.00800           0
     76754 TIP3     18124    TIP3     H2       HT       0.417000       1.00800           0
     76755 TIP3     18125    TIP3     OH2      OT      -0.834000       15.9994           0
     76756 TIP3     18125    TIP3     H1       HT       0.417000       1.00800           0
     76757 TIP3     18125    TIP3     H2       HT       0.417000       1.00800           0
     76758 TIP3     18126    TIP3     OH2      OT      -0.834000       15.9994           0
     76759 TIP3     18126    TIP3     H1       HT       0.417000       1.00800           0
     76760 TIP3     18126    TIP3     H2       HT       0.417000       1.00800           0
     76761 TIP3     18127    TIP3     OH2      OT      -0.834000       15.9994           0
     76762 TIP3     18127    TIP3     H1       HT       0.417000       1.00800           0
     76763 TIP3     18127    TIP3     H2       HT       0.417000       1.00800           0
     76764 TIP3     18128    TIP3     OH2      OT      -0.834000       15.9994           0
     76765 TIP3     18128    TIP3     H1       HT       0.417000       1.00800           0
     76766 TIP3     18128    TIP3     H2       HT       0.417000       1.00800           0
     76767 TIP3     18129    TIP3     OH2      OT      -0.834000       15.9994           0
     76768 TIP3     18129    TIP3     H1       HT       0.417000       1.00800           0
     76769 TIP3     18129    TIP3     H2       HT       0.417000       1.00800           0
     76770 TIP3     18130    TIP3     OH2      OT      -0.834000       15.9994           0
     76771 TIP3     18130    TIP3     H1       HT       0.417000       1.00800           0
     76772 TIP3     18130    TIP3     H2       HT       0.417000       1.00800           0
     76773 TIP3     18131    TIP3     OH2      OT      -0.834000       15.9994           0
     76774 TIP3     18131    TIP3     H1       HT       0.417000       1.00800           0
     76775 TIP3     18131    TIP3     H2       HT       0.417000       1.00800           0
     76776 TIP3     18132    TIP3     OH2      OT      -0.834000       15.9994           0
     76777 TIP3     18132    TIP3     H1       HT       0.417000       1.00800           0
     76778 TIP3     18132    TIP3     H2       HT       0.417000       1.00800           0
     76779 TIP3     18133    TIP3     OH2      OT      -0.834000       15.9994           0
     76780 TIP3     18133    TIP3     H1       HT       0.417000       1.00800           0
     76781 TIP3     18133    TIP3     H2       HT       0.417000       1.00800           0
     76782 TIP3     18134    TIP3     OH2      OT      -0.834000       15.9994           0
     76783 TIP3     18134    TIP3     H1       HT       0.417000       1.00800           0
     76784 TIP3     18134    TIP3     H2       HT       0.417000       1.00800           0
     76785 TIP3     18135    TIP3     OH2      OT      -0.834000       15.9994           0
     76786 TIP3     18135    TIP3     H1       HT       0.417000       1.00800           0
     76787 TIP3     18135    TIP3     H2       HT       0.417000       1.00800           0
     76788 TIP3     18136    TIP3     OH2      OT      -0.834000       15.9994           0
     76789 TIP3     18136    TIP3     H1       HT       0.417000       1.00800           0
     76790 TIP3     18136    TIP3     H2       HT       0.417000       1.00800           0
     76791 TIP3     18137    TIP3     OH2      OT      -0.834000       15.9994           0
     76792 TIP3     18137    TIP3     H1       HT       0.417000       1.00800           0
     76793 TIP3     18137    TIP3     H2       HT       0.417000       1.00800           0
     76794 TIP3     18138    TIP3     OH2      OT      -0.834000       15.9994           0
     76795 TIP3     18138    TIP3     H1       HT       0.417000       1.00800           0
     76796 TIP3     18138    TIP3     H2       HT       0.417000       1.00800           0
     76797 TIP3     18139    TIP3     OH2      OT      -0.834000       15.9994           0
     76798 TIP3     18139    TIP3     H1       HT       0.417000       1.00800           0
     76799 TIP3     18139    TIP3     H2       HT       0.417000       1.00800           0
     76800 TIP3     18140    TIP3     OH2      OT      -0.834000       15.9994           0
     76801 TIP3     18140    TIP3     H1       HT       0.417000       1.00800           0
     76802 TIP3     18140    TIP3     H2       HT       0.417000       1.00800           0
     76803 TIP3     18141    TIP3     OH2      OT      -0.834000       15.9994           0
     76804 TIP3     18141    TIP3     H1       HT       0.417000       1.00800           0
     76805 TIP3     18141    TIP3     H2       HT       0.417000       1.00800           0
     76806 TIP3     18142    TIP3     OH2      OT      -0.834000       15.9994           0
     76807 TIP3     18142    TIP3     H1       HT       0.417000       1.00800           0
     76808 TIP3     18142    TIP3     H2       HT       0.417000       1.00800           0
     76809 TIP3     18143    TIP3     OH2      OT      -0.834000       15.9994           0
     76810 TIP3     18143    TIP3     H1       HT       0.417000       1.00800           0
     76811 TIP3     18143    TIP3     H2       HT       0.417000       1.00800           0
     76812 TIP3     18144    TIP3     OH2      OT      -0.834000       15.9994           0
     76813 TIP3     18144    TIP3     H1       HT       0.417000       1.00800           0
     76814 TIP3     18144    TIP3     H2       HT       0.417000       1.00800           0
     76815 TIP3     18145    TIP3     OH2      OT      -0.834000       15.9994           0
     76816 TIP3     18145    TIP3     H1       HT       0.417000       1.00800           0
     76817 TIP3     18145    TIP3     H2       HT       0.417000       1.00800           0
     76818 TIP3     18146    TIP3     OH2      OT      -0.834000       15.9994           0
     76819 TIP3     18146    TIP3     H1       HT       0.417000       1.00800           0
     76820 TIP3     18146    TIP3     H2       HT       0.417000       1.00800           0
     76821 TIP3     18147    TIP3     OH2      OT      -0.834000       15.9994           0
     76822 TIP3     18147    TIP3     H1       HT       0.417000       1.00800           0
     76823 TIP3     18147    TIP3     H2       HT       0.417000       1.00800           0
     76824 TIP3     18148    TIP3     OH2      OT      -0.834000       15.9994           0
     76825 TIP3     18148    TIP3     H1       HT       0.417000       1.00800           0
     76826 TIP3     18148    TIP3     H2       HT       0.417000       1.00800           0
     76827 TIP3     18149    TIP3     OH2      OT      -0.834000       15.9994           0
     76828 TIP3     18149    TIP3     H1       HT       0.417000       1.00800           0
     76829 TIP3     18149    TIP3     H2       HT       0.417000       1.00800           0
     76830 TIP3     18150    TIP3     OH2      OT      -0.834000       15.9994           0
     76831 TIP3     18150    TIP3     H1       HT       0.417000       1.00800           0
     76832 TIP3     18150    TIP3     H2       HT       0.417000       1.00800           0
     76833 TIP3     18151    TIP3     OH2      OT      -0.834000       15.9994           0
     76834 TIP3     18151    TIP3     H1       HT       0.417000       1.00800           0
     76835 TIP3     18151    TIP3     H2       HT       0.417000       1.00800           0
     76836 TIP3     18152    TIP3     OH2      OT      -0.834000       15.9994           0
     76837 TIP3     18152    TIP3     H1       HT       0.417000       1.00800           0
     76838 TIP3     18152    TIP3     H2       HT       0.417000       1.00800           0
     76839 TIP3     18153    TIP3     OH2      OT      -0.834000       15.9994           0
     76840 TIP3     18153    TIP3     H1       HT       0.417000       1.00800           0
     76841 TIP3     18153    TIP3     H2       HT       0.417000       1.00800           0
     76842 TIP3     18154    TIP3     OH2      OT      -0.834000       15.9994           0
     76843 TIP3     18154    TIP3     H1       HT       0.417000       1.00800           0
     76844 TIP3     18154    TIP3     H2       HT       0.417000       1.00800           0
     76845 TIP3     18155    TIP3     OH2      OT      -0.834000       15.9994           0
     76846 TIP3     18155    TIP3     H1       HT       0.417000       1.00800           0
     76847 TIP3     18155    TIP3     H2       HT       0.417000       1.00800           0
     76848 TIP3     18156    TIP3     OH2      OT      -0.834000       15.9994           0
     76849 TIP3     18156    TIP3     H1       HT       0.417000       1.00800           0
     76850 TIP3     18156    TIP3     H2       HT       0.417000       1.00800           0
     76851 TIP3     18157    TIP3     OH2      OT      -0.834000       15.9994           0
     76852 TIP3     18157    TIP3     H1       HT       0.417000       1.00800           0
     76853 TIP3     18157    TIP3     H2       HT       0.417000       1.00800           0
     76854 TIP3     18158    TIP3     OH2      OT      -0.834000       15.9994           0
     76855 TIP3     18158    TIP3     H1       HT       0.417000       1.00800           0
     76856 TIP3     18158    TIP3     H2       HT       0.417000       1.00800           0
     76857 TIP3     18159    TIP3     OH2      OT      -0.834000       15.9994           0
     76858 TIP3     18159    TIP3     H1       HT       0.417000       1.00800           0
     76859 TIP3     18159    TIP3     H2       HT       0.417000       1.00800           0
     76860 TIP3     18160    TIP3     OH2      OT      -0.834000       15.9994           0
     76861 TIP3     18160    TIP3     H1       HT       0.417000       1.00800           0
     76862 TIP3     18160    TIP3     H2       HT       0.417000       1.00800           0
     76863 TIP3     18161    TIP3     OH2      OT      -0.834000       15.9994           0
     76864 TIP3     18161    TIP3     H1       HT       0.417000       1.00800           0
     76865 TIP3     18161    TIP3     H2       HT       0.417000       1.00800           0
     76866 TIP3     18162    TIP3     OH2      OT      -0.834000       15.9994           0
     76867 TIP3     18162    TIP3     H1       HT       0.417000       1.00800           0
     76868 TIP3     18162    TIP3     H2       HT       0.417000       1.00800           0
     76869 TIP3     18163    TIP3     OH2      OT      -0.834000       15.9994           0
     76870 TIP3     18163    TIP3     H1       HT       0.417000       1.00800           0
     76871 TIP3     18163    TIP3     H2       HT       0.417000       1.00800           0
     76872 TIP3     18164    TIP3     OH2      OT      -0.834000       15.9994           0
     76873 TIP3     18164    TIP3     H1       HT       0.417000       1.00800           0
     76874 TIP3     18164    TIP3     H2       HT       0.417000       1.00800           0
     76875 TIP3     18165    TIP3     OH2      OT      -0.834000       15.9994           0
     76876 TIP3     18165    TIP3     H1       HT       0.417000       1.00800           0
     76877 TIP3     18165    TIP3     H2       HT       0.417000       1.00800           0
     76878 TIP3     18166    TIP3     OH2      OT      -0.834000       15.9994           0
     76879 TIP3     18166    TIP3     H1       HT       0.417000       1.00800           0
     76880 TIP3     18166    TIP3     H2       HT       0.417000       1.00800           0
     76881 TIP3     18167    TIP3     OH2      OT      -0.834000       15.9994           0
     76882 TIP3     18167    TIP3     H1       HT       0.417000       1.00800           0
     76883 TIP3     18167    TIP3     H2       HT       0.417000       1.00800           0
     76884 TIP3     18168    TIP3     OH2      OT      -0.834000       15.9994           0
     76885 TIP3     18168    TIP3     H1       HT       0.417000       1.00800           0
     76886 TIP3     18168    TIP3     H2       HT       0.417000       1.00800           0
     76887 TIP3     18169    TIP3     OH2      OT      -0.834000       15.9994           0
     76888 TIP3     18169    TIP3     H1       HT       0.417000       1.00800           0
     76889 TIP3     18169    TIP3     H2       HT       0.417000       1.00800           0
     76890 TIP3     18170    TIP3     OH2      OT      -0.834000       15.9994           0
     76891 TIP3     18170    TIP3     H1       HT       0.417000       1.00800           0
     76892 TIP3     18170    TIP3     H2       HT       0.417000       1.00800           0
     76893 TIP3     18171    TIP3     OH2      OT      -0.834000       15.9994           0
     76894 TIP3     18171    TIP3     H1       HT       0.417000       1.00800           0
     76895 TIP3     18171    TIP3     H2       HT       0.417000       1.00800           0
     76896 TIP3     18172    TIP3     OH2      OT      -0.834000       15.9994           0
     76897 TIP3     18172    TIP3     H1       HT       0.417000       1.00800           0
     76898 TIP3     18172    TIP3     H2       HT       0.417000       1.00800           0
     76899 TIP3     18173    TIP3     OH2      OT      -0.834000       15.9994           0
     76900 TIP3     18173    TIP3     H1       HT       0.417000       1.00800           0
     76901 TIP3     18173    TIP3     H2       HT       0.417000       1.00800           0
     76902 TIP3     18174    TIP3     OH2      OT      -0.834000       15.9994           0
     76903 TIP3     18174    TIP3     H1       HT       0.417000       1.00800           0
     76904 TIP3     18174    TIP3     H2       HT       0.417000       1.00800           0
     76905 TIP3     18175    TIP3     OH2      OT      -0.834000       15.9994           0
     76906 TIP3     18175    TIP3     H1       HT       0.417000       1.00800           0
     76907 TIP3     18175    TIP3     H2       HT       0.417000       1.00800           0
     76908 TIP3     18176    TIP3     OH2      OT      -0.834000       15.9994           0
     76909 TIP3     18176    TIP3     H1       HT       0.417000       1.00800           0
     76910 TIP3     18176    TIP3     H2       HT       0.417000       1.00800           0
     76911 TIP3     18177    TIP3     OH2      OT      -0.834000       15.9994           0
     76912 TIP3     18177    TIP3     H1       HT       0.417000       1.00800           0
     76913 TIP3     18177    TIP3     H2       HT       0.417000       1.00800           0
     76914 TIP3     18178    TIP3     OH2      OT      -0.834000       15.9994           0
     76915 TIP3     18178    TIP3     H1       HT       0.417000       1.00800           0
     76916 TIP3     18178    TIP3     H2       HT       0.417000       1.00800           0
     76917 TIP3     18179    TIP3     OH2      OT      -0.834000       15.9994           0
     76918 TIP3     18179    TIP3     H1       HT       0.417000       1.00800           0
     76919 TIP3     18179    TIP3     H2       HT       0.417000       1.00800           0
     76920 TIP3     18180    TIP3     OH2      OT      -0.834000       15.9994           0
     76921 TIP3     18180    TIP3     H1       HT       0.417000       1.00800           0
     76922 TIP3     18180    TIP3     H2       HT       0.417000       1.00800           0
     76923 TIP3     18181    TIP3     OH2      OT      -0.834000       15.9994           0
     76924 TIP3     18181    TIP3     H1       HT       0.417000       1.00800           0
     76925 TIP3     18181    TIP3     H2       HT       0.417000       1.00800           0
     76926 TIP3     18182    TIP3     OH2      OT      -0.834000       15.9994           0
     76927 TIP3     18182    TIP3     H1       HT       0.417000       1.00800           0
     76928 TIP3     18182    TIP3     H2       HT       0.417000       1.00800           0
     76929 TIP3     18183    TIP3     OH2      OT      -0.834000       15.9994           0
     76930 TIP3     18183    TIP3     H1       HT       0.417000       1.00800           0
     76931 TIP3     18183    TIP3     H2       HT       0.417000       1.00800           0
     76932 TIP3     18184    TIP3     OH2      OT      -0.834000       15.9994           0
     76933 TIP3     18184    TIP3     H1       HT       0.417000       1.00800           0
     76934 TIP3     18184    TIP3     H2       HT       0.417000       1.00800           0
     76935 TIP3     18185    TIP3     OH2      OT      -0.834000       15.9994           0
     76936 TIP3     18185    TIP3     H1       HT       0.417000       1.00800           0
     76937 TIP3     18185    TIP3     H2       HT       0.417000       1.00800           0
     76938 TIP3     18186    TIP3     OH2      OT      -0.834000       15.9994           0
     76939 TIP3     18186    TIP3     H1       HT       0.417000       1.00800           0
     76940 TIP3     18186    TIP3     H2       HT       0.417000       1.00800           0
     76941 TIP3     18187    TIP3     OH2      OT      -0.834000       15.9994           0
     76942 TIP3     18187    TIP3     H1       HT       0.417000       1.00800           0
     76943 TIP3     18187    TIP3     H2       HT       0.417000       1.00800           0
     76944 TIP3     18188    TIP3     OH2      OT      -0.834000       15.9994           0
     76945 TIP3     18188    TIP3     H1       HT       0.417000       1.00800           0
     76946 TIP3     18188    TIP3     H2       HT       0.417000       1.00800           0
     76947 TIP3     18189    TIP3     OH2      OT      -0.834000       15.9994           0
     76948 TIP3     18189    TIP3     H1       HT       0.417000       1.00800           0
     76949 TIP3     18189    TIP3     H2       HT       0.417000       1.00800           0
     76950 TIP3     18190    TIP3     OH2      OT      -0.834000       15.9994           0
     76951 TIP3     18190    TIP3     H1       HT       0.417000       1.00800           0
     76952 TIP3     18190    TIP3     H2       HT       0.417000       1.00800           0
     76953 TIP3     18191    TIP3     OH2      OT      -0.834000       15.9994           0
     76954 TIP3     18191    TIP3     H1       HT       0.417000       1.00800           0
     76955 TIP3     18191    TIP3     H2       HT       0.417000       1.00800           0
     76956 TIP3     18192    TIP3     OH2      OT      -0.834000       15.9994           0
     76957 TIP3     18192    TIP3     H1       HT       0.417000       1.00800           0
     76958 TIP3     18192    TIP3     H2       HT       0.417000       1.00800           0
     76959 TIP3     18193    TIP3     OH2      OT      -0.834000       15.9994           0
     76960 TIP3     18193    TIP3     H1       HT       0.417000       1.00800           0
     76961 TIP3     18193    TIP3     H2       HT       0.417000       1.00800           0
     76962 TIP3     18194    TIP3     OH2      OT      -0.834000       15.9994           0
     76963 TIP3     18194    TIP3     H1       HT       0.417000       1.00800           0
     76964 TIP3     18194    TIP3     H2       HT       0.417000       1.00800           0
     76965 TIP3     18195    TIP3     OH2      OT      -0.834000       15.9994           0
     76966 TIP3     18195    TIP3     H1       HT       0.417000       1.00800           0
     76967 TIP3     18195    TIP3     H2       HT       0.417000       1.00800           0
     76968 TIP3     18196    TIP3     OH2      OT      -0.834000       15.9994           0
     76969 TIP3     18196    TIP3     H1       HT       0.417000       1.00800           0
     76970 TIP3     18196    TIP3     H2       HT       0.417000       1.00800           0
     76971 TIP3     18197    TIP3     OH2      OT      -0.834000       15.9994           0
     76972 TIP3     18197    TIP3     H1       HT       0.417000       1.00800           0
     76973 TIP3     18197    TIP3     H2       HT       0.417000       1.00800           0
     76974 TIP3     18198    TIP3     OH2      OT      -0.834000       15.9994           0
     76975 TIP3     18198    TIP3     H1       HT       0.417000       1.00800           0
     76976 TIP3     18198    TIP3     H2       HT       0.417000       1.00800           0
     76977 TIP3     18199    TIP3     OH2      OT      -0.834000       15.9994           0
     76978 TIP3     18199    TIP3     H1       HT       0.417000       1.00800           0
     76979 TIP3     18199    TIP3     H2       HT       0.417000       1.00800           0
     76980 TIP3     18200    TIP3     OH2      OT      -0.834000       15.9994           0
     76981 TIP3     18200    TIP3     H1       HT       0.417000       1.00800           0
     76982 TIP3     18200    TIP3     H2       HT       0.417000       1.00800           0
     76983 TIP3     18201    TIP3     OH2      OT      -0.834000       15.9994           0
     76984 TIP3     18201    TIP3     H1       HT       0.417000       1.00800           0
     76985 TIP3     18201    TIP3     H2       HT       0.417000       1.00800           0
     76986 TIP3     18202    TIP3     OH2      OT      -0.834000       15.9994           0
     76987 TIP3     18202    TIP3     H1       HT       0.417000       1.00800           0
     76988 TIP3     18202    TIP3     H2       HT       0.417000       1.00800           0
     76989 TIP3     18203    TIP3     OH2      OT      -0.834000       15.9994           0
     76990 TIP3     18203    TIP3     H1       HT       0.417000       1.00800           0
     76991 TIP3     18203    TIP3     H2       HT       0.417000       1.00800           0
     76992 TIP3     18204    TIP3     OH2      OT      -0.834000       15.9994           0
     76993 TIP3     18204    TIP3     H1       HT       0.417000       1.00800           0
     76994 TIP3     18204    TIP3     H2       HT       0.417000       1.00800           0
     76995 TIP3     18205    TIP3     OH2      OT      -0.834000       15.9994           0
     76996 TIP3     18205    TIP3     H1       HT       0.417000       1.00800           0
     76997 TIP3     18205    TIP3     H2       HT       0.417000       1.00800           0
     76998 TIP3     18206    TIP3     OH2      OT      -0.834000       15.9994           0
     76999 TIP3     18206    TIP3     H1       HT       0.417000       1.00800           0
     77000 TIP3     18206    TIP3     H2       HT       0.417000       1.00800           0
     77001 TIP3     18207    TIP3     OH2      OT      -0.834000       15.9994           0
     77002 TIP3     18207    TIP3     H1       HT       0.417000       1.00800           0
     77003 TIP3     18207    TIP3     H2       HT       0.417000       1.00800           0
     77004 TIP3     18208    TIP3     OH2      OT      -0.834000       15.9994           0
     77005 TIP3     18208    TIP3     H1       HT       0.417000       1.00800           0
     77006 TIP3     18208    TIP3     H2       HT       0.417000       1.00800           0
     77007 TIP3     18209    TIP3     OH2      OT      -0.834000       15.9994           0
     77008 TIP3     18209    TIP3     H1       HT       0.417000       1.00800           0
     77009 TIP3     18209    TIP3     H2       HT       0.417000       1.00800           0
     77010 TIP3     18210    TIP3     OH2      OT      -0.834000       15.9994           0
     77011 TIP3     18210    TIP3     H1       HT       0.417000       1.00800           0
     77012 TIP3     18210    TIP3     H2       HT       0.417000       1.00800           0
     77013 TIP3     18211    TIP3     OH2      OT      -0.834000       15.9994           0
     77014 TIP3     18211    TIP3     H1       HT       0.417000       1.00800           0
     77015 TIP3     18211    TIP3     H2       HT       0.417000       1.00800           0
     77016 TIP3     18212    TIP3     OH2      OT      -0.834000       15.9994           0
     77017 TIP3     18212    TIP3     H1       HT       0.417000       1.00800           0
     77018 TIP3     18212    TIP3     H2       HT       0.417000       1.00800           0
     77019 TIP3     18213    TIP3     OH2      OT      -0.834000       15.9994           0
     77020 TIP3     18213    TIP3     H1       HT       0.417000       1.00800           0
     77021 TIP3     18213    TIP3     H2       HT       0.417000       1.00800           0
     77022 TIP3     18214    TIP3     OH2      OT      -0.834000       15.9994           0
     77023 TIP3     18214    TIP3     H1       HT       0.417000       1.00800           0
     77024 TIP3     18214    TIP3     H2       HT       0.417000       1.00800           0
     77025 TIP3     18215    TIP3     OH2      OT      -0.834000       15.9994           0
     77026 TIP3     18215    TIP3     H1       HT       0.417000       1.00800           0
     77027 TIP3     18215    TIP3     H2       HT       0.417000       1.00800           0
     77028 TIP3     18216    TIP3     OH2      OT      -0.834000       15.9994           0
     77029 TIP3     18216    TIP3     H1       HT       0.417000       1.00800           0
     77030 TIP3     18216    TIP3     H2       HT       0.417000       1.00800           0
     77031 TIP3     18217    TIP3     OH2      OT      -0.834000       15.9994           0
     77032 TIP3     18217    TIP3     H1       HT       0.417000       1.00800           0
     77033 TIP3     18217    TIP3     H2       HT       0.417000       1.00800           0
     77034 TIP3     18218    TIP3     OH2      OT      -0.834000       15.9994           0
     77035 TIP3     18218    TIP3     H1       HT       0.417000       1.00800           0
     77036 TIP3     18218    TIP3     H2       HT       0.417000       1.00800           0
     77037 TIP3     18219    TIP3     OH2      OT      -0.834000       15.9994           0
     77038 TIP3     18219    TIP3     H1       HT       0.417000       1.00800           0
     77039 TIP3     18219    TIP3     H2       HT       0.417000       1.00800           0
     77040 TIP3     18220    TIP3     OH2      OT      -0.834000       15.9994           0
     77041 TIP3     18220    TIP3     H1       HT       0.417000       1.00800           0
     77042 TIP3     18220    TIP3     H2       HT       0.417000       1.00800           0
     77043 TIP3     18221    TIP3     OH2      OT      -0.834000       15.9994           0
     77044 TIP3     18221    TIP3     H1       HT       0.417000       1.00800           0
     77045 TIP3     18221    TIP3     H2       HT       0.417000       1.00800           0
     77046 TIP3     18222    TIP3     OH2      OT      -0.834000       15.9994           0
     77047 TIP3     18222    TIP3     H1       HT       0.417000       1.00800           0
     77048 TIP3     18222    TIP3     H2       HT       0.417000       1.00800           0
     77049 TIP3     18223    TIP3     OH2      OT      -0.834000       15.9994           0
     77050 TIP3     18223    TIP3     H1       HT       0.417000       1.00800           0
     77051 TIP3     18223    TIP3     H2       HT       0.417000       1.00800           0
     77052 TIP3     18224    TIP3     OH2      OT      -0.834000       15.9994           0
     77053 TIP3     18224    TIP3     H1       HT       0.417000       1.00800           0
     77054 TIP3     18224    TIP3     H2       HT       0.417000       1.00800           0
     77055 TIP3     18225    TIP3     OH2      OT      -0.834000       15.9994           0
     77056 TIP3     18225    TIP3     H1       HT       0.417000       1.00800           0
     77057 TIP3     18225    TIP3     H2       HT       0.417000       1.00800           0
     77058 TIP3     18226    TIP3     OH2      OT      -0.834000       15.9994           0
     77059 TIP3     18226    TIP3     H1       HT       0.417000       1.00800           0
     77060 TIP3     18226    TIP3     H2       HT       0.417000       1.00800           0
     77061 TIP3     18227    TIP3     OH2      OT      -0.834000       15.9994           0
     77062 TIP3     18227    TIP3     H1       HT       0.417000       1.00800           0
     77063 TIP3     18227    TIP3     H2       HT       0.417000       1.00800           0
     77064 TIP3     18228    TIP3     OH2      OT      -0.834000       15.9994           0
     77065 TIP3     18228    TIP3     H1       HT       0.417000       1.00800           0
     77066 TIP3     18228    TIP3     H2       HT       0.417000       1.00800           0
     77067 TIP3     18229    TIP3     OH2      OT      -0.834000       15.9994           0
     77068 TIP3     18229    TIP3     H1       HT       0.417000       1.00800           0
     77069 TIP3     18229    TIP3     H2       HT       0.417000       1.00800           0
     77070 TIP3     18230    TIP3     OH2      OT      -0.834000       15.9994           0
     77071 TIP3     18230    TIP3     H1       HT       0.417000       1.00800           0
     77072 TIP3     18230    TIP3     H2       HT       0.417000       1.00800           0
     77073 TIP3     18231    TIP3     OH2      OT      -0.834000       15.9994           0
     77074 TIP3     18231    TIP3     H1       HT       0.417000       1.00800           0
     77075 TIP3     18231    TIP3     H2       HT       0.417000       1.00800           0
     77076 TIP3     18232    TIP3     OH2      OT      -0.834000       15.9994           0
     77077 TIP3     18232    TIP3     H1       HT       0.417000       1.00800           0
     77078 TIP3     18232    TIP3     H2       HT       0.417000       1.00800           0
     77079 TIP3     18233    TIP3     OH2      OT      -0.834000       15.9994           0
     77080 TIP3     18233    TIP3     H1       HT       0.417000       1.00800           0
     77081 TIP3     18233    TIP3     H2       HT       0.417000       1.00800           0
     77082 TIP3     18234    TIP3     OH2      OT      -0.834000       15.9994           0
     77083 TIP3     18234    TIP3     H1       HT       0.417000       1.00800           0
     77084 TIP3     18234    TIP3     H2       HT       0.417000       1.00800           0
     77085 TIP3     18235    TIP3     OH2      OT      -0.834000       15.9994           0
     77086 TIP3     18235    TIP3     H1       HT       0.417000       1.00800           0
     77087 TIP3     18235    TIP3     H2       HT       0.417000       1.00800           0
     77088 TIP3     18236    TIP3     OH2      OT      -0.834000       15.9994           0
     77089 TIP3     18236    TIP3     H1       HT       0.417000       1.00800           0
     77090 TIP3     18236    TIP3     H2       HT       0.417000       1.00800           0
     77091 TIP3     18237    TIP3     OH2      OT      -0.834000       15.9994           0
     77092 TIP3     18237    TIP3     H1       HT       0.417000       1.00800           0
     77093 TIP3     18237    TIP3     H2       HT       0.417000       1.00800           0
     77094 TIP3     18238    TIP3     OH2      OT      -0.834000       15.9994           0
     77095 TIP3     18238    TIP3     H1       HT       0.417000       1.00800           0
     77096 TIP3     18238    TIP3     H2       HT       0.417000       1.00800           0
     77097 TIP3     18239    TIP3     OH2      OT      -0.834000       15.9994           0
     77098 TIP3     18239    TIP3     H1       HT       0.417000       1.00800           0
     77099 TIP3     18239    TIP3     H2       HT       0.417000       1.00800           0
     77100 TIP3     18240    TIP3     OH2      OT      -0.834000       15.9994           0
     77101 TIP3     18240    TIP3     H1       HT       0.417000       1.00800           0
     77102 TIP3     18240    TIP3     H2       HT       0.417000       1.00800           0
     77103 TIP3     18241    TIP3     OH2      OT      -0.834000       15.9994           0
     77104 TIP3     18241    TIP3     H1       HT       0.417000       1.00800           0
     77105 TIP3     18241    TIP3     H2       HT       0.417000       1.00800           0
     77106 TIP3     18242    TIP3     OH2      OT      -0.834000       15.9994           0
     77107 TIP3     18242    TIP3     H1       HT       0.417000       1.00800           0
     77108 TIP3     18242    TIP3     H2       HT       0.417000       1.00800           0
     77109 TIP3     18243    TIP3     OH2      OT      -0.834000       15.9994           0
     77110 TIP3     18243    TIP3     H1       HT       0.417000       1.00800           0
     77111 TIP3     18243    TIP3     H2       HT       0.417000       1.00800           0
     77112 TIP3     18244    TIP3     OH2      OT      -0.834000       15.9994           0
     77113 TIP3     18244    TIP3     H1       HT       0.417000       1.00800           0
     77114 TIP3     18244    TIP3     H2       HT       0.417000       1.00800           0
     77115 TIP3     18245    TIP3     OH2      OT      -0.834000       15.9994           0
     77116 TIP3     18245    TIP3     H1       HT       0.417000       1.00800           0
     77117 TIP3     18245    TIP3     H2       HT       0.417000       1.00800           0
     77118 TIP3     18246    TIP3     OH2      OT      -0.834000       15.9994           0
     77119 TIP3     18246    TIP3     H1       HT       0.417000       1.00800           0
     77120 TIP3     18246    TIP3     H2       HT       0.417000       1.00800           0
     77121 TIP3     18247    TIP3     OH2      OT      -0.834000       15.9994           0
     77122 TIP3     18247    TIP3     H1       HT       0.417000       1.00800           0
     77123 TIP3     18247    TIP3     H2       HT       0.417000       1.00800           0
     77124 TIP3     18248    TIP3     OH2      OT      -0.834000       15.9994           0
     77125 TIP3     18248    TIP3     H1       HT       0.417000       1.00800           0
     77126 TIP3     18248    TIP3     H2       HT       0.417000       1.00800           0
     77127 TIP3     18249    TIP3     OH2      OT      -0.834000       15.9994           0
     77128 TIP3     18249    TIP3     H1       HT       0.417000       1.00800           0
     77129 TIP3     18249    TIP3     H2       HT       0.417000       1.00800           0
     77130 TIP3     18250    TIP3     OH2      OT      -0.834000       15.9994           0
     77131 TIP3     18250    TIP3     H1       HT       0.417000       1.00800           0
     77132 TIP3     18250    TIP3     H2       HT       0.417000       1.00800           0
     77133 TIP3     18251    TIP3     OH2      OT      -0.834000       15.9994           0
     77134 TIP3     18251    TIP3     H1       HT       0.417000       1.00800           0
     77135 TIP3     18251    TIP3     H2       HT       0.417000       1.00800           0
     77136 TIP3     18252    TIP3     OH2      OT      -0.834000       15.9994           0
     77137 TIP3     18252    TIP3     H1       HT       0.417000       1.00800           0
     77138 TIP3     18252    TIP3     H2       HT       0.417000       1.00800           0
     77139 TIP3     18253    TIP3     OH2      OT      -0.834000       15.9994           0
     77140 TIP3     18253    TIP3     H1       HT       0.417000       1.00800           0
     77141 TIP3     18253    TIP3     H2       HT       0.417000       1.00800           0
     77142 TIP3     18254    TIP3     OH2      OT      -0.834000       15.9994           0
     77143 TIP3     18254    TIP3     H1       HT       0.417000       1.00800           0
     77144 TIP3     18254    TIP3     H2       HT       0.417000       1.00800           0
     77145 TIP3     18255    TIP3     OH2      OT      -0.834000       15.9994           0
     77146 TIP3     18255    TIP3     H1       HT       0.417000       1.00800           0
     77147 TIP3     18255    TIP3     H2       HT       0.417000       1.00800           0
     77148 TIP3     18256    TIP3     OH2      OT      -0.834000       15.9994           0
     77149 TIP3     18256    TIP3     H1       HT       0.417000       1.00800           0
     77150 TIP3     18256    TIP3     H2       HT       0.417000       1.00800           0
     77151 TIP3     18257    TIP3     OH2      OT      -0.834000       15.9994           0
     77152 TIP3     18257    TIP3     H1       HT       0.417000       1.00800           0
     77153 TIP3     18257    TIP3     H2       HT       0.417000       1.00800           0
     77154 TIP3     18258    TIP3     OH2      OT      -0.834000       15.9994           0
     77155 TIP3     18258    TIP3     H1       HT       0.417000       1.00800           0
     77156 TIP3     18258    TIP3     H2       HT       0.417000       1.00800           0
     77157 TIP3     18259    TIP3     OH2      OT      -0.834000       15.9994           0
     77158 TIP3     18259    TIP3     H1       HT       0.417000       1.00800           0
     77159 TIP3     18259    TIP3     H2       HT       0.417000       1.00800           0
     77160 TIP3     18260    TIP3     OH2      OT      -0.834000       15.9994           0
     77161 TIP3     18260    TIP3     H1       HT       0.417000       1.00800           0
     77162 TIP3     18260    TIP3     H2       HT       0.417000       1.00800           0
     77163 TIP3     18261    TIP3     OH2      OT      -0.834000       15.9994           0
     77164 TIP3     18261    TIP3     H1       HT       0.417000       1.00800           0
     77165 TIP3     18261    TIP3     H2       HT       0.417000       1.00800           0
     77166 TIP3     18262    TIP3     OH2      OT      -0.834000       15.9994           0
     77167 TIP3     18262    TIP3     H1       HT       0.417000       1.00800           0
     77168 TIP3     18262    TIP3     H2       HT       0.417000       1.00800           0
     77169 TIP3     18263    TIP3     OH2      OT      -0.834000       15.9994           0
     77170 TIP3     18263    TIP3     H1       HT       0.417000       1.00800           0
     77171 TIP3     18263    TIP3     H2       HT       0.417000       1.00800           0
     77172 TIP3     18264    TIP3     OH2      OT      -0.834000       15.9994           0
     77173 TIP3     18264    TIP3     H1       HT       0.417000       1.00800           0
     77174 TIP3     18264    TIP3     H2       HT       0.417000       1.00800           0
     77175 TIP3     18265    TIP3     OH2      OT      -0.834000       15.9994           0
     77176 TIP3     18265    TIP3     H1       HT       0.417000       1.00800           0
     77177 TIP3     18265    TIP3     H2       HT       0.417000       1.00800           0
     77178 TIP3     18266    TIP3     OH2      OT      -0.834000       15.9994           0
     77179 TIP3     18266    TIP3     H1       HT       0.417000       1.00800           0
     77180 TIP3     18266    TIP3     H2       HT       0.417000       1.00800           0
     77181 TIP3     18267    TIP3     OH2      OT      -0.834000       15.9994           0
     77182 TIP3     18267    TIP3     H1       HT       0.417000       1.00800           0
     77183 TIP3     18267    TIP3     H2       HT       0.417000       1.00800           0
     77184 TIP3     18268    TIP3     OH2      OT      -0.834000       15.9994           0
     77185 TIP3     18268    TIP3     H1       HT       0.417000       1.00800           0
     77186 TIP3     18268    TIP3     H2       HT       0.417000       1.00800           0
     77187 TIP3     18269    TIP3     OH2      OT      -0.834000       15.9994           0
     77188 TIP3     18269    TIP3     H1       HT       0.417000       1.00800           0
     77189 TIP3     18269    TIP3     H2       HT       0.417000       1.00800           0
     77190 TIP3     18270    TIP3     OH2      OT      -0.834000       15.9994           0
     77191 TIP3     18270    TIP3     H1       HT       0.417000       1.00800           0
     77192 TIP3     18270    TIP3     H2       HT       0.417000       1.00800           0
     77193 TIP3     18271    TIP3     OH2      OT      -0.834000       15.9994           0
     77194 TIP3     18271    TIP3     H1       HT       0.417000       1.00800           0
     77195 TIP3     18271    TIP3     H2       HT       0.417000       1.00800           0
     77196 TIP3     18272    TIP3     OH2      OT      -0.834000       15.9994           0
     77197 TIP3     18272    TIP3     H1       HT       0.417000       1.00800           0
     77198 TIP3     18272    TIP3     H2       HT       0.417000       1.00800           0
     77199 TIP3     18273    TIP3     OH2      OT      -0.834000       15.9994           0
     77200 TIP3     18273    TIP3     H1       HT       0.417000       1.00800           0
     77201 TIP3     18273    TIP3     H2       HT       0.417000       1.00800           0
     77202 TIP3     18274    TIP3     OH2      OT      -0.834000       15.9994           0
     77203 TIP3     18274    TIP3     H1       HT       0.417000       1.00800           0
     77204 TIP3     18274    TIP3     H2       HT       0.417000       1.00800           0
     77205 TIP3     18275    TIP3     OH2      OT      -0.834000       15.9994           0
     77206 TIP3     18275    TIP3     H1       HT       0.417000       1.00800           0
     77207 TIP3     18275    TIP3     H2       HT       0.417000       1.00800           0
     77208 TIP3     18276    TIP3     OH2      OT      -0.834000       15.9994           0
     77209 TIP3     18276    TIP3     H1       HT       0.417000       1.00800           0
     77210 TIP3     18276    TIP3     H2       HT       0.417000       1.00800           0
     77211 TIP3     18277    TIP3     OH2      OT      -0.834000       15.9994           0
     77212 TIP3     18277    TIP3     H1       HT       0.417000       1.00800           0
     77213 TIP3     18277    TIP3     H2       HT       0.417000       1.00800           0
     77214 TIP3     18278    TIP3     OH2      OT      -0.834000       15.9994           0
     77215 TIP3     18278    TIP3     H1       HT       0.417000       1.00800           0
     77216 TIP3     18278    TIP3     H2       HT       0.417000       1.00800           0
     77217 TIP3     18279    TIP3     OH2      OT      -0.834000       15.9994           0
     77218 TIP3     18279    TIP3     H1       HT       0.417000       1.00800           0
     77219 TIP3     18279    TIP3     H2       HT       0.417000       1.00800           0
     77220 TIP3     18280    TIP3     OH2      OT      -0.834000       15.9994           0
     77221 TIP3     18280    TIP3     H1       HT       0.417000       1.00800           0
     77222 TIP3     18280    TIP3     H2       HT       0.417000       1.00800           0
     77223 TIP3     18281    TIP3     OH2      OT      -0.834000       15.9994           0
     77224 TIP3     18281    TIP3     H1       HT       0.417000       1.00800           0
     77225 TIP3     18281    TIP3     H2       HT       0.417000       1.00800           0
     77226 TIP3     18282    TIP3     OH2      OT      -0.834000       15.9994           0
     77227 TIP3     18282    TIP3     H1       HT       0.417000       1.00800           0
     77228 TIP3     18282    TIP3     H2       HT       0.417000       1.00800           0
     77229 TIP3     18283    TIP3     OH2      OT      -0.834000       15.9994           0
     77230 TIP3     18283    TIP3     H1       HT       0.417000       1.00800           0
     77231 TIP3     18283    TIP3     H2       HT       0.417000       1.00800           0
     77232 TIP3     18284    TIP3     OH2      OT      -0.834000       15.9994           0
     77233 TIP3     18284    TIP3     H1       HT       0.417000       1.00800           0
     77234 TIP3     18284    TIP3     H2       HT       0.417000       1.00800           0
     77235 TIP3     18285    TIP3     OH2      OT      -0.834000       15.9994           0
     77236 TIP3     18285    TIP3     H1       HT       0.417000       1.00800           0
     77237 TIP3     18285    TIP3     H2       HT       0.417000       1.00800           0
     77238 TIP3     18286    TIP3     OH2      OT      -0.834000       15.9994           0
     77239 TIP3     18286    TIP3     H1       HT       0.417000       1.00800           0
     77240 TIP3     18286    TIP3     H2       HT       0.417000       1.00800           0
     77241 TIP3     18287    TIP3     OH2      OT      -0.834000       15.9994           0
     77242 TIP3     18287    TIP3     H1       HT       0.417000       1.00800           0
     77243 TIP3     18287    TIP3     H2       HT       0.417000       1.00800           0
     77244 TIP3     18288    TIP3     OH2      OT      -0.834000       15.9994           0
     77245 TIP3     18288    TIP3     H1       HT       0.417000       1.00800           0
     77246 TIP3     18288    TIP3     H2       HT       0.417000       1.00800           0
     77247 TIP3     18289    TIP3     OH2      OT      -0.834000       15.9994           0
     77248 TIP3     18289    TIP3     H1       HT       0.417000       1.00800           0
     77249 TIP3     18289    TIP3     H2       HT       0.417000       1.00800           0
     77250 TIP3     18290    TIP3     OH2      OT      -0.834000       15.9994           0
     77251 TIP3     18290    TIP3     H1       HT       0.417000       1.00800           0
     77252 TIP3     18290    TIP3     H2       HT       0.417000       1.00800           0
     77253 TIP3     18291    TIP3     OH2      OT      -0.834000       15.9994           0
     77254 TIP3     18291    TIP3     H1       HT       0.417000       1.00800           0
     77255 TIP3     18291    TIP3     H2       HT       0.417000       1.00800           0
     77256 TIP3     18292    TIP3     OH2      OT      -0.834000       15.9994           0
     77257 TIP3     18292    TIP3     H1       HT       0.417000       1.00800           0
     77258 TIP3     18292    TIP3     H2       HT       0.417000       1.00800           0
     77259 TIP3     18293    TIP3     OH2      OT      -0.834000       15.9994           0
     77260 TIP3     18293    TIP3     H1       HT       0.417000       1.00800           0
     77261 TIP3     18293    TIP3     H2       HT       0.417000       1.00800           0
     77262 TIP3     18294    TIP3     OH2      OT      -0.834000       15.9994           0
     77263 TIP3     18294    TIP3     H1       HT       0.417000       1.00800           0
     77264 TIP3     18294    TIP3     H2       HT       0.417000       1.00800           0
     77265 TIP3     18295    TIP3     OH2      OT      -0.834000       15.9994           0
     77266 TIP3     18295    TIP3     H1       HT       0.417000       1.00800           0
     77267 TIP3     18295    TIP3     H2       HT       0.417000       1.00800           0
     77268 TIP3     18296    TIP3     OH2      OT      -0.834000       15.9994           0
     77269 TIP3     18296    TIP3     H1       HT       0.417000       1.00800           0
     77270 TIP3     18296    TIP3     H2       HT       0.417000       1.00800           0
     77271 TIP3     18297    TIP3     OH2      OT      -0.834000       15.9994           0
     77272 TIP3     18297    TIP3     H1       HT       0.417000       1.00800           0
     77273 TIP3     18297    TIP3     H2       HT       0.417000       1.00800           0
     77274 TIP3     18298    TIP3     OH2      OT      -0.834000       15.9994           0
     77275 TIP3     18298    TIP3     H1       HT       0.417000       1.00800           0
     77276 TIP3     18298    TIP3     H2       HT       0.417000       1.00800           0
     77277 TIP3     18299    TIP3     OH2      OT      -0.834000       15.9994           0
     77278 TIP3     18299    TIP3     H1       HT       0.417000       1.00800           0
     77279 TIP3     18299    TIP3     H2       HT       0.417000       1.00800           0
     77280 TIP3     18300    TIP3     OH2      OT      -0.834000       15.9994           0
     77281 TIP3     18300    TIP3     H1       HT       0.417000       1.00800           0
     77282 TIP3     18300    TIP3     H2       HT       0.417000       1.00800           0
     77283 TIP3     18301    TIP3     OH2      OT      -0.834000       15.9994           0
     77284 TIP3     18301    TIP3     H1       HT       0.417000       1.00800           0
     77285 TIP3     18301    TIP3     H2       HT       0.417000       1.00800           0
     77286 TIP3     18302    TIP3     OH2      OT      -0.834000       15.9994           0
     77287 TIP3     18302    TIP3     H1       HT       0.417000       1.00800           0
     77288 TIP3     18302    TIP3     H2       HT       0.417000       1.00800           0
     77289 TIP3     18303    TIP3     OH2      OT      -0.834000       15.9994           0
     77290 TIP3     18303    TIP3     H1       HT       0.417000       1.00800           0
     77291 TIP3     18303    TIP3     H2       HT       0.417000       1.00800           0
     77292 TIP3     18304    TIP3     OH2      OT      -0.834000       15.9994           0
     77293 TIP3     18304    TIP3     H1       HT       0.417000       1.00800           0
     77294 TIP3     18304    TIP3     H2       HT       0.417000       1.00800           0
     77295 TIP3     18305    TIP3     OH2      OT      -0.834000       15.9994           0
     77296 TIP3     18305    TIP3     H1       HT       0.417000       1.00800           0
     77297 TIP3     18305    TIP3     H2       HT       0.417000       1.00800           0
     77298 TIP3     18306    TIP3     OH2      OT      -0.834000       15.9994           0
     77299 TIP3     18306    TIP3     H1       HT       0.417000       1.00800           0
     77300 TIP3     18306    TIP3     H2       HT       0.417000       1.00800           0
     77301 TIP3     18307    TIP3     OH2      OT      -0.834000       15.9994           0
     77302 TIP3     18307    TIP3     H1       HT       0.417000       1.00800           0
     77303 TIP3     18307    TIP3     H2       HT       0.417000       1.00800           0
     77304 TIP3     18308    TIP3     OH2      OT      -0.834000       15.9994           0
     77305 TIP3     18308    TIP3     H1       HT       0.417000       1.00800           0
     77306 TIP3     18308    TIP3     H2       HT       0.417000       1.00800           0
     77307 TIP3     18309    TIP3     OH2      OT      -0.834000       15.9994           0
     77308 TIP3     18309    TIP3     H1       HT       0.417000       1.00800           0
     77309 TIP3     18309    TIP3     H2       HT       0.417000       1.00800           0
     77310 TIP3     18310    TIP3     OH2      OT      -0.834000       15.9994           0
     77311 TIP3     18310    TIP3     H1       HT       0.417000       1.00800           0
     77312 TIP3     18310    TIP3     H2       HT       0.417000       1.00800           0
     77313 TIP3     18311    TIP3     OH2      OT      -0.834000       15.9994           0
     77314 TIP3     18311    TIP3     H1       HT       0.417000       1.00800           0
     77315 TIP3     18311    TIP3     H2       HT       0.417000       1.00800           0
     77316 TIP3     18312    TIP3     OH2      OT      -0.834000       15.9994           0
     77317 TIP3     18312    TIP3     H1       HT       0.417000       1.00800           0
     77318 TIP3     18312    TIP3     H2       HT       0.417000       1.00800           0
     77319 TIP3     18313    TIP3     OH2      OT      -0.834000       15.9994           0
     77320 TIP3     18313    TIP3     H1       HT       0.417000       1.00800           0
     77321 TIP3     18313    TIP3     H2       HT       0.417000       1.00800           0
     77322 TIP3     18314    TIP3     OH2      OT      -0.834000       15.9994           0
     77323 TIP3     18314    TIP3     H1       HT       0.417000       1.00800           0
     77324 TIP3     18314    TIP3     H2       HT       0.417000       1.00800           0
     77325 TIP3     18315    TIP3     OH2      OT      -0.834000       15.9994           0
     77326 TIP3     18315    TIP3     H1       HT       0.417000       1.00800           0
     77327 TIP3     18315    TIP3     H2       HT       0.417000       1.00800           0
     77328 TIP3     18316    TIP3     OH2      OT      -0.834000       15.9994           0
     77329 TIP3     18316    TIP3     H1       HT       0.417000       1.00800           0
     77330 TIP3     18316    TIP3     H2       HT       0.417000       1.00800           0
     77331 TIP3     18317    TIP3     OH2      OT      -0.834000       15.9994           0
     77332 TIP3     18317    TIP3     H1       HT       0.417000       1.00800           0
     77333 TIP3     18317    TIP3     H2       HT       0.417000       1.00800           0
     77334 TIP3     18318    TIP3     OH2      OT      -0.834000       15.9994           0
     77335 TIP3     18318    TIP3     H1       HT       0.417000       1.00800           0
     77336 TIP3     18318    TIP3     H2       HT       0.417000       1.00800           0
     77337 TIP3     18319    TIP3     OH2      OT      -0.834000       15.9994           0
     77338 TIP3     18319    TIP3     H1       HT       0.417000       1.00800           0
     77339 TIP3     18319    TIP3     H2       HT       0.417000       1.00800           0
     77340 TIP3     18320    TIP3     OH2      OT      -0.834000       15.9994           0
     77341 TIP3     18320    TIP3     H1       HT       0.417000       1.00800           0
     77342 TIP3     18320    TIP3     H2       HT       0.417000       1.00800           0
     77343 TIP3     18321    TIP3     OH2      OT      -0.834000       15.9994           0
     77344 TIP3     18321    TIP3     H1       HT       0.417000       1.00800           0
     77345 TIP3     18321    TIP3     H2       HT       0.417000       1.00800           0
     77346 TIP3     18322    TIP3     OH2      OT      -0.834000       15.9994           0
     77347 TIP3     18322    TIP3     H1       HT       0.417000       1.00800           0
     77348 TIP3     18322    TIP3     H2       HT       0.417000       1.00800           0
     77349 TIP3     18323    TIP3     OH2      OT      -0.834000       15.9994           0
     77350 TIP3     18323    TIP3     H1       HT       0.417000       1.00800           0
     77351 TIP3     18323    TIP3     H2       HT       0.417000       1.00800           0
     77352 TIP3     18324    TIP3     OH2      OT      -0.834000       15.9994           0
     77353 TIP3     18324    TIP3     H1       HT       0.417000       1.00800           0
     77354 TIP3     18324    TIP3     H2       HT       0.417000       1.00800           0
     77355 TIP3     18325    TIP3     OH2      OT      -0.834000       15.9994           0
     77356 TIP3     18325    TIP3     H1       HT       0.417000       1.00800           0
     77357 TIP3     18325    TIP3     H2       HT       0.417000       1.00800           0
     77358 TIP3     18326    TIP3     OH2      OT      -0.834000       15.9994           0
     77359 TIP3     18326    TIP3     H1       HT       0.417000       1.00800           0
     77360 TIP3     18326    TIP3     H2       HT       0.417000       1.00800           0
     77361 TIP3     18327    TIP3     OH2      OT      -0.834000       15.9994           0
     77362 TIP3     18327    TIP3     H1       HT       0.417000       1.00800           0
     77363 TIP3     18327    TIP3     H2       HT       0.417000       1.00800           0
     77364 TIP3     18328    TIP3     OH2      OT      -0.834000       15.9994           0
     77365 TIP3     18328    TIP3     H1       HT       0.417000       1.00800           0
     77366 TIP3     18328    TIP3     H2       HT       0.417000       1.00800           0
     77367 TIP3     18329    TIP3     OH2      OT      -0.834000       15.9994           0
     77368 TIP3     18329    TIP3     H1       HT       0.417000       1.00800           0
     77369 TIP3     18329    TIP3     H2       HT       0.417000       1.00800           0
     77370 TIP3     18330    TIP3     OH2      OT      -0.834000       15.9994           0
     77371 TIP3     18330    TIP3     H1       HT       0.417000       1.00800           0
     77372 TIP3     18330    TIP3     H2       HT       0.417000       1.00800           0
     77373 TIP3     18331    TIP3     OH2      OT      -0.834000       15.9994           0
     77374 TIP3     18331    TIP3     H1       HT       0.417000       1.00800           0
     77375 TIP3     18331    TIP3     H2       HT       0.417000       1.00800           0
     77376 TIP3     18332    TIP3     OH2      OT      -0.834000       15.9994           0
     77377 TIP3     18332    TIP3     H1       HT       0.417000       1.00800           0
     77378 TIP3     18332    TIP3     H2       HT       0.417000       1.00800           0
     77379 TIP3     18333    TIP3     OH2      OT      -0.834000       15.9994           0
     77380 TIP3     18333    TIP3     H1       HT       0.417000       1.00800           0
     77381 TIP3     18333    TIP3     H2       HT       0.417000       1.00800           0
     77382 TIP3     18334    TIP3     OH2      OT      -0.834000       15.9994           0
     77383 TIP3     18334    TIP3     H1       HT       0.417000       1.00800           0
     77384 TIP3     18334    TIP3     H2       HT       0.417000       1.00800           0
     77385 TIP3     18335    TIP3     OH2      OT      -0.834000       15.9994           0
     77386 TIP3     18335    TIP3     H1       HT       0.417000       1.00800           0
     77387 TIP3     18335    TIP3     H2       HT       0.417000       1.00800           0
     77388 TIP3     18336    TIP3     OH2      OT      -0.834000       15.9994           0
     77389 TIP3     18336    TIP3     H1       HT       0.417000       1.00800           0
     77390 TIP3     18336    TIP3     H2       HT       0.417000       1.00800           0
     77391 TIP3     18337    TIP3     OH2      OT      -0.834000       15.9994           0
     77392 TIP3     18337    TIP3     H1       HT       0.417000       1.00800           0
     77393 TIP3     18337    TIP3     H2       HT       0.417000       1.00800           0
     77394 TIP3     18338    TIP3     OH2      OT      -0.834000       15.9994           0
     77395 TIP3     18338    TIP3     H1       HT       0.417000       1.00800           0
     77396 TIP3     18338    TIP3     H2       HT       0.417000       1.00800           0
     77397 TIP3     18339    TIP3     OH2      OT      -0.834000       15.9994           0
     77398 TIP3     18339    TIP3     H1       HT       0.417000       1.00800           0
     77399 TIP3     18339    TIP3     H2       HT       0.417000       1.00800           0
     77400 TIP3     18340    TIP3     OH2      OT      -0.834000       15.9994           0
     77401 TIP3     18340    TIP3     H1       HT       0.417000       1.00800           0
     77402 TIP3     18340    TIP3     H2       HT       0.417000       1.00800           0
     77403 TIP3     18341    TIP3     OH2      OT      -0.834000       15.9994           0
     77404 TIP3     18341    TIP3     H1       HT       0.417000       1.00800           0
     77405 TIP3     18341    TIP3     H2       HT       0.417000       1.00800           0
     77406 TIP3     18342    TIP3     OH2      OT      -0.834000       15.9994           0
     77407 TIP3     18342    TIP3     H1       HT       0.417000       1.00800           0
     77408 TIP3     18342    TIP3     H2       HT       0.417000       1.00800           0
     77409 TIP3     18343    TIP3     OH2      OT      -0.834000       15.9994           0
     77410 TIP3     18343    TIP3     H1       HT       0.417000       1.00800           0
     77411 TIP3     18343    TIP3     H2       HT       0.417000       1.00800           0
     77412 TIP3     18344    TIP3     OH2      OT      -0.834000       15.9994           0
     77413 TIP3     18344    TIP3     H1       HT       0.417000       1.00800           0
     77414 TIP3     18344    TIP3     H2       HT       0.417000       1.00800           0
     77415 TIP3     18345    TIP3     OH2      OT      -0.834000       15.9994           0
     77416 TIP3     18345    TIP3     H1       HT       0.417000       1.00800           0
     77417 TIP3     18345    TIP3     H2       HT       0.417000       1.00800           0
     77418 TIP3     18346    TIP3     OH2      OT      -0.834000       15.9994           0
     77419 TIP3     18346    TIP3     H1       HT       0.417000       1.00800           0
     77420 TIP3     18346    TIP3     H2       HT       0.417000       1.00800           0
     77421 TIP3     18347    TIP3     OH2      OT      -0.834000       15.9994           0
     77422 TIP3     18347    TIP3     H1       HT       0.417000       1.00800           0
     77423 TIP3     18347    TIP3     H2       HT       0.417000       1.00800           0
     77424 TIP3     18348    TIP3     OH2      OT      -0.834000       15.9994           0
     77425 TIP3     18348    TIP3     H1       HT       0.417000       1.00800           0
     77426 TIP3     18348    TIP3     H2       HT       0.417000       1.00800           0
     77427 TIP3     18349    TIP3     OH2      OT      -0.834000       15.9994           0
     77428 TIP3     18349    TIP3     H1       HT       0.417000       1.00800           0
     77429 TIP3     18349    TIP3     H2       HT       0.417000       1.00800           0
     77430 TIP3     18350    TIP3     OH2      OT      -0.834000       15.9994           0
     77431 TIP3     18350    TIP3     H1       HT       0.417000       1.00800           0
     77432 TIP3     18350    TIP3     H2       HT       0.417000       1.00800           0
     77433 TIP3     18351    TIP3     OH2      OT      -0.834000       15.9994           0
     77434 TIP3     18351    TIP3     H1       HT       0.417000       1.00800           0
     77435 TIP3     18351    TIP3     H2       HT       0.417000       1.00800           0
     77436 TIP3     18352    TIP3     OH2      OT      -0.834000       15.9994           0
     77437 TIP3     18352    TIP3     H1       HT       0.417000       1.00800           0
     77438 TIP3     18352    TIP3     H2       HT       0.417000       1.00800           0
     77439 TIP3     18353    TIP3     OH2      OT      -0.834000       15.9994           0
     77440 TIP3     18353    TIP3     H1       HT       0.417000       1.00800           0
     77441 TIP3     18353    TIP3     H2       HT       0.417000       1.00800           0
     77442 TIP3     18354    TIP3     OH2      OT      -0.834000       15.9994           0
     77443 TIP3     18354    TIP3     H1       HT       0.417000       1.00800           0
     77444 TIP3     18354    TIP3     H2       HT       0.417000       1.00800           0
     77445 TIP3     18355    TIP3     OH2      OT      -0.834000       15.9994           0
     77446 TIP3     18355    TIP3     H1       HT       0.417000       1.00800           0
     77447 TIP3     18355    TIP3     H2       HT       0.417000       1.00800           0
     77448 TIP3     18356    TIP3     OH2      OT      -0.834000       15.9994           0
     77449 TIP3     18356    TIP3     H1       HT       0.417000       1.00800           0
     77450 TIP3     18356    TIP3     H2       HT       0.417000       1.00800           0
     77451 TIP3     18357    TIP3     OH2      OT      -0.834000       15.9994           0
     77452 TIP3     18357    TIP3     H1       HT       0.417000       1.00800           0
     77453 TIP3     18357    TIP3     H2       HT       0.417000       1.00800           0
     77454 TIP3     18358    TIP3     OH2      OT      -0.834000       15.9994           0
     77455 TIP3     18358    TIP3     H1       HT       0.417000       1.00800           0
     77456 TIP3     18358    TIP3     H2       HT       0.417000       1.00800           0
     77457 TIP3     18359    TIP3     OH2      OT      -0.834000       15.9994           0
     77458 TIP3     18359    TIP3     H1       HT       0.417000       1.00800           0
     77459 TIP3     18359    TIP3     H2       HT       0.417000       1.00800           0
     77460 TIP3     18360    TIP3     OH2      OT      -0.834000       15.9994           0
     77461 TIP3     18360    TIP3     H1       HT       0.417000       1.00800           0
     77462 TIP3     18360    TIP3     H2       HT       0.417000       1.00800           0
     77463 TIP3     18361    TIP3     OH2      OT      -0.834000       15.9994           0
     77464 TIP3     18361    TIP3     H1       HT       0.417000       1.00800           0
     77465 TIP3     18361    TIP3     H2       HT       0.417000       1.00800           0
     77466 TIP3     18362    TIP3     OH2      OT      -0.834000       15.9994           0
     77467 TIP3     18362    TIP3     H1       HT       0.417000       1.00800           0
     77468 TIP3     18362    TIP3     H2       HT       0.417000       1.00800           0
     77469 TIP3     18363    TIP3     OH2      OT      -0.834000       15.9994           0
     77470 TIP3     18363    TIP3     H1       HT       0.417000       1.00800           0
     77471 TIP3     18363    TIP3     H2       HT       0.417000       1.00800           0
     77472 TIP3     18364    TIP3     OH2      OT      -0.834000       15.9994           0
     77473 TIP3     18364    TIP3     H1       HT       0.417000       1.00800           0
     77474 TIP3     18364    TIP3     H2       HT       0.417000       1.00800           0
     77475 TIP3     18365    TIP3     OH2      OT      -0.834000       15.9994           0
     77476 TIP3     18365    TIP3     H1       HT       0.417000       1.00800           0
     77477 TIP3     18365    TIP3     H2       HT       0.417000       1.00800           0
     77478 TIP3     18366    TIP3     OH2      OT      -0.834000       15.9994           0
     77479 TIP3     18366    TIP3     H1       HT       0.417000       1.00800           0
     77480 TIP3     18366    TIP3     H2       HT       0.417000       1.00800           0
     77481 TIP3     18367    TIP3     OH2      OT      -0.834000       15.9994           0
     77482 TIP3     18367    TIP3     H1       HT       0.417000       1.00800           0
     77483 TIP3     18367    TIP3     H2       HT       0.417000       1.00800           0
     77484 TIP3     18368    TIP3     OH2      OT      -0.834000       15.9994           0
     77485 TIP3     18368    TIP3     H1       HT       0.417000       1.00800           0
     77486 TIP3     18368    TIP3     H2       HT       0.417000       1.00800           0
     77487 TIP3     18369    TIP3     OH2      OT      -0.834000       15.9994           0
     77488 TIP3     18369    TIP3     H1       HT       0.417000       1.00800           0
     77489 TIP3     18369    TIP3     H2       HT       0.417000       1.00800           0
     77490 TIP3     18370    TIP3     OH2      OT      -0.834000       15.9994           0
     77491 TIP3     18370    TIP3     H1       HT       0.417000       1.00800           0
     77492 TIP3     18370    TIP3     H2       HT       0.417000       1.00800           0
     77493 TIP3     18371    TIP3     OH2      OT      -0.834000       15.9994           0
     77494 TIP3     18371    TIP3     H1       HT       0.417000       1.00800           0
     77495 TIP3     18371    TIP3     H2       HT       0.417000       1.00800           0
     77496 TIP3     18372    TIP3     OH2      OT      -0.834000       15.9994           0
     77497 TIP3     18372    TIP3     H1       HT       0.417000       1.00800           0
     77498 TIP3     18372    TIP3     H2       HT       0.417000       1.00800           0
     77499 TIP3     18373    TIP3     OH2      OT      -0.834000       15.9994           0
     77500 TIP3     18373    TIP3     H1       HT       0.417000       1.00800           0
     77501 TIP3     18373    TIP3     H2       HT       0.417000       1.00800           0
     77502 TIP3     18374    TIP3     OH2      OT      -0.834000       15.9994           0
     77503 TIP3     18374    TIP3     H1       HT       0.417000       1.00800           0
     77504 TIP3     18374    TIP3     H2       HT       0.417000       1.00800           0
     77505 TIP3     18375    TIP3     OH2      OT      -0.834000       15.9994           0
     77506 TIP3     18375    TIP3     H1       HT       0.417000       1.00800           0
     77507 TIP3     18375    TIP3     H2       HT       0.417000       1.00800           0
     77508 TIP3     18376    TIP3     OH2      OT      -0.834000       15.9994           0
     77509 TIP3     18376    TIP3     H1       HT       0.417000       1.00800           0
     77510 TIP3     18376    TIP3     H2       HT       0.417000       1.00800           0
     77511 TIP3     18377    TIP3     OH2      OT      -0.834000       15.9994           0
     77512 TIP3     18377    TIP3     H1       HT       0.417000       1.00800           0
     77513 TIP3     18377    TIP3     H2       HT       0.417000       1.00800           0
     77514 TIP3     18378    TIP3     OH2      OT      -0.834000       15.9994           0
     77515 TIP3     18378    TIP3     H1       HT       0.417000       1.00800           0
     77516 TIP3     18378    TIP3     H2       HT       0.417000       1.00800           0
     77517 TIP3     18379    TIP3     OH2      OT      -0.834000       15.9994           0
     77518 TIP3     18379    TIP3     H1       HT       0.417000       1.00800           0
     77519 TIP3     18379    TIP3     H2       HT       0.417000       1.00800           0
     77520 TIP3     18380    TIP3     OH2      OT      -0.834000       15.9994           0
     77521 TIP3     18380    TIP3     H1       HT       0.417000       1.00800           0
     77522 TIP3     18380    TIP3     H2       HT       0.417000       1.00800           0
     77523 TIP3     18381    TIP3     OH2      OT      -0.834000       15.9994           0
     77524 TIP3     18381    TIP3     H1       HT       0.417000       1.00800           0
     77525 TIP3     18381    TIP3     H2       HT       0.417000       1.00800           0
     77526 TIP3     18382    TIP3     OH2      OT      -0.834000       15.9994           0
     77527 TIP3     18382    TIP3     H1       HT       0.417000       1.00800           0
     77528 TIP3     18382    TIP3     H2       HT       0.417000       1.00800           0
     77529 TIP3     18383    TIP3     OH2      OT      -0.834000       15.9994           0
     77530 TIP3     18383    TIP3     H1       HT       0.417000       1.00800           0
     77531 TIP3     18383    TIP3     H2       HT       0.417000       1.00800           0
     77532 TIP3     18384    TIP3     OH2      OT      -0.834000       15.9994           0
     77533 TIP3     18384    TIP3     H1       HT       0.417000       1.00800           0
     77534 TIP3     18384    TIP3     H2       HT       0.417000       1.00800           0
     77535 TIP3     18385    TIP3     OH2      OT      -0.834000       15.9994           0
     77536 TIP3     18385    TIP3     H1       HT       0.417000       1.00800           0
     77537 TIP3     18385    TIP3     H2       HT       0.417000       1.00800           0
     77538 TIP3     18386    TIP3     OH2      OT      -0.834000       15.9994           0
     77539 TIP3     18386    TIP3     H1       HT       0.417000       1.00800           0
     77540 TIP3     18386    TIP3     H2       HT       0.417000       1.00800           0
     77541 TIP3     18387    TIP3     OH2      OT      -0.834000       15.9994           0
     77542 TIP3     18387    TIP3     H1       HT       0.417000       1.00800           0
     77543 TIP3     18387    TIP3     H2       HT       0.417000       1.00800           0
     77544 TIP3     18388    TIP3     OH2      OT      -0.834000       15.9994           0
     77545 TIP3     18388    TIP3     H1       HT       0.417000       1.00800           0
     77546 TIP3     18388    TIP3     H2       HT       0.417000       1.00800           0
     77547 TIP3     18389    TIP3     OH2      OT      -0.834000       15.9994           0
     77548 TIP3     18389    TIP3     H1       HT       0.417000       1.00800           0
     77549 TIP3     18389    TIP3     H2       HT       0.417000       1.00800           0
     77550 TIP3     18390    TIP3     OH2      OT      -0.834000       15.9994           0
     77551 TIP3     18390    TIP3     H1       HT       0.417000       1.00800           0
     77552 TIP3     18390    TIP3     H2       HT       0.417000       1.00800           0
     77553 TIP3     18391    TIP3     OH2      OT      -0.834000       15.9994           0
     77554 TIP3     18391    TIP3     H1       HT       0.417000       1.00800           0
     77555 TIP3     18391    TIP3     H2       HT       0.417000       1.00800           0
     77556 TIP3     18392    TIP3     OH2      OT      -0.834000       15.9994           0
     77557 TIP3     18392    TIP3     H1       HT       0.417000       1.00800           0
     77558 TIP3     18392    TIP3     H2       HT       0.417000       1.00800           0
     77559 TIP3     18393    TIP3     OH2      OT      -0.834000       15.9994           0
     77560 TIP3     18393    TIP3     H1       HT       0.417000       1.00800           0
     77561 TIP3     18393    TIP3     H2       HT       0.417000       1.00800           0
     77562 TIP3     18394    TIP3     OH2      OT      -0.834000       15.9994           0
     77563 TIP3     18394    TIP3     H1       HT       0.417000       1.00800           0
     77564 TIP3     18394    TIP3     H2       HT       0.417000       1.00800           0
     77565 TIP3     18395    TIP3     OH2      OT      -0.834000       15.9994           0
     77566 TIP3     18395    TIP3     H1       HT       0.417000       1.00800           0
     77567 TIP3     18395    TIP3     H2       HT       0.417000       1.00800           0
     77568 TIP3     18396    TIP3     OH2      OT      -0.834000       15.9994           0
     77569 TIP3     18396    TIP3     H1       HT       0.417000       1.00800           0
     77570 TIP3     18396    TIP3     H2       HT       0.417000       1.00800           0
     77571 TIP3     18397    TIP3     OH2      OT      -0.834000       15.9994           0
     77572 TIP3     18397    TIP3     H1       HT       0.417000       1.00800           0
     77573 TIP3     18397    TIP3     H2       HT       0.417000       1.00800           0
     77574 TIP3     18398    TIP3     OH2      OT      -0.834000       15.9994           0
     77575 TIP3     18398    TIP3     H1       HT       0.417000       1.00800           0
     77576 TIP3     18398    TIP3     H2       HT       0.417000       1.00800           0
     77577 TIP3     18399    TIP3     OH2      OT      -0.834000       15.9994           0
     77578 TIP3     18399    TIP3     H1       HT       0.417000       1.00800           0
     77579 TIP3     18399    TIP3     H2       HT       0.417000       1.00800           0
     77580 TIP3     18400    TIP3     OH2      OT      -0.834000       15.9994           0
     77581 TIP3     18400    TIP3     H1       HT       0.417000       1.00800           0
     77582 TIP3     18400    TIP3     H2       HT       0.417000       1.00800           0
     77583 TIP3     18401    TIP3     OH2      OT      -0.834000       15.9994           0
     77584 TIP3     18401    TIP3     H1       HT       0.417000       1.00800           0
     77585 TIP3     18401    TIP3     H2       HT       0.417000       1.00800           0
     77586 TIP3     18402    TIP3     OH2      OT      -0.834000       15.9994           0
     77587 TIP3     18402    TIP3     H1       HT       0.417000       1.00800           0
     77588 TIP3     18402    TIP3     H2       HT       0.417000       1.00800           0
     77589 TIP3     18403    TIP3     OH2      OT      -0.834000       15.9994           0
     77590 TIP3     18403    TIP3     H1       HT       0.417000       1.00800           0
     77591 TIP3     18403    TIP3     H2       HT       0.417000       1.00800           0
     77592 TIP3     18404    TIP3     OH2      OT      -0.834000       15.9994           0
     77593 TIP3     18404    TIP3     H1       HT       0.417000       1.00800           0
     77594 TIP3     18404    TIP3     H2       HT       0.417000       1.00800           0
     77595 TIP3     18405    TIP3     OH2      OT      -0.834000       15.9994           0
     77596 TIP3     18405    TIP3     H1       HT       0.417000       1.00800           0
     77597 TIP3     18405    TIP3     H2       HT       0.417000       1.00800           0
     77598 TIP3     18406    TIP3     OH2      OT      -0.834000       15.9994           0
     77599 TIP3     18406    TIP3     H1       HT       0.417000       1.00800           0
     77600 TIP3     18406    TIP3     H2       HT       0.417000       1.00800           0
     77601 TIP3     18407    TIP3     OH2      OT      -0.834000       15.9994           0
     77602 TIP3     18407    TIP3     H1       HT       0.417000       1.00800           0
     77603 TIP3     18407    TIP3     H2       HT       0.417000       1.00800           0
     77604 TIP3     18408    TIP3     OH2      OT      -0.834000       15.9994           0
     77605 TIP3     18408    TIP3     H1       HT       0.417000       1.00800           0
     77606 TIP3     18408    TIP3     H2       HT       0.417000       1.00800           0
     77607 TIP3     18409    TIP3     OH2      OT      -0.834000       15.9994           0
     77608 TIP3     18409    TIP3     H1       HT       0.417000       1.00800           0
     77609 TIP3     18409    TIP3     H2       HT       0.417000       1.00800           0
     77610 TIP3     18410    TIP3     OH2      OT      -0.834000       15.9994           0
     77611 TIP3     18410    TIP3     H1       HT       0.417000       1.00800           0
     77612 TIP3     18410    TIP3     H2       HT       0.417000       1.00800           0
     77613 TIP3     18411    TIP3     OH2      OT      -0.834000       15.9994           0
     77614 TIP3     18411    TIP3     H1       HT       0.417000       1.00800           0
     77615 TIP3     18411    TIP3     H2       HT       0.417000       1.00800           0
     77616 TIP3     18412    TIP3     OH2      OT      -0.834000       15.9994           0
     77617 TIP3     18412    TIP3     H1       HT       0.417000       1.00800           0
     77618 TIP3     18412    TIP3     H2       HT       0.417000       1.00800           0
     77619 TIP3     18413    TIP3     OH2      OT      -0.834000       15.9994           0
     77620 TIP3     18413    TIP3     H1       HT       0.417000       1.00800           0
     77621 TIP3     18413    TIP3     H2       HT       0.417000       1.00800           0
     77622 TIP3     18414    TIP3     OH2      OT      -0.834000       15.9994           0
     77623 TIP3     18414    TIP3     H1       HT       0.417000       1.00800           0
     77624 TIP3     18414    TIP3     H2       HT       0.417000       1.00800           0
     77625 TIP3     18415    TIP3     OH2      OT      -0.834000       15.9994           0
     77626 TIP3     18415    TIP3     H1       HT       0.417000       1.00800           0
     77627 TIP3     18415    TIP3     H2       HT       0.417000       1.00800           0
     77628 TIP3     18416    TIP3     OH2      OT      -0.834000       15.9994           0
     77629 TIP3     18416    TIP3     H1       HT       0.417000       1.00800           0
     77630 TIP3     18416    TIP3     H2       HT       0.417000       1.00800           0
     77631 TIP3     18417    TIP3     OH2      OT      -0.834000       15.9994           0
     77632 TIP3     18417    TIP3     H1       HT       0.417000       1.00800           0
     77633 TIP3     18417    TIP3     H2       HT       0.417000       1.00800           0
     77634 TIP3     18418    TIP3     OH2      OT      -0.834000       15.9994           0
     77635 TIP3     18418    TIP3     H1       HT       0.417000       1.00800           0
     77636 TIP3     18418    TIP3     H2       HT       0.417000       1.00800           0
     77637 TIP3     18419    TIP3     OH2      OT      -0.834000       15.9994           0
     77638 TIP3     18419    TIP3     H1       HT       0.417000       1.00800           0
     77639 TIP3     18419    TIP3     H2       HT       0.417000       1.00800           0
     77640 TIP3     18420    TIP3     OH2      OT      -0.834000       15.9994           0
     77641 TIP3     18420    TIP3     H1       HT       0.417000       1.00800           0
     77642 TIP3     18420    TIP3     H2       HT       0.417000       1.00800           0
     77643 TIP3     18421    TIP3     OH2      OT      -0.834000       15.9994           0
     77644 TIP3     18421    TIP3     H1       HT       0.417000       1.00800           0
     77645 TIP3     18421    TIP3     H2       HT       0.417000       1.00800           0
     77646 TIP3     18422    TIP3     OH2      OT      -0.834000       15.9994           0
     77647 TIP3     18422    TIP3     H1       HT       0.417000       1.00800           0
     77648 TIP3     18422    TIP3     H2       HT       0.417000       1.00800           0
     77649 TIP3     18423    TIP3     OH2      OT      -0.834000       15.9994           0
     77650 TIP3     18423    TIP3     H1       HT       0.417000       1.00800           0
     77651 TIP3     18423    TIP3     H2       HT       0.417000       1.00800           0
     77652 TIP3     18424    TIP3     OH2      OT      -0.834000       15.9994           0
     77653 TIP3     18424    TIP3     H1       HT       0.417000       1.00800           0
     77654 TIP3     18424    TIP3     H2       HT       0.417000       1.00800           0
     77655 TIP3     18425    TIP3     OH2      OT      -0.834000       15.9994           0
     77656 TIP3     18425    TIP3     H1       HT       0.417000       1.00800           0
     77657 TIP3     18425    TIP3     H2       HT       0.417000       1.00800           0
     77658 TIP3     18426    TIP3     OH2      OT      -0.834000       15.9994           0
     77659 TIP3     18426    TIP3     H1       HT       0.417000       1.00800           0
     77660 TIP3     18426    TIP3     H2       HT       0.417000       1.00800           0
     77661 TIP3     18427    TIP3     OH2      OT      -0.834000       15.9994           0
     77662 TIP3     18427    TIP3     H1       HT       0.417000       1.00800           0
     77663 TIP3     18427    TIP3     H2       HT       0.417000       1.00800           0
     77664 TIP3     18428    TIP3     OH2      OT      -0.834000       15.9994           0
     77665 TIP3     18428    TIP3     H1       HT       0.417000       1.00800           0
     77666 TIP3     18428    TIP3     H2       HT       0.417000       1.00800           0
     77667 TIP3     18429    TIP3     OH2      OT      -0.834000       15.9994           0
     77668 TIP3     18429    TIP3     H1       HT       0.417000       1.00800           0
     77669 TIP3     18429    TIP3     H2       HT       0.417000       1.00800           0
     77670 TIP3     18430    TIP3     OH2      OT      -0.834000       15.9994           0
     77671 TIP3     18430    TIP3     H1       HT       0.417000       1.00800           0
     77672 TIP3     18430    TIP3     H2       HT       0.417000       1.00800           0
     77673 TIP3     18431    TIP3     OH2      OT      -0.834000       15.9994           0
     77674 TIP3     18431    TIP3     H1       HT       0.417000       1.00800           0
     77675 TIP3     18431    TIP3     H2       HT       0.417000       1.00800           0
     77676 TIP3     18432    TIP3     OH2      OT      -0.834000       15.9994           0
     77677 TIP3     18432    TIP3     H1       HT       0.417000       1.00800           0
     77678 TIP3     18432    TIP3     H2       HT       0.417000       1.00800           0
     77679 TIP3     18433    TIP3     OH2      OT      -0.834000       15.9994           0
     77680 TIP3     18433    TIP3     H1       HT       0.417000       1.00800           0
     77681 TIP3     18433    TIP3     H2       HT       0.417000       1.00800           0
     77682 TIP3     18434    TIP3     OH2      OT      -0.834000       15.9994           0
     77683 TIP3     18434    TIP3     H1       HT       0.417000       1.00800           0
     77684 TIP3     18434    TIP3     H2       HT       0.417000       1.00800           0
     77685 TIP3     18435    TIP3     OH2      OT      -0.834000       15.9994           0
     77686 TIP3     18435    TIP3     H1       HT       0.417000       1.00800           0
     77687 TIP3     18435    TIP3     H2       HT       0.417000       1.00800           0
     77688 TIP3     18436    TIP3     OH2      OT      -0.834000       15.9994           0
     77689 TIP3     18436    TIP3     H1       HT       0.417000       1.00800           0
     77690 TIP3     18436    TIP3     H2       HT       0.417000       1.00800           0
     77691 TIP3     18437    TIP3     OH2      OT      -0.834000       15.9994           0
     77692 TIP3     18437    TIP3     H1       HT       0.417000       1.00800           0
     77693 TIP3     18437    TIP3     H2       HT       0.417000       1.00800           0
     77694 TIP3     18438    TIP3     OH2      OT      -0.834000       15.9994           0
     77695 TIP3     18438    TIP3     H1       HT       0.417000       1.00800           0
     77696 TIP3     18438    TIP3     H2       HT       0.417000       1.00800           0
     77697 TIP3     18439    TIP3     OH2      OT      -0.834000       15.9994           0
     77698 TIP3     18439    TIP3     H1       HT       0.417000       1.00800           0
     77699 TIP3     18439    TIP3     H2       HT       0.417000       1.00800           0
     77700 TIP3     18440    TIP3     OH2      OT      -0.834000       15.9994           0
     77701 TIP3     18440    TIP3     H1       HT       0.417000       1.00800           0
     77702 TIP3     18440    TIP3     H2       HT       0.417000       1.00800           0
     77703 TIP3     18441    TIP3     OH2      OT      -0.834000       15.9994           0
     77704 TIP3     18441    TIP3     H1       HT       0.417000       1.00800           0
     77705 TIP3     18441    TIP3     H2       HT       0.417000       1.00800           0
     77706 TIP3     18442    TIP3     OH2      OT      -0.834000       15.9994           0
     77707 TIP3     18442    TIP3     H1       HT       0.417000       1.00800           0
     77708 TIP3     18442    TIP3     H2       HT       0.417000       1.00800           0
     77709 TIP3     18443    TIP3     OH2      OT      -0.834000       15.9994           0
     77710 TIP3     18443    TIP3     H1       HT       0.417000       1.00800           0
     77711 TIP3     18443    TIP3     H2       HT       0.417000       1.00800           0
     77712 TIP3     18444    TIP3     OH2      OT      -0.834000       15.9994           0
     77713 TIP3     18444    TIP3     H1       HT       0.417000       1.00800           0
     77714 TIP3     18444    TIP3     H2       HT       0.417000       1.00800           0
     77715 TIP3     18445    TIP3     OH2      OT      -0.834000       15.9994           0
     77716 TIP3     18445    TIP3     H1       HT       0.417000       1.00800           0
     77717 TIP3     18445    TIP3     H2       HT       0.417000       1.00800           0
     77718 TIP3     18446    TIP3     OH2      OT      -0.834000       15.9994           0
     77719 TIP3     18446    TIP3     H1       HT       0.417000       1.00800           0
     77720 TIP3     18446    TIP3     H2       HT       0.417000       1.00800           0
     77721 TIP3     18447    TIP3     OH2      OT      -0.834000       15.9994           0
     77722 TIP3     18447    TIP3     H1       HT       0.417000       1.00800           0
     77723 TIP3     18447    TIP3     H2       HT       0.417000       1.00800           0
     77724 TIP3     18448    TIP3     OH2      OT      -0.834000       15.9994           0
     77725 TIP3     18448    TIP3     H1       HT       0.417000       1.00800           0
     77726 TIP3     18448    TIP3     H2       HT       0.417000       1.00800           0
     77727 TIP3     18449    TIP3     OH2      OT      -0.834000       15.9994           0
     77728 TIP3     18449    TIP3     H1       HT       0.417000       1.00800           0
     77729 TIP3     18449    TIP3     H2       HT       0.417000       1.00800           0
     77730 TIP3     18450    TIP3     OH2      OT      -0.834000       15.9994           0
     77731 TIP3     18450    TIP3     H1       HT       0.417000       1.00800           0
     77732 TIP3     18450    TIP3     H2       HT       0.417000       1.00800           0
     77733 TIP3     18451    TIP3     OH2      OT      -0.834000       15.9994           0
     77734 TIP3     18451    TIP3     H1       HT       0.417000       1.00800           0
     77735 TIP3     18451    TIP3     H2       HT       0.417000       1.00800           0
     77736 TIP3     18452    TIP3     OH2      OT      -0.834000       15.9994           0
     77737 TIP3     18452    TIP3     H1       HT       0.417000       1.00800           0
     77738 TIP3     18452    TIP3     H2       HT       0.417000       1.00800           0
     77739 TIP3     18453    TIP3     OH2      OT      -0.834000       15.9994           0
     77740 TIP3     18453    TIP3     H1       HT       0.417000       1.00800           0
     77741 TIP3     18453    TIP3     H2       HT       0.417000       1.00800           0
     77742 TIP3     18454    TIP3     OH2      OT      -0.834000       15.9994           0
     77743 TIP3     18454    TIP3     H1       HT       0.417000       1.00800           0
     77744 TIP3     18454    TIP3     H2       HT       0.417000       1.00800           0
     77745 TIP3     18455    TIP3     OH2      OT      -0.834000       15.9994           0
     77746 TIP3     18455    TIP3     H1       HT       0.417000       1.00800           0
     77747 TIP3     18455    TIP3     H2       HT       0.417000       1.00800           0
     77748 TIP3     18456    TIP3     OH2      OT      -0.834000       15.9994           0
     77749 TIP3     18456    TIP3     H1       HT       0.417000       1.00800           0
     77750 TIP3     18456    TIP3     H2       HT       0.417000       1.00800           0
     77751 TIP3     18457    TIP3     OH2      OT      -0.834000       15.9994           0
     77752 TIP3     18457    TIP3     H1       HT       0.417000       1.00800           0
     77753 TIP3     18457    TIP3     H2       HT       0.417000       1.00800           0
     77754 TIP3     18458    TIP3     OH2      OT      -0.834000       15.9994           0
     77755 TIP3     18458    TIP3     H1       HT       0.417000       1.00800           0
     77756 TIP3     18458    TIP3     H2       HT       0.417000       1.00800           0
     77757 TIP3     18459    TIP3     OH2      OT      -0.834000       15.9994           0
     77758 TIP3     18459    TIP3     H1       HT       0.417000       1.00800           0
     77759 TIP3     18459    TIP3     H2       HT       0.417000       1.00800           0
     77760 TIP3     18460    TIP3     OH2      OT      -0.834000       15.9994           0
     77761 TIP3     18460    TIP3     H1       HT       0.417000       1.00800           0
     77762 TIP3     18460    TIP3     H2       HT       0.417000       1.00800           0
     77763 TIP3     18461    TIP3     OH2      OT      -0.834000       15.9994           0
     77764 TIP3     18461    TIP3     H1       HT       0.417000       1.00800           0
     77765 TIP3     18461    TIP3     H2       HT       0.417000       1.00800           0
     77766 TIP3     18462    TIP3     OH2      OT      -0.834000       15.9994           0
     77767 TIP3     18462    TIP3     H1       HT       0.417000       1.00800           0
     77768 TIP3     18462    TIP3     H2       HT       0.417000       1.00800           0
     77769 TIP3     18463    TIP3     OH2      OT      -0.834000       15.9994           0
     77770 TIP3     18463    TIP3     H1       HT       0.417000       1.00800           0
     77771 TIP3     18463    TIP3     H2       HT       0.417000       1.00800           0
     77772 TIP3     18464    TIP3     OH2      OT      -0.834000       15.9994           0
     77773 TIP3     18464    TIP3     H1       HT       0.417000       1.00800           0
     77774 TIP3     18464    TIP3     H2       HT       0.417000       1.00800           0
     77775 TIP3     18465    TIP3     OH2      OT      -0.834000       15.9994           0
     77776 TIP3     18465    TIP3     H1       HT       0.417000       1.00800           0
     77777 TIP3     18465    TIP3     H2       HT       0.417000       1.00800           0
     77778 TIP3     18466    TIP3     OH2      OT      -0.834000       15.9994           0
     77779 TIP3     18466    TIP3     H1       HT       0.417000       1.00800           0
     77780 TIP3     18466    TIP3     H2       HT       0.417000       1.00800           0
     77781 TIP3     18467    TIP3     OH2      OT      -0.834000       15.9994           0
     77782 TIP3     18467    TIP3     H1       HT       0.417000       1.00800           0
     77783 TIP3     18467    TIP3     H2       HT       0.417000       1.00800           0
     77784 TIP3     18468    TIP3     OH2      OT      -0.834000       15.9994           0
     77785 TIP3     18468    TIP3     H1       HT       0.417000       1.00800           0
     77786 TIP3     18468    TIP3     H2       HT       0.417000       1.00800           0
     77787 TIP3     18469    TIP3     OH2      OT      -0.834000       15.9994           0
     77788 TIP3     18469    TIP3     H1       HT       0.417000       1.00800           0
     77789 TIP3     18469    TIP3     H2       HT       0.417000       1.00800           0
     77790 TIP3     18470    TIP3     OH2      OT      -0.834000       15.9994           0
     77791 TIP3     18470    TIP3     H1       HT       0.417000       1.00800           0
     77792 TIP3     18470    TIP3     H2       HT       0.417000       1.00800           0
     77793 TIP3     18471    TIP3     OH2      OT      -0.834000       15.9994           0
     77794 TIP3     18471    TIP3     H1       HT       0.417000       1.00800           0
     77795 TIP3     18471    TIP3     H2       HT       0.417000       1.00800           0
     77796 TIP3     18472    TIP3     OH2      OT      -0.834000       15.9994           0
     77797 TIP3     18472    TIP3     H1       HT       0.417000       1.00800           0
     77798 TIP3     18472    TIP3     H2       HT       0.417000       1.00800           0
     77799 TIP3     18473    TIP3     OH2      OT      -0.834000       15.9994           0
     77800 TIP3     18473    TIP3     H1       HT       0.417000       1.00800           0
     77801 TIP3     18473    TIP3     H2       HT       0.417000       1.00800           0
     77802 TIP3     18474    TIP3     OH2      OT      -0.834000       15.9994           0
     77803 TIP3     18474    TIP3     H1       HT       0.417000       1.00800           0
     77804 TIP3     18474    TIP3     H2       HT       0.417000       1.00800           0
     77805 TIP3     18475    TIP3     OH2      OT      -0.834000       15.9994           0
     77806 TIP3     18475    TIP3     H1       HT       0.417000       1.00800           0
     77807 TIP3     18475    TIP3     H2       HT       0.417000       1.00800           0
     77808 TIP3     18476    TIP3     OH2      OT      -0.834000       15.9994           0
     77809 TIP3     18476    TIP3     H1       HT       0.417000       1.00800           0
     77810 TIP3     18476    TIP3     H2       HT       0.417000       1.00800           0
     77811 TIP3     18477    TIP3     OH2      OT      -0.834000       15.9994           0
     77812 TIP3     18477    TIP3     H1       HT       0.417000       1.00800           0
     77813 TIP3     18477    TIP3     H2       HT       0.417000       1.00800           0
     77814 TIP3     18478    TIP3     OH2      OT      -0.834000       15.9994           0
     77815 TIP3     18478    TIP3     H1       HT       0.417000       1.00800           0
     77816 TIP3     18478    TIP3     H2       HT       0.417000       1.00800           0
     77817 TIP3     18479    TIP3     OH2      OT      -0.834000       15.9994           0
     77818 TIP3     18479    TIP3     H1       HT       0.417000       1.00800           0
     77819 TIP3     18479    TIP3     H2       HT       0.417000       1.00800           0
     77820 TIP3     18480    TIP3     OH2      OT      -0.834000       15.9994           0
     77821 TIP3     18480    TIP3     H1       HT       0.417000       1.00800           0
     77822 TIP3     18480    TIP3     H2       HT       0.417000       1.00800           0
     77823 TIP3     18481    TIP3     OH2      OT      -0.834000       15.9994           0
     77824 TIP3     18481    TIP3     H1       HT       0.417000       1.00800           0
     77825 TIP3     18481    TIP3     H2       HT       0.417000       1.00800           0
     77826 TIP3     18482    TIP3     OH2      OT      -0.834000       15.9994           0
     77827 TIP3     18482    TIP3     H1       HT       0.417000       1.00800           0
     77828 TIP3     18482    TIP3     H2       HT       0.417000       1.00800           0
     77829 TIP3     18483    TIP3     OH2      OT      -0.834000       15.9994           0
     77830 TIP3     18483    TIP3     H1       HT       0.417000       1.00800           0
     77831 TIP3     18483    TIP3     H2       HT       0.417000       1.00800           0
     77832 TIP3     18484    TIP3     OH2      OT      -0.834000       15.9994           0
     77833 TIP3     18484    TIP3     H1       HT       0.417000       1.00800           0
     77834 TIP3     18484    TIP3     H2       HT       0.417000       1.00800           0
     77835 TIP3     18485    TIP3     OH2      OT      -0.834000       15.9994           0
     77836 TIP3     18485    TIP3     H1       HT       0.417000       1.00800           0
     77837 TIP3     18485    TIP3     H2       HT       0.417000       1.00800           0
     77838 TIP3     18486    TIP3     OH2      OT      -0.834000       15.9994           0
     77839 TIP3     18486    TIP3     H1       HT       0.417000       1.00800           0
     77840 TIP3     18486    TIP3     H2       HT       0.417000       1.00800           0
     77841 TIP3     18487    TIP3     OH2      OT      -0.834000       15.9994           0
     77842 TIP3     18487    TIP3     H1       HT       0.417000       1.00800           0
     77843 TIP3     18487    TIP3     H2       HT       0.417000       1.00800           0
     77844 TIP3     18488    TIP3     OH2      OT      -0.834000       15.9994           0
     77845 TIP3     18488    TIP3     H1       HT       0.417000       1.00800           0
     77846 TIP3     18488    TIP3     H2       HT       0.417000       1.00800           0
     77847 TIP3     18489    TIP3     OH2      OT      -0.834000       15.9994           0
     77848 TIP3     18489    TIP3     H1       HT       0.417000       1.00800           0
     77849 TIP3     18489    TIP3     H2       HT       0.417000       1.00800           0
     77850 TIP3     18490    TIP3     OH2      OT      -0.834000       15.9994           0
     77851 TIP3     18490    TIP3     H1       HT       0.417000       1.00800           0
     77852 TIP3     18490    TIP3     H2       HT       0.417000       1.00800           0
     77853 TIP3     18491    TIP3     OH2      OT      -0.834000       15.9994           0
     77854 TIP3     18491    TIP3     H1       HT       0.417000       1.00800           0
     77855 TIP3     18491    TIP3     H2       HT       0.417000       1.00800           0
     77856 TIP3     18492    TIP3     OH2      OT      -0.834000       15.9994           0
     77857 TIP3     18492    TIP3     H1       HT       0.417000       1.00800           0
     77858 TIP3     18492    TIP3     H2       HT       0.417000       1.00800           0
     77859 TIP3     18493    TIP3     OH2      OT      -0.834000       15.9994           0
     77860 TIP3     18493    TIP3     H1       HT       0.417000       1.00800           0
     77861 TIP3     18493    TIP3     H2       HT       0.417000       1.00800           0
     77862 TIP3     18494    TIP3     OH2      OT      -0.834000       15.9994           0
     77863 TIP3     18494    TIP3     H1       HT       0.417000       1.00800           0
     77864 TIP3     18494    TIP3     H2       HT       0.417000       1.00800           0
     77865 TIP3     18495    TIP3     OH2      OT      -0.834000       15.9994           0
     77866 TIP3     18495    TIP3     H1       HT       0.417000       1.00800           0
     77867 TIP3     18495    TIP3     H2       HT       0.417000       1.00800           0
     77868 TIP3     18496    TIP3     OH2      OT      -0.834000       15.9994           0
     77869 TIP3     18496    TIP3     H1       HT       0.417000       1.00800           0
     77870 TIP3     18496    TIP3     H2       HT       0.417000       1.00800           0
     77871 TIP3     18497    TIP3     OH2      OT      -0.834000       15.9994           0
     77872 TIP3     18497    TIP3     H1       HT       0.417000       1.00800           0
     77873 TIP3     18497    TIP3     H2       HT       0.417000       1.00800           0
     77874 TIP3     18498    TIP3     OH2      OT      -0.834000       15.9994           0
     77875 TIP3     18498    TIP3     H1       HT       0.417000       1.00800           0
     77876 TIP3     18498    TIP3     H2       HT       0.417000       1.00800           0
     77877 TIP3     18499    TIP3     OH2      OT      -0.834000       15.9994           0
     77878 TIP3     18499    TIP3     H1       HT       0.417000       1.00800           0
     77879 TIP3     18499    TIP3     H2       HT       0.417000       1.00800           0
     77880 TIP3     18500    TIP3     OH2      OT      -0.834000       15.9994           0
     77881 TIP3     18500    TIP3     H1       HT       0.417000       1.00800           0
     77882 TIP3     18500    TIP3     H2       HT       0.417000       1.00800           0
     77883 TIP3     18501    TIP3     OH2      OT      -0.834000       15.9994           0
     77884 TIP3     18501    TIP3     H1       HT       0.417000       1.00800           0
     77885 TIP3     18501    TIP3     H2       HT       0.417000       1.00800           0
     77886 TIP3     18502    TIP3     OH2      OT      -0.834000       15.9994           0
     77887 TIP3     18502    TIP3     H1       HT       0.417000       1.00800           0
     77888 TIP3     18502    TIP3     H2       HT       0.417000       1.00800           0
     77889 TIP3     18503    TIP3     OH2      OT      -0.834000       15.9994           0
     77890 TIP3     18503    TIP3     H1       HT       0.417000       1.00800           0
     77891 TIP3     18503    TIP3     H2       HT       0.417000       1.00800           0
     77892 TIP3     18504    TIP3     OH2      OT      -0.834000       15.9994           0
     77893 TIP3     18504    TIP3     H1       HT       0.417000       1.00800           0
     77894 TIP3     18504    TIP3     H2       HT       0.417000       1.00800           0
     77895 TIP3     18505    TIP3     OH2      OT      -0.834000       15.9994           0
     77896 TIP3     18505    TIP3     H1       HT       0.417000       1.00800           0
     77897 TIP3     18505    TIP3     H2       HT       0.417000       1.00800           0
     77898 TIP3     18506    TIP3     OH2      OT      -0.834000       15.9994           0
     77899 TIP3     18506    TIP3     H1       HT       0.417000       1.00800           0
     77900 TIP3     18506    TIP3     H2       HT       0.417000       1.00800           0
     77901 TIP3     18507    TIP3     OH2      OT      -0.834000       15.9994           0
     77902 TIP3     18507    TIP3     H1       HT       0.417000       1.00800           0
     77903 TIP3     18507    TIP3     H2       HT       0.417000       1.00800           0
     77904 TIP3     18508    TIP3     OH2      OT      -0.834000       15.9994           0
     77905 TIP3     18508    TIP3     H1       HT       0.417000       1.00800           0
     77906 TIP3     18508    TIP3     H2       HT       0.417000       1.00800           0
     77907 TIP3     18509    TIP3     OH2      OT      -0.834000       15.9994           0
     77908 TIP3     18509    TIP3     H1       HT       0.417000       1.00800           0
     77909 TIP3     18509    TIP3     H2       HT       0.417000       1.00800           0
     77910 TIP3     18510    TIP3     OH2      OT      -0.834000       15.9994           0
     77911 TIP3     18510    TIP3     H1       HT       0.417000       1.00800           0
     77912 TIP3     18510    TIP3     H2       HT       0.417000       1.00800           0
     77913 TIP3     18511    TIP3     OH2      OT      -0.834000       15.9994           0
     77914 TIP3     18511    TIP3     H1       HT       0.417000       1.00800           0
     77915 TIP3     18511    TIP3     H2       HT       0.417000       1.00800           0
     77916 TIP3     18512    TIP3     OH2      OT      -0.834000       15.9994           0
     77917 TIP3     18512    TIP3     H1       HT       0.417000       1.00800           0
     77918 TIP3     18512    TIP3     H2       HT       0.417000       1.00800           0
     77919 TIP3     18513    TIP3     OH2      OT      -0.834000       15.9994           0
     77920 TIP3     18513    TIP3     H1       HT       0.417000       1.00800           0
     77921 TIP3     18513    TIP3     H2       HT       0.417000       1.00800           0
     77922 TIP3     18514    TIP3     OH2      OT      -0.834000       15.9994           0
     77923 TIP3     18514    TIP3     H1       HT       0.417000       1.00800           0
     77924 TIP3     18514    TIP3     H2       HT       0.417000       1.00800           0
     77925 TIP3     18515    TIP3     OH2      OT      -0.834000       15.9994           0
     77926 TIP3     18515    TIP3     H1       HT       0.417000       1.00800           0
     77927 TIP3     18515    TIP3     H2       HT       0.417000       1.00800           0
     77928 TIP3     18516    TIP3     OH2      OT      -0.834000       15.9994           0
     77929 TIP3     18516    TIP3     H1       HT       0.417000       1.00800           0
     77930 TIP3     18516    TIP3     H2       HT       0.417000       1.00800           0
     77931 TIP3     18517    TIP3     OH2      OT      -0.834000       15.9994           0
     77932 TIP3     18517    TIP3     H1       HT       0.417000       1.00800           0
     77933 TIP3     18517    TIP3     H2       HT       0.417000       1.00800           0
     77934 TIP3     18518    TIP3     OH2      OT      -0.834000       15.9994           0
     77935 TIP3     18518    TIP3     H1       HT       0.417000       1.00800           0
     77936 TIP3     18518    TIP3     H2       HT       0.417000       1.00800           0
     77937 TIP3     18519    TIP3     OH2      OT      -0.834000       15.9994           0
     77938 TIP3     18519    TIP3     H1       HT       0.417000       1.00800           0
     77939 TIP3     18519    TIP3     H2       HT       0.417000       1.00800           0
     77940 TIP3     18520    TIP3     OH2      OT      -0.834000       15.9994           0
     77941 TIP3     18520    TIP3     H1       HT       0.417000       1.00800           0
     77942 TIP3     18520    TIP3     H2       HT       0.417000       1.00800           0
     77943 TIP3     18521    TIP3     OH2      OT      -0.834000       15.9994           0
     77944 TIP3     18521    TIP3     H1       HT       0.417000       1.00800           0
     77945 TIP3     18521    TIP3     H2       HT       0.417000       1.00800           0
     77946 TIP3     18522    TIP3     OH2      OT      -0.834000       15.9994           0
     77947 TIP3     18522    TIP3     H1       HT       0.417000       1.00800           0
     77948 TIP3     18522    TIP3     H2       HT       0.417000       1.00800           0
     77949 TIP3     18523    TIP3     OH2      OT      -0.834000       15.9994           0
     77950 TIP3     18523    TIP3     H1       HT       0.417000       1.00800           0
     77951 TIP3     18523    TIP3     H2       HT       0.417000       1.00800           0
     77952 TIP3     18524    TIP3     OH2      OT      -0.834000       15.9994           0
     77953 TIP3     18524    TIP3     H1       HT       0.417000       1.00800           0
     77954 TIP3     18524    TIP3     H2       HT       0.417000       1.00800           0
     77955 TIP3     18525    TIP3     OH2      OT      -0.834000       15.9994           0
     77956 TIP3     18525    TIP3     H1       HT       0.417000       1.00800           0
     77957 TIP3     18525    TIP3     H2       HT       0.417000       1.00800           0
     77958 TIP3     18526    TIP3     OH2      OT      -0.834000       15.9994           0
     77959 TIP3     18526    TIP3     H1       HT       0.417000       1.00800           0
     77960 TIP3     18526    TIP3     H2       HT       0.417000       1.00800           0
     77961 TIP3     18527    TIP3     OH2      OT      -0.834000       15.9994           0
     77962 TIP3     18527    TIP3     H1       HT       0.417000       1.00800           0
     77963 TIP3     18527    TIP3     H2       HT       0.417000       1.00800           0
     77964 TIP3     18528    TIP3     OH2      OT      -0.834000       15.9994           0
     77965 TIP3     18528    TIP3     H1       HT       0.417000       1.00800           0
     77966 TIP3     18528    TIP3     H2       HT       0.417000       1.00800           0
     77967 TIP3     18529    TIP3     OH2      OT      -0.834000       15.9994           0
     77968 TIP3     18529    TIP3     H1       HT       0.417000       1.00800           0
     77969 TIP3     18529    TIP3     H2       HT       0.417000       1.00800           0
     77970 TIP3     18530    TIP3     OH2      OT      -0.834000       15.9994           0
     77971 TIP3     18530    TIP3     H1       HT       0.417000       1.00800           0
     77972 TIP3     18530    TIP3     H2       HT       0.417000       1.00800           0
     77973 TIP3     18531    TIP3     OH2      OT      -0.834000       15.9994           0
     77974 TIP3     18531    TIP3     H1       HT       0.417000       1.00800           0
     77975 TIP3     18531    TIP3     H2       HT       0.417000       1.00800           0
     77976 TIP3     18532    TIP3     OH2      OT      -0.834000       15.9994           0
     77977 TIP3     18532    TIP3     H1       HT       0.417000       1.00800           0
     77978 TIP3     18532    TIP3     H2       HT       0.417000       1.00800           0
     77979 TIP3     18533    TIP3     OH2      OT      -0.834000       15.9994           0
     77980 TIP3     18533    TIP3     H1       HT       0.417000       1.00800           0
     77981 TIP3     18533    TIP3     H2       HT       0.417000       1.00800           0
     77982 TIP3     18534    TIP3     OH2      OT      -0.834000       15.9994           0
     77983 TIP3     18534    TIP3     H1       HT       0.417000       1.00800           0
     77984 TIP3     18534    TIP3     H2       HT       0.417000       1.00800           0
     77985 TIP3     18535    TIP3     OH2      OT      -0.834000       15.9994           0
     77986 TIP3     18535    TIP3     H1       HT       0.417000       1.00800           0
     77987 TIP3     18535    TIP3     H2       HT       0.417000       1.00800           0
     77988 TIP3     18536    TIP3     OH2      OT      -0.834000       15.9994           0
     77989 TIP3     18536    TIP3     H1       HT       0.417000       1.00800           0
     77990 TIP3     18536    TIP3     H2       HT       0.417000       1.00800           0
     77991 TIP3     18537    TIP3     OH2      OT      -0.834000       15.9994           0
     77992 TIP3     18537    TIP3     H1       HT       0.417000       1.00800           0
     77993 TIP3     18537    TIP3     H2       HT       0.417000       1.00800           0
     77994 TIP3     18538    TIP3     OH2      OT      -0.834000       15.9994           0
     77995 TIP3     18538    TIP3     H1       HT       0.417000       1.00800           0
     77996 TIP3     18538    TIP3     H2       HT       0.417000       1.00800           0
     77997 TIP3     18539    TIP3     OH2      OT      -0.834000       15.9994           0
     77998 TIP3     18539    TIP3     H1       HT       0.417000       1.00800           0
     77999 TIP3     18539    TIP3     H2       HT       0.417000       1.00800           0
     78000 TIP3     18540    TIP3     OH2      OT      -0.834000       15.9994           0
     78001 TIP3     18540    TIP3     H1       HT       0.417000       1.00800           0
     78002 TIP3     18540    TIP3     H2       HT       0.417000       1.00800           0
     78003 TIP3     18541    TIP3     OH2      OT      -0.834000       15.9994           0
     78004 TIP3     18541    TIP3     H1       HT       0.417000       1.00800           0
     78005 TIP3     18541    TIP3     H2       HT       0.417000       1.00800           0
     78006 TIP3     18542    TIP3     OH2      OT      -0.834000       15.9994           0
     78007 TIP3     18542    TIP3     H1       HT       0.417000       1.00800           0
     78008 TIP3     18542    TIP3     H2       HT       0.417000       1.00800           0
     78009 TIP3     18543    TIP3     OH2      OT      -0.834000       15.9994           0
     78010 TIP3     18543    TIP3     H1       HT       0.417000       1.00800           0
     78011 TIP3     18543    TIP3     H2       HT       0.417000       1.00800           0
     78012 TIP3     18544    TIP3     OH2      OT      -0.834000       15.9994           0
     78013 TIP3     18544    TIP3     H1       HT       0.417000       1.00800           0
     78014 TIP3     18544    TIP3     H2       HT       0.417000       1.00800           0
     78015 TIP3     18545    TIP3     OH2      OT      -0.834000       15.9994           0
     78016 TIP3     18545    TIP3     H1       HT       0.417000       1.00800           0
     78017 TIP3     18545    TIP3     H2       HT       0.417000       1.00800           0
     78018 TIP3     18546    TIP3     OH2      OT      -0.834000       15.9994           0
     78019 TIP3     18546    TIP3     H1       HT       0.417000       1.00800           0
     78020 TIP3     18546    TIP3     H2       HT       0.417000       1.00800           0
     78021 TIP3     18547    TIP3     OH2      OT      -0.834000       15.9994           0
     78022 TIP3     18547    TIP3     H1       HT       0.417000       1.00800           0
     78023 TIP3     18547    TIP3     H2       HT       0.417000       1.00800           0
     78024 TIP3     18548    TIP3     OH2      OT      -0.834000       15.9994           0
     78025 TIP3     18548    TIP3     H1       HT       0.417000       1.00800           0
     78026 TIP3     18548    TIP3     H2       HT       0.417000       1.00800           0
     78027 TIP3     18549    TIP3     OH2      OT      -0.834000       15.9994           0
     78028 TIP3     18549    TIP3     H1       HT       0.417000       1.00800           0
     78029 TIP3     18549    TIP3     H2       HT       0.417000       1.00800           0
     78030 TIP3     18550    TIP3     OH2      OT      -0.834000       15.9994           0
     78031 TIP3     18550    TIP3     H1       HT       0.417000       1.00800           0
     78032 TIP3     18550    TIP3     H2       HT       0.417000       1.00800           0
     78033 TIP3     18551    TIP3     OH2      OT      -0.834000       15.9994           0
     78034 TIP3     18551    TIP3     H1       HT       0.417000       1.00800           0
     78035 TIP3     18551    TIP3     H2       HT       0.417000       1.00800           0
     78036 TIP3     18552    TIP3     OH2      OT      -0.834000       15.9994           0
     78037 TIP3     18552    TIP3     H1       HT       0.417000       1.00800           0
     78038 TIP3     18552    TIP3     H2       HT       0.417000       1.00800           0
     78039 TIP3     18553    TIP3     OH2      OT      -0.834000       15.9994           0
     78040 TIP3     18553    TIP3     H1       HT       0.417000       1.00800           0
     78041 TIP3     18553    TIP3     H2       HT       0.417000       1.00800           0
     78042 TIP3     18554    TIP3     OH2      OT      -0.834000       15.9994           0
     78043 TIP3     18554    TIP3     H1       HT       0.417000       1.00800           0
     78044 TIP3     18554    TIP3     H2       HT       0.417000       1.00800           0
     78045 TIP3     18555    TIP3     OH2      OT      -0.834000       15.9994           0
     78046 TIP3     18555    TIP3     H1       HT       0.417000       1.00800           0
     78047 TIP3     18555    TIP3     H2       HT       0.417000       1.00800           0
     78048 TIP3     18556    TIP3     OH2      OT      -0.834000       15.9994           0
     78049 TIP3     18556    TIP3     H1       HT       0.417000       1.00800           0
     78050 TIP3     18556    TIP3     H2       HT       0.417000       1.00800           0
     78051 TIP3     18557    TIP3     OH2      OT      -0.834000       15.9994           0
     78052 TIP3     18557    TIP3     H1       HT       0.417000       1.00800           0
     78053 TIP3     18557    TIP3     H2       HT       0.417000       1.00800           0
     78054 TIP3     18558    TIP3     OH2      OT      -0.834000       15.9994           0
     78055 TIP3     18558    TIP3     H1       HT       0.417000       1.00800           0
     78056 TIP3     18558    TIP3     H2       HT       0.417000       1.00800           0
     78057 TIP3     18559    TIP3     OH2      OT      -0.834000       15.9994           0
     78058 TIP3     18559    TIP3     H1       HT       0.417000       1.00800           0
     78059 TIP3     18559    TIP3     H2       HT       0.417000       1.00800           0
     78060 TIP3     18560    TIP3     OH2      OT      -0.834000       15.9994           0
     78061 TIP3     18560    TIP3     H1       HT       0.417000       1.00800           0
     78062 TIP3     18560    TIP3     H2       HT       0.417000       1.00800           0
     78063 TIP3     18561    TIP3     OH2      OT      -0.834000       15.9994           0
     78064 TIP3     18561    TIP3     H1       HT       0.417000       1.00800           0
     78065 TIP3     18561    TIP3     H2       HT       0.417000       1.00800           0
     78066 TIP3     18562    TIP3     OH2      OT      -0.834000       15.9994           0
     78067 TIP3     18562    TIP3     H1       HT       0.417000       1.00800           0
     78068 TIP3     18562    TIP3     H2       HT       0.417000       1.00800           0
     78069 TIP3     18563    TIP3     OH2      OT      -0.834000       15.9994           0
     78070 TIP3     18563    TIP3     H1       HT       0.417000       1.00800           0
     78071 TIP3     18563    TIP3     H2       HT       0.417000       1.00800           0
     78072 TIP3     18564    TIP3     OH2      OT      -0.834000       15.9994           0
     78073 TIP3     18564    TIP3     H1       HT       0.417000       1.00800           0
     78074 TIP3     18564    TIP3     H2       HT       0.417000       1.00800           0
     78075 TIP3     18565    TIP3     OH2      OT      -0.834000       15.9994           0
     78076 TIP3     18565    TIP3     H1       HT       0.417000       1.00800           0
     78077 TIP3     18565    TIP3     H2       HT       0.417000       1.00800           0
     78078 TIP3     18566    TIP3     OH2      OT      -0.834000       15.9994           0
     78079 TIP3     18566    TIP3     H1       HT       0.417000       1.00800           0
     78080 TIP3     18566    TIP3     H2       HT       0.417000       1.00800           0
     78081 TIP3     18567    TIP3     OH2      OT      -0.834000       15.9994           0
     78082 TIP3     18567    TIP3     H1       HT       0.417000       1.00800           0
     78083 TIP3     18567    TIP3     H2       HT       0.417000       1.00800           0
     78084 TIP3     18568    TIP3     OH2      OT      -0.834000       15.9994           0
     78085 TIP3     18568    TIP3     H1       HT       0.417000       1.00800           0
     78086 TIP3     18568    TIP3     H2       HT       0.417000       1.00800           0
     78087 TIP3     18569    TIP3     OH2      OT      -0.834000       15.9994           0
     78088 TIP3     18569    TIP3     H1       HT       0.417000       1.00800           0
     78089 TIP3     18569    TIP3     H2       HT       0.417000       1.00800           0
     78090 TIP3     18570    TIP3     OH2      OT      -0.834000       15.9994           0
     78091 TIP3     18570    TIP3     H1       HT       0.417000       1.00800           0
     78092 TIP3     18570    TIP3     H2       HT       0.417000       1.00800           0
     78093 TIP3     18571    TIP3     OH2      OT      -0.834000       15.9994           0
     78094 TIP3     18571    TIP3     H1       HT       0.417000       1.00800           0
     78095 TIP3     18571    TIP3     H2       HT       0.417000       1.00800           0
     78096 TIP3     18572    TIP3     OH2      OT      -0.834000       15.9994           0
     78097 TIP3     18572    TIP3     H1       HT       0.417000       1.00800           0
     78098 TIP3     18572    TIP3     H2       HT       0.417000       1.00800           0
     78099 TIP3     18573    TIP3     OH2      OT      -0.834000       15.9994           0
     78100 TIP3     18573    TIP3     H1       HT       0.417000       1.00800           0
     78101 TIP3     18573    TIP3     H2       HT       0.417000       1.00800           0
     78102 TIP3     18574    TIP3     OH2      OT      -0.834000       15.9994           0
     78103 TIP3     18574    TIP3     H1       HT       0.417000       1.00800           0
     78104 TIP3     18574    TIP3     H2       HT       0.417000       1.00800           0
     78105 TIP3     18575    TIP3     OH2      OT      -0.834000       15.9994           0
     78106 TIP3     18575    TIP3     H1       HT       0.417000       1.00800           0
     78107 TIP3     18575    TIP3     H2       HT       0.417000       1.00800           0
     78108 TIP3     18576    TIP3     OH2      OT      -0.834000       15.9994           0
     78109 TIP3     18576    TIP3     H1       HT       0.417000       1.00800           0
     78110 TIP3     18576    TIP3     H2       HT       0.417000       1.00800           0
     78111 TIP3     18577    TIP3     OH2      OT      -0.834000       15.9994           0
     78112 TIP3     18577    TIP3     H1       HT       0.417000       1.00800           0
     78113 TIP3     18577    TIP3     H2       HT       0.417000       1.00800           0
     78114 TIP3     18578    TIP3     OH2      OT      -0.834000       15.9994           0
     78115 TIP3     18578    TIP3     H1       HT       0.417000       1.00800           0
     78116 TIP3     18578    TIP3     H2       HT       0.417000       1.00800           0
     78117 TIP3     18579    TIP3     OH2      OT      -0.834000       15.9994           0
     78118 TIP3     18579    TIP3     H1       HT       0.417000       1.00800           0
     78119 TIP3     18579    TIP3     H2       HT       0.417000       1.00800           0
     78120 TIP3     18580    TIP3     OH2      OT      -0.834000       15.9994           0
     78121 TIP3     18580    TIP3     H1       HT       0.417000       1.00800           0
     78122 TIP3     18580    TIP3     H2       HT       0.417000       1.00800           0
     78123 TIP3     18581    TIP3     OH2      OT      -0.834000       15.9994           0
     78124 TIP3     18581    TIP3     H1       HT       0.417000       1.00800           0
     78125 TIP3     18581    TIP3     H2       HT       0.417000       1.00800           0
     78126 TIP3     18582    TIP3     OH2      OT      -0.834000       15.9994           0
     78127 TIP3     18582    TIP3     H1       HT       0.417000       1.00800           0
     78128 TIP3     18582    TIP3     H2       HT       0.417000       1.00800           0
     78129 TIP3     18583    TIP3     OH2      OT      -0.834000       15.9994           0
     78130 TIP3     18583    TIP3     H1       HT       0.417000       1.00800           0
     78131 TIP3     18583    TIP3     H2       HT       0.417000       1.00800           0
     78132 TIP3     18584    TIP3     OH2      OT      -0.834000       15.9994           0
     78133 TIP3     18584    TIP3     H1       HT       0.417000       1.00800           0
     78134 TIP3     18584    TIP3     H2       HT       0.417000       1.00800           0
     78135 TIP3     18585    TIP3     OH2      OT      -0.834000       15.9994           0
     78136 TIP3     18585    TIP3     H1       HT       0.417000       1.00800           0
     78137 TIP3     18585    TIP3     H2       HT       0.417000       1.00800           0
     78138 TIP3     18586    TIP3     OH2      OT      -0.834000       15.9994           0
     78139 TIP3     18586    TIP3     H1       HT       0.417000       1.00800           0
     78140 TIP3     18586    TIP3     H2       HT       0.417000       1.00800           0
     78141 TIP3     18587    TIP3     OH2      OT      -0.834000       15.9994           0
     78142 TIP3     18587    TIP3     H1       HT       0.417000       1.00800           0
     78143 TIP3     18587    TIP3     H2       HT       0.417000       1.00800           0
     78144 TIP3     18588    TIP3     OH2      OT      -0.834000       15.9994           0
     78145 TIP3     18588    TIP3     H1       HT       0.417000       1.00800           0
     78146 TIP3     18588    TIP3     H2       HT       0.417000       1.00800           0
     78147 TIP3     18589    TIP3     OH2      OT      -0.834000       15.9994           0
     78148 TIP3     18589    TIP3     H1       HT       0.417000       1.00800           0
     78149 TIP3     18589    TIP3     H2       HT       0.417000       1.00800           0
     78150 TIP3     18590    TIP3     OH2      OT      -0.834000       15.9994           0
     78151 TIP3     18590    TIP3     H1       HT       0.417000       1.00800           0
     78152 TIP3     18590    TIP3     H2       HT       0.417000       1.00800           0
     78153 TIP3     18591    TIP3     OH2      OT      -0.834000       15.9994           0
     78154 TIP3     18591    TIP3     H1       HT       0.417000       1.00800           0
     78155 TIP3     18591    TIP3     H2       HT       0.417000       1.00800           0
     78156 TIP3     18592    TIP3     OH2      OT      -0.834000       15.9994           0
     78157 TIP3     18592    TIP3     H1       HT       0.417000       1.00800           0
     78158 TIP3     18592    TIP3     H2       HT       0.417000       1.00800           0
     78159 TIP3     18593    TIP3     OH2      OT      -0.834000       15.9994           0
     78160 TIP3     18593    TIP3     H1       HT       0.417000       1.00800           0
     78161 TIP3     18593    TIP3     H2       HT       0.417000       1.00800           0
     78162 TIP3     18594    TIP3     OH2      OT      -0.834000       15.9994           0
     78163 TIP3     18594    TIP3     H1       HT       0.417000       1.00800           0
     78164 TIP3     18594    TIP3     H2       HT       0.417000       1.00800           0
     78165 TIP3     18595    TIP3     OH2      OT      -0.834000       15.9994           0
     78166 TIP3     18595    TIP3     H1       HT       0.417000       1.00800           0
     78167 TIP3     18595    TIP3     H2       HT       0.417000       1.00800           0
     78168 TIP3     18596    TIP3     OH2      OT      -0.834000       15.9994           0
     78169 TIP3     18596    TIP3     H1       HT       0.417000       1.00800           0
     78170 TIP3     18596    TIP3     H2       HT       0.417000       1.00800           0
     78171 TIP3     18597    TIP3     OH2      OT      -0.834000       15.9994           0
     78172 TIP3     18597    TIP3     H1       HT       0.417000       1.00800           0
     78173 TIP3     18597    TIP3     H2       HT       0.417000       1.00800           0
     78174 TIP3     18598    TIP3     OH2      OT      -0.834000       15.9994           0
     78175 TIP3     18598    TIP3     H1       HT       0.417000       1.00800           0
     78176 TIP3     18598    TIP3     H2       HT       0.417000       1.00800           0
     78177 TIP3     18599    TIP3     OH2      OT      -0.834000       15.9994           0
     78178 TIP3     18599    TIP3     H1       HT       0.417000       1.00800           0
     78179 TIP3     18599    TIP3     H2       HT       0.417000       1.00800           0
     78180 TIP3     18600    TIP3     OH2      OT      -0.834000       15.9994           0
     78181 TIP3     18600    TIP3     H1       HT       0.417000       1.00800           0
     78182 TIP3     18600    TIP3     H2       HT       0.417000       1.00800           0
     78183 TIP3     18601    TIP3     OH2      OT      -0.834000       15.9994           0
     78184 TIP3     18601    TIP3     H1       HT       0.417000       1.00800           0
     78185 TIP3     18601    TIP3     H2       HT       0.417000       1.00800           0
     78186 TIP3     18602    TIP3     OH2      OT      -0.834000       15.9994           0
     78187 TIP3     18602    TIP3     H1       HT       0.417000       1.00800           0
     78188 TIP3     18602    TIP3     H2       HT       0.417000       1.00800           0
     78189 TIP3     18603    TIP3     OH2      OT      -0.834000       15.9994           0
     78190 TIP3     18603    TIP3     H1       HT       0.417000       1.00800           0
     78191 TIP3     18603    TIP3     H2       HT       0.417000       1.00800           0
     78192 TIP3     18604    TIP3     OH2      OT      -0.834000       15.9994           0
     78193 TIP3     18604    TIP3     H1       HT       0.417000       1.00800           0
     78194 TIP3     18604    TIP3     H2       HT       0.417000       1.00800           0
     78195 TIP3     18605    TIP3     OH2      OT      -0.834000       15.9994           0
     78196 TIP3     18605    TIP3     H1       HT       0.417000       1.00800           0
     78197 TIP3     18605    TIP3     H2       HT       0.417000       1.00800           0
     78198 TIP3     18606    TIP3     OH2      OT      -0.834000       15.9994           0
     78199 TIP3     18606    TIP3     H1       HT       0.417000       1.00800           0
     78200 TIP3     18606    TIP3     H2       HT       0.417000       1.00800           0
     78201 TIP3     18607    TIP3     OH2      OT      -0.834000       15.9994           0
     78202 TIP3     18607    TIP3     H1       HT       0.417000       1.00800           0
     78203 TIP3     18607    TIP3     H2       HT       0.417000       1.00800           0
     78204 TIP3     18608    TIP3     OH2      OT      -0.834000       15.9994           0
     78205 TIP3     18608    TIP3     H1       HT       0.417000       1.00800           0
     78206 TIP3     18608    TIP3     H2       HT       0.417000       1.00800           0
     78207 TIP3     18609    TIP3     OH2      OT      -0.834000       15.9994           0
     78208 TIP3     18609    TIP3     H1       HT       0.417000       1.00800           0
     78209 TIP3     18609    TIP3     H2       HT       0.417000       1.00800           0
     78210 TIP3     18610    TIP3     OH2      OT      -0.834000       15.9994           0
     78211 TIP3     18610    TIP3     H1       HT       0.417000       1.00800           0
     78212 TIP3     18610    TIP3     H2       HT       0.417000       1.00800           0
     78213 TIP3     18611    TIP3     OH2      OT      -0.834000       15.9994           0
     78214 TIP3     18611    TIP3     H1       HT       0.417000       1.00800           0
     78215 TIP3     18611    TIP3     H2       HT       0.417000       1.00800           0
     78216 TIP3     18612    TIP3     OH2      OT      -0.834000       15.9994           0
     78217 TIP3     18612    TIP3     H1       HT       0.417000       1.00800           0
     78218 TIP3     18612    TIP3     H2       HT       0.417000       1.00800           0
     78219 TIP3     18613    TIP3     OH2      OT      -0.834000       15.9994           0
     78220 TIP3     18613    TIP3     H1       HT       0.417000       1.00800           0
     78221 TIP3     18613    TIP3     H2       HT       0.417000       1.00800           0
     78222 TIP3     18614    TIP3     OH2      OT      -0.834000       15.9994           0
     78223 TIP3     18614    TIP3     H1       HT       0.417000       1.00800           0
     78224 TIP3     18614    TIP3     H2       HT       0.417000       1.00800           0
     78225 TIP3     18615    TIP3     OH2      OT      -0.834000       15.9994           0
     78226 TIP3     18615    TIP3     H1       HT       0.417000       1.00800           0
     78227 TIP3     18615    TIP3     H2       HT       0.417000       1.00800           0
     78228 TIP3     18616    TIP3     OH2      OT      -0.834000       15.9994           0
     78229 TIP3     18616    TIP3     H1       HT       0.417000       1.00800           0
     78230 TIP3     18616    TIP3     H2       HT       0.417000       1.00800           0
     78231 TIP3     18617    TIP3     OH2      OT      -0.834000       15.9994           0
     78232 TIP3     18617    TIP3     H1       HT       0.417000       1.00800           0
     78233 TIP3     18617    TIP3     H2       HT       0.417000       1.00800           0
     78234 TIP3     18618    TIP3     OH2      OT      -0.834000       15.9994           0
     78235 TIP3     18618    TIP3     H1       HT       0.417000       1.00800           0
     78236 TIP3     18618    TIP3     H2       HT       0.417000       1.00800           0
     78237 TIP3     18619    TIP3     OH2      OT      -0.834000       15.9994           0
     78238 TIP3     18619    TIP3     H1       HT       0.417000       1.00800           0
     78239 TIP3     18619    TIP3     H2       HT       0.417000       1.00800           0
     78240 TIP3     18620    TIP3     OH2      OT      -0.834000       15.9994           0
     78241 TIP3     18620    TIP3     H1       HT       0.417000       1.00800           0
     78242 TIP3     18620    TIP3     H2       HT       0.417000       1.00800           0
     78243 TIP3     18621    TIP3     OH2      OT      -0.834000       15.9994           0
     78244 TIP3     18621    TIP3     H1       HT       0.417000       1.00800           0
     78245 TIP3     18621    TIP3     H2       HT       0.417000       1.00800           0
     78246 TIP3     18622    TIP3     OH2      OT      -0.834000       15.9994           0
     78247 TIP3     18622    TIP3     H1       HT       0.417000       1.00800           0
     78248 TIP3     18622    TIP3     H2       HT       0.417000       1.00800           0
     78249 TIP3     18623    TIP3     OH2      OT      -0.834000       15.9994           0
     78250 TIP3     18623    TIP3     H1       HT       0.417000       1.00800           0
     78251 TIP3     18623    TIP3     H2       HT       0.417000       1.00800           0
     78252 TIP3     18624    TIP3     OH2      OT      -0.834000       15.9994           0
     78253 TIP3     18624    TIP3     H1       HT       0.417000       1.00800           0
     78254 TIP3     18624    TIP3     H2       HT       0.417000       1.00800           0
     78255 TIP3     18625    TIP3     OH2      OT      -0.834000       15.9994           0
     78256 TIP3     18625    TIP3     H1       HT       0.417000       1.00800           0
     78257 TIP3     18625    TIP3     H2       HT       0.417000       1.00800           0
     78258 TIP3     18626    TIP3     OH2      OT      -0.834000       15.9994           0
     78259 TIP3     18626    TIP3     H1       HT       0.417000       1.00800           0
     78260 TIP3     18626    TIP3     H2       HT       0.417000       1.00800           0
     78261 TIP3     18627    TIP3     OH2      OT      -0.834000       15.9994           0
     78262 TIP3     18627    TIP3     H1       HT       0.417000       1.00800           0
     78263 TIP3     18627    TIP3     H2       HT       0.417000       1.00800           0
     78264 TIP3     18628    TIP3     OH2      OT      -0.834000       15.9994           0
     78265 TIP3     18628    TIP3     H1       HT       0.417000       1.00800           0
     78266 TIP3     18628    TIP3     H2       HT       0.417000       1.00800           0
     78267 TIP3     18629    TIP3     OH2      OT      -0.834000       15.9994           0
     78268 TIP3     18629    TIP3     H1       HT       0.417000       1.00800           0
     78269 TIP3     18629    TIP3     H2       HT       0.417000       1.00800           0
     78270 TIP3     18630    TIP3     OH2      OT      -0.834000       15.9994           0
     78271 TIP3     18630    TIP3     H1       HT       0.417000       1.00800           0
     78272 TIP3     18630    TIP3     H2       HT       0.417000       1.00800           0
     78273 TIP3     18631    TIP3     OH2      OT      -0.834000       15.9994           0
     78274 TIP3     18631    TIP3     H1       HT       0.417000       1.00800           0
     78275 TIP3     18631    TIP3     H2       HT       0.417000       1.00800           0
     78276 TIP3     18632    TIP3     OH2      OT      -0.834000       15.9994           0
     78277 TIP3     18632    TIP3     H1       HT       0.417000       1.00800           0
     78278 TIP3     18632    TIP3     H2       HT       0.417000       1.00800           0
     78279 TIP3     18633    TIP3     OH2      OT      -0.834000       15.9994           0
     78280 TIP3     18633    TIP3     H1       HT       0.417000       1.00800           0
     78281 TIP3     18633    TIP3     H2       HT       0.417000       1.00800           0
     78282 TIP3     18634    TIP3     OH2      OT      -0.834000       15.9994           0
     78283 TIP3     18634    TIP3     H1       HT       0.417000       1.00800           0
     78284 TIP3     18634    TIP3     H2       HT       0.417000       1.00800           0
     78285 TIP3     18635    TIP3     OH2      OT      -0.834000       15.9994           0
     78286 TIP3     18635    TIP3     H1       HT       0.417000       1.00800           0
     78287 TIP3     18635    TIP3     H2       HT       0.417000       1.00800           0
     78288 TIP3     18636    TIP3     OH2      OT      -0.834000       15.9994           0
     78289 TIP3     18636    TIP3     H1       HT       0.417000       1.00800           0
     78290 TIP3     18636    TIP3     H2       HT       0.417000       1.00800           0
     78291 TIP3     18637    TIP3     OH2      OT      -0.834000       15.9994           0
     78292 TIP3     18637    TIP3     H1       HT       0.417000       1.00800           0
     78293 TIP3     18637    TIP3     H2       HT       0.417000       1.00800           0
     78294 TIP3     18638    TIP3     OH2      OT      -0.834000       15.9994           0
     78295 TIP3     18638    TIP3     H1       HT       0.417000       1.00800           0
     78296 TIP3     18638    TIP3     H2       HT       0.417000       1.00800           0
     78297 TIP3     18639    TIP3     OH2      OT      -0.834000       15.9994           0
     78298 TIP3     18639    TIP3     H1       HT       0.417000       1.00800           0
     78299 TIP3     18639    TIP3     H2       HT       0.417000       1.00800           0
     78300 TIP3     18640    TIP3     OH2      OT      -0.834000       15.9994           0
     78301 TIP3     18640    TIP3     H1       HT       0.417000       1.00800           0
     78302 TIP3     18640    TIP3     H2       HT       0.417000       1.00800           0
     78303 TIP3     18641    TIP3     OH2      OT      -0.834000       15.9994           0
     78304 TIP3     18641    TIP3     H1       HT       0.417000       1.00800           0
     78305 TIP3     18641    TIP3     H2       HT       0.417000       1.00800           0
     78306 TIP3     18642    TIP3     OH2      OT      -0.834000       15.9994           0
     78307 TIP3     18642    TIP3     H1       HT       0.417000       1.00800           0
     78308 TIP3     18642    TIP3     H2       HT       0.417000       1.00800           0
     78309 TIP3     18643    TIP3     OH2      OT      -0.834000       15.9994           0
     78310 TIP3     18643    TIP3     H1       HT       0.417000       1.00800           0
     78311 TIP3     18643    TIP3     H2       HT       0.417000       1.00800           0
     78312 TIP3     18644    TIP3     OH2      OT      -0.834000       15.9994           0
     78313 TIP3     18644    TIP3     H1       HT       0.417000       1.00800           0
     78314 TIP3     18644    TIP3     H2       HT       0.417000       1.00800           0
     78315 TIP3     18645    TIP3     OH2      OT      -0.834000       15.9994           0
     78316 TIP3     18645    TIP3     H1       HT       0.417000       1.00800           0
     78317 TIP3     18645    TIP3     H2       HT       0.417000       1.00800           0
     78318 TIP3     18646    TIP3     OH2      OT      -0.834000       15.9994           0
     78319 TIP3     18646    TIP3     H1       HT       0.417000       1.00800           0
     78320 TIP3     18646    TIP3     H2       HT       0.417000       1.00800           0
     78321 TIP3     18647    TIP3     OH2      OT      -0.834000       15.9994           0
     78322 TIP3     18647    TIP3     H1       HT       0.417000       1.00800           0
     78323 TIP3     18647    TIP3     H2       HT       0.417000       1.00800           0
     78324 TIP3     18648    TIP3     OH2      OT      -0.834000       15.9994           0
     78325 TIP3     18648    TIP3     H1       HT       0.417000       1.00800           0
     78326 TIP3     18648    TIP3     H2       HT       0.417000       1.00800           0
     78327 TIP3     18649    TIP3     OH2      OT      -0.834000       15.9994           0
     78328 TIP3     18649    TIP3     H1       HT       0.417000       1.00800           0
     78329 TIP3     18649    TIP3     H2       HT       0.417000       1.00800           0
     78330 TIP3     18650    TIP3     OH2      OT      -0.834000       15.9994           0
     78331 TIP3     18650    TIP3     H1       HT       0.417000       1.00800           0
     78332 TIP3     18650    TIP3     H2       HT       0.417000       1.00800           0
     78333 TIP3     18651    TIP3     OH2      OT      -0.834000       15.9994           0
     78334 TIP3     18651    TIP3     H1       HT       0.417000       1.00800           0
     78335 TIP3     18651    TIP3     H2       HT       0.417000       1.00800           0
     78336 TIP3     18652    TIP3     OH2      OT      -0.834000       15.9994           0
     78337 TIP3     18652    TIP3     H1       HT       0.417000       1.00800           0
     78338 TIP3     18652    TIP3     H2       HT       0.417000       1.00800           0
     78339 TIP3     18653    TIP3     OH2      OT      -0.834000       15.9994           0
     78340 TIP3     18653    TIP3     H1       HT       0.417000       1.00800           0
     78341 TIP3     18653    TIP3     H2       HT       0.417000       1.00800           0
     78342 TIP3     18654    TIP3     OH2      OT      -0.834000       15.9994           0
     78343 TIP3     18654    TIP3     H1       HT       0.417000       1.00800           0
     78344 TIP3     18654    TIP3     H2       HT       0.417000       1.00800           0
     78345 TIP3     18655    TIP3     OH2      OT      -0.834000       15.9994           0
     78346 TIP3     18655    TIP3     H1       HT       0.417000       1.00800           0
     78347 TIP3     18655    TIP3     H2       HT       0.417000       1.00800           0
     78348 TIP3     18656    TIP3     OH2      OT      -0.834000       15.9994           0
     78349 TIP3     18656    TIP3     H1       HT       0.417000       1.00800           0
     78350 TIP3     18656    TIP3     H2       HT       0.417000       1.00800           0
     78351 TIP3     18657    TIP3     OH2      OT      -0.834000       15.9994           0
     78352 TIP3     18657    TIP3     H1       HT       0.417000       1.00800           0
     78353 TIP3     18657    TIP3     H2       HT       0.417000       1.00800           0
     78354 TIP3     18658    TIP3     OH2      OT      -0.834000       15.9994           0
     78355 TIP3     18658    TIP3     H1       HT       0.417000       1.00800           0
     78356 TIP3     18658    TIP3     H2       HT       0.417000       1.00800           0
     78357 TIP3     18659    TIP3     OH2      OT      -0.834000       15.9994           0
     78358 TIP3     18659    TIP3     H1       HT       0.417000       1.00800           0
     78359 TIP3     18659    TIP3     H2       HT       0.417000       1.00800           0
     78360 TIP3     18660    TIP3     OH2      OT      -0.834000       15.9994           0
     78361 TIP3     18660    TIP3     H1       HT       0.417000       1.00800           0
     78362 TIP3     18660    TIP3     H2       HT       0.417000       1.00800           0
     78363 TIP3     18661    TIP3     OH2      OT      -0.834000       15.9994           0
     78364 TIP3     18661    TIP3     H1       HT       0.417000       1.00800           0
     78365 TIP3     18661    TIP3     H2       HT       0.417000       1.00800           0
     78366 TIP3     18662    TIP3     OH2      OT      -0.834000       15.9994           0
     78367 TIP3     18662    TIP3     H1       HT       0.417000       1.00800           0
     78368 TIP3     18662    TIP3     H2       HT       0.417000       1.00800           0
     78369 TIP3     18663    TIP3     OH2      OT      -0.834000       15.9994           0
     78370 TIP3     18663    TIP3     H1       HT       0.417000       1.00800           0
     78371 TIP3     18663    TIP3     H2       HT       0.417000       1.00800           0
     78372 TIP3     18664    TIP3     OH2      OT      -0.834000       15.9994           0
     78373 TIP3     18664    TIP3     H1       HT       0.417000       1.00800           0
     78374 TIP3     18664    TIP3     H2       HT       0.417000       1.00800           0
     78375 TIP3     18665    TIP3     OH2      OT      -0.834000       15.9994           0
     78376 TIP3     18665    TIP3     H1       HT       0.417000       1.00800           0
     78377 TIP3     18665    TIP3     H2       HT       0.417000       1.00800           0
     78378 TIP3     18666    TIP3     OH2      OT      -0.834000       15.9994           0
     78379 TIP3     18666    TIP3     H1       HT       0.417000       1.00800           0
     78380 TIP3     18666    TIP3     H2       HT       0.417000       1.00800           0
     78381 TIP3     18667    TIP3     OH2      OT      -0.834000       15.9994           0
     78382 TIP3     18667    TIP3     H1       HT       0.417000       1.00800           0
     78383 TIP3     18667    TIP3     H2       HT       0.417000       1.00800           0
     78384 TIP3     18668    TIP3     OH2      OT      -0.834000       15.9994           0
     78385 TIP3     18668    TIP3     H1       HT       0.417000       1.00800           0
     78386 TIP3     18668    TIP3     H2       HT       0.417000       1.00800           0
     78387 TIP3     18669    TIP3     OH2      OT      -0.834000       15.9994           0
     78388 TIP3     18669    TIP3     H1       HT       0.417000       1.00800           0
     78389 TIP3     18669    TIP3     H2       HT       0.417000       1.00800           0
     78390 TIP3     18670    TIP3     OH2      OT      -0.834000       15.9994           0
     78391 TIP3     18670    TIP3     H1       HT       0.417000       1.00800           0
     78392 TIP3     18670    TIP3     H2       HT       0.417000       1.00800           0
     78393 TIP3     18671    TIP3     OH2      OT      -0.834000       15.9994           0
     78394 TIP3     18671    TIP3     H1       HT       0.417000       1.00800           0
     78395 TIP3     18671    TIP3     H2       HT       0.417000       1.00800           0
     78396 TIP3     18672    TIP3     OH2      OT      -0.834000       15.9994           0
     78397 TIP3     18672    TIP3     H1       HT       0.417000       1.00800           0
     78398 TIP3     18672    TIP3     H2       HT       0.417000       1.00800           0
     78399 TIP3     18673    TIP3     OH2      OT      -0.834000       15.9994           0
     78400 TIP3     18673    TIP3     H1       HT       0.417000       1.00800           0
     78401 TIP3     18673    TIP3     H2       HT       0.417000       1.00800           0
     78402 TIP3     18674    TIP3     OH2      OT      -0.834000       15.9994           0
     78403 TIP3     18674    TIP3     H1       HT       0.417000       1.00800           0
     78404 TIP3     18674    TIP3     H2       HT       0.417000       1.00800           0
     78405 TIP3     18675    TIP3     OH2      OT      -0.834000       15.9994           0
     78406 TIP3     18675    TIP3     H1       HT       0.417000       1.00800           0
     78407 TIP3     18675    TIP3     H2       HT       0.417000       1.00800           0
     78408 TIP3     18676    TIP3     OH2      OT      -0.834000       15.9994           0
     78409 TIP3     18676    TIP3     H1       HT       0.417000       1.00800           0
     78410 TIP3     18676    TIP3     H2       HT       0.417000       1.00800           0
     78411 TIP3     18677    TIP3     OH2      OT      -0.834000       15.9994           0
     78412 TIP3     18677    TIP3     H1       HT       0.417000       1.00800           0
     78413 TIP3     18677    TIP3     H2       HT       0.417000       1.00800           0
     78414 TIP3     18678    TIP3     OH2      OT      -0.834000       15.9994           0
     78415 TIP3     18678    TIP3     H1       HT       0.417000       1.00800           0
     78416 TIP3     18678    TIP3     H2       HT       0.417000       1.00800           0
     78417 TIP3     18679    TIP3     OH2      OT      -0.834000       15.9994           0
     78418 TIP3     18679    TIP3     H1       HT       0.417000       1.00800           0
     78419 TIP3     18679    TIP3     H2       HT       0.417000       1.00800           0
     78420 TIP3     18680    TIP3     OH2      OT      -0.834000       15.9994           0
     78421 TIP3     18680    TIP3     H1       HT       0.417000       1.00800           0
     78422 TIP3     18680    TIP3     H2       HT       0.417000       1.00800           0
     78423 TIP3     18681    TIP3     OH2      OT      -0.834000       15.9994           0
     78424 TIP3     18681    TIP3     H1       HT       0.417000       1.00800           0
     78425 TIP3     18681    TIP3     H2       HT       0.417000       1.00800           0
     78426 TIP3     18682    TIP3     OH2      OT      -0.834000       15.9994           0
     78427 TIP3     18682    TIP3     H1       HT       0.417000       1.00800           0
     78428 TIP3     18682    TIP3     H2       HT       0.417000       1.00800           0
     78429 TIP3     18683    TIP3     OH2      OT      -0.834000       15.9994           0
     78430 TIP3     18683    TIP3     H1       HT       0.417000       1.00800           0
     78431 TIP3     18683    TIP3     H2       HT       0.417000       1.00800           0
     78432 TIP3     18684    TIP3     OH2      OT      -0.834000       15.9994           0
     78433 TIP3     18684    TIP3     H1       HT       0.417000       1.00800           0
     78434 TIP3     18684    TIP3     H2       HT       0.417000       1.00800           0
     78435 TIP3     18685    TIP3     OH2      OT      -0.834000       15.9994           0
     78436 TIP3     18685    TIP3     H1       HT       0.417000       1.00800           0
     78437 TIP3     18685    TIP3     H2       HT       0.417000       1.00800           0
     78438 TIP3     18686    TIP3     OH2      OT      -0.834000       15.9994           0
     78439 TIP3     18686    TIP3     H1       HT       0.417000       1.00800           0
     78440 TIP3     18686    TIP3     H2       HT       0.417000       1.00800           0
     78441 TIP3     18687    TIP3     OH2      OT      -0.834000       15.9994           0
     78442 TIP3     18687    TIP3     H1       HT       0.417000       1.00800           0
     78443 TIP3     18687    TIP3     H2       HT       0.417000       1.00800           0
     78444 TIP3     18688    TIP3     OH2      OT      -0.834000       15.9994           0
     78445 TIP3     18688    TIP3     H1       HT       0.417000       1.00800           0
     78446 TIP3     18688    TIP3     H2       HT       0.417000       1.00800           0
     78447 TIP3     18689    TIP3     OH2      OT      -0.834000       15.9994           0
     78448 TIP3     18689    TIP3     H1       HT       0.417000       1.00800           0
     78449 TIP3     18689    TIP3     H2       HT       0.417000       1.00800           0
     78450 TIP3     18690    TIP3     OH2      OT      -0.834000       15.9994           0
     78451 TIP3     18690    TIP3     H1       HT       0.417000       1.00800           0
     78452 TIP3     18690    TIP3     H2       HT       0.417000       1.00800           0
     78453 TIP3     18691    TIP3     OH2      OT      -0.834000       15.9994           0
     78454 TIP3     18691    TIP3     H1       HT       0.417000       1.00800           0
     78455 TIP3     18691    TIP3     H2       HT       0.417000       1.00800           0
     78456 TIP3     18692    TIP3     OH2      OT      -0.834000       15.9994           0
     78457 TIP3     18692    TIP3     H1       HT       0.417000       1.00800           0
     78458 TIP3     18692    TIP3     H2       HT       0.417000       1.00800           0
     78459 TIP3     18693    TIP3     OH2      OT      -0.834000       15.9994           0
     78460 TIP3     18693    TIP3     H1       HT       0.417000       1.00800           0
     78461 TIP3     18693    TIP3     H2       HT       0.417000       1.00800           0
     78462 TIP3     18694    TIP3     OH2      OT      -0.834000       15.9994           0
     78463 TIP3     18694    TIP3     H1       HT       0.417000       1.00800           0
     78464 TIP3     18694    TIP3     H2       HT       0.417000       1.00800           0
     78465 TIP3     18695    TIP3     OH2      OT      -0.834000       15.9994           0
     78466 TIP3     18695    TIP3     H1       HT       0.417000       1.00800           0
     78467 TIP3     18695    TIP3     H2       HT       0.417000       1.00800           0
     78468 TIP3     18696    TIP3     OH2      OT      -0.834000       15.9994           0
     78469 TIP3     18696    TIP3     H1       HT       0.417000       1.00800           0
     78470 TIP3     18696    TIP3     H2       HT       0.417000       1.00800           0
     78471 TIP3     18697    TIP3     OH2      OT      -0.834000       15.9994           0
     78472 TIP3     18697    TIP3     H1       HT       0.417000       1.00800           0
     78473 TIP3     18697    TIP3     H2       HT       0.417000       1.00800           0
     78474 TIP3     18698    TIP3     OH2      OT      -0.834000       15.9994           0
     78475 TIP3     18698    TIP3     H1       HT       0.417000       1.00800           0
     78476 TIP3     18698    TIP3     H2       HT       0.417000       1.00800           0
     78477 TIP3     18699    TIP3     OH2      OT      -0.834000       15.9994           0
     78478 TIP3     18699    TIP3     H1       HT       0.417000       1.00800           0
     78479 TIP3     18699    TIP3     H2       HT       0.417000       1.00800           0
     78480 TIP3     18700    TIP3     OH2      OT      -0.834000       15.9994           0
     78481 TIP3     18700    TIP3     H1       HT       0.417000       1.00800           0
     78482 TIP3     18700    TIP3     H2       HT       0.417000       1.00800           0
     78483 TIP3     18701    TIP3     OH2      OT      -0.834000       15.9994           0
     78484 TIP3     18701    TIP3     H1       HT       0.417000       1.00800           0
     78485 TIP3     18701    TIP3     H2       HT       0.417000       1.00800           0
     78486 TIP3     18702    TIP3     OH2      OT      -0.834000       15.9994           0
     78487 TIP3     18702    TIP3     H1       HT       0.417000       1.00800           0
     78488 TIP3     18702    TIP3     H2       HT       0.417000       1.00800           0
     78489 TIP3     18703    TIP3     OH2      OT      -0.834000       15.9994           0
     78490 TIP3     18703    TIP3     H1       HT       0.417000       1.00800           0
     78491 TIP3     18703    TIP3     H2       HT       0.417000       1.00800           0
     78492 TIP3     18704    TIP3     OH2      OT      -0.834000       15.9994           0
     78493 TIP3     18704    TIP3     H1       HT       0.417000       1.00800           0
     78494 TIP3     18704    TIP3     H2       HT       0.417000       1.00800           0
     78495 TIP3     18705    TIP3     OH2      OT      -0.834000       15.9994           0
     78496 TIP3     18705    TIP3     H1       HT       0.417000       1.00800           0
     78497 TIP3     18705    TIP3     H2       HT       0.417000       1.00800           0
     78498 TIP3     18706    TIP3     OH2      OT      -0.834000       15.9994           0
     78499 TIP3     18706    TIP3     H1       HT       0.417000       1.00800           0
     78500 TIP3     18706    TIP3     H2       HT       0.417000       1.00800           0
     78501 TIP3     18707    TIP3     OH2      OT      -0.834000       15.9994           0
     78502 TIP3     18707    TIP3     H1       HT       0.417000       1.00800           0
     78503 TIP3     18707    TIP3     H2       HT       0.417000       1.00800           0
     78504 TIP3     18708    TIP3     OH2      OT      -0.834000       15.9994           0
     78505 TIP3     18708    TIP3     H1       HT       0.417000       1.00800           0
     78506 TIP3     18708    TIP3     H2       HT       0.417000       1.00800           0
     78507 TIP3     18709    TIP3     OH2      OT      -0.834000       15.9994           0
     78508 TIP3     18709    TIP3     H1       HT       0.417000       1.00800           0
     78509 TIP3     18709    TIP3     H2       HT       0.417000       1.00800           0
     78510 TIP3     18710    TIP3     OH2      OT      -0.834000       15.9994           0
     78511 TIP3     18710    TIP3     H1       HT       0.417000       1.00800           0
     78512 TIP3     18710    TIP3     H2       HT       0.417000       1.00800           0
     78513 TIP3     18711    TIP3     OH2      OT      -0.834000       15.9994           0
     78514 TIP3     18711    TIP3     H1       HT       0.417000       1.00800           0
     78515 TIP3     18711    TIP3     H2       HT       0.417000       1.00800           0
     78516 TIP3     18712    TIP3     OH2      OT      -0.834000       15.9994           0
     78517 TIP3     18712    TIP3     H1       HT       0.417000       1.00800           0
     78518 TIP3     18712    TIP3     H2       HT       0.417000       1.00800           0
     78519 TIP3     18713    TIP3     OH2      OT      -0.834000       15.9994           0
     78520 TIP3     18713    TIP3     H1       HT       0.417000       1.00800           0
     78521 TIP3     18713    TIP3     H2       HT       0.417000       1.00800           0
     78522 TIP3     18714    TIP3     OH2      OT      -0.834000       15.9994           0
     78523 TIP3     18714    TIP3     H1       HT       0.417000       1.00800           0
     78524 TIP3     18714    TIP3     H2       HT       0.417000       1.00800           0
     78525 TIP3     18715    TIP3     OH2      OT      -0.834000       15.9994           0
     78526 TIP3     18715    TIP3     H1       HT       0.417000       1.00800           0
     78527 TIP3     18715    TIP3     H2       HT       0.417000       1.00800           0
     78528 TIP3     18716    TIP3     OH2      OT      -0.834000       15.9994           0
     78529 TIP3     18716    TIP3     H1       HT       0.417000       1.00800           0
     78530 TIP3     18716    TIP3     H2       HT       0.417000       1.00800           0
     78531 TIP3     18717    TIP3     OH2      OT      -0.834000       15.9994           0
     78532 TIP3     18717    TIP3     H1       HT       0.417000       1.00800           0
     78533 TIP3     18717    TIP3     H2       HT       0.417000       1.00800           0
     78534 TIP3     18718    TIP3     OH2      OT      -0.834000       15.9994           0
     78535 TIP3     18718    TIP3     H1       HT       0.417000       1.00800           0
     78536 TIP3     18718    TIP3     H2       HT       0.417000       1.00800           0
     78537 TIP3     18719    TIP3     OH2      OT      -0.834000       15.9994           0
     78538 TIP3     18719    TIP3     H1       HT       0.417000       1.00800           0
     78539 TIP3     18719    TIP3     H2       HT       0.417000       1.00800           0
     78540 TIP3     18720    TIP3     OH2      OT      -0.834000       15.9994           0
     78541 TIP3     18720    TIP3     H1       HT       0.417000       1.00800           0
     78542 TIP3     18720    TIP3     H2       HT       0.417000       1.00800           0
     78543 TIP3     18721    TIP3     OH2      OT      -0.834000       15.9994           0
     78544 TIP3     18721    TIP3     H1       HT       0.417000       1.00800           0
     78545 TIP3     18721    TIP3     H2       HT       0.417000       1.00800           0
     78546 TIP3     18722    TIP3     OH2      OT      -0.834000       15.9994           0
     78547 TIP3     18722    TIP3     H1       HT       0.417000       1.00800           0
     78548 TIP3     18722    TIP3     H2       HT       0.417000       1.00800           0
     78549 TIP3     18723    TIP3     OH2      OT      -0.834000       15.9994           0
     78550 TIP3     18723    TIP3     H1       HT       0.417000       1.00800           0
     78551 TIP3     18723    TIP3     H2       HT       0.417000       1.00800           0
     78552 TIP3     18724    TIP3     OH2      OT      -0.834000       15.9994           0
     78553 TIP3     18724    TIP3     H1       HT       0.417000       1.00800           0
     78554 TIP3     18724    TIP3     H2       HT       0.417000       1.00800           0
     78555 TIP3     18725    TIP3     OH2      OT      -0.834000       15.9994           0
     78556 TIP3     18725    TIP3     H1       HT       0.417000       1.00800           0
     78557 TIP3     18725    TIP3     H2       HT       0.417000       1.00800           0
     78558 TIP3     18726    TIP3     OH2      OT      -0.834000       15.9994           0
     78559 TIP3     18726    TIP3     H1       HT       0.417000       1.00800           0
     78560 TIP3     18726    TIP3     H2       HT       0.417000       1.00800           0
     78561 TIP3     18727    TIP3     OH2      OT      -0.834000       15.9994           0
     78562 TIP3     18727    TIP3     H1       HT       0.417000       1.00800           0
     78563 TIP3     18727    TIP3     H2       HT       0.417000       1.00800           0
     78564 TIP3     18728    TIP3     OH2      OT      -0.834000       15.9994           0
     78565 TIP3     18728    TIP3     H1       HT       0.417000       1.00800           0
     78566 TIP3     18728    TIP3     H2       HT       0.417000       1.00800           0
     78567 TIP3     18729    TIP3     OH2      OT      -0.834000       15.9994           0
     78568 TIP3     18729    TIP3     H1       HT       0.417000       1.00800           0
     78569 TIP3     18729    TIP3     H2       HT       0.417000       1.00800           0
     78570 TIP3     18730    TIP3     OH2      OT      -0.834000       15.9994           0
     78571 TIP3     18730    TIP3     H1       HT       0.417000       1.00800           0
     78572 TIP3     18730    TIP3     H2       HT       0.417000       1.00800           0
     78573 TIP3     18731    TIP3     OH2      OT      -0.834000       15.9994           0
     78574 TIP3     18731    TIP3     H1       HT       0.417000       1.00800           0
     78575 TIP3     18731    TIP3     H2       HT       0.417000       1.00800           0
     78576 TIP3     18732    TIP3     OH2      OT      -0.834000       15.9994           0
     78577 TIP3     18732    TIP3     H1       HT       0.417000       1.00800           0
     78578 TIP3     18732    TIP3     H2       HT       0.417000       1.00800           0
     78579 TIP3     18733    TIP3     OH2      OT      -0.834000       15.9994           0
     78580 TIP3     18733    TIP3     H1       HT       0.417000       1.00800           0
     78581 TIP3     18733    TIP3     H2       HT       0.417000       1.00800           0
     78582 TIP3     18734    TIP3     OH2      OT      -0.834000       15.9994           0
     78583 TIP3     18734    TIP3     H1       HT       0.417000       1.00800           0
     78584 TIP3     18734    TIP3     H2       HT       0.417000       1.00800           0
     78585 TIP3     18735    TIP3     OH2      OT      -0.834000       15.9994           0
     78586 TIP3     18735    TIP3     H1       HT       0.417000       1.00800           0
     78587 TIP3     18735    TIP3     H2       HT       0.417000       1.00800           0
     78588 TIP3     18736    TIP3     OH2      OT      -0.834000       15.9994           0
     78589 TIP3     18736    TIP3     H1       HT       0.417000       1.00800           0
     78590 TIP3     18736    TIP3     H2       HT       0.417000       1.00800           0
     78591 TIP3     18737    TIP3     OH2      OT      -0.834000       15.9994           0
     78592 TIP3     18737    TIP3     H1       HT       0.417000       1.00800           0
     78593 TIP3     18737    TIP3     H2       HT       0.417000       1.00800           0
     78594 TIP3     18738    TIP3     OH2      OT      -0.834000       15.9994           0
     78595 TIP3     18738    TIP3     H1       HT       0.417000       1.00800           0
     78596 TIP3     18738    TIP3     H2       HT       0.417000       1.00800           0
     78597 TIP3     18739    TIP3     OH2      OT      -0.834000       15.9994           0
     78598 TIP3     18739    TIP3     H1       HT       0.417000       1.00800           0
     78599 TIP3     18739    TIP3     H2       HT       0.417000       1.00800           0
     78600 TIP3     18740    TIP3     OH2      OT      -0.834000       15.9994           0
     78601 TIP3     18740    TIP3     H1       HT       0.417000       1.00800           0
     78602 TIP3     18740    TIP3     H2       HT       0.417000       1.00800           0
     78603 TIP3     18741    TIP3     OH2      OT      -0.834000       15.9994           0
     78604 TIP3     18741    TIP3     H1       HT       0.417000       1.00800           0
     78605 TIP3     18741    TIP3     H2       HT       0.417000       1.00800           0
     78606 TIP3     18742    TIP3     OH2      OT      -0.834000       15.9994           0
     78607 TIP3     18742    TIP3     H1       HT       0.417000       1.00800           0
     78608 TIP3     18742    TIP3     H2       HT       0.417000       1.00800           0
     78609 TIP3     18743    TIP3     OH2      OT      -0.834000       15.9994           0
     78610 TIP3     18743    TIP3     H1       HT       0.417000       1.00800           0
     78611 TIP3     18743    TIP3     H2       HT       0.417000       1.00800           0
     78612 TIP3     18744    TIP3     OH2      OT      -0.834000       15.9994           0
     78613 TIP3     18744    TIP3     H1       HT       0.417000       1.00800           0
     78614 TIP3     18744    TIP3     H2       HT       0.417000       1.00800           0
     78615 TIP3     18745    TIP3     OH2      OT      -0.834000       15.9994           0
     78616 TIP3     18745    TIP3     H1       HT       0.417000       1.00800           0
     78617 TIP3     18745    TIP3     H2       HT       0.417000       1.00800           0
     78618 TIP3     18746    TIP3     OH2      OT      -0.834000       15.9994           0
     78619 TIP3     18746    TIP3     H1       HT       0.417000       1.00800           0
     78620 TIP3     18746    TIP3     H2       HT       0.417000       1.00800           0
     78621 TIP3     18747    TIP3     OH2      OT      -0.834000       15.9994           0
     78622 TIP3     18747    TIP3     H1       HT       0.417000       1.00800           0
     78623 TIP3     18747    TIP3     H2       HT       0.417000       1.00800           0
     78624 TIP3     18748    TIP3     OH2      OT      -0.834000       15.9994           0
     78625 TIP3     18748    TIP3     H1       HT       0.417000       1.00800           0
     78626 TIP3     18748    TIP3     H2       HT       0.417000       1.00800           0
     78627 TIP3     18749    TIP3     OH2      OT      -0.834000       15.9994           0
     78628 TIP3     18749    TIP3     H1       HT       0.417000       1.00800           0
     78629 TIP3     18749    TIP3     H2       HT       0.417000       1.00800           0
     78630 TIP3     18750    TIP3     OH2      OT      -0.834000       15.9994           0
     78631 TIP3     18750    TIP3     H1       HT       0.417000       1.00800           0
     78632 TIP3     18750    TIP3     H2       HT       0.417000       1.00800           0
     78633 TIP3     18751    TIP3     OH2      OT      -0.834000       15.9994           0
     78634 TIP3     18751    TIP3     H1       HT       0.417000       1.00800           0
     78635 TIP3     18751    TIP3     H2       HT       0.417000       1.00800           0
     78636 TIP3     18752    TIP3     OH2      OT      -0.834000       15.9994           0
     78637 TIP3     18752    TIP3     H1       HT       0.417000       1.00800           0
     78638 TIP3     18752    TIP3     H2       HT       0.417000       1.00800           0
     78639 TIP3     18753    TIP3     OH2      OT      -0.834000       15.9994           0
     78640 TIP3     18753    TIP3     H1       HT       0.417000       1.00800           0
     78641 TIP3     18753    TIP3     H2       HT       0.417000       1.00800           0
     78642 TIP3     18754    TIP3     OH2      OT      -0.834000       15.9994           0
     78643 TIP3     18754    TIP3     H1       HT       0.417000       1.00800           0
     78644 TIP3     18754    TIP3     H2       HT       0.417000       1.00800           0
     78645 TIP3     18755    TIP3     OH2      OT      -0.834000       15.9994           0
     78646 TIP3     18755    TIP3     H1       HT       0.417000       1.00800           0
     78647 TIP3     18755    TIP3     H2       HT       0.417000       1.00800           0
     78648 TIP3     18756    TIP3     OH2      OT      -0.834000       15.9994           0
     78649 TIP3     18756    TIP3     H1       HT       0.417000       1.00800           0
     78650 TIP3     18756    TIP3     H2       HT       0.417000       1.00800           0
     78651 TIP3     18757    TIP3     OH2      OT      -0.834000       15.9994           0
     78652 TIP3     18757    TIP3     H1       HT       0.417000       1.00800           0
     78653 TIP3     18757    TIP3     H2       HT       0.417000       1.00800           0
     78654 TIP3     18758    TIP3     OH2      OT      -0.834000       15.9994           0
     78655 TIP3     18758    TIP3     H1       HT       0.417000       1.00800           0
     78656 TIP3     18758    TIP3     H2       HT       0.417000       1.00800           0
     78657 TIP3     18759    TIP3     OH2      OT      -0.834000       15.9994           0
     78658 TIP3     18759    TIP3     H1       HT       0.417000       1.00800           0
     78659 TIP3     18759    TIP3     H2       HT       0.417000       1.00800           0
     78660 TIP3     18760    TIP3     OH2      OT      -0.834000       15.9994           0
     78661 TIP3     18760    TIP3     H1       HT       0.417000       1.00800           0
     78662 TIP3     18760    TIP3     H2       HT       0.417000       1.00800           0
     78663 TIP3     18761    TIP3     OH2      OT      -0.834000       15.9994           0
     78664 TIP3     18761    TIP3     H1       HT       0.417000       1.00800           0
     78665 TIP3     18761    TIP3     H2       HT       0.417000       1.00800           0
     78666 TIP3     18762    TIP3     OH2      OT      -0.834000       15.9994           0
     78667 TIP3     18762    TIP3     H1       HT       0.417000       1.00800           0
     78668 TIP3     18762    TIP3     H2       HT       0.417000       1.00800           0
     78669 TIP3     18763    TIP3     OH2      OT      -0.834000       15.9994           0
     78670 TIP3     18763    TIP3     H1       HT       0.417000       1.00800           0
     78671 TIP3     18763    TIP3     H2       HT       0.417000       1.00800           0
     78672 TIP3     18764    TIP3     OH2      OT      -0.834000       15.9994           0
     78673 TIP3     18764    TIP3     H1       HT       0.417000       1.00800           0
     78674 TIP3     18764    TIP3     H2       HT       0.417000       1.00800           0
     78675 TIP3     18765    TIP3     OH2      OT      -0.834000       15.9994           0
     78676 TIP3     18765    TIP3     H1       HT       0.417000       1.00800           0
     78677 TIP3     18765    TIP3     H2       HT       0.417000       1.00800           0
     78678 TIP3     18766    TIP3     OH2      OT      -0.834000       15.9994           0
     78679 TIP3     18766    TIP3     H1       HT       0.417000       1.00800           0
     78680 TIP3     18766    TIP3     H2       HT       0.417000       1.00800           0
     78681 TIP3     18767    TIP3     OH2      OT      -0.834000       15.9994           0
     78682 TIP3     18767    TIP3     H1       HT       0.417000       1.00800           0
     78683 TIP3     18767    TIP3     H2       HT       0.417000       1.00800           0
     78684 TIP3     18768    TIP3     OH2      OT      -0.834000       15.9994           0
     78685 TIP3     18768    TIP3     H1       HT       0.417000       1.00800           0
     78686 TIP3     18768    TIP3     H2       HT       0.417000       1.00800           0
     78687 TIP3     18769    TIP3     OH2      OT      -0.834000       15.9994           0
     78688 TIP3     18769    TIP3     H1       HT       0.417000       1.00800           0
     78689 TIP3     18769    TIP3     H2       HT       0.417000       1.00800           0
     78690 TIP3     18770    TIP3     OH2      OT      -0.834000       15.9994           0
     78691 TIP3     18770    TIP3     H1       HT       0.417000       1.00800           0
     78692 TIP3     18770    TIP3     H2       HT       0.417000       1.00800           0
     78693 TIP3     18771    TIP3     OH2      OT      -0.834000       15.9994           0
     78694 TIP3     18771    TIP3     H1       HT       0.417000       1.00800           0
     78695 TIP3     18771    TIP3     H2       HT       0.417000       1.00800           0
     78696 TIP3     18772    TIP3     OH2      OT      -0.834000       15.9994           0
     78697 TIP3     18772    TIP3     H1       HT       0.417000       1.00800           0
     78698 TIP3     18772    TIP3     H2       HT       0.417000       1.00800           0
     78699 TIP3     18773    TIP3     OH2      OT      -0.834000       15.9994           0
     78700 TIP3     18773    TIP3     H1       HT       0.417000       1.00800           0
     78701 TIP3     18773    TIP3     H2       HT       0.417000       1.00800           0
     78702 TIP3     18774    TIP3     OH2      OT      -0.834000       15.9994           0
     78703 TIP3     18774    TIP3     H1       HT       0.417000       1.00800           0
     78704 TIP3     18774    TIP3     H2       HT       0.417000       1.00800           0
     78705 TIP3     18775    TIP3     OH2      OT      -0.834000       15.9994           0
     78706 TIP3     18775    TIP3     H1       HT       0.417000       1.00800           0
     78707 TIP3     18775    TIP3     H2       HT       0.417000       1.00800           0
     78708 TIP3     18776    TIP3     OH2      OT      -0.834000       15.9994           0
     78709 TIP3     18776    TIP3     H1       HT       0.417000       1.00800           0
     78710 TIP3     18776    TIP3     H2       HT       0.417000       1.00800           0
     78711 TIP3     18777    TIP3     OH2      OT      -0.834000       15.9994           0
     78712 TIP3     18777    TIP3     H1       HT       0.417000       1.00800           0
     78713 TIP3     18777    TIP3     H2       HT       0.417000       1.00800           0
     78714 TIP3     18778    TIP3     OH2      OT      -0.834000       15.9994           0
     78715 TIP3     18778    TIP3     H1       HT       0.417000       1.00800           0
     78716 TIP3     18778    TIP3     H2       HT       0.417000       1.00800           0
     78717 TIP3     18779    TIP3     OH2      OT      -0.834000       15.9994           0
     78718 TIP3     18779    TIP3     H1       HT       0.417000       1.00800           0
     78719 TIP3     18779    TIP3     H2       HT       0.417000       1.00800           0
     78720 TIP3     18780    TIP3     OH2      OT      -0.834000       15.9994           0
     78721 TIP3     18780    TIP3     H1       HT       0.417000       1.00800           0
     78722 TIP3     18780    TIP3     H2       HT       0.417000       1.00800           0
     78723 TIP3     18781    TIP3     OH2      OT      -0.834000       15.9994           0
     78724 TIP3     18781    TIP3     H1       HT       0.417000       1.00800           0
     78725 TIP3     18781    TIP3     H2       HT       0.417000       1.00800           0
     78726 TIP3     18782    TIP3     OH2      OT      -0.834000       15.9994           0
     78727 TIP3     18782    TIP3     H1       HT       0.417000       1.00800           0
     78728 TIP3     18782    TIP3     H2       HT       0.417000       1.00800           0
     78729 TIP3     18783    TIP3     OH2      OT      -0.834000       15.9994           0
     78730 TIP3     18783    TIP3     H1       HT       0.417000       1.00800           0
     78731 TIP3     18783    TIP3     H2       HT       0.417000       1.00800           0
     78732 TIP3     18784    TIP3     OH2      OT      -0.834000       15.9994           0
     78733 TIP3     18784    TIP3     H1       HT       0.417000       1.00800           0
     78734 TIP3     18784    TIP3     H2       HT       0.417000       1.00800           0
     78735 TIP3     18785    TIP3     OH2      OT      -0.834000       15.9994           0
     78736 TIP3     18785    TIP3     H1       HT       0.417000       1.00800           0
     78737 TIP3     18785    TIP3     H2       HT       0.417000       1.00800           0
     78738 TIP3     18786    TIP3     OH2      OT      -0.834000       15.9994           0
     78739 TIP3     18786    TIP3     H1       HT       0.417000       1.00800           0
     78740 TIP3     18786    TIP3     H2       HT       0.417000       1.00800           0
     78741 TIP3     18787    TIP3     OH2      OT      -0.834000       15.9994           0
     78742 TIP3     18787    TIP3     H1       HT       0.417000       1.00800           0
     78743 TIP3     18787    TIP3     H2       HT       0.417000       1.00800           0
     78744 TIP3     18788    TIP3     OH2      OT      -0.834000       15.9994           0
     78745 TIP3     18788    TIP3     H1       HT       0.417000       1.00800           0
     78746 TIP3     18788    TIP3     H2       HT       0.417000       1.00800           0
     78747 TIP3     18789    TIP3     OH2      OT      -0.834000       15.9994           0
     78748 TIP3     18789    TIP3     H1       HT       0.417000       1.00800           0
     78749 TIP3     18789    TIP3     H2       HT       0.417000       1.00800           0
     78750 TIP3     18790    TIP3     OH2      OT      -0.834000       15.9994           0
     78751 TIP3     18790    TIP3     H1       HT       0.417000       1.00800           0
     78752 TIP3     18790    TIP3     H2       HT       0.417000       1.00800           0
     78753 TIP3     18791    TIP3     OH2      OT      -0.834000       15.9994           0
     78754 TIP3     18791    TIP3     H1       HT       0.417000       1.00800           0
     78755 TIP3     18791    TIP3     H2       HT       0.417000       1.00800           0
     78756 TIP3     18792    TIP3     OH2      OT      -0.834000       15.9994           0
     78757 TIP3     18792    TIP3     H1       HT       0.417000       1.00800           0
     78758 TIP3     18792    TIP3     H2       HT       0.417000       1.00800           0
     78759 TIP3     18793    TIP3     OH2      OT      -0.834000       15.9994           0
     78760 TIP3     18793    TIP3     H1       HT       0.417000       1.00800           0
     78761 TIP3     18793    TIP3     H2       HT       0.417000       1.00800           0
     78762 TIP3     18794    TIP3     OH2      OT      -0.834000       15.9994           0
     78763 TIP3     18794    TIP3     H1       HT       0.417000       1.00800           0
     78764 TIP3     18794    TIP3     H2       HT       0.417000       1.00800           0
     78765 TIP3     18795    TIP3     OH2      OT      -0.834000       15.9994           0
     78766 TIP3     18795    TIP3     H1       HT       0.417000       1.00800           0
     78767 TIP3     18795    TIP3     H2       HT       0.417000       1.00800           0
     78768 TIP3     18796    TIP3     OH2      OT      -0.834000       15.9994           0
     78769 TIP3     18796    TIP3     H1       HT       0.417000       1.00800           0
     78770 TIP3     18796    TIP3     H2       HT       0.417000       1.00800           0
     78771 TIP3     18797    TIP3     OH2      OT      -0.834000       15.9994           0
     78772 TIP3     18797    TIP3     H1       HT       0.417000       1.00800           0
     78773 TIP3     18797    TIP3     H2       HT       0.417000       1.00800           0
     78774 TIP3     18798    TIP3     OH2      OT      -0.834000       15.9994           0
     78775 TIP3     18798    TIP3     H1       HT       0.417000       1.00800           0
     78776 TIP3     18798    TIP3     H2       HT       0.417000       1.00800           0
     78777 TIP3     18799    TIP3     OH2      OT      -0.834000       15.9994           0
     78778 TIP3     18799    TIP3     H1       HT       0.417000       1.00800           0
     78779 TIP3     18799    TIP3     H2       HT       0.417000       1.00800           0
     78780 TIP3     18800    TIP3     OH2      OT      -0.834000       15.9994           0
     78781 TIP3     18800    TIP3     H1       HT       0.417000       1.00800           0
     78782 TIP3     18800    TIP3     H2       HT       0.417000       1.00800           0
     78783 TIP3     18801    TIP3     OH2      OT      -0.834000       15.9994           0
     78784 TIP3     18801    TIP3     H1       HT       0.417000       1.00800           0
     78785 TIP3     18801    TIP3     H2       HT       0.417000       1.00800           0
     78786 TIP3     18802    TIP3     OH2      OT      -0.834000       15.9994           0
     78787 TIP3     18802    TIP3     H1       HT       0.417000       1.00800           0
     78788 TIP3     18802    TIP3     H2       HT       0.417000       1.00800           0
     78789 TIP3     18803    TIP3     OH2      OT      -0.834000       15.9994           0
     78790 TIP3     18803    TIP3     H1       HT       0.417000       1.00800           0
     78791 TIP3     18803    TIP3     H2       HT       0.417000       1.00800           0
     78792 TIP3     18804    TIP3     OH2      OT      -0.834000       15.9994           0
     78793 TIP3     18804    TIP3     H1       HT       0.417000       1.00800           0
     78794 TIP3     18804    TIP3     H2       HT       0.417000       1.00800           0
     78795 TIP3     18805    TIP3     OH2      OT      -0.834000       15.9994           0
     78796 TIP3     18805    TIP3     H1       HT       0.417000       1.00800           0
     78797 TIP3     18805    TIP3     H2       HT       0.417000       1.00800           0
     78798 TIP3     18806    TIP3     OH2      OT      -0.834000       15.9994           0
     78799 TIP3     18806    TIP3     H1       HT       0.417000       1.00800           0
     78800 TIP3     18806    TIP3     H2       HT       0.417000       1.00800           0
     78801 TIP3     18807    TIP3     OH2      OT      -0.834000       15.9994           0
     78802 TIP3     18807    TIP3     H1       HT       0.417000       1.00800           0
     78803 TIP3     18807    TIP3     H2       HT       0.417000       1.00800           0
     78804 TIP3     18808    TIP3     OH2      OT      -0.834000       15.9994           0
     78805 TIP3     18808    TIP3     H1       HT       0.417000       1.00800           0
     78806 TIP3     18808    TIP3     H2       HT       0.417000       1.00800           0
     78807 TIP3     18809    TIP3     OH2      OT      -0.834000       15.9994           0
     78808 TIP3     18809    TIP3     H1       HT       0.417000       1.00800           0
     78809 TIP3     18809    TIP3     H2       HT       0.417000       1.00800           0
     78810 TIP3     18810    TIP3     OH2      OT      -0.834000       15.9994           0
     78811 TIP3     18810    TIP3     H1       HT       0.417000       1.00800           0
     78812 TIP3     18810    TIP3     H2       HT       0.417000       1.00800           0
     78813 TIP3     18811    TIP3     OH2      OT      -0.834000       15.9994           0
     78814 TIP3     18811    TIP3     H1       HT       0.417000       1.00800           0
     78815 TIP3     18811    TIP3     H2       HT       0.417000       1.00800           0
     78816 TIP3     18812    TIP3     OH2      OT      -0.834000       15.9994           0
     78817 TIP3     18812    TIP3     H1       HT       0.417000       1.00800           0
     78818 TIP3     18812    TIP3     H2       HT       0.417000       1.00800           0
     78819 TIP3     18813    TIP3     OH2      OT      -0.834000       15.9994           0
     78820 TIP3     18813    TIP3     H1       HT       0.417000       1.00800           0
     78821 TIP3     18813    TIP3     H2       HT       0.417000       1.00800           0
     78822 TIP3     18814    TIP3     OH2      OT      -0.834000       15.9994           0
     78823 TIP3     18814    TIP3     H1       HT       0.417000       1.00800           0
     78824 TIP3     18814    TIP3     H2       HT       0.417000       1.00800           0
     78825 TIP3     18815    TIP3     OH2      OT      -0.834000       15.9994           0
     78826 TIP3     18815    TIP3     H1       HT       0.417000       1.00800           0
     78827 TIP3     18815    TIP3     H2       HT       0.417000       1.00800           0
     78828 TIP3     18816    TIP3     OH2      OT      -0.834000       15.9994           0
     78829 TIP3     18816    TIP3     H1       HT       0.417000       1.00800           0
     78830 TIP3     18816    TIP3     H2       HT       0.417000       1.00800           0
     78831 TIP3     18817    TIP3     OH2      OT      -0.834000       15.9994           0
     78832 TIP3     18817    TIP3     H1       HT       0.417000       1.00800           0
     78833 TIP3     18817    TIP3     H2       HT       0.417000       1.00800           0
     78834 TIP3     18818    TIP3     OH2      OT      -0.834000       15.9994           0
     78835 TIP3     18818    TIP3     H1       HT       0.417000       1.00800           0
     78836 TIP3     18818    TIP3     H2       HT       0.417000       1.00800           0
     78837 TIP3     18819    TIP3     OH2      OT      -0.834000       15.9994           0
     78838 TIP3     18819    TIP3     H1       HT       0.417000       1.00800           0
     78839 TIP3     18819    TIP3     H2       HT       0.417000       1.00800           0
     78840 TIP3     18820    TIP3     OH2      OT      -0.834000       15.9994           0
     78841 TIP3     18820    TIP3     H1       HT       0.417000       1.00800           0
     78842 TIP3     18820    TIP3     H2       HT       0.417000       1.00800           0
     78843 TIP3     18821    TIP3     OH2      OT      -0.834000       15.9994           0
     78844 TIP3     18821    TIP3     H1       HT       0.417000       1.00800           0
     78845 TIP3     18821    TIP3     H2       HT       0.417000       1.00800           0
     78846 TIP3     18822    TIP3     OH2      OT      -0.834000       15.9994           0
     78847 TIP3     18822    TIP3     H1       HT       0.417000       1.00800           0
     78848 TIP3     18822    TIP3     H2       HT       0.417000       1.00800           0
     78849 TIP3     18823    TIP3     OH2      OT      -0.834000       15.9994           0
     78850 TIP3     18823    TIP3     H1       HT       0.417000       1.00800           0
     78851 TIP3     18823    TIP3     H2       HT       0.417000       1.00800           0
     78852 TIP3     18824    TIP3     OH2      OT      -0.834000       15.9994           0
     78853 TIP3     18824    TIP3     H1       HT       0.417000       1.00800           0
     78854 TIP3     18824    TIP3     H2       HT       0.417000       1.00800           0
     78855 TIP3     18825    TIP3     OH2      OT      -0.834000       15.9994           0
     78856 TIP3     18825    TIP3     H1       HT       0.417000       1.00800           0
     78857 TIP3     18825    TIP3     H2       HT       0.417000       1.00800           0
     78858 TIP3     18826    TIP3     OH2      OT      -0.834000       15.9994           0
     78859 TIP3     18826    TIP3     H1       HT       0.417000       1.00800           0
     78860 TIP3     18826    TIP3     H2       HT       0.417000       1.00800           0
     78861 TIP3     18827    TIP3     OH2      OT      -0.834000       15.9994           0
     78862 TIP3     18827    TIP3     H1       HT       0.417000       1.00800           0
     78863 TIP3     18827    TIP3     H2       HT       0.417000       1.00800           0
     78864 TIP3     18828    TIP3     OH2      OT      -0.834000       15.9994           0
     78865 TIP3     18828    TIP3     H1       HT       0.417000       1.00800           0
     78866 TIP3     18828    TIP3     H2       HT       0.417000       1.00800           0
     78867 TIP3     18829    TIP3     OH2      OT      -0.834000       15.9994           0
     78868 TIP3     18829    TIP3     H1       HT       0.417000       1.00800           0
     78869 TIP3     18829    TIP3     H2       HT       0.417000       1.00800           0
     78870 TIP3     18830    TIP3     OH2      OT      -0.834000       15.9994           0
     78871 TIP3     18830    TIP3     H1       HT       0.417000       1.00800           0
     78872 TIP3     18830    TIP3     H2       HT       0.417000       1.00800           0
     78873 TIP3     18831    TIP3     OH2      OT      -0.834000       15.9994           0
     78874 TIP3     18831    TIP3     H1       HT       0.417000       1.00800           0
     78875 TIP3     18831    TIP3     H2       HT       0.417000       1.00800           0
     78876 TIP3     18832    TIP3     OH2      OT      -0.834000       15.9994           0
     78877 TIP3     18832    TIP3     H1       HT       0.417000       1.00800           0
     78878 TIP3     18832    TIP3     H2       HT       0.417000       1.00800           0
     78879 TIP3     18833    TIP3     OH2      OT      -0.834000       15.9994           0
     78880 TIP3     18833    TIP3     H1       HT       0.417000       1.00800           0
     78881 TIP3     18833    TIP3     H2       HT       0.417000       1.00800           0
     78882 TIP3     18834    TIP3     OH2      OT      -0.834000       15.9994           0
     78883 TIP3     18834    TIP3     H1       HT       0.417000       1.00800           0
     78884 TIP3     18834    TIP3     H2       HT       0.417000       1.00800           0
     78885 TIP3     18835    TIP3     OH2      OT      -0.834000       15.9994           0
     78886 TIP3     18835    TIP3     H1       HT       0.417000       1.00800           0
     78887 TIP3     18835    TIP3     H2       HT       0.417000       1.00800           0
     78888 TIP3     18836    TIP3     OH2      OT      -0.834000       15.9994           0
     78889 TIP3     18836    TIP3     H1       HT       0.417000       1.00800           0
     78890 TIP3     18836    TIP3     H2       HT       0.417000       1.00800           0
     78891 TIP3     18837    TIP3     OH2      OT      -0.834000       15.9994           0
     78892 TIP3     18837    TIP3     H1       HT       0.417000       1.00800           0
     78893 TIP3     18837    TIP3     H2       HT       0.417000       1.00800           0
     78894 TIP3     18838    TIP3     OH2      OT      -0.834000       15.9994           0
     78895 TIP3     18838    TIP3     H1       HT       0.417000       1.00800           0
     78896 TIP3     18838    TIP3     H2       HT       0.417000       1.00800           0
     78897 TIP3     18839    TIP3     OH2      OT      -0.834000       15.9994           0
     78898 TIP3     18839    TIP3     H1       HT       0.417000       1.00800           0
     78899 TIP3     18839    TIP3     H2       HT       0.417000       1.00800           0
     78900 TIP3     18840    TIP3     OH2      OT      -0.834000       15.9994           0
     78901 TIP3     18840    TIP3     H1       HT       0.417000       1.00800           0
     78902 TIP3     18840    TIP3     H2       HT       0.417000       1.00800           0
     78903 TIP3     18841    TIP3     OH2      OT      -0.834000       15.9994           0
     78904 TIP3     18841    TIP3     H1       HT       0.417000       1.00800           0
     78905 TIP3     18841    TIP3     H2       HT       0.417000       1.00800           0
     78906 TIP3     18842    TIP3     OH2      OT      -0.834000       15.9994           0
     78907 TIP3     18842    TIP3     H1       HT       0.417000       1.00800           0
     78908 TIP3     18842    TIP3     H2       HT       0.417000       1.00800           0
     78909 TIP3     18843    TIP3     OH2      OT      -0.834000       15.9994           0
     78910 TIP3     18843    TIP3     H1       HT       0.417000       1.00800           0
     78911 TIP3     18843    TIP3     H2       HT       0.417000       1.00800           0
     78912 TIP3     18844    TIP3     OH2      OT      -0.834000       15.9994           0
     78913 TIP3     18844    TIP3     H1       HT       0.417000       1.00800           0
     78914 TIP3     18844    TIP3     H2       HT       0.417000       1.00800           0
     78915 TIP3     18845    TIP3     OH2      OT      -0.834000       15.9994           0
     78916 TIP3     18845    TIP3     H1       HT       0.417000       1.00800           0
     78917 TIP3     18845    TIP3     H2       HT       0.417000       1.00800           0
     78918 TIP3     18846    TIP3     OH2      OT      -0.834000       15.9994           0
     78919 TIP3     18846    TIP3     H1       HT       0.417000       1.00800           0
     78920 TIP3     18846    TIP3     H2       HT       0.417000       1.00800           0
     78921 TIP3     18847    TIP3     OH2      OT      -0.834000       15.9994           0
     78922 TIP3     18847    TIP3     H1       HT       0.417000       1.00800           0
     78923 TIP3     18847    TIP3     H2       HT       0.417000       1.00800           0
     78924 TIP3     18848    TIP3     OH2      OT      -0.834000       15.9994           0
     78925 TIP3     18848    TIP3     H1       HT       0.417000       1.00800           0
     78926 TIP3     18848    TIP3     H2       HT       0.417000       1.00800           0
     78927 TIP3     18849    TIP3     OH2      OT      -0.834000       15.9994           0
     78928 TIP3     18849    TIP3     H1       HT       0.417000       1.00800           0
     78929 TIP3     18849    TIP3     H2       HT       0.417000       1.00800           0
     78930 TIP3     18850    TIP3     OH2      OT      -0.834000       15.9994           0
     78931 TIP3     18850    TIP3     H1       HT       0.417000       1.00800           0
     78932 TIP3     18850    TIP3     H2       HT       0.417000       1.00800           0
     78933 TIP3     18851    TIP3     OH2      OT      -0.834000       15.9994           0
     78934 TIP3     18851    TIP3     H1       HT       0.417000       1.00800           0
     78935 TIP3     18851    TIP3     H2       HT       0.417000       1.00800           0
     78936 TIP3     18852    TIP3     OH2      OT      -0.834000       15.9994           0
     78937 TIP3     18852    TIP3     H1       HT       0.417000       1.00800           0
     78938 TIP3     18852    TIP3     H2       HT       0.417000       1.00800           0
     78939 TIP3     18853    TIP3     OH2      OT      -0.834000       15.9994           0
     78940 TIP3     18853    TIP3     H1       HT       0.417000       1.00800           0
     78941 TIP3     18853    TIP3     H2       HT       0.417000       1.00800           0
     78942 TIP3     18854    TIP3     OH2      OT      -0.834000       15.9994           0
     78943 TIP3     18854    TIP3     H1       HT       0.417000       1.00800           0
     78944 TIP3     18854    TIP3     H2       HT       0.417000       1.00800           0
     78945 TIP3     18855    TIP3     OH2      OT      -0.834000       15.9994           0
     78946 TIP3     18855    TIP3     H1       HT       0.417000       1.00800           0
     78947 TIP3     18855    TIP3     H2       HT       0.417000       1.00800           0
     78948 TIP3     18856    TIP3     OH2      OT      -0.834000       15.9994           0
     78949 TIP3     18856    TIP3     H1       HT       0.417000       1.00800           0
     78950 TIP3     18856    TIP3     H2       HT       0.417000       1.00800           0
     78951 TIP3     18857    TIP3     OH2      OT      -0.834000       15.9994           0
     78952 TIP3     18857    TIP3     H1       HT       0.417000       1.00800           0
     78953 TIP3     18857    TIP3     H2       HT       0.417000       1.00800           0
     78954 TIP3     18858    TIP3     OH2      OT      -0.834000       15.9994           0
     78955 TIP3     18858    TIP3     H1       HT       0.417000       1.00800           0
     78956 TIP3     18858    TIP3     H2       HT       0.417000       1.00800           0
     78957 TIP3     18859    TIP3     OH2      OT      -0.834000       15.9994           0
     78958 TIP3     18859    TIP3     H1       HT       0.417000       1.00800           0
     78959 TIP3     18859    TIP3     H2       HT       0.417000       1.00800           0
     78960 TIP3     18860    TIP3     OH2      OT      -0.834000       15.9994           0
     78961 TIP3     18860    TIP3     H1       HT       0.417000       1.00800           0
     78962 TIP3     18860    TIP3     H2       HT       0.417000       1.00800           0
     78963 TIP3     18861    TIP3     OH2      OT      -0.834000       15.9994           0
     78964 TIP3     18861    TIP3     H1       HT       0.417000       1.00800           0
     78965 TIP3     18861    TIP3     H2       HT       0.417000       1.00800           0
     78966 TIP3     18862    TIP3     OH2      OT      -0.834000       15.9994           0
     78967 TIP3     18862    TIP3     H1       HT       0.417000       1.00800           0
     78968 TIP3     18862    TIP3     H2       HT       0.417000       1.00800           0
     78969 TIP3     18863    TIP3     OH2      OT      -0.834000       15.9994           0
     78970 TIP3     18863    TIP3     H1       HT       0.417000       1.00800           0
     78971 TIP3     18863    TIP3     H2       HT       0.417000       1.00800           0
     78972 TIP3     18864    TIP3     OH2      OT      -0.834000       15.9994           0
     78973 TIP3     18864    TIP3     H1       HT       0.417000       1.00800           0
     78974 TIP3     18864    TIP3     H2       HT       0.417000       1.00800           0
     78975 TIP3     18865    TIP3     OH2      OT      -0.834000       15.9994           0
     78976 TIP3     18865    TIP3     H1       HT       0.417000       1.00800           0
     78977 TIP3     18865    TIP3     H2       HT       0.417000       1.00800           0
     78978 TIP3     18866    TIP3     OH2      OT      -0.834000       15.9994           0
     78979 TIP3     18866    TIP3     H1       HT       0.417000       1.00800           0
     78980 TIP3     18866    TIP3     H2       HT       0.417000       1.00800           0
     78981 TIP3     18867    TIP3     OH2      OT      -0.834000       15.9994           0
     78982 TIP3     18867    TIP3     H1       HT       0.417000       1.00800           0
     78983 TIP3     18867    TIP3     H2       HT       0.417000       1.00800           0
     78984 TIP3     18868    TIP3     OH2      OT      -0.834000       15.9994           0
     78985 TIP3     18868    TIP3     H1       HT       0.417000       1.00800           0
     78986 TIP3     18868    TIP3     H2       HT       0.417000       1.00800           0
     78987 TIP3     18869    TIP3     OH2      OT      -0.834000       15.9994           0
     78988 TIP3     18869    TIP3     H1       HT       0.417000       1.00800           0
     78989 TIP3     18869    TIP3     H2       HT       0.417000       1.00800           0
     78990 TIP3     18870    TIP3     OH2      OT      -0.834000       15.9994           0
     78991 TIP3     18870    TIP3     H1       HT       0.417000       1.00800           0
     78992 TIP3     18870    TIP3     H2       HT       0.417000       1.00800           0
     78993 TIP3     18871    TIP3     OH2      OT      -0.834000       15.9994           0
     78994 TIP3     18871    TIP3     H1       HT       0.417000       1.00800           0
     78995 TIP3     18871    TIP3     H2       HT       0.417000       1.00800           0
     78996 TIP3     18872    TIP3     OH2      OT      -0.834000       15.9994           0
     78997 TIP3     18872    TIP3     H1       HT       0.417000       1.00800           0
     78998 TIP3     18872    TIP3     H2       HT       0.417000       1.00800           0
     78999 TIP3     18873    TIP3     OH2      OT      -0.834000       15.9994           0
     79000 TIP3     18873    TIP3     H1       HT       0.417000       1.00800           0
     79001 TIP3     18873    TIP3     H2       HT       0.417000       1.00800           0
     79002 TIP3     18874    TIP3     OH2      OT      -0.834000       15.9994           0
     79003 TIP3     18874    TIP3     H1       HT       0.417000       1.00800           0
     79004 TIP3     18874    TIP3     H2       HT       0.417000       1.00800           0
     79005 TIP3     18875    TIP3     OH2      OT      -0.834000       15.9994           0
     79006 TIP3     18875    TIP3     H1       HT       0.417000       1.00800           0
     79007 TIP3     18875    TIP3     H2       HT       0.417000       1.00800           0
     79008 TIP3     18876    TIP3     OH2      OT      -0.834000       15.9994           0
     79009 TIP3     18876    TIP3     H1       HT       0.417000       1.00800           0
     79010 TIP3     18876    TIP3     H2       HT       0.417000       1.00800           0
     79011 TIP3     18877    TIP3     OH2      OT      -0.834000       15.9994           0
     79012 TIP3     18877    TIP3     H1       HT       0.417000       1.00800           0
     79013 TIP3     18877    TIP3     H2       HT       0.417000       1.00800           0
     79014 TIP3     18878    TIP3     OH2      OT      -0.834000       15.9994           0
     79015 TIP3     18878    TIP3     H1       HT       0.417000       1.00800           0
     79016 TIP3     18878    TIP3     H2       HT       0.417000       1.00800           0
     79017 TIP3     18879    TIP3     OH2      OT      -0.834000       15.9994           0
     79018 TIP3     18879    TIP3     H1       HT       0.417000       1.00800           0
     79019 TIP3     18879    TIP3     H2       HT       0.417000       1.00800           0
     79020 TIP3     18880    TIP3     OH2      OT      -0.834000       15.9994           0
     79021 TIP3     18880    TIP3     H1       HT       0.417000       1.00800           0
     79022 TIP3     18880    TIP3     H2       HT       0.417000       1.00800           0
     79023 TIP3     18881    TIP3     OH2      OT      -0.834000       15.9994           0
     79024 TIP3     18881    TIP3     H1       HT       0.417000       1.00800           0
     79025 TIP3     18881    TIP3     H2       HT       0.417000       1.00800           0
     79026 TIP3     18882    TIP3     OH2      OT      -0.834000       15.9994           0
     79027 TIP3     18882    TIP3     H1       HT       0.417000       1.00800           0
     79028 TIP3     18882    TIP3     H2       HT       0.417000       1.00800           0
     79029 TIP3     18883    TIP3     OH2      OT      -0.834000       15.9994           0
     79030 TIP3     18883    TIP3     H1       HT       0.417000       1.00800           0
     79031 TIP3     18883    TIP3     H2       HT       0.417000       1.00800           0
     79032 TIP3     18884    TIP3     OH2      OT      -0.834000       15.9994           0
     79033 TIP3     18884    TIP3     H1       HT       0.417000       1.00800           0
     79034 TIP3     18884    TIP3     H2       HT       0.417000       1.00800           0
     79035 TIP3     18885    TIP3     OH2      OT      -0.834000       15.9994           0
     79036 TIP3     18885    TIP3     H1       HT       0.417000       1.00800           0
     79037 TIP3     18885    TIP3     H2       HT       0.417000       1.00800           0
     79038 TIP3     18886    TIP3     OH2      OT      -0.834000       15.9994           0
     79039 TIP3     18886    TIP3     H1       HT       0.417000       1.00800           0
     79040 TIP3     18886    TIP3     H2       HT       0.417000       1.00800           0
     79041 TIP3     18887    TIP3     OH2      OT      -0.834000       15.9994           0
     79042 TIP3     18887    TIP3     H1       HT       0.417000       1.00800           0
     79043 TIP3     18887    TIP3     H2       HT       0.417000       1.00800           0
     79044 TIP3     18888    TIP3     OH2      OT      -0.834000       15.9994           0
     79045 TIP3     18888    TIP3     H1       HT       0.417000       1.00800           0
     79046 TIP3     18888    TIP3     H2       HT       0.417000       1.00800           0
     79047 TIP3     18889    TIP3     OH2      OT      -0.834000       15.9994           0
     79048 TIP3     18889    TIP3     H1       HT       0.417000       1.00800           0
     79049 TIP3     18889    TIP3     H2       HT       0.417000       1.00800           0
     79050 TIP3     18890    TIP3     OH2      OT      -0.834000       15.9994           0
     79051 TIP3     18890    TIP3     H1       HT       0.417000       1.00800           0
     79052 TIP3     18890    TIP3     H2       HT       0.417000       1.00800           0
     79053 TIP3     18891    TIP3     OH2      OT      -0.834000       15.9994           0
     79054 TIP3     18891    TIP3     H1       HT       0.417000       1.00800           0
     79055 TIP3     18891    TIP3     H2       HT       0.417000       1.00800           0
     79056 TIP3     18892    TIP3     OH2      OT      -0.834000       15.9994           0
     79057 TIP3     18892    TIP3     H1       HT       0.417000       1.00800           0
     79058 TIP3     18892    TIP3     H2       HT       0.417000       1.00800           0
     79059 TIP3     18893    TIP3     OH2      OT      -0.834000       15.9994           0
     79060 TIP3     18893    TIP3     H1       HT       0.417000       1.00800           0
     79061 TIP3     18893    TIP3     H2       HT       0.417000       1.00800           0
     79062 TIP3     18894    TIP3     OH2      OT      -0.834000       15.9994           0
     79063 TIP3     18894    TIP3     H1       HT       0.417000       1.00800           0
     79064 TIP3     18894    TIP3     H2       HT       0.417000       1.00800           0
     79065 TIP3     18895    TIP3     OH2      OT      -0.834000       15.9994           0
     79066 TIP3     18895    TIP3     H1       HT       0.417000       1.00800           0
     79067 TIP3     18895    TIP3     H2       HT       0.417000       1.00800           0
     79068 TIP3     18896    TIP3     OH2      OT      -0.834000       15.9994           0
     79069 TIP3     18896    TIP3     H1       HT       0.417000       1.00800           0
     79070 TIP3     18896    TIP3     H2       HT       0.417000       1.00800           0
     79071 TIP3     18897    TIP3     OH2      OT      -0.834000       15.9994           0
     79072 TIP3     18897    TIP3     H1       HT       0.417000       1.00800           0
     79073 TIP3     18897    TIP3     H2       HT       0.417000       1.00800           0
     79074 TIP3     18898    TIP3     OH2      OT      -0.834000       15.9994           0
     79075 TIP3     18898    TIP3     H1       HT       0.417000       1.00800           0
     79076 TIP3     18898    TIP3     H2       HT       0.417000       1.00800           0
     79077 TIP3     18899    TIP3     OH2      OT      -0.834000       15.9994           0
     79078 TIP3     18899    TIP3     H1       HT       0.417000       1.00800           0
     79079 TIP3     18899    TIP3     H2       HT       0.417000       1.00800           0
     79080 TIP3     18900    TIP3     OH2      OT      -0.834000       15.9994           0
     79081 TIP3     18900    TIP3     H1       HT       0.417000       1.00800           0
     79082 TIP3     18900    TIP3     H2       HT       0.417000       1.00800           0
     79083 TIP3     18901    TIP3     OH2      OT      -0.834000       15.9994           0
     79084 TIP3     18901    TIP3     H1       HT       0.417000       1.00800           0
     79085 TIP3     18901    TIP3     H2       HT       0.417000       1.00800           0
     79086 TIP3     18902    TIP3     OH2      OT      -0.834000       15.9994           0
     79087 TIP3     18902    TIP3     H1       HT       0.417000       1.00800           0
     79088 TIP3     18902    TIP3     H2       HT       0.417000       1.00800           0
     79089 TIP3     18903    TIP3     OH2      OT      -0.834000       15.9994           0
     79090 TIP3     18903    TIP3     H1       HT       0.417000       1.00800           0
     79091 TIP3     18903    TIP3     H2       HT       0.417000       1.00800           0
     79092 TIP3     18904    TIP3     OH2      OT      -0.834000       15.9994           0
     79093 TIP3     18904    TIP3     H1       HT       0.417000       1.00800           0
     79094 TIP3     18904    TIP3     H2       HT       0.417000       1.00800           0
     79095 TIP3     18905    TIP3     OH2      OT      -0.834000       15.9994           0
     79096 TIP3     18905    TIP3     H1       HT       0.417000       1.00800           0
     79097 TIP3     18905    TIP3     H2       HT       0.417000       1.00800           0
     79098 TIP3     18906    TIP3     OH2      OT      -0.834000       15.9994           0
     79099 TIP3     18906    TIP3     H1       HT       0.417000       1.00800           0
     79100 TIP3     18906    TIP3     H2       HT       0.417000       1.00800           0
     79101 TIP3     18907    TIP3     OH2      OT      -0.834000       15.9994           0
     79102 TIP3     18907    TIP3     H1       HT       0.417000       1.00800           0
     79103 TIP3     18907    TIP3     H2       HT       0.417000       1.00800           0
     79104 TIP3     18908    TIP3     OH2      OT      -0.834000       15.9994           0
     79105 TIP3     18908    TIP3     H1       HT       0.417000       1.00800           0
     79106 TIP3     18908    TIP3     H2       HT       0.417000       1.00800           0
     79107 TIP3     18909    TIP3     OH2      OT      -0.834000       15.9994           0
     79108 TIP3     18909    TIP3     H1       HT       0.417000       1.00800           0
     79109 TIP3     18909    TIP3     H2       HT       0.417000       1.00800           0
     79110 TIP3     18910    TIP3     OH2      OT      -0.834000       15.9994           0
     79111 TIP3     18910    TIP3     H1       HT       0.417000       1.00800           0
     79112 TIP3     18910    TIP3     H2       HT       0.417000       1.00800           0
     79113 TIP3     18911    TIP3     OH2      OT      -0.834000       15.9994           0
     79114 TIP3     18911    TIP3     H1       HT       0.417000       1.00800           0
     79115 TIP3     18911    TIP3     H2       HT       0.417000       1.00800           0
     79116 TIP3     18912    TIP3     OH2      OT      -0.834000       15.9994           0
     79117 TIP3     18912    TIP3     H1       HT       0.417000       1.00800           0
     79118 TIP3     18912    TIP3     H2       HT       0.417000       1.00800           0
     79119 TIP3     18913    TIP3     OH2      OT      -0.834000       15.9994           0
     79120 TIP3     18913    TIP3     H1       HT       0.417000       1.00800           0
     79121 TIP3     18913    TIP3     H2       HT       0.417000       1.00800           0
     79122 TIP3     18914    TIP3     OH2      OT      -0.834000       15.9994           0
     79123 TIP3     18914    TIP3     H1       HT       0.417000       1.00800           0
     79124 TIP3     18914    TIP3     H2       HT       0.417000       1.00800           0
     79125 TIP3     18915    TIP3     OH2      OT      -0.834000       15.9994           0
     79126 TIP3     18915    TIP3     H1       HT       0.417000       1.00800           0
     79127 TIP3     18915    TIP3     H2       HT       0.417000       1.00800           0
     79128 TIP3     18916    TIP3     OH2      OT      -0.834000       15.9994           0
     79129 TIP3     18916    TIP3     H1       HT       0.417000       1.00800           0
     79130 TIP3     18916    TIP3     H2       HT       0.417000       1.00800           0
     79131 TIP3     18917    TIP3     OH2      OT      -0.834000       15.9994           0
     79132 TIP3     18917    TIP3     H1       HT       0.417000       1.00800           0
     79133 TIP3     18917    TIP3     H2       HT       0.417000       1.00800           0
     79134 TIP3     18918    TIP3     OH2      OT      -0.834000       15.9994           0
     79135 TIP3     18918    TIP3     H1       HT       0.417000       1.00800           0
     79136 TIP3     18918    TIP3     H2       HT       0.417000       1.00800           0
     79137 TIP3     18919    TIP3     OH2      OT      -0.834000       15.9994           0
     79138 TIP3     18919    TIP3     H1       HT       0.417000       1.00800           0
     79139 TIP3     18919    TIP3     H2       HT       0.417000       1.00800           0
     79140 TIP3     18920    TIP3     OH2      OT      -0.834000       15.9994           0
     79141 TIP3     18920    TIP3     H1       HT       0.417000       1.00800           0
     79142 TIP3     18920    TIP3     H2       HT       0.417000       1.00800           0
     79143 TIP3     18921    TIP3     OH2      OT      -0.834000       15.9994           0
     79144 TIP3     18921    TIP3     H1       HT       0.417000       1.00800           0
     79145 TIP3     18921    TIP3     H2       HT       0.417000       1.00800           0
     79146 TIP3     18922    TIP3     OH2      OT      -0.834000       15.9994           0
     79147 TIP3     18922    TIP3     H1       HT       0.417000       1.00800           0
     79148 TIP3     18922    TIP3     H2       HT       0.417000       1.00800           0
     79149 TIP3     18923    TIP3     OH2      OT      -0.834000       15.9994           0
     79150 TIP3     18923    TIP3     H1       HT       0.417000       1.00800           0
     79151 TIP3     18923    TIP3     H2       HT       0.417000       1.00800           0
     79152 TIP3     18924    TIP3     OH2      OT      -0.834000       15.9994           0
     79153 TIP3     18924    TIP3     H1       HT       0.417000       1.00800           0
     79154 TIP3     18924    TIP3     H2       HT       0.417000       1.00800           0
     79155 TIP3     18925    TIP3     OH2      OT      -0.834000       15.9994           0
     79156 TIP3     18925    TIP3     H1       HT       0.417000       1.00800           0
     79157 TIP3     18925    TIP3     H2       HT       0.417000       1.00800           0
     79158 TIP3     18926    TIP3     OH2      OT      -0.834000       15.9994           0
     79159 TIP3     18926    TIP3     H1       HT       0.417000       1.00800           0
     79160 TIP3     18926    TIP3     H2       HT       0.417000       1.00800           0
     79161 TIP3     18927    TIP3     OH2      OT      -0.834000       15.9994           0
     79162 TIP3     18927    TIP3     H1       HT       0.417000       1.00800           0
     79163 TIP3     18927    TIP3     H2       HT       0.417000       1.00800           0
     79164 TIP3     18928    TIP3     OH2      OT      -0.834000       15.9994           0
     79165 TIP3     18928    TIP3     H1       HT       0.417000       1.00800           0
     79166 TIP3     18928    TIP3     H2       HT       0.417000       1.00800           0
     79167 TIP3     18929    TIP3     OH2      OT      -0.834000       15.9994           0
     79168 TIP3     18929    TIP3     H1       HT       0.417000       1.00800           0
     79169 TIP3     18929    TIP3     H2       HT       0.417000       1.00800           0
     79170 TIP3     18930    TIP3     OH2      OT      -0.834000       15.9994           0
     79171 TIP3     18930    TIP3     H1       HT       0.417000       1.00800           0
     79172 TIP3     18930    TIP3     H2       HT       0.417000       1.00800           0
     79173 TIP3     18931    TIP3     OH2      OT      -0.834000       15.9994           0
     79174 TIP3     18931    TIP3     H1       HT       0.417000       1.00800           0
     79175 TIP3     18931    TIP3     H2       HT       0.417000       1.00800           0
     79176 TIP3     18932    TIP3     OH2      OT      -0.834000       15.9994           0
     79177 TIP3     18932    TIP3     H1       HT       0.417000       1.00800           0
     79178 TIP3     18932    TIP3     H2       HT       0.417000       1.00800           0
     79179 TIP3     18933    TIP3     OH2      OT      -0.834000       15.9994           0
     79180 TIP3     18933    TIP3     H1       HT       0.417000       1.00800           0
     79181 TIP3     18933    TIP3     H2       HT       0.417000       1.00800           0
     79182 TIP3     18934    TIP3     OH2      OT      -0.834000       15.9994           0
     79183 TIP3     18934    TIP3     H1       HT       0.417000       1.00800           0
     79184 TIP3     18934    TIP3     H2       HT       0.417000       1.00800           0
     79185 TIP3     18935    TIP3     OH2      OT      -0.834000       15.9994           0
     79186 TIP3     18935    TIP3     H1       HT       0.417000       1.00800           0
     79187 TIP3     18935    TIP3     H2       HT       0.417000       1.00800           0
     79188 TIP3     18936    TIP3     OH2      OT      -0.834000       15.9994           0
     79189 TIP3     18936    TIP3     H1       HT       0.417000       1.00800           0
     79190 TIP3     18936    TIP3     H2       HT       0.417000       1.00800           0
     79191 TIP3     18937    TIP3     OH2      OT      -0.834000       15.9994           0
     79192 TIP3     18937    TIP3     H1       HT       0.417000       1.00800           0
     79193 TIP3     18937    TIP3     H2       HT       0.417000       1.00800           0
     79194 TIP3     18938    TIP3     OH2      OT      -0.834000       15.9994           0
     79195 TIP3     18938    TIP3     H1       HT       0.417000       1.00800           0
     79196 TIP3     18938    TIP3     H2       HT       0.417000       1.00800           0
     79197 TIP3     18939    TIP3     OH2      OT      -0.834000       15.9994           0
     79198 TIP3     18939    TIP3     H1       HT       0.417000       1.00800           0
     79199 TIP3     18939    TIP3     H2       HT       0.417000       1.00800           0
     79200 TIP3     18940    TIP3     OH2      OT      -0.834000       15.9994           0
     79201 TIP3     18940    TIP3     H1       HT       0.417000       1.00800           0
     79202 TIP3     18940    TIP3     H2       HT       0.417000       1.00800           0
     79203 TIP3     18941    TIP3     OH2      OT      -0.834000       15.9994           0
     79204 TIP3     18941    TIP3     H1       HT       0.417000       1.00800           0
     79205 TIP3     18941    TIP3     H2       HT       0.417000       1.00800           0
     79206 TIP3     18942    TIP3     OH2      OT      -0.834000       15.9994           0
     79207 TIP3     18942    TIP3     H1       HT       0.417000       1.00800           0
     79208 TIP3     18942    TIP3     H2       HT       0.417000       1.00800           0
     79209 TIP3     18943    TIP3     OH2      OT      -0.834000       15.9994           0
     79210 TIP3     18943    TIP3     H1       HT       0.417000       1.00800           0
     79211 TIP3     18943    TIP3     H2       HT       0.417000       1.00800           0
     79212 TIP3     18944    TIP3     OH2      OT      -0.834000       15.9994           0
     79213 TIP3     18944    TIP3     H1       HT       0.417000       1.00800           0
     79214 TIP3     18944    TIP3     H2       HT       0.417000       1.00800           0
     79215 TIP3     18945    TIP3     OH2      OT      -0.834000       15.9994           0
     79216 TIP3     18945    TIP3     H1       HT       0.417000       1.00800           0
     79217 TIP3     18945    TIP3     H2       HT       0.417000       1.00800           0
     79218 TIP3     18946    TIP3     OH2      OT      -0.834000       15.9994           0
     79219 TIP3     18946    TIP3     H1       HT       0.417000       1.00800           0
     79220 TIP3     18946    TIP3     H2       HT       0.417000       1.00800           0
     79221 TIP3     18947    TIP3     OH2      OT      -0.834000       15.9994           0
     79222 TIP3     18947    TIP3     H1       HT       0.417000       1.00800           0
     79223 TIP3     18947    TIP3     H2       HT       0.417000       1.00800           0
     79224 TIP3     18948    TIP3     OH2      OT      -0.834000       15.9994           0
     79225 TIP3     18948    TIP3     H1       HT       0.417000       1.00800           0
     79226 TIP3     18948    TIP3     H2       HT       0.417000       1.00800           0
     79227 TIP3     18949    TIP3     OH2      OT      -0.834000       15.9994           0
     79228 TIP3     18949    TIP3     H1       HT       0.417000       1.00800           0
     79229 TIP3     18949    TIP3     H2       HT       0.417000       1.00800           0
     79230 TIP3     18950    TIP3     OH2      OT      -0.834000       15.9994           0
     79231 TIP3     18950    TIP3     H1       HT       0.417000       1.00800           0
     79232 TIP3     18950    TIP3     H2       HT       0.417000       1.00800           0
     79233 TIP3     18951    TIP3     OH2      OT      -0.834000       15.9994           0
     79234 TIP3     18951    TIP3     H1       HT       0.417000       1.00800           0
     79235 TIP3     18951    TIP3     H2       HT       0.417000       1.00800           0
     79236 TIP3     18952    TIP3     OH2      OT      -0.834000       15.9994           0
     79237 TIP3     18952    TIP3     H1       HT       0.417000       1.00800           0
     79238 TIP3     18952    TIP3     H2       HT       0.417000       1.00800           0
     79239 TIP3     18953    TIP3     OH2      OT      -0.834000       15.9994           0
     79240 TIP3     18953    TIP3     H1       HT       0.417000       1.00800           0
     79241 TIP3     18953    TIP3     H2       HT       0.417000       1.00800           0
     79242 TIP3     18954    TIP3     OH2      OT      -0.834000       15.9994           0
     79243 TIP3     18954    TIP3     H1       HT       0.417000       1.00800           0
     79244 TIP3     18954    TIP3     H2       HT       0.417000       1.00800           0
     79245 TIP3     18955    TIP3     OH2      OT      -0.834000       15.9994           0
     79246 TIP3     18955    TIP3     H1       HT       0.417000       1.00800           0
     79247 TIP3     18955    TIP3     H2       HT       0.417000       1.00800           0
     79248 TIP3     18956    TIP3     OH2      OT      -0.834000       15.9994           0
     79249 TIP3     18956    TIP3     H1       HT       0.417000       1.00800           0
     79250 TIP3     18956    TIP3     H2       HT       0.417000       1.00800           0
     79251 TIP3     18957    TIP3     OH2      OT      -0.834000       15.9994           0
     79252 TIP3     18957    TIP3     H1       HT       0.417000       1.00800           0
     79253 TIP3     18957    TIP3     H2       HT       0.417000       1.00800           0
     79254 TIP3     18958    TIP3     OH2      OT      -0.834000       15.9994           0
     79255 TIP3     18958    TIP3     H1       HT       0.417000       1.00800           0
     79256 TIP3     18958    TIP3     H2       HT       0.417000       1.00800           0
     79257 TIP3     18959    TIP3     OH2      OT      -0.834000       15.9994           0
     79258 TIP3     18959    TIP3     H1       HT       0.417000       1.00800           0
     79259 TIP3     18959    TIP3     H2       HT       0.417000       1.00800           0
     79260 TIP3     18960    TIP3     OH2      OT      -0.834000       15.9994           0
     79261 TIP3     18960    TIP3     H1       HT       0.417000       1.00800           0
     79262 TIP3     18960    TIP3     H2       HT       0.417000       1.00800           0
     79263 TIP3     18961    TIP3     OH2      OT      -0.834000       15.9994           0
     79264 TIP3     18961    TIP3     H1       HT       0.417000       1.00800           0
     79265 TIP3     18961    TIP3     H2       HT       0.417000       1.00800           0
     79266 TIP3     18962    TIP3     OH2      OT      -0.834000       15.9994           0
     79267 TIP3     18962    TIP3     H1       HT       0.417000       1.00800           0
     79268 TIP3     18962    TIP3     H2       HT       0.417000       1.00800           0
     79269 TIP3     18963    TIP3     OH2      OT      -0.834000       15.9994           0
     79270 TIP3     18963    TIP3     H1       HT       0.417000       1.00800           0
     79271 TIP3     18963    TIP3     H2       HT       0.417000       1.00800           0
     79272 TIP3     18964    TIP3     OH2      OT      -0.834000       15.9994           0
     79273 TIP3     18964    TIP3     H1       HT       0.417000       1.00800           0
     79274 TIP3     18964    TIP3     H2       HT       0.417000       1.00800           0
     79275 TIP3     18965    TIP3     OH2      OT      -0.834000       15.9994           0
     79276 TIP3     18965    TIP3     H1       HT       0.417000       1.00800           0
     79277 TIP3     18965    TIP3     H2       HT       0.417000       1.00800           0
     79278 TIP3     18966    TIP3     OH2      OT      -0.834000       15.9994           0
     79279 TIP3     18966    TIP3     H1       HT       0.417000       1.00800           0
     79280 TIP3     18966    TIP3     H2       HT       0.417000       1.00800           0
     79281 TIP3     18967    TIP3     OH2      OT      -0.834000       15.9994           0
     79282 TIP3     18967    TIP3     H1       HT       0.417000       1.00800           0
     79283 TIP3     18967    TIP3     H2       HT       0.417000       1.00800           0
     79284 TIP3     18968    TIP3     OH2      OT      -0.834000       15.9994           0
     79285 TIP3     18968    TIP3     H1       HT       0.417000       1.00800           0
     79286 TIP3     18968    TIP3     H2       HT       0.417000       1.00800           0
     79287 TIP3     18969    TIP3     OH2      OT      -0.834000       15.9994           0
     79288 TIP3     18969    TIP3     H1       HT       0.417000       1.00800           0
     79289 TIP3     18969    TIP3     H2       HT       0.417000       1.00800           0
     79290 TIP3     18970    TIP3     OH2      OT      -0.834000       15.9994           0
     79291 TIP3     18970    TIP3     H1       HT       0.417000       1.00800           0
     79292 TIP3     18970    TIP3     H2       HT       0.417000       1.00800           0
     79293 TIP3     18971    TIP3     OH2      OT      -0.834000       15.9994           0
     79294 TIP3     18971    TIP3     H1       HT       0.417000       1.00800           0
     79295 TIP3     18971    TIP3     H2       HT       0.417000       1.00800           0
     79296 TIP3     18972    TIP3     OH2      OT      -0.834000       15.9994           0
     79297 TIP3     18972    TIP3     H1       HT       0.417000       1.00800           0
     79298 TIP3     18972    TIP3     H2       HT       0.417000       1.00800           0
     79299 TIP3     18973    TIP3     OH2      OT      -0.834000       15.9994           0
     79300 TIP3     18973    TIP3     H1       HT       0.417000       1.00800           0
     79301 TIP3     18973    TIP3     H2       HT       0.417000       1.00800           0
     79302 TIP3     18974    TIP3     OH2      OT      -0.834000       15.9994           0
     79303 TIP3     18974    TIP3     H1       HT       0.417000       1.00800           0
     79304 TIP3     18974    TIP3     H2       HT       0.417000       1.00800           0
     79305 TIP3     18975    TIP3     OH2      OT      -0.834000       15.9994           0
     79306 TIP3     18975    TIP3     H1       HT       0.417000       1.00800           0
     79307 TIP3     18975    TIP3     H2       HT       0.417000       1.00800           0
     79308 TIP3     18976    TIP3     OH2      OT      -0.834000       15.9994           0
     79309 TIP3     18976    TIP3     H1       HT       0.417000       1.00800           0
     79310 TIP3     18976    TIP3     H2       HT       0.417000       1.00800           0
     79311 TIP3     18977    TIP3     OH2      OT      -0.834000       15.9994           0
     79312 TIP3     18977    TIP3     H1       HT       0.417000       1.00800           0
     79313 TIP3     18977    TIP3     H2       HT       0.417000       1.00800           0
     79314 TIP3     18978    TIP3     OH2      OT      -0.834000       15.9994           0
     79315 TIP3     18978    TIP3     H1       HT       0.417000       1.00800           0
     79316 TIP3     18978    TIP3     H2       HT       0.417000       1.00800           0
     79317 TIP3     18979    TIP3     OH2      OT      -0.834000       15.9994           0
     79318 TIP3     18979    TIP3     H1       HT       0.417000       1.00800           0
     79319 TIP3     18979    TIP3     H2       HT       0.417000       1.00800           0
     79320 TIP3     18980    TIP3     OH2      OT      -0.834000       15.9994           0
     79321 TIP3     18980    TIP3     H1       HT       0.417000       1.00800           0
     79322 TIP3     18980    TIP3     H2       HT       0.417000       1.00800           0
     79323 TIP3     18981    TIP3     OH2      OT      -0.834000       15.9994           0
     79324 TIP3     18981    TIP3     H1       HT       0.417000       1.00800           0
     79325 TIP3     18981    TIP3     H2       HT       0.417000       1.00800           0
     79326 TIP3     18982    TIP3     OH2      OT      -0.834000       15.9994           0
     79327 TIP3     18982    TIP3     H1       HT       0.417000       1.00800           0
     79328 TIP3     18982    TIP3     H2       HT       0.417000       1.00800           0
     79329 TIP3     18983    TIP3     OH2      OT      -0.834000       15.9994           0
     79330 TIP3     18983    TIP3     H1       HT       0.417000       1.00800           0
     79331 TIP3     18983    TIP3     H2       HT       0.417000       1.00800           0
     79332 TIP3     18984    TIP3     OH2      OT      -0.834000       15.9994           0
     79333 TIP3     18984    TIP3     H1       HT       0.417000       1.00800           0
     79334 TIP3     18984    TIP3     H2       HT       0.417000       1.00800           0
     79335 TIP3     18985    TIP3     OH2      OT      -0.834000       15.9994           0
     79336 TIP3     18985    TIP3     H1       HT       0.417000       1.00800           0
     79337 TIP3     18985    TIP3     H2       HT       0.417000       1.00800           0
     79338 TIP3     18986    TIP3     OH2      OT      -0.834000       15.9994           0
     79339 TIP3     18986    TIP3     H1       HT       0.417000       1.00800           0
     79340 TIP3     18986    TIP3     H2       HT       0.417000       1.00800           0
     79341 TIP3     18987    TIP3     OH2      OT      -0.834000       15.9994           0
     79342 TIP3     18987    TIP3     H1       HT       0.417000       1.00800           0
     79343 TIP3     18987    TIP3     H2       HT       0.417000       1.00800           0
     79344 TIP3     18988    TIP3     OH2      OT      -0.834000       15.9994           0
     79345 TIP3     18988    TIP3     H1       HT       0.417000       1.00800           0
     79346 TIP3     18988    TIP3     H2       HT       0.417000       1.00800           0
     79347 TIP3     18989    TIP3     OH2      OT      -0.834000       15.9994           0
     79348 TIP3     18989    TIP3     H1       HT       0.417000       1.00800           0
     79349 TIP3     18989    TIP3     H2       HT       0.417000       1.00800           0
     79350 TIP3     18990    TIP3     OH2      OT      -0.834000       15.9994           0
     79351 TIP3     18990    TIP3     H1       HT       0.417000       1.00800           0
     79352 TIP3     18990    TIP3     H2       HT       0.417000       1.00800           0
     79353 TIP3     18991    TIP3     OH2      OT      -0.834000       15.9994           0
     79354 TIP3     18991    TIP3     H1       HT       0.417000       1.00800           0
     79355 TIP3     18991    TIP3     H2       HT       0.417000       1.00800           0
     79356 TIP3     18992    TIP3     OH2      OT      -0.834000       15.9994           0
     79357 TIP3     18992    TIP3     H1       HT       0.417000       1.00800           0
     79358 TIP3     18992    TIP3     H2       HT       0.417000       1.00800           0
     79359 TIP3     18993    TIP3     OH2      OT      -0.834000       15.9994           0
     79360 TIP3     18993    TIP3     H1       HT       0.417000       1.00800           0
     79361 TIP3     18993    TIP3     H2       HT       0.417000       1.00800           0
     79362 TIP3     18994    TIP3     OH2      OT      -0.834000       15.9994           0
     79363 TIP3     18994    TIP3     H1       HT       0.417000       1.00800           0
     79364 TIP3     18994    TIP3     H2       HT       0.417000       1.00800           0
     79365 TIP3     18995    TIP3     OH2      OT      -0.834000       15.9994           0
     79366 TIP3     18995    TIP3     H1       HT       0.417000       1.00800           0
     79367 TIP3     18995    TIP3     H2       HT       0.417000       1.00800           0
     79368 TIP3     18996    TIP3     OH2      OT      -0.834000       15.9994           0
     79369 TIP3     18996    TIP3     H1       HT       0.417000       1.00800           0
     79370 TIP3     18996    TIP3     H2       HT       0.417000       1.00800           0
     79371 TIP3     18997    TIP3     OH2      OT      -0.834000       15.9994           0
     79372 TIP3     18997    TIP3     H1       HT       0.417000       1.00800           0
     79373 TIP3     18997    TIP3     H2       HT       0.417000       1.00800           0
     79374 TIP3     18998    TIP3     OH2      OT      -0.834000       15.9994           0
     79375 TIP3     18998    TIP3     H1       HT       0.417000       1.00800           0
     79376 TIP3     18998    TIP3     H2       HT       0.417000       1.00800           0
     79377 TIP3     18999    TIP3     OH2      OT      -0.834000       15.9994           0
     79378 TIP3     18999    TIP3     H1       HT       0.417000       1.00800           0
     79379 TIP3     18999    TIP3     H2       HT       0.417000       1.00800           0
     79380 TIP3     19000    TIP3     OH2      OT      -0.834000       15.9994           0
     79381 TIP3     19000    TIP3     H1       HT       0.417000       1.00800           0
     79382 TIP3     19000    TIP3     H2       HT       0.417000       1.00800           0
     79383 TIP3     19001    TIP3     OH2      OT      -0.834000       15.9994           0
     79384 TIP3     19001    TIP3     H1       HT       0.417000       1.00800           0
     79385 TIP3     19001    TIP3     H2       HT       0.417000       1.00800           0
     79386 TIP3     19002    TIP3     OH2      OT      -0.834000       15.9994           0
     79387 TIP3     19002    TIP3     H1       HT       0.417000       1.00800           0
     79388 TIP3     19002    TIP3     H2       HT       0.417000       1.00800           0
     79389 TIP3     19003    TIP3     OH2      OT      -0.834000       15.9994           0
     79390 TIP3     19003    TIP3     H1       HT       0.417000       1.00800           0
     79391 TIP3     19003    TIP3     H2       HT       0.417000       1.00800           0
     79392 TIP3     19004    TIP3     OH2      OT      -0.834000       15.9994           0
     79393 TIP3     19004    TIP3     H1       HT       0.417000       1.00800           0
     79394 TIP3     19004    TIP3     H2       HT       0.417000       1.00800           0
     79395 TIP3     19005    TIP3     OH2      OT      -0.834000       15.9994           0
     79396 TIP3     19005    TIP3     H1       HT       0.417000       1.00800           0
     79397 TIP3     19005    TIP3     H2       HT       0.417000       1.00800           0
     79398 TIP3     19006    TIP3     OH2      OT      -0.834000       15.9994           0
     79399 TIP3     19006    TIP3     H1       HT       0.417000       1.00800           0
     79400 TIP3     19006    TIP3     H2       HT       0.417000       1.00800           0
     79401 TIP3     19007    TIP3     OH2      OT      -0.834000       15.9994           0
     79402 TIP3     19007    TIP3     H1       HT       0.417000       1.00800           0
     79403 TIP3     19007    TIP3     H2       HT       0.417000       1.00800           0
     79404 TIP3     19008    TIP3     OH2      OT      -0.834000       15.9994           0
     79405 TIP3     19008    TIP3     H1       HT       0.417000       1.00800           0
     79406 TIP3     19008    TIP3     H2       HT       0.417000       1.00800           0
     79407 TIP3     19009    TIP3     OH2      OT      -0.834000       15.9994           0
     79408 TIP3     19009    TIP3     H1       HT       0.417000       1.00800           0
     79409 TIP3     19009    TIP3     H2       HT       0.417000       1.00800           0
     79410 TIP3     19010    TIP3     OH2      OT      -0.834000       15.9994           0
     79411 TIP3     19010    TIP3     H1       HT       0.417000       1.00800           0
     79412 TIP3     19010    TIP3     H2       HT       0.417000       1.00800           0
     79413 TIP3     19011    TIP3     OH2      OT      -0.834000       15.9994           0
     79414 TIP3     19011    TIP3     H1       HT       0.417000       1.00800           0
     79415 TIP3     19011    TIP3     H2       HT       0.417000       1.00800           0
     79416 TIP3     19012    TIP3     OH2      OT      -0.834000       15.9994           0
     79417 TIP3     19012    TIP3     H1       HT       0.417000       1.00800           0
     79418 TIP3     19012    TIP3     H2       HT       0.417000       1.00800           0
     79419 TIP3     19013    TIP3     OH2      OT      -0.834000       15.9994           0
     79420 TIP3     19013    TIP3     H1       HT       0.417000       1.00800           0
     79421 TIP3     19013    TIP3     H2       HT       0.417000       1.00800           0
     79422 TIP3     19014    TIP3     OH2      OT      -0.834000       15.9994           0
     79423 TIP3     19014    TIP3     H1       HT       0.417000       1.00800           0
     79424 TIP3     19014    TIP3     H2       HT       0.417000       1.00800           0
     79425 TIP3     19015    TIP3     OH2      OT      -0.834000       15.9994           0
     79426 TIP3     19015    TIP3     H1       HT       0.417000       1.00800           0
     79427 TIP3     19015    TIP3     H2       HT       0.417000       1.00800           0
     79428 TIP3     19016    TIP3     OH2      OT      -0.834000       15.9994           0
     79429 TIP3     19016    TIP3     H1       HT       0.417000       1.00800           0
     79430 TIP3     19016    TIP3     H2       HT       0.417000       1.00800           0
     79431 TIP3     19017    TIP3     OH2      OT      -0.834000       15.9994           0
     79432 TIP3     19017    TIP3     H1       HT       0.417000       1.00800           0
     79433 TIP3     19017    TIP3     H2       HT       0.417000       1.00800           0
     79434 TIP3     19018    TIP3     OH2      OT      -0.834000       15.9994           0
     79435 TIP3     19018    TIP3     H1       HT       0.417000       1.00800           0
     79436 TIP3     19018    TIP3     H2       HT       0.417000       1.00800           0
     79437 TIP3     19019    TIP3     OH2      OT      -0.834000       15.9994           0
     79438 TIP3     19019    TIP3     H1       HT       0.417000       1.00800           0
     79439 TIP3     19019    TIP3     H2       HT       0.417000       1.00800           0
     79440 TIP3     19020    TIP3     OH2      OT      -0.834000       15.9994           0
     79441 TIP3     19020    TIP3     H1       HT       0.417000       1.00800           0
     79442 TIP3     19020    TIP3     H2       HT       0.417000       1.00800           0
     79443 TIP3     19021    TIP3     OH2      OT      -0.834000       15.9994           0
     79444 TIP3     19021    TIP3     H1       HT       0.417000       1.00800           0
     79445 TIP3     19021    TIP3     H2       HT       0.417000       1.00800           0
     79446 TIP3     19022    TIP3     OH2      OT      -0.834000       15.9994           0
     79447 TIP3     19022    TIP3     H1       HT       0.417000       1.00800           0
     79448 TIP3     19022    TIP3     H2       HT       0.417000       1.00800           0
     79449 TIP3     19023    TIP3     OH2      OT      -0.834000       15.9994           0
     79450 TIP3     19023    TIP3     H1       HT       0.417000       1.00800           0
     79451 TIP3     19023    TIP3     H2       HT       0.417000       1.00800           0
     79452 TIP3     19024    TIP3     OH2      OT      -0.834000       15.9994           0
     79453 TIP3     19024    TIP3     H1       HT       0.417000       1.00800           0
     79454 TIP3     19024    TIP3     H2       HT       0.417000       1.00800           0
     79455 TIP3     19025    TIP3     OH2      OT      -0.834000       15.9994           0
     79456 TIP3     19025    TIP3     H1       HT       0.417000       1.00800           0
     79457 TIP3     19025    TIP3     H2       HT       0.417000       1.00800           0
     79458 TIP3     19026    TIP3     OH2      OT      -0.834000       15.9994           0
     79459 TIP3     19026    TIP3     H1       HT       0.417000       1.00800           0
     79460 TIP3     19026    TIP3     H2       HT       0.417000       1.00800           0
     79461 TIP3     19027    TIP3     OH2      OT      -0.834000       15.9994           0
     79462 TIP3     19027    TIP3     H1       HT       0.417000       1.00800           0
     79463 TIP3     19027    TIP3     H2       HT       0.417000       1.00800           0
     79464 TIP3     19028    TIP3     OH2      OT      -0.834000       15.9994           0
     79465 TIP3     19028    TIP3     H1       HT       0.417000       1.00800           0
     79466 TIP3     19028    TIP3     H2       HT       0.417000       1.00800           0
     79467 TIP3     19029    TIP3     OH2      OT      -0.834000       15.9994           0
     79468 TIP3     19029    TIP3     H1       HT       0.417000       1.00800           0
     79469 TIP3     19029    TIP3     H2       HT       0.417000       1.00800           0
     79470 TIP3     19030    TIP3     OH2      OT      -0.834000       15.9994           0
     79471 TIP3     19030    TIP3     H1       HT       0.417000       1.00800           0
     79472 TIP3     19030    TIP3     H2       HT       0.417000       1.00800           0
     79473 TIP3     19031    TIP3     OH2      OT      -0.834000       15.9994           0
     79474 TIP3     19031    TIP3     H1       HT       0.417000       1.00800           0
     79475 TIP3     19031    TIP3     H2       HT       0.417000       1.00800           0
     79476 TIP3     19032    TIP3     OH2      OT      -0.834000       15.9994           0
     79477 TIP3     19032    TIP3     H1       HT       0.417000       1.00800           0
     79478 TIP3     19032    TIP3     H2       HT       0.417000       1.00800           0
     79479 TIP3     19033    TIP3     OH2      OT      -0.834000       15.9994           0
     79480 TIP3     19033    TIP3     H1       HT       0.417000       1.00800           0
     79481 TIP3     19033    TIP3     H2       HT       0.417000       1.00800           0
     79482 TIP3     19034    TIP3     OH2      OT      -0.834000       15.9994           0
     79483 TIP3     19034    TIP3     H1       HT       0.417000       1.00800           0
     79484 TIP3     19034    TIP3     H2       HT       0.417000       1.00800           0
     79485 TIP3     19035    TIP3     OH2      OT      -0.834000       15.9994           0
     79486 TIP3     19035    TIP3     H1       HT       0.417000       1.00800           0
     79487 TIP3     19035    TIP3     H2       HT       0.417000       1.00800           0
     79488 TIP3     19036    TIP3     OH2      OT      -0.834000       15.9994           0
     79489 TIP3     19036    TIP3     H1       HT       0.417000       1.00800           0
     79490 TIP3     19036    TIP3     H2       HT       0.417000       1.00800           0
     79491 TIP3     19037    TIP3     OH2      OT      -0.834000       15.9994           0
     79492 TIP3     19037    TIP3     H1       HT       0.417000       1.00800           0
     79493 TIP3     19037    TIP3     H2       HT       0.417000       1.00800           0
     79494 TIP3     19038    TIP3     OH2      OT      -0.834000       15.9994           0
     79495 TIP3     19038    TIP3     H1       HT       0.417000       1.00800           0
     79496 TIP3     19038    TIP3     H2       HT       0.417000       1.00800           0
     79497 TIP3     19039    TIP3     OH2      OT      -0.834000       15.9994           0
     79498 TIP3     19039    TIP3     H1       HT       0.417000       1.00800           0
     79499 TIP3     19039    TIP3     H2       HT       0.417000       1.00800           0
     79500 TIP3     19040    TIP3     OH2      OT      -0.834000       15.9994           0
     79501 TIP3     19040    TIP3     H1       HT       0.417000       1.00800           0
     79502 TIP3     19040    TIP3     H2       HT       0.417000       1.00800           0
     79503 TIP3     19041    TIP3     OH2      OT      -0.834000       15.9994           0
     79504 TIP3     19041    TIP3     H1       HT       0.417000       1.00800           0
     79505 TIP3     19041    TIP3     H2       HT       0.417000       1.00800           0
     79506 TIP3     19042    TIP3     OH2      OT      -0.834000       15.9994           0
     79507 TIP3     19042    TIP3     H1       HT       0.417000       1.00800           0
     79508 TIP3     19042    TIP3     H2       HT       0.417000       1.00800           0
     79509 TIP3     19043    TIP3     OH2      OT      -0.834000       15.9994           0
     79510 TIP3     19043    TIP3     H1       HT       0.417000       1.00800           0
     79511 TIP3     19043    TIP3     H2       HT       0.417000       1.00800           0
     79512 TIP3     19044    TIP3     OH2      OT      -0.834000       15.9994           0
     79513 TIP3     19044    TIP3     H1       HT       0.417000       1.00800           0
     79514 TIP3     19044    TIP3     H2       HT       0.417000       1.00800           0
     79515 TIP3     19045    TIP3     OH2      OT      -0.834000       15.9994           0
     79516 TIP3     19045    TIP3     H1       HT       0.417000       1.00800           0
     79517 TIP3     19045    TIP3     H2       HT       0.417000       1.00800           0
     79518 TIP3     19046    TIP3     OH2      OT      -0.834000       15.9994           0
     79519 TIP3     19046    TIP3     H1       HT       0.417000       1.00800           0
     79520 TIP3     19046    TIP3     H2       HT       0.417000       1.00800           0
     79521 TIP3     19047    TIP3     OH2      OT      -0.834000       15.9994           0
     79522 TIP3     19047    TIP3     H1       HT       0.417000       1.00800           0
     79523 TIP3     19047    TIP3     H2       HT       0.417000       1.00800           0
     79524 TIP3     19048    TIP3     OH2      OT      -0.834000       15.9994           0
     79525 TIP3     19048    TIP3     H1       HT       0.417000       1.00800           0
     79526 TIP3     19048    TIP3     H2       HT       0.417000       1.00800           0
     79527 TIP3     19049    TIP3     OH2      OT      -0.834000       15.9994           0
     79528 TIP3     19049    TIP3     H1       HT       0.417000       1.00800           0
     79529 TIP3     19049    TIP3     H2       HT       0.417000       1.00800           0
     79530 TIP3     19050    TIP3     OH2      OT      -0.834000       15.9994           0
     79531 TIP3     19050    TIP3     H1       HT       0.417000       1.00800           0
     79532 TIP3     19050    TIP3     H2       HT       0.417000       1.00800           0
     79533 TIP3     19051    TIP3     OH2      OT      -0.834000       15.9994           0
     79534 TIP3     19051    TIP3     H1       HT       0.417000       1.00800           0
     79535 TIP3     19051    TIP3     H2       HT       0.417000       1.00800           0
     79536 TIP3     19052    TIP3     OH2      OT      -0.834000       15.9994           0
     79537 TIP3     19052    TIP3     H1       HT       0.417000       1.00800           0
     79538 TIP3     19052    TIP3     H2       HT       0.417000       1.00800           0
     79539 TIP3     19053    TIP3     OH2      OT      -0.834000       15.9994           0
     79540 TIP3     19053    TIP3     H1       HT       0.417000       1.00800           0
     79541 TIP3     19053    TIP3     H2       HT       0.417000       1.00800           0
     79542 TIP3     19054    TIP3     OH2      OT      -0.834000       15.9994           0
     79543 TIP3     19054    TIP3     H1       HT       0.417000       1.00800           0
     79544 TIP3     19054    TIP3     H2       HT       0.417000       1.00800           0
     79545 TIP3     19055    TIP3     OH2      OT      -0.834000       15.9994           0
     79546 TIP3     19055    TIP3     H1       HT       0.417000       1.00800           0
     79547 TIP3     19055    TIP3     H2       HT       0.417000       1.00800           0
     79548 TIP3     19056    TIP3     OH2      OT      -0.834000       15.9994           0
     79549 TIP3     19056    TIP3     H1       HT       0.417000       1.00800           0
     79550 TIP3     19056    TIP3     H2       HT       0.417000       1.00800           0
     79551 TIP3     19057    TIP3     OH2      OT      -0.834000       15.9994           0
     79552 TIP3     19057    TIP3     H1       HT       0.417000       1.00800           0
     79553 TIP3     19057    TIP3     H2       HT       0.417000       1.00800           0
     79554 TIP3     19058    TIP3     OH2      OT      -0.834000       15.9994           0
     79555 TIP3     19058    TIP3     H1       HT       0.417000       1.00800           0
     79556 TIP3     19058    TIP3     H2       HT       0.417000       1.00800           0
     79557 TIP3     19059    TIP3     OH2      OT      -0.834000       15.9994           0
     79558 TIP3     19059    TIP3     H1       HT       0.417000       1.00800           0
     79559 TIP3     19059    TIP3     H2       HT       0.417000       1.00800           0
     79560 TIP3     19060    TIP3     OH2      OT      -0.834000       15.9994           0
     79561 TIP3     19060    TIP3     H1       HT       0.417000       1.00800           0
     79562 TIP3     19060    TIP3     H2       HT       0.417000       1.00800           0
     79563 TIP3     19061    TIP3     OH2      OT      -0.834000       15.9994           0
     79564 TIP3     19061    TIP3     H1       HT       0.417000       1.00800           0
     79565 TIP3     19061    TIP3     H2       HT       0.417000       1.00800           0
     79566 TIP3     19062    TIP3     OH2      OT      -0.834000       15.9994           0
     79567 TIP3     19062    TIP3     H1       HT       0.417000       1.00800           0
     79568 TIP3     19062    TIP3     H2       HT       0.417000       1.00800           0
     79569 TIP3     19063    TIP3     OH2      OT      -0.834000       15.9994           0
     79570 TIP3     19063    TIP3     H1       HT       0.417000       1.00800           0
     79571 TIP3     19063    TIP3     H2       HT       0.417000       1.00800           0
     79572 TIP3     19064    TIP3     OH2      OT      -0.834000       15.9994           0
     79573 TIP3     19064    TIP3     H1       HT       0.417000       1.00800           0
     79574 TIP3     19064    TIP3     H2       HT       0.417000       1.00800           0
     79575 TIP3     19065    TIP3     OH2      OT      -0.834000       15.9994           0
     79576 TIP3     19065    TIP3     H1       HT       0.417000       1.00800           0
     79577 TIP3     19065    TIP3     H2       HT       0.417000       1.00800           0
     79578 TIP3     19066    TIP3     OH2      OT      -0.834000       15.9994           0
     79579 TIP3     19066    TIP3     H1       HT       0.417000       1.00800           0
     79580 TIP3     19066    TIP3     H2       HT       0.417000       1.00800           0
     79581 TIP3     19067    TIP3     OH2      OT      -0.834000       15.9994           0
     79582 TIP3     19067    TIP3     H1       HT       0.417000       1.00800           0
     79583 TIP3     19067    TIP3     H2       HT       0.417000       1.00800           0
     79584 TIP3     19068    TIP3     OH2      OT      -0.834000       15.9994           0
     79585 TIP3     19068    TIP3     H1       HT       0.417000       1.00800           0
     79586 TIP3     19068    TIP3     H2       HT       0.417000       1.00800           0
     79587 TIP3     19069    TIP3     OH2      OT      -0.834000       15.9994           0
     79588 TIP3     19069    TIP3     H1       HT       0.417000       1.00800           0
     79589 TIP3     19069    TIP3     H2       HT       0.417000       1.00800           0
     79590 TIP3     19070    TIP3     OH2      OT      -0.834000       15.9994           0
     79591 TIP3     19070    TIP3     H1       HT       0.417000       1.00800           0
     79592 TIP3     19070    TIP3     H2       HT       0.417000       1.00800           0
     79593 TIP3     19071    TIP3     OH2      OT      -0.834000       15.9994           0
     79594 TIP3     19071    TIP3     H1       HT       0.417000       1.00800           0
     79595 TIP3     19071    TIP3     H2       HT       0.417000       1.00800           0
     79596 TIP3     19072    TIP3     OH2      OT      -0.834000       15.9994           0
     79597 TIP3     19072    TIP3     H1       HT       0.417000       1.00800           0
     79598 TIP3     19072    TIP3     H2       HT       0.417000       1.00800           0
     79599 TIP3     19073    TIP3     OH2      OT      -0.834000       15.9994           0
     79600 TIP3     19073    TIP3     H1       HT       0.417000       1.00800           0
     79601 TIP3     19073    TIP3     H2       HT       0.417000       1.00800           0
     79602 TIP3     19074    TIP3     OH2      OT      -0.834000       15.9994           0
     79603 TIP3     19074    TIP3     H1       HT       0.417000       1.00800           0
     79604 TIP3     19074    TIP3     H2       HT       0.417000       1.00800           0
     79605 TIP3     19075    TIP3     OH2      OT      -0.834000       15.9994           0
     79606 TIP3     19075    TIP3     H1       HT       0.417000       1.00800           0
     79607 TIP3     19075    TIP3     H2       HT       0.417000       1.00800           0
     79608 TIP3     19076    TIP3     OH2      OT      -0.834000       15.9994           0
     79609 TIP3     19076    TIP3     H1       HT       0.417000       1.00800           0
     79610 TIP3     19076    TIP3     H2       HT       0.417000       1.00800           0
     79611 TIP3     19077    TIP3     OH2      OT      -0.834000       15.9994           0
     79612 TIP3     19077    TIP3     H1       HT       0.417000       1.00800           0
     79613 TIP3     19077    TIP3     H2       HT       0.417000       1.00800           0
     79614 TIP3     19078    TIP3     OH2      OT      -0.834000       15.9994           0
     79615 TIP3     19078    TIP3     H1       HT       0.417000       1.00800           0
     79616 TIP3     19078    TIP3     H2       HT       0.417000       1.00800           0
     79617 TIP3     19079    TIP3     OH2      OT      -0.834000       15.9994           0
     79618 TIP3     19079    TIP3     H1       HT       0.417000       1.00800           0
     79619 TIP3     19079    TIP3     H2       HT       0.417000       1.00800           0
     79620 TIP3     19080    TIP3     OH2      OT      -0.834000       15.9994           0
     79621 TIP3     19080    TIP3     H1       HT       0.417000       1.00800           0
     79622 TIP3     19080    TIP3     H2       HT       0.417000       1.00800           0
     79623 TIP3     19081    TIP3     OH2      OT      -0.834000       15.9994           0
     79624 TIP3     19081    TIP3     H1       HT       0.417000       1.00800           0
     79625 TIP3     19081    TIP3     H2       HT       0.417000       1.00800           0
     79626 TIP3     19082    TIP3     OH2      OT      -0.834000       15.9994           0
     79627 TIP3     19082    TIP3     H1       HT       0.417000       1.00800           0
     79628 TIP3     19082    TIP3     H2       HT       0.417000       1.00800           0
     79629 TIP3     19083    TIP3     OH2      OT      -0.834000       15.9994           0
     79630 TIP3     19083    TIP3     H1       HT       0.417000       1.00800           0
     79631 TIP3     19083    TIP3     H2       HT       0.417000       1.00800           0
     79632 TIP3     19084    TIP3     OH2      OT      -0.834000       15.9994           0
     79633 TIP3     19084    TIP3     H1       HT       0.417000       1.00800           0
     79634 TIP3     19084    TIP3     H2       HT       0.417000       1.00800           0
     79635 TIP3     19085    TIP3     OH2      OT      -0.834000       15.9994           0
     79636 TIP3     19085    TIP3     H1       HT       0.417000       1.00800           0
     79637 TIP3     19085    TIP3     H2       HT       0.417000       1.00800           0
     79638 TIP3     19086    TIP3     OH2      OT      -0.834000       15.9994           0
     79639 TIP3     19086    TIP3     H1       HT       0.417000       1.00800           0
     79640 TIP3     19086    TIP3     H2       HT       0.417000       1.00800           0
     79641 TIP3     19087    TIP3     OH2      OT      -0.834000       15.9994           0
     79642 TIP3     19087    TIP3     H1       HT       0.417000       1.00800           0
     79643 TIP3     19087    TIP3     H2       HT       0.417000       1.00800           0
     79644 TIP3     19088    TIP3     OH2      OT      -0.834000       15.9994           0
     79645 TIP3     19088    TIP3     H1       HT       0.417000       1.00800           0
     79646 TIP3     19088    TIP3     H2       HT       0.417000       1.00800           0
     79647 TIP3     19089    TIP3     OH2      OT      -0.834000       15.9994           0
     79648 TIP3     19089    TIP3     H1       HT       0.417000       1.00800           0
     79649 TIP3     19089    TIP3     H2       HT       0.417000       1.00800           0
     79650 TIP3     19090    TIP3     OH2      OT      -0.834000       15.9994           0
     79651 TIP3     19090    TIP3     H1       HT       0.417000       1.00800           0
     79652 TIP3     19090    TIP3     H2       HT       0.417000       1.00800           0
     79653 TIP3     19091    TIP3     OH2      OT      -0.834000       15.9994           0
     79654 TIP3     19091    TIP3     H1       HT       0.417000       1.00800           0
     79655 TIP3     19091    TIP3     H2       HT       0.417000       1.00800           0
     79656 TIP3     19092    TIP3     OH2      OT      -0.834000       15.9994           0
     79657 TIP3     19092    TIP3     H1       HT       0.417000       1.00800           0
     79658 TIP3     19092    TIP3     H2       HT       0.417000       1.00800           0
     79659 TIP3     19093    TIP3     OH2      OT      -0.834000       15.9994           0
     79660 TIP3     19093    TIP3     H1       HT       0.417000       1.00800           0
     79661 TIP3     19093    TIP3     H2       HT       0.417000       1.00800           0
     79662 TIP3     19094    TIP3     OH2      OT      -0.834000       15.9994           0
     79663 TIP3     19094    TIP3     H1       HT       0.417000       1.00800           0
     79664 TIP3     19094    TIP3     H2       HT       0.417000       1.00800           0
     79665 TIP3     19095    TIP3     OH2      OT      -0.834000       15.9994           0
     79666 TIP3     19095    TIP3     H1       HT       0.417000       1.00800           0
     79667 TIP3     19095    TIP3     H2       HT       0.417000       1.00800           0
     79668 TIP3     19096    TIP3     OH2      OT      -0.834000       15.9994           0
     79669 TIP3     19096    TIP3     H1       HT       0.417000       1.00800           0
     79670 TIP3     19096    TIP3     H2       HT       0.417000       1.00800           0
     79671 TIP3     19097    TIP3     OH2      OT      -0.834000       15.9994           0
     79672 TIP3     19097    TIP3     H1       HT       0.417000       1.00800           0
     79673 TIP3     19097    TIP3     H2       HT       0.417000       1.00800           0
     79674 TIP3     19098    TIP3     OH2      OT      -0.834000       15.9994           0
     79675 TIP3     19098    TIP3     H1       HT       0.417000       1.00800           0
     79676 TIP3     19098    TIP3     H2       HT       0.417000       1.00800           0
     79677 TIP3     19099    TIP3     OH2      OT      -0.834000       15.9994           0
     79678 TIP3     19099    TIP3     H1       HT       0.417000       1.00800           0
     79679 TIP3     19099    TIP3     H2       HT       0.417000       1.00800           0
     79680 TIP3     19100    TIP3     OH2      OT      -0.834000       15.9994           0
     79681 TIP3     19100    TIP3     H1       HT       0.417000       1.00800           0
     79682 TIP3     19100    TIP3     H2       HT       0.417000       1.00800           0
     79683 TIP3     19101    TIP3     OH2      OT      -0.834000       15.9994           0
     79684 TIP3     19101    TIP3     H1       HT       0.417000       1.00800           0
     79685 TIP3     19101    TIP3     H2       HT       0.417000       1.00800           0
     79686 TIP3     19102    TIP3     OH2      OT      -0.834000       15.9994           0
     79687 TIP3     19102    TIP3     H1       HT       0.417000       1.00800           0
     79688 TIP3     19102    TIP3     H2       HT       0.417000       1.00800           0
     79689 TIP3     19103    TIP3     OH2      OT      -0.834000       15.9994           0
     79690 TIP3     19103    TIP3     H1       HT       0.417000       1.00800           0
     79691 TIP3     19103    TIP3     H2       HT       0.417000       1.00800           0
     79692 TIP3     19104    TIP3     OH2      OT      -0.834000       15.9994           0
     79693 TIP3     19104    TIP3     H1       HT       0.417000       1.00800           0
     79694 TIP3     19104    TIP3     H2       HT       0.417000       1.00800           0
     79695 TIP3     19105    TIP3     OH2      OT      -0.834000       15.9994           0
     79696 TIP3     19105    TIP3     H1       HT       0.417000       1.00800           0
     79697 TIP3     19105    TIP3     H2       HT       0.417000       1.00800           0
     79698 TIP3     19106    TIP3     OH2      OT      -0.834000       15.9994           0
     79699 TIP3     19106    TIP3     H1       HT       0.417000       1.00800           0
     79700 TIP3     19106    TIP3     H2       HT       0.417000       1.00800           0
     79701 TIP3     19107    TIP3     OH2      OT      -0.834000       15.9994           0
     79702 TIP3     19107    TIP3     H1       HT       0.417000       1.00800           0
     79703 TIP3     19107    TIP3     H2       HT       0.417000       1.00800           0
     79704 TIP3     19108    TIP3     OH2      OT      -0.834000       15.9994           0
     79705 TIP3     19108    TIP3     H1       HT       0.417000       1.00800           0
     79706 TIP3     19108    TIP3     H2       HT       0.417000       1.00800           0
     79707 TIP3     19109    TIP3     OH2      OT      -0.834000       15.9994           0
     79708 TIP3     19109    TIP3     H1       HT       0.417000       1.00800           0
     79709 TIP3     19109    TIP3     H2       HT       0.417000       1.00800           0
     79710 TIP3     19110    TIP3     OH2      OT      -0.834000       15.9994           0
     79711 TIP3     19110    TIP3     H1       HT       0.417000       1.00800           0
     79712 TIP3     19110    TIP3     H2       HT       0.417000       1.00800           0
     79713 TIP3     19111    TIP3     OH2      OT      -0.834000       15.9994           0
     79714 TIP3     19111    TIP3     H1       HT       0.417000       1.00800           0
     79715 TIP3     19111    TIP3     H2       HT       0.417000       1.00800           0
     79716 TIP3     19112    TIP3     OH2      OT      -0.834000       15.9994           0
     79717 TIP3     19112    TIP3     H1       HT       0.417000       1.00800           0
     79718 TIP3     19112    TIP3     H2       HT       0.417000       1.00800           0
     79719 TIP3     19113    TIP3     OH2      OT      -0.834000       15.9994           0
     79720 TIP3     19113    TIP3     H1       HT       0.417000       1.00800           0
     79721 TIP3     19113    TIP3     H2       HT       0.417000       1.00800           0
     79722 TIP3     19114    TIP3     OH2      OT      -0.834000       15.9994           0
     79723 TIP3     19114    TIP3     H1       HT       0.417000       1.00800           0
     79724 TIP3     19114    TIP3     H2       HT       0.417000       1.00800           0
     79725 TIP3     19115    TIP3     OH2      OT      -0.834000       15.9994           0
     79726 TIP3     19115    TIP3     H1       HT       0.417000       1.00800           0
     79727 TIP3     19115    TIP3     H2       HT       0.417000       1.00800           0
     79728 TIP3     19116    TIP3     OH2      OT      -0.834000       15.9994           0
     79729 TIP3     19116    TIP3     H1       HT       0.417000       1.00800           0
     79730 TIP3     19116    TIP3     H2       HT       0.417000       1.00800           0
     79731 TIP3     19117    TIP3     OH2      OT      -0.834000       15.9994           0
     79732 TIP3     19117    TIP3     H1       HT       0.417000       1.00800           0
     79733 TIP3     19117    TIP3     H2       HT       0.417000       1.00800           0
     79734 TIP3     19118    TIP3     OH2      OT      -0.834000       15.9994           0
     79735 TIP3     19118    TIP3     H1       HT       0.417000       1.00800           0
     79736 TIP3     19118    TIP3     H2       HT       0.417000       1.00800           0
     79737 TIP3     19119    TIP3     OH2      OT      -0.834000       15.9994           0
     79738 TIP3     19119    TIP3     H1       HT       0.417000       1.00800           0
     79739 TIP3     19119    TIP3     H2       HT       0.417000       1.00800           0
     79740 TIP3     19120    TIP3     OH2      OT      -0.834000       15.9994           0
     79741 TIP3     19120    TIP3     H1       HT       0.417000       1.00800           0
     79742 TIP3     19120    TIP3     H2       HT       0.417000       1.00800           0
     79743 TIP3     19121    TIP3     OH2      OT      -0.834000       15.9994           0
     79744 TIP3     19121    TIP3     H1       HT       0.417000       1.00800           0
     79745 TIP3     19121    TIP3     H2       HT       0.417000       1.00800           0
     79746 TIP3     19122    TIP3     OH2      OT      -0.834000       15.9994           0
     79747 TIP3     19122    TIP3     H1       HT       0.417000       1.00800           0
     79748 TIP3     19122    TIP3     H2       HT       0.417000       1.00800           0
     79749 TIP3     19123    TIP3     OH2      OT      -0.834000       15.9994           0
     79750 TIP3     19123    TIP3     H1       HT       0.417000       1.00800           0
     79751 TIP3     19123    TIP3     H2       HT       0.417000       1.00800           0
     79752 TIP3     19124    TIP3     OH2      OT      -0.834000       15.9994           0
     79753 TIP3     19124    TIP3     H1       HT       0.417000       1.00800           0
     79754 TIP3     19124    TIP3     H2       HT       0.417000       1.00800           0
     79755 TIP3     19125    TIP3     OH2      OT      -0.834000       15.9994           0
     79756 TIP3     19125    TIP3     H1       HT       0.417000       1.00800           0
     79757 TIP3     19125    TIP3     H2       HT       0.417000       1.00800           0
     79758 TIP3     19126    TIP3     OH2      OT      -0.834000       15.9994           0
     79759 TIP3     19126    TIP3     H1       HT       0.417000       1.00800           0
     79760 TIP3     19126    TIP3     H2       HT       0.417000       1.00800           0
     79761 TIP3     19127    TIP3     OH2      OT      -0.834000       15.9994           0
     79762 TIP3     19127    TIP3     H1       HT       0.417000       1.00800           0
     79763 TIP3     19127    TIP3     H2       HT       0.417000       1.00800           0
     79764 TIP3     19128    TIP3     OH2      OT      -0.834000       15.9994           0
     79765 TIP3     19128    TIP3     H1       HT       0.417000       1.00800           0
     79766 TIP3     19128    TIP3     H2       HT       0.417000       1.00800           0
     79767 TIP3     19129    TIP3     OH2      OT      -0.834000       15.9994           0
     79768 TIP3     19129    TIP3     H1       HT       0.417000       1.00800           0
     79769 TIP3     19129    TIP3     H2       HT       0.417000       1.00800           0
     79770 TIP3     19130    TIP3     OH2      OT      -0.834000       15.9994           0
     79771 TIP3     19130    TIP3     H1       HT       0.417000       1.00800           0
     79772 TIP3     19130    TIP3     H2       HT       0.417000       1.00800           0
     79773 TIP3     19131    TIP3     OH2      OT      -0.834000       15.9994           0
     79774 TIP3     19131    TIP3     H1       HT       0.417000       1.00800           0
     79775 TIP3     19131    TIP3     H2       HT       0.417000       1.00800           0
     79776 TIP3     19132    TIP3     OH2      OT      -0.834000       15.9994           0
     79777 TIP3     19132    TIP3     H1       HT       0.417000       1.00800           0
     79778 TIP3     19132    TIP3     H2       HT       0.417000       1.00800           0
     79779 TIP3     19133    TIP3     OH2      OT      -0.834000       15.9994           0
     79780 TIP3     19133    TIP3     H1       HT       0.417000       1.00800           0
     79781 TIP3     19133    TIP3     H2       HT       0.417000       1.00800           0
     79782 TIP3     19134    TIP3     OH2      OT      -0.834000       15.9994           0
     79783 TIP3     19134    TIP3     H1       HT       0.417000       1.00800           0
     79784 TIP3     19134    TIP3     H2       HT       0.417000       1.00800           0
     79785 TIP3     19135    TIP3     OH2      OT      -0.834000       15.9994           0
     79786 TIP3     19135    TIP3     H1       HT       0.417000       1.00800           0
     79787 TIP3     19135    TIP3     H2       HT       0.417000       1.00800           0
     79788 TIP3     19136    TIP3     OH2      OT      -0.834000       15.9994           0
     79789 TIP3     19136    TIP3     H1       HT       0.417000       1.00800           0
     79790 TIP3     19136    TIP3     H2       HT       0.417000       1.00800           0
     79791 TIP3     19137    TIP3     OH2      OT      -0.834000       15.9994           0
     79792 TIP3     19137    TIP3     H1       HT       0.417000       1.00800           0
     79793 TIP3     19137    TIP3     H2       HT       0.417000       1.00800           0
     79794 TIP3     19138    TIP3     OH2      OT      -0.834000       15.9994           0
     79795 TIP3     19138    TIP3     H1       HT       0.417000       1.00800           0
     79796 TIP3     19138    TIP3     H2       HT       0.417000       1.00800           0
     79797 TIP3     19139    TIP3     OH2      OT      -0.834000       15.9994           0
     79798 TIP3     19139    TIP3     H1       HT       0.417000       1.00800           0
     79799 TIP3     19139    TIP3     H2       HT       0.417000       1.00800           0
     79800 TIP3     19140    TIP3     OH2      OT      -0.834000       15.9994           0
     79801 TIP3     19140    TIP3     H1       HT       0.417000       1.00800           0
     79802 TIP3     19140    TIP3     H2       HT       0.417000       1.00800           0
     79803 TIP3     19141    TIP3     OH2      OT      -0.834000       15.9994           0
     79804 TIP3     19141    TIP3     H1       HT       0.417000       1.00800           0
     79805 TIP3     19141    TIP3     H2       HT       0.417000       1.00800           0
     79806 TIP3     19142    TIP3     OH2      OT      -0.834000       15.9994           0
     79807 TIP3     19142    TIP3     H1       HT       0.417000       1.00800           0
     79808 TIP3     19142    TIP3     H2       HT       0.417000       1.00800           0
     79809 TIP3     19143    TIP3     OH2      OT      -0.834000       15.9994           0
     79810 TIP3     19143    TIP3     H1       HT       0.417000       1.00800           0
     79811 TIP3     19143    TIP3     H2       HT       0.417000       1.00800           0
     79812 TIP3     19144    TIP3     OH2      OT      -0.834000       15.9994           0
     79813 TIP3     19144    TIP3     H1       HT       0.417000       1.00800           0
     79814 TIP3     19144    TIP3     H2       HT       0.417000       1.00800           0
     79815 TIP3     19145    TIP3     OH2      OT      -0.834000       15.9994           0
     79816 TIP3     19145    TIP3     H1       HT       0.417000       1.00800           0
     79817 TIP3     19145    TIP3     H2       HT       0.417000       1.00800           0
     79818 TIP3     19146    TIP3     OH2      OT      -0.834000       15.9994           0
     79819 TIP3     19146    TIP3     H1       HT       0.417000       1.00800           0
     79820 TIP3     19146    TIP3     H2       HT       0.417000       1.00800           0
     79821 TIP3     19147    TIP3     OH2      OT      -0.834000       15.9994           0
     79822 TIP3     19147    TIP3     H1       HT       0.417000       1.00800           0
     79823 TIP3     19147    TIP3     H2       HT       0.417000       1.00800           0
     79824 TIP3     19148    TIP3     OH2      OT      -0.834000       15.9994           0
     79825 TIP3     19148    TIP3     H1       HT       0.417000       1.00800           0
     79826 TIP3     19148    TIP3     H2       HT       0.417000       1.00800           0
     79827 TIP3     19149    TIP3     OH2      OT      -0.834000       15.9994           0
     79828 TIP3     19149    TIP3     H1       HT       0.417000       1.00800           0
     79829 TIP3     19149    TIP3     H2       HT       0.417000       1.00800           0
     79830 TIP3     19150    TIP3     OH2      OT      -0.834000       15.9994           0
     79831 TIP3     19150    TIP3     H1       HT       0.417000       1.00800           0
     79832 TIP3     19150    TIP3     H2       HT       0.417000       1.00800           0
     79833 TIP3     19151    TIP3     OH2      OT      -0.834000       15.9994           0
     79834 TIP3     19151    TIP3     H1       HT       0.417000       1.00800           0
     79835 TIP3     19151    TIP3     H2       HT       0.417000       1.00800           0
     79836 TIP3     19152    TIP3     OH2      OT      -0.834000       15.9994           0
     79837 TIP3     19152    TIP3     H1       HT       0.417000       1.00800           0
     79838 TIP3     19152    TIP3     H2       HT       0.417000       1.00800           0
     79839 TIP3     19153    TIP3     OH2      OT      -0.834000       15.9994           0
     79840 TIP3     19153    TIP3     H1       HT       0.417000       1.00800           0
     79841 TIP3     19153    TIP3     H2       HT       0.417000       1.00800           0
     79842 TIP3     19154    TIP3     OH2      OT      -0.834000       15.9994           0
     79843 TIP3     19154    TIP3     H1       HT       0.417000       1.00800           0
     79844 TIP3     19154    TIP3     H2       HT       0.417000       1.00800           0
     79845 TIP3     19155    TIP3     OH2      OT      -0.834000       15.9994           0
     79846 TIP3     19155    TIP3     H1       HT       0.417000       1.00800           0
     79847 TIP3     19155    TIP3     H2       HT       0.417000       1.00800           0
     79848 TIP3     19156    TIP3     OH2      OT      -0.834000       15.9994           0
     79849 TIP3     19156    TIP3     H1       HT       0.417000       1.00800           0
     79850 TIP3     19156    TIP3     H2       HT       0.417000       1.00800           0
     79851 TIP3     19157    TIP3     OH2      OT      -0.834000       15.9994           0
     79852 TIP3     19157    TIP3     H1       HT       0.417000       1.00800           0
     79853 TIP3     19157    TIP3     H2       HT       0.417000       1.00800           0
     79854 TIP3     19158    TIP3     OH2      OT      -0.834000       15.9994           0
     79855 TIP3     19158    TIP3     H1       HT       0.417000       1.00800           0
     79856 TIP3     19158    TIP3     H2       HT       0.417000       1.00800           0
     79857 TIP3     19159    TIP3     OH2      OT      -0.834000       15.9994           0
     79858 TIP3     19159    TIP3     H1       HT       0.417000       1.00800           0
     79859 TIP3     19159    TIP3     H2       HT       0.417000       1.00800           0
     79860 TIP3     19160    TIP3     OH2      OT      -0.834000       15.9994           0
     79861 TIP3     19160    TIP3     H1       HT       0.417000       1.00800           0
     79862 TIP3     19160    TIP3     H2       HT       0.417000       1.00800           0
     79863 TIP3     19161    TIP3     OH2      OT      -0.834000       15.9994           0
     79864 TIP3     19161    TIP3     H1       HT       0.417000       1.00800           0
     79865 TIP3     19161    TIP3     H2       HT       0.417000       1.00800           0
     79866 TIP3     19162    TIP3     OH2      OT      -0.834000       15.9994           0
     79867 TIP3     19162    TIP3     H1       HT       0.417000       1.00800           0
     79868 TIP3     19162    TIP3     H2       HT       0.417000       1.00800           0
     79869 TIP3     19163    TIP3     OH2      OT      -0.834000       15.9994           0
     79870 TIP3     19163    TIP3     H1       HT       0.417000       1.00800           0
     79871 TIP3     19163    TIP3     H2       HT       0.417000       1.00800           0
     79872 TIP3     19164    TIP3     OH2      OT      -0.834000       15.9994           0
     79873 TIP3     19164    TIP3     H1       HT       0.417000       1.00800           0
     79874 TIP3     19164    TIP3     H2       HT       0.417000       1.00800           0
     79875 TIP3     19165    TIP3     OH2      OT      -0.834000       15.9994           0
     79876 TIP3     19165    TIP3     H1       HT       0.417000       1.00800           0
     79877 TIP3     19165    TIP3     H2       HT       0.417000       1.00800           0
     79878 TIP3     19166    TIP3     OH2      OT      -0.834000       15.9994           0
     79879 TIP3     19166    TIP3     H1       HT       0.417000       1.00800           0
     79880 TIP3     19166    TIP3     H2       HT       0.417000       1.00800           0
     79881 TIP3     19167    TIP3     OH2      OT      -0.834000       15.9994           0
     79882 TIP3     19167    TIP3     H1       HT       0.417000       1.00800           0
     79883 TIP3     19167    TIP3     H2       HT       0.417000       1.00800           0
     79884 TIP3     19168    TIP3     OH2      OT      -0.834000       15.9994           0
     79885 TIP3     19168    TIP3     H1       HT       0.417000       1.00800           0
     79886 TIP3     19168    TIP3     H2       HT       0.417000       1.00800           0
     79887 TIP3     19169    TIP3     OH2      OT      -0.834000       15.9994           0
     79888 TIP3     19169    TIP3     H1       HT       0.417000       1.00800           0
     79889 TIP3     19169    TIP3     H2       HT       0.417000       1.00800           0
     79890 TIP3     19170    TIP3     OH2      OT      -0.834000       15.9994           0
     79891 TIP3     19170    TIP3     H1       HT       0.417000       1.00800           0
     79892 TIP3     19170    TIP3     H2       HT       0.417000       1.00800           0
     79893 TIP3     19171    TIP3     OH2      OT      -0.834000       15.9994           0
     79894 TIP3     19171    TIP3     H1       HT       0.417000       1.00800           0
     79895 TIP3     19171    TIP3     H2       HT       0.417000       1.00800           0
     79896 TIP3     19172    TIP3     OH2      OT      -0.834000       15.9994           0
     79897 TIP3     19172    TIP3     H1       HT       0.417000       1.00800           0
     79898 TIP3     19172    TIP3     H2       HT       0.417000       1.00800           0
     79899 TIP3     19173    TIP3     OH2      OT      -0.834000       15.9994           0
     79900 TIP3     19173    TIP3     H1       HT       0.417000       1.00800           0
     79901 TIP3     19173    TIP3     H2       HT       0.417000       1.00800           0
     79902 TIP3     19174    TIP3     OH2      OT      -0.834000       15.9994           0
     79903 TIP3     19174    TIP3     H1       HT       0.417000       1.00800           0
     79904 TIP3     19174    TIP3     H2       HT       0.417000       1.00800           0
     79905 TIP3     19175    TIP3     OH2      OT      -0.834000       15.9994           0
     79906 TIP3     19175    TIP3     H1       HT       0.417000       1.00800           0
     79907 TIP3     19175    TIP3     H2       HT       0.417000       1.00800           0
     79908 TIP3     19176    TIP3     OH2      OT      -0.834000       15.9994           0
     79909 TIP3     19176    TIP3     H1       HT       0.417000       1.00800           0
     79910 TIP3     19176    TIP3     H2       HT       0.417000       1.00800           0
     79911 TIP3     19177    TIP3     OH2      OT      -0.834000       15.9994           0
     79912 TIP3     19177    TIP3     H1       HT       0.417000       1.00800           0
     79913 TIP3     19177    TIP3     H2       HT       0.417000       1.00800           0
     79914 TIP3     19178    TIP3     OH2      OT      -0.834000       15.9994           0
     79915 TIP3     19178    TIP3     H1       HT       0.417000       1.00800           0
     79916 TIP3     19178    TIP3     H2       HT       0.417000       1.00800           0
     79917 TIP3     19179    TIP3     OH2      OT      -0.834000       15.9994           0
     79918 TIP3     19179    TIP3     H1       HT       0.417000       1.00800           0
     79919 TIP3     19179    TIP3     H2       HT       0.417000       1.00800           0
     79920 TIP3     19180    TIP3     OH2      OT      -0.834000       15.9994           0
     79921 TIP3     19180    TIP3     H1       HT       0.417000       1.00800           0
     79922 TIP3     19180    TIP3     H2       HT       0.417000       1.00800           0
     79923 TIP3     19181    TIP3     OH2      OT      -0.834000       15.9994           0
     79924 TIP3     19181    TIP3     H1       HT       0.417000       1.00800           0
     79925 TIP3     19181    TIP3     H2       HT       0.417000       1.00800           0
     79926 TIP3     19182    TIP3     OH2      OT      -0.834000       15.9994           0
     79927 TIP3     19182    TIP3     H1       HT       0.417000       1.00800           0
     79928 TIP3     19182    TIP3     H2       HT       0.417000       1.00800           0
     79929 TIP3     19183    TIP3     OH2      OT      -0.834000       15.9994           0
     79930 TIP3     19183    TIP3     H1       HT       0.417000       1.00800           0
     79931 TIP3     19183    TIP3     H2       HT       0.417000       1.00800           0
     79932 TIP3     19184    TIP3     OH2      OT      -0.834000       15.9994           0
     79933 TIP3     19184    TIP3     H1       HT       0.417000       1.00800           0
     79934 TIP3     19184    TIP3     H2       HT       0.417000       1.00800           0
     79935 TIP3     19185    TIP3     OH2      OT      -0.834000       15.9994           0
     79936 TIP3     19185    TIP3     H1       HT       0.417000       1.00800           0
     79937 TIP3     19185    TIP3     H2       HT       0.417000       1.00800           0
     79938 TIP3     19186    TIP3     OH2      OT      -0.834000       15.9994           0
     79939 TIP3     19186    TIP3     H1       HT       0.417000       1.00800           0
     79940 TIP3     19186    TIP3     H2       HT       0.417000       1.00800           0
     79941 TIP3     19187    TIP3     OH2      OT      -0.834000       15.9994           0
     79942 TIP3     19187    TIP3     H1       HT       0.417000       1.00800           0
     79943 TIP3     19187    TIP3     H2       HT       0.417000       1.00800           0
     79944 TIP3     19188    TIP3     OH2      OT      -0.834000       15.9994           0
     79945 TIP3     19188    TIP3     H1       HT       0.417000       1.00800           0
     79946 TIP3     19188    TIP3     H2       HT       0.417000       1.00800           0
     79947 TIP3     19189    TIP3     OH2      OT      -0.834000       15.9994           0
     79948 TIP3     19189    TIP3     H1       HT       0.417000       1.00800           0
     79949 TIP3     19189    TIP3     H2       HT       0.417000       1.00800           0
     79950 TIP3     19190    TIP3     OH2      OT      -0.834000       15.9994           0
     79951 TIP3     19190    TIP3     H1       HT       0.417000       1.00800           0
     79952 TIP3     19190    TIP3     H2       HT       0.417000       1.00800           0
     79953 TIP3     19191    TIP3     OH2      OT      -0.834000       15.9994           0
     79954 TIP3     19191    TIP3     H1       HT       0.417000       1.00800           0
     79955 TIP3     19191    TIP3     H2       HT       0.417000       1.00800           0
     79956 TIP3     19192    TIP3     OH2      OT      -0.834000       15.9994           0
     79957 TIP3     19192    TIP3     H1       HT       0.417000       1.00800           0
     79958 TIP3     19192    TIP3     H2       HT       0.417000       1.00800           0
     79959 TIP3     19193    TIP3     OH2      OT      -0.834000       15.9994           0
     79960 TIP3     19193    TIP3     H1       HT       0.417000       1.00800           0
     79961 TIP3     19193    TIP3     H2       HT       0.417000       1.00800           0
     79962 TIP3     19194    TIP3     OH2      OT      -0.834000       15.9994           0
     79963 TIP3     19194    TIP3     H1       HT       0.417000       1.00800           0
     79964 TIP3     19194    TIP3     H2       HT       0.417000       1.00800           0
     79965 TIP3     19195    TIP3     OH2      OT      -0.834000       15.9994           0
     79966 TIP3     19195    TIP3     H1       HT       0.417000       1.00800           0
     79967 TIP3     19195    TIP3     H2       HT       0.417000       1.00800           0
     79968 TIP3     19196    TIP3     OH2      OT      -0.834000       15.9994           0
     79969 TIP3     19196    TIP3     H1       HT       0.417000       1.00800           0
     79970 TIP3     19196    TIP3     H2       HT       0.417000       1.00800           0
     79971 TIP3     19197    TIP3     OH2      OT      -0.834000       15.9994           0
     79972 TIP3     19197    TIP3     H1       HT       0.417000       1.00800           0
     79973 TIP3     19197    TIP3     H2       HT       0.417000       1.00800           0
     79974 TIP3     19198    TIP3     OH2      OT      -0.834000       15.9994           0
     79975 TIP3     19198    TIP3     H1       HT       0.417000       1.00800           0
     79976 TIP3     19198    TIP3     H2       HT       0.417000       1.00800           0
     79977 TIP3     19199    TIP3     OH2      OT      -0.834000       15.9994           0
     79978 TIP3     19199    TIP3     H1       HT       0.417000       1.00800           0
     79979 TIP3     19199    TIP3     H2       HT       0.417000       1.00800           0
     79980 TIP3     19200    TIP3     OH2      OT      -0.834000       15.9994           0
     79981 TIP3     19200    TIP3     H1       HT       0.417000       1.00800           0
     79982 TIP3     19200    TIP3     H2       HT       0.417000       1.00800           0
     79983 TIP3     19201    TIP3     OH2      OT      -0.834000       15.9994           0
     79984 TIP3     19201    TIP3     H1       HT       0.417000       1.00800           0
     79985 TIP3     19201    TIP3     H2       HT       0.417000       1.00800           0
     79986 TIP3     19202    TIP3     OH2      OT      -0.834000       15.9994           0
     79987 TIP3     19202    TIP3     H1       HT       0.417000       1.00800           0
     79988 TIP3     19202    TIP3     H2       HT       0.417000       1.00800           0
     79989 TIP3     19203    TIP3     OH2      OT      -0.834000       15.9994           0
     79990 TIP3     19203    TIP3     H1       HT       0.417000       1.00800           0
     79991 TIP3     19203    TIP3     H2       HT       0.417000       1.00800           0
     79992 TIP3     19204    TIP3     OH2      OT      -0.834000       15.9994           0
     79993 TIP3     19204    TIP3     H1       HT       0.417000       1.00800           0
     79994 TIP3     19204    TIP3     H2       HT       0.417000       1.00800           0
     79995 TIP3     19205    TIP3     OH2      OT      -0.834000       15.9994           0
     79996 TIP3     19205    TIP3     H1       HT       0.417000       1.00800           0
     79997 TIP3     19205    TIP3     H2       HT       0.417000       1.00800           0
     79998 TIP3     19206    TIP3     OH2      OT      -0.834000       15.9994           0
     79999 TIP3     19206    TIP3     H1       HT       0.417000       1.00800           0
     80000 TIP3     19206    TIP3     H2       HT       0.417000       1.00800           0
     80001 TIP3     19207    TIP3     OH2      OT      -0.834000       15.9994           0
     80002 TIP3     19207    TIP3     H1       HT       0.417000       1.00800           0
     80003 TIP3     19207    TIP3     H2       HT       0.417000       1.00800           0
     80004 TIP3     19208    TIP3     OH2      OT      -0.834000       15.9994           0
     80005 TIP3     19208    TIP3     H1       HT       0.417000       1.00800           0
     80006 TIP3     19208    TIP3     H2       HT       0.417000       1.00800           0
     80007 TIP3     19209    TIP3     OH2      OT      -0.834000       15.9994           0
     80008 TIP3     19209    TIP3     H1       HT       0.417000       1.00800           0
     80009 TIP3     19209    TIP3     H2       HT       0.417000       1.00800           0
     80010 TIP3     19210    TIP3     OH2      OT      -0.834000       15.9994           0
     80011 TIP3     19210    TIP3     H1       HT       0.417000       1.00800           0
     80012 TIP3     19210    TIP3     H2       HT       0.417000       1.00800           0
     80013 TIP3     19211    TIP3     OH2      OT      -0.834000       15.9994           0
     80014 TIP3     19211    TIP3     H1       HT       0.417000       1.00800           0
     80015 TIP3     19211    TIP3     H2       HT       0.417000       1.00800           0
     80016 TIP3     19212    TIP3     OH2      OT      -0.834000       15.9994           0
     80017 TIP3     19212    TIP3     H1       HT       0.417000       1.00800           0
     80018 TIP3     19212    TIP3     H2       HT       0.417000       1.00800           0
     80019 TIP3     19213    TIP3     OH2      OT      -0.834000       15.9994           0
     80020 TIP3     19213    TIP3     H1       HT       0.417000       1.00800           0
     80021 TIP3     19213    TIP3     H2       HT       0.417000       1.00800           0
     80022 TIP3     19214    TIP3     OH2      OT      -0.834000       15.9994           0
     80023 TIP3     19214    TIP3     H1       HT       0.417000       1.00800           0
     80024 TIP3     19214    TIP3     H2       HT       0.417000       1.00800           0
     80025 TIP3     19215    TIP3     OH2      OT      -0.834000       15.9994           0
     80026 TIP3     19215    TIP3     H1       HT       0.417000       1.00800           0
     80027 TIP3     19215    TIP3     H2       HT       0.417000       1.00800           0
     80028 TIP3     19216    TIP3     OH2      OT      -0.834000       15.9994           0
     80029 TIP3     19216    TIP3     H1       HT       0.417000       1.00800           0
     80030 TIP3     19216    TIP3     H2       HT       0.417000       1.00800           0
     80031 TIP3     19217    TIP3     OH2      OT      -0.834000       15.9994           0
     80032 TIP3     19217    TIP3     H1       HT       0.417000       1.00800           0
     80033 TIP3     19217    TIP3     H2       HT       0.417000       1.00800           0
     80034 TIP3     19218    TIP3     OH2      OT      -0.834000       15.9994           0
     80035 TIP3     19218    TIP3     H1       HT       0.417000       1.00800           0
     80036 TIP3     19218    TIP3     H2       HT       0.417000       1.00800           0
     80037 TIP3     19219    TIP3     OH2      OT      -0.834000       15.9994           0
     80038 TIP3     19219    TIP3     H1       HT       0.417000       1.00800           0
     80039 TIP3     19219    TIP3     H2       HT       0.417000       1.00800           0
     80040 TIP3     19220    TIP3     OH2      OT      -0.834000       15.9994           0
     80041 TIP3     19220    TIP3     H1       HT       0.417000       1.00800           0
     80042 TIP3     19220    TIP3     H2       HT       0.417000       1.00800           0
     80043 TIP3     19221    TIP3     OH2      OT      -0.834000       15.9994           0
     80044 TIP3     19221    TIP3     H1       HT       0.417000       1.00800           0
     80045 TIP3     19221    TIP3     H2       HT       0.417000       1.00800           0
     80046 TIP3     19222    TIP3     OH2      OT      -0.834000       15.9994           0
     80047 TIP3     19222    TIP3     H1       HT       0.417000       1.00800           0
     80048 TIP3     19222    TIP3     H2       HT       0.417000       1.00800           0
     80049 TIP3     19223    TIP3     OH2      OT      -0.834000       15.9994           0
     80050 TIP3     19223    TIP3     H1       HT       0.417000       1.00800           0
     80051 TIP3     19223    TIP3     H2       HT       0.417000       1.00800           0
     80052 TIP3     19224    TIP3     OH2      OT      -0.834000       15.9994           0
     80053 TIP3     19224    TIP3     H1       HT       0.417000       1.00800           0
     80054 TIP3     19224    TIP3     H2       HT       0.417000       1.00800           0
     80055 TIP3     19225    TIP3     OH2      OT      -0.834000       15.9994           0
     80056 TIP3     19225    TIP3     H1       HT       0.417000       1.00800           0
     80057 TIP3     19225    TIP3     H2       HT       0.417000       1.00800           0
     80058 TIP3     19226    TIP3     OH2      OT      -0.834000       15.9994           0
     80059 TIP3     19226    TIP3     H1       HT       0.417000       1.00800           0
     80060 TIP3     19226    TIP3     H2       HT       0.417000       1.00800           0
     80061 TIP3     19227    TIP3     OH2      OT      -0.834000       15.9994           0
     80062 TIP3     19227    TIP3     H1       HT       0.417000       1.00800           0
     80063 TIP3     19227    TIP3     H2       HT       0.417000       1.00800           0
     80064 TIP3     19228    TIP3     OH2      OT      -0.834000       15.9994           0
     80065 TIP3     19228    TIP3     H1       HT       0.417000       1.00800           0
     80066 TIP3     19228    TIP3     H2       HT       0.417000       1.00800           0
     80067 TIP3     19229    TIP3     OH2      OT      -0.834000       15.9994           0
     80068 TIP3     19229    TIP3     H1       HT       0.417000       1.00800           0
     80069 TIP3     19229    TIP3     H2       HT       0.417000       1.00800           0
     80070 TIP3     19230    TIP3     OH2      OT      -0.834000       15.9994           0
     80071 TIP3     19230    TIP3     H1       HT       0.417000       1.00800           0
     80072 TIP3     19230    TIP3     H2       HT       0.417000       1.00800           0
     80073 TIP3     19231    TIP3     OH2      OT      -0.834000       15.9994           0
     80074 TIP3     19231    TIP3     H1       HT       0.417000       1.00800           0
     80075 TIP3     19231    TIP3     H2       HT       0.417000       1.00800           0
     80076 TIP3     19232    TIP3     OH2      OT      -0.834000       15.9994           0
     80077 TIP3     19232    TIP3     H1       HT       0.417000       1.00800           0
     80078 TIP3     19232    TIP3     H2       HT       0.417000       1.00800           0
     80079 TIP3     19233    TIP3     OH2      OT      -0.834000       15.9994           0
     80080 TIP3     19233    TIP3     H1       HT       0.417000       1.00800           0
     80081 TIP3     19233    TIP3     H2       HT       0.417000       1.00800           0
     80082 TIP3     19234    TIP3     OH2      OT      -0.834000       15.9994           0
     80083 TIP3     19234    TIP3     H1       HT       0.417000       1.00800           0
     80084 TIP3     19234    TIP3     H2       HT       0.417000       1.00800           0
     80085 TIP3     19235    TIP3     OH2      OT      -0.834000       15.9994           0
     80086 TIP3     19235    TIP3     H1       HT       0.417000       1.00800           0
     80087 TIP3     19235    TIP3     H2       HT       0.417000       1.00800           0
     80088 TIP3     19236    TIP3     OH2      OT      -0.834000       15.9994           0
     80089 TIP3     19236    TIP3     H1       HT       0.417000       1.00800           0
     80090 TIP3     19236    TIP3     H2       HT       0.417000       1.00800           0
     80091 TIP3     19237    TIP3     OH2      OT      -0.834000       15.9994           0
     80092 TIP3     19237    TIP3     H1       HT       0.417000       1.00800           0
     80093 TIP3     19237    TIP3     H2       HT       0.417000       1.00800           0
     80094 TIP3     19238    TIP3     OH2      OT      -0.834000       15.9994           0
     80095 TIP3     19238    TIP3     H1       HT       0.417000       1.00800           0
     80096 TIP3     19238    TIP3     H2       HT       0.417000       1.00800           0
     80097 TIP3     19239    TIP3     OH2      OT      -0.834000       15.9994           0
     80098 TIP3     19239    TIP3     H1       HT       0.417000       1.00800           0
     80099 TIP3     19239    TIP3     H2       HT       0.417000       1.00800           0
     80100 TIP3     19240    TIP3     OH2      OT      -0.834000       15.9994           0
     80101 TIP3     19240    TIP3     H1       HT       0.417000       1.00800           0
     80102 TIP3     19240    TIP3     H2       HT       0.417000       1.00800           0
     80103 TIP3     19241    TIP3     OH2      OT      -0.834000       15.9994           0
     80104 TIP3     19241    TIP3     H1       HT       0.417000       1.00800           0
     80105 TIP3     19241    TIP3     H2       HT       0.417000       1.00800           0
     80106 TIP3     19242    TIP3     OH2      OT      -0.834000       15.9994           0
     80107 TIP3     19242    TIP3     H1       HT       0.417000       1.00800           0
     80108 TIP3     19242    TIP3     H2       HT       0.417000       1.00800           0
     80109 TIP3     19243    TIP3     OH2      OT      -0.834000       15.9994           0
     80110 TIP3     19243    TIP3     H1       HT       0.417000       1.00800           0
     80111 TIP3     19243    TIP3     H2       HT       0.417000       1.00800           0
     80112 TIP3     19244    TIP3     OH2      OT      -0.834000       15.9994           0
     80113 TIP3     19244    TIP3     H1       HT       0.417000       1.00800           0
     80114 TIP3     19244    TIP3     H2       HT       0.417000       1.00800           0
     80115 TIP3     19245    TIP3     OH2      OT      -0.834000       15.9994           0
     80116 TIP3     19245    TIP3     H1       HT       0.417000       1.00800           0
     80117 TIP3     19245    TIP3     H2       HT       0.417000       1.00800           0
     80118 TIP3     19246    TIP3     OH2      OT      -0.834000       15.9994           0
     80119 TIP3     19246    TIP3     H1       HT       0.417000       1.00800           0
     80120 TIP3     19246    TIP3     H2       HT       0.417000       1.00800           0
     80121 TIP3     19247    TIP3     OH2      OT      -0.834000       15.9994           0
     80122 TIP3     19247    TIP3     H1       HT       0.417000       1.00800           0
     80123 TIP3     19247    TIP3     H2       HT       0.417000       1.00800           0
     80124 TIP3     19248    TIP3     OH2      OT      -0.834000       15.9994           0
     80125 TIP3     19248    TIP3     H1       HT       0.417000       1.00800           0
     80126 TIP3     19248    TIP3     H2       HT       0.417000       1.00800           0
     80127 TIP3     19249    TIP3     OH2      OT      -0.834000       15.9994           0
     80128 TIP3     19249    TIP3     H1       HT       0.417000       1.00800           0
     80129 TIP3     19249    TIP3     H2       HT       0.417000       1.00800           0
     80130 TIP3     19250    TIP3     OH2      OT      -0.834000       15.9994           0
     80131 TIP3     19250    TIP3     H1       HT       0.417000       1.00800           0
     80132 TIP3     19250    TIP3     H2       HT       0.417000       1.00800           0
     80133 TIP3     19251    TIP3     OH2      OT      -0.834000       15.9994           0
     80134 TIP3     19251    TIP3     H1       HT       0.417000       1.00800           0
     80135 TIP3     19251    TIP3     H2       HT       0.417000       1.00800           0
     80136 TIP3     19252    TIP3     OH2      OT      -0.834000       15.9994           0
     80137 TIP3     19252    TIP3     H1       HT       0.417000       1.00800           0
     80138 TIP3     19252    TIP3     H2       HT       0.417000       1.00800           0
     80139 TIP3     19253    TIP3     OH2      OT      -0.834000       15.9994           0
     80140 TIP3     19253    TIP3     H1       HT       0.417000       1.00800           0
     80141 TIP3     19253    TIP3     H2       HT       0.417000       1.00800           0
     80142 TIP3     19254    TIP3     OH2      OT      -0.834000       15.9994           0
     80143 TIP3     19254    TIP3     H1       HT       0.417000       1.00800           0
     80144 TIP3     19254    TIP3     H2       HT       0.417000       1.00800           0
     80145 TIP3     19255    TIP3     OH2      OT      -0.834000       15.9994           0
     80146 TIP3     19255    TIP3     H1       HT       0.417000       1.00800           0
     80147 TIP3     19255    TIP3     H2       HT       0.417000       1.00800           0
     80148 TIP3     19256    TIP3     OH2      OT      -0.834000       15.9994           0
     80149 TIP3     19256    TIP3     H1       HT       0.417000       1.00800           0
     80150 TIP3     19256    TIP3     H2       HT       0.417000       1.00800           0
     80151 TIP3     19257    TIP3     OH2      OT      -0.834000       15.9994           0
     80152 TIP3     19257    TIP3     H1       HT       0.417000       1.00800           0
     80153 TIP3     19257    TIP3     H2       HT       0.417000       1.00800           0
     80154 TIP3     19258    TIP3     OH2      OT      -0.834000       15.9994           0
     80155 TIP3     19258    TIP3     H1       HT       0.417000       1.00800           0
     80156 TIP3     19258    TIP3     H2       HT       0.417000       1.00800           0
     80157 TIP3     19259    TIP3     OH2      OT      -0.834000       15.9994           0
     80158 TIP3     19259    TIP3     H1       HT       0.417000       1.00800           0
     80159 TIP3     19259    TIP3     H2       HT       0.417000       1.00800           0
     80160 TIP3     19260    TIP3     OH2      OT      -0.834000       15.9994           0
     80161 TIP3     19260    TIP3     H1       HT       0.417000       1.00800           0
     80162 TIP3     19260    TIP3     H2       HT       0.417000       1.00800           0
     80163 TIP3     19261    TIP3     OH2      OT      -0.834000       15.9994           0
     80164 TIP3     19261    TIP3     H1       HT       0.417000       1.00800           0
     80165 TIP3     19261    TIP3     H2       HT       0.417000       1.00800           0
     80166 TIP3     19262    TIP3     OH2      OT      -0.834000       15.9994           0
     80167 TIP3     19262    TIP3     H1       HT       0.417000       1.00800           0
     80168 TIP3     19262    TIP3     H2       HT       0.417000       1.00800           0
     80169 TIP3     19263    TIP3     OH2      OT      -0.834000       15.9994           0
     80170 TIP3     19263    TIP3     H1       HT       0.417000       1.00800           0
     80171 TIP3     19263    TIP3     H2       HT       0.417000       1.00800           0
     80172 TIP3     19264    TIP3     OH2      OT      -0.834000       15.9994           0
     80173 TIP3     19264    TIP3     H1       HT       0.417000       1.00800           0
     80174 TIP3     19264    TIP3     H2       HT       0.417000       1.00800           0
     80175 TIP3     19265    TIP3     OH2      OT      -0.834000       15.9994           0
     80176 TIP3     19265    TIP3     H1       HT       0.417000       1.00800           0
     80177 TIP3     19265    TIP3     H2       HT       0.417000       1.00800           0
     80178 TIP3     19266    TIP3     OH2      OT      -0.834000       15.9994           0
     80179 TIP3     19266    TIP3     H1       HT       0.417000       1.00800           0
     80180 TIP3     19266    TIP3     H2       HT       0.417000       1.00800           0
     80181 TIP3     19267    TIP3     OH2      OT      -0.834000       15.9994           0
     80182 TIP3     19267    TIP3     H1       HT       0.417000       1.00800           0
     80183 TIP3     19267    TIP3     H2       HT       0.417000       1.00800           0
     80184 TIP3     19268    TIP3     OH2      OT      -0.834000       15.9994           0
     80185 TIP3     19268    TIP3     H1       HT       0.417000       1.00800           0
     80186 TIP3     19268    TIP3     H2       HT       0.417000       1.00800           0
     80187 TIP3     19269    TIP3     OH2      OT      -0.834000       15.9994           0
     80188 TIP3     19269    TIP3     H1       HT       0.417000       1.00800           0
     80189 TIP3     19269    TIP3     H2       HT       0.417000       1.00800           0
     80190 TIP3     19270    TIP3     OH2      OT      -0.834000       15.9994           0
     80191 TIP3     19270    TIP3     H1       HT       0.417000       1.00800           0
     80192 TIP3     19270    TIP3     H2       HT       0.417000       1.00800           0
     80193 TIP3     19271    TIP3     OH2      OT      -0.834000       15.9994           0
     80194 TIP3     19271    TIP3     H1       HT       0.417000       1.00800           0
     80195 TIP3     19271    TIP3     H2       HT       0.417000       1.00800           0
     80196 TIP3     19272    TIP3     OH2      OT      -0.834000       15.9994           0
     80197 TIP3     19272    TIP3     H1       HT       0.417000       1.00800           0
     80198 TIP3     19272    TIP3     H2       HT       0.417000       1.00800           0
     80199 TIP3     19273    TIP3     OH2      OT      -0.834000       15.9994           0
     80200 TIP3     19273    TIP3     H1       HT       0.417000       1.00800           0
     80201 TIP3     19273    TIP3     H2       HT       0.417000       1.00800           0
     80202 TIP3     19274    TIP3     OH2      OT      -0.834000       15.9994           0
     80203 TIP3     19274    TIP3     H1       HT       0.417000       1.00800           0
     80204 TIP3     19274    TIP3     H2       HT       0.417000       1.00800           0
     80205 TIP3     19275    TIP3     OH2      OT      -0.834000       15.9994           0
     80206 TIP3     19275    TIP3     H1       HT       0.417000       1.00800           0
     80207 TIP3     19275    TIP3     H2       HT       0.417000       1.00800           0
     80208 TIP3     19276    TIP3     OH2      OT      -0.834000       15.9994           0
     80209 TIP3     19276    TIP3     H1       HT       0.417000       1.00800           0
     80210 TIP3     19276    TIP3     H2       HT       0.417000       1.00800           0
     80211 TIP3     19277    TIP3     OH2      OT      -0.834000       15.9994           0
     80212 TIP3     19277    TIP3     H1       HT       0.417000       1.00800           0
     80213 TIP3     19277    TIP3     H2       HT       0.417000       1.00800           0
     80214 TIP3     19278    TIP3     OH2      OT      -0.834000       15.9994           0
     80215 TIP3     19278    TIP3     H1       HT       0.417000       1.00800           0
     80216 TIP3     19278    TIP3     H2       HT       0.417000       1.00800           0
     80217 TIP3     19279    TIP3     OH2      OT      -0.834000       15.9994           0
     80218 TIP3     19279    TIP3     H1       HT       0.417000       1.00800           0
     80219 TIP3     19279    TIP3     H2       HT       0.417000       1.00800           0
     80220 TIP3     19280    TIP3     OH2      OT      -0.834000       15.9994           0
     80221 TIP3     19280    TIP3     H1       HT       0.417000       1.00800           0
     80222 TIP3     19280    TIP3     H2       HT       0.417000       1.00800           0
     80223 TIP3     19281    TIP3     OH2      OT      -0.834000       15.9994           0
     80224 TIP3     19281    TIP3     H1       HT       0.417000       1.00800           0
     80225 TIP3     19281    TIP3     H2       HT       0.417000       1.00800           0
     80226 TIP3     19282    TIP3     OH2      OT      -0.834000       15.9994           0
     80227 TIP3     19282    TIP3     H1       HT       0.417000       1.00800           0
     80228 TIP3     19282    TIP3     H2       HT       0.417000       1.00800           0
     80229 TIP3     19283    TIP3     OH2      OT      -0.834000       15.9994           0
     80230 TIP3     19283    TIP3     H1       HT       0.417000       1.00800           0
     80231 TIP3     19283    TIP3     H2       HT       0.417000       1.00800           0
     80232 TIP3     19284    TIP3     OH2      OT      -0.834000       15.9994           0
     80233 TIP3     19284    TIP3     H1       HT       0.417000       1.00800           0
     80234 TIP3     19284    TIP3     H2       HT       0.417000       1.00800           0
     80235 TIP3     19285    TIP3     OH2      OT      -0.834000       15.9994           0
     80236 TIP3     19285    TIP3     H1       HT       0.417000       1.00800           0
     80237 TIP3     19285    TIP3     H2       HT       0.417000       1.00800           0
     80238 TIP3     19286    TIP3     OH2      OT      -0.834000       15.9994           0
     80239 TIP3     19286    TIP3     H1       HT       0.417000       1.00800           0
     80240 TIP3     19286    TIP3     H2       HT       0.417000       1.00800           0
     80241 TIP3     19287    TIP3     OH2      OT      -0.834000       15.9994           0
     80242 TIP3     19287    TIP3     H1       HT       0.417000       1.00800           0
     80243 TIP3     19287    TIP3     H2       HT       0.417000       1.00800           0
     80244 TIP3     19288    TIP3     OH2      OT      -0.834000       15.9994           0
     80245 TIP3     19288    TIP3     H1       HT       0.417000       1.00800           0
     80246 TIP3     19288    TIP3     H2       HT       0.417000       1.00800           0
     80247 TIP3     19289    TIP3     OH2      OT      -0.834000       15.9994           0
     80248 TIP3     19289    TIP3     H1       HT       0.417000       1.00800           0
     80249 TIP3     19289    TIP3     H2       HT       0.417000       1.00800           0
     80250 TIP3     19290    TIP3     OH2      OT      -0.834000       15.9994           0
     80251 TIP3     19290    TIP3     H1       HT       0.417000       1.00800           0
     80252 TIP3     19290    TIP3     H2       HT       0.417000       1.00800           0
     80253 TIP3     19291    TIP3     OH2      OT      -0.834000       15.9994           0
     80254 TIP3     19291    TIP3     H1       HT       0.417000       1.00800           0
     80255 TIP3     19291    TIP3     H2       HT       0.417000       1.00800           0
     80256 TIP3     19292    TIP3     OH2      OT      -0.834000       15.9994           0
     80257 TIP3     19292    TIP3     H1       HT       0.417000       1.00800           0
     80258 TIP3     19292    TIP3     H2       HT       0.417000       1.00800           0
     80259 TIP3     19293    TIP3     OH2      OT      -0.834000       15.9994           0
     80260 TIP3     19293    TIP3     H1       HT       0.417000       1.00800           0
     80261 TIP3     19293    TIP3     H2       HT       0.417000       1.00800           0
     80262 TIP3     19294    TIP3     OH2      OT      -0.834000       15.9994           0
     80263 TIP3     19294    TIP3     H1       HT       0.417000       1.00800           0
     80264 TIP3     19294    TIP3     H2       HT       0.417000       1.00800           0
     80265 TIP3     19295    TIP3     OH2      OT      -0.834000       15.9994           0
     80266 TIP3     19295    TIP3     H1       HT       0.417000       1.00800           0
     80267 TIP3     19295    TIP3     H2       HT       0.417000       1.00800           0
     80268 TIP3     19296    TIP3     OH2      OT      -0.834000       15.9994           0
     80269 TIP3     19296    TIP3     H1       HT       0.417000       1.00800           0
     80270 TIP3     19296    TIP3     H2       HT       0.417000       1.00800           0
     80271 TIP3     19297    TIP3     OH2      OT      -0.834000       15.9994           0
     80272 TIP3     19297    TIP3     H1       HT       0.417000       1.00800           0
     80273 TIP3     19297    TIP3     H2       HT       0.417000       1.00800           0
     80274 TIP3     19298    TIP3     OH2      OT      -0.834000       15.9994           0
     80275 TIP3     19298    TIP3     H1       HT       0.417000       1.00800           0
     80276 TIP3     19298    TIP3     H2       HT       0.417000       1.00800           0
     80277 TIP3     19299    TIP3     OH2      OT      -0.834000       15.9994           0
     80278 TIP3     19299    TIP3     H1       HT       0.417000       1.00800           0
     80279 TIP3     19299    TIP3     H2       HT       0.417000       1.00800           0
     80280 TIP3     19300    TIP3     OH2      OT      -0.834000       15.9994           0
     80281 TIP3     19300    TIP3     H1       HT       0.417000       1.00800           0
     80282 TIP3     19300    TIP3     H2       HT       0.417000       1.00800           0
     80283 TIP3     19301    TIP3     OH2      OT      -0.834000       15.9994           0
     80284 TIP3     19301    TIP3     H1       HT       0.417000       1.00800           0
     80285 TIP3     19301    TIP3     H2       HT       0.417000       1.00800           0
     80286 TIP3     19302    TIP3     OH2      OT      -0.834000       15.9994           0
     80287 TIP3     19302    TIP3     H1       HT       0.417000       1.00800           0
     80288 TIP3     19302    TIP3     H2       HT       0.417000       1.00800           0
     80289 TIP3     19303    TIP3     OH2      OT      -0.834000       15.9994           0
     80290 TIP3     19303    TIP3     H1       HT       0.417000       1.00800           0
     80291 TIP3     19303    TIP3     H2       HT       0.417000       1.00800           0
     80292 TIP3     19304    TIP3     OH2      OT      -0.834000       15.9994           0
     80293 TIP3     19304    TIP3     H1       HT       0.417000       1.00800           0
     80294 TIP3     19304    TIP3     H2       HT       0.417000       1.00800           0
     80295 TIP3     19305    TIP3     OH2      OT      -0.834000       15.9994           0
     80296 TIP3     19305    TIP3     H1       HT       0.417000       1.00800           0
     80297 TIP3     19305    TIP3     H2       HT       0.417000       1.00800           0
     80298 TIP3     19306    TIP3     OH2      OT      -0.834000       15.9994           0
     80299 TIP3     19306    TIP3     H1       HT       0.417000       1.00800           0
     80300 TIP3     19306    TIP3     H2       HT       0.417000       1.00800           0
     80301 TIP3     19307    TIP3     OH2      OT      -0.834000       15.9994           0
     80302 TIP3     19307    TIP3     H1       HT       0.417000       1.00800           0
     80303 TIP3     19307    TIP3     H2       HT       0.417000       1.00800           0
     80304 TIP3     19308    TIP3     OH2      OT      -0.834000       15.9994           0
     80305 TIP3     19308    TIP3     H1       HT       0.417000       1.00800           0
     80306 TIP3     19308    TIP3     H2       HT       0.417000       1.00800           0
     80307 TIP3     19309    TIP3     OH2      OT      -0.834000       15.9994           0
     80308 TIP3     19309    TIP3     H1       HT       0.417000       1.00800           0
     80309 TIP3     19309    TIP3     H2       HT       0.417000       1.00800           0
     80310 TIP3     19310    TIP3     OH2      OT      -0.834000       15.9994           0
     80311 TIP3     19310    TIP3     H1       HT       0.417000       1.00800           0
     80312 TIP3     19310    TIP3     H2       HT       0.417000       1.00800           0
     80313 TIP3     19311    TIP3     OH2      OT      -0.834000       15.9994           0
     80314 TIP3     19311    TIP3     H1       HT       0.417000       1.00800           0
     80315 TIP3     19311    TIP3     H2       HT       0.417000       1.00800           0
     80316 TIP3     19312    TIP3     OH2      OT      -0.834000       15.9994           0
     80317 TIP3     19312    TIP3     H1       HT       0.417000       1.00800           0
     80318 TIP3     19312    TIP3     H2       HT       0.417000       1.00800           0
     80319 TIP3     19313    TIP3     OH2      OT      -0.834000       15.9994           0
     80320 TIP3     19313    TIP3     H1       HT       0.417000       1.00800           0
     80321 TIP3     19313    TIP3     H2       HT       0.417000       1.00800           0
     80322 TIP3     19314    TIP3     OH2      OT      -0.834000       15.9994           0
     80323 TIP3     19314    TIP3     H1       HT       0.417000       1.00800           0
     80324 TIP3     19314    TIP3     H2       HT       0.417000       1.00800           0
     80325 TIP3     19315    TIP3     OH2      OT      -0.834000       15.9994           0
     80326 TIP3     19315    TIP3     H1       HT       0.417000       1.00800           0
     80327 TIP3     19315    TIP3     H2       HT       0.417000       1.00800           0
     80328 TIP3     19316    TIP3     OH2      OT      -0.834000       15.9994           0
     80329 TIP3     19316    TIP3     H1       HT       0.417000       1.00800           0
     80330 TIP3     19316    TIP3     H2       HT       0.417000       1.00800           0
     80331 TIP3     19317    TIP3     OH2      OT      -0.834000       15.9994           0
     80332 TIP3     19317    TIP3     H1       HT       0.417000       1.00800           0
     80333 TIP3     19317    TIP3     H2       HT       0.417000       1.00800           0
     80334 TIP3     19318    TIP3     OH2      OT      -0.834000       15.9994           0
     80335 TIP3     19318    TIP3     H1       HT       0.417000       1.00800           0
     80336 TIP3     19318    TIP3     H2       HT       0.417000       1.00800           0
     80337 TIP3     19319    TIP3     OH2      OT      -0.834000       15.9994           0
     80338 TIP3     19319    TIP3     H1       HT       0.417000       1.00800           0
     80339 TIP3     19319    TIP3     H2       HT       0.417000       1.00800           0
     80340 TIP3     19320    TIP3     OH2      OT      -0.834000       15.9994           0
     80341 TIP3     19320    TIP3     H1       HT       0.417000       1.00800           0
     80342 TIP3     19320    TIP3     H2       HT       0.417000       1.00800           0
     80343 TIP3     19321    TIP3     OH2      OT      -0.834000       15.9994           0
     80344 TIP3     19321    TIP3     H1       HT       0.417000       1.00800           0
     80345 TIP3     19321    TIP3     H2       HT       0.417000       1.00800           0
     80346 TIP3     19322    TIP3     OH2      OT      -0.834000       15.9994           0
     80347 TIP3     19322    TIP3     H1       HT       0.417000       1.00800           0
     80348 TIP3     19322    TIP3     H2       HT       0.417000       1.00800           0
     80349 TIP3     19323    TIP3     OH2      OT      -0.834000       15.9994           0
     80350 TIP3     19323    TIP3     H1       HT       0.417000       1.00800           0
     80351 TIP3     19323    TIP3     H2       HT       0.417000       1.00800           0
     80352 TIP3     19324    TIP3     OH2      OT      -0.834000       15.9994           0
     80353 TIP3     19324    TIP3     H1       HT       0.417000       1.00800           0
     80354 TIP3     19324    TIP3     H2       HT       0.417000       1.00800           0
     80355 TIP3     19325    TIP3     OH2      OT      -0.834000       15.9994           0
     80356 TIP3     19325    TIP3     H1       HT       0.417000       1.00800           0
     80357 TIP3     19325    TIP3     H2       HT       0.417000       1.00800           0
     80358 TIP3     19326    TIP3     OH2      OT      -0.834000       15.9994           0
     80359 TIP3     19326    TIP3     H1       HT       0.417000       1.00800           0
     80360 TIP3     19326    TIP3     H2       HT       0.417000       1.00800           0
     80361 TIP3     19327    TIP3     OH2      OT      -0.834000       15.9994           0
     80362 TIP3     19327    TIP3     H1       HT       0.417000       1.00800           0
     80363 TIP3     19327    TIP3     H2       HT       0.417000       1.00800           0
     80364 TIP3     19328    TIP3     OH2      OT      -0.834000       15.9994           0
     80365 TIP3     19328    TIP3     H1       HT       0.417000       1.00800           0
     80366 TIP3     19328    TIP3     H2       HT       0.417000       1.00800           0
     80367 TIP3     19329    TIP3     OH2      OT      -0.834000       15.9994           0
     80368 TIP3     19329    TIP3     H1       HT       0.417000       1.00800           0
     80369 TIP3     19329    TIP3     H2       HT       0.417000       1.00800           0
     80370 TIP3     19330    TIP3     OH2      OT      -0.834000       15.9994           0
     80371 TIP3     19330    TIP3     H1       HT       0.417000       1.00800           0
     80372 TIP3     19330    TIP3     H2       HT       0.417000       1.00800           0
     80373 TIP3     19331    TIP3     OH2      OT      -0.834000       15.9994           0
     80374 TIP3     19331    TIP3     H1       HT       0.417000       1.00800           0
     80375 TIP3     19331    TIP3     H2       HT       0.417000       1.00800           0
     80376 TIP3     19332    TIP3     OH2      OT      -0.834000       15.9994           0
     80377 TIP3     19332    TIP3     H1       HT       0.417000       1.00800           0
     80378 TIP3     19332    TIP3     H2       HT       0.417000       1.00800           0
     80379 TIP3     19333    TIP3     OH2      OT      -0.834000       15.9994           0
     80380 TIP3     19333    TIP3     H1       HT       0.417000       1.00800           0
     80381 TIP3     19333    TIP3     H2       HT       0.417000       1.00800           0
     80382 TIP3     19334    TIP3     OH2      OT      -0.834000       15.9994           0
     80383 TIP3     19334    TIP3     H1       HT       0.417000       1.00800           0
     80384 TIP3     19334    TIP3     H2       HT       0.417000       1.00800           0
     80385 TIP3     19335    TIP3     OH2      OT      -0.834000       15.9994           0
     80386 TIP3     19335    TIP3     H1       HT       0.417000       1.00800           0
     80387 TIP3     19335    TIP3     H2       HT       0.417000       1.00800           0
     80388 TIP3     19336    TIP3     OH2      OT      -0.834000       15.9994           0
     80389 TIP3     19336    TIP3     H1       HT       0.417000       1.00800           0
     80390 TIP3     19336    TIP3     H2       HT       0.417000       1.00800           0
     80391 TIP3     19337    TIP3     OH2      OT      -0.834000       15.9994           0
     80392 TIP3     19337    TIP3     H1       HT       0.417000       1.00800           0
     80393 TIP3     19337    TIP3     H2       HT       0.417000       1.00800           0
     80394 TIP3     19338    TIP3     OH2      OT      -0.834000       15.9994           0
     80395 TIP3     19338    TIP3     H1       HT       0.417000       1.00800           0
     80396 TIP3     19338    TIP3     H2       HT       0.417000       1.00800           0
     80397 TIP3     19339    TIP3     OH2      OT      -0.834000       15.9994           0
     80398 TIP3     19339    TIP3     H1       HT       0.417000       1.00800           0
     80399 TIP3     19339    TIP3     H2       HT       0.417000       1.00800           0
     80400 TIP3     19340    TIP3     OH2      OT      -0.834000       15.9994           0
     80401 TIP3     19340    TIP3     H1       HT       0.417000       1.00800           0
     80402 TIP3     19340    TIP3     H2       HT       0.417000       1.00800           0
     80403 TIP3     19341    TIP3     OH2      OT      -0.834000       15.9994           0
     80404 TIP3     19341    TIP3     H1       HT       0.417000       1.00800           0
     80405 TIP3     19341    TIP3     H2       HT       0.417000       1.00800           0
     80406 TIP3     19342    TIP3     OH2      OT      -0.834000       15.9994           0
     80407 TIP3     19342    TIP3     H1       HT       0.417000       1.00800           0
     80408 TIP3     19342    TIP3     H2       HT       0.417000       1.00800           0
     80409 TIP3     19343    TIP3     OH2      OT      -0.834000       15.9994           0
     80410 TIP3     19343    TIP3     H1       HT       0.417000       1.00800           0
     80411 TIP3     19343    TIP3     H2       HT       0.417000       1.00800           0
     80412 TIP3     19344    TIP3     OH2      OT      -0.834000       15.9994           0
     80413 TIP3     19344    TIP3     H1       HT       0.417000       1.00800           0
     80414 TIP3     19344    TIP3     H2       HT       0.417000       1.00800           0
     80415 TIP3     19345    TIP3     OH2      OT      -0.834000       15.9994           0
     80416 TIP3     19345    TIP3     H1       HT       0.417000       1.00800           0
     80417 TIP3     19345    TIP3     H2       HT       0.417000       1.00800           0
     80418 TIP3     19346    TIP3     OH2      OT      -0.834000       15.9994           0
     80419 TIP3     19346    TIP3     H1       HT       0.417000       1.00800           0
     80420 TIP3     19346    TIP3     H2       HT       0.417000       1.00800           0
     80421 TIP3     19347    TIP3     OH2      OT      -0.834000       15.9994           0
     80422 TIP3     19347    TIP3     H1       HT       0.417000       1.00800           0
     80423 TIP3     19347    TIP3     H2       HT       0.417000       1.00800           0
     80424 TIP3     19348    TIP3     OH2      OT      -0.834000       15.9994           0
     80425 TIP3     19348    TIP3     H1       HT       0.417000       1.00800           0
     80426 TIP3     19348    TIP3     H2       HT       0.417000       1.00800           0
     80427 TIP3     19349    TIP3     OH2      OT      -0.834000       15.9994           0
     80428 TIP3     19349    TIP3     H1       HT       0.417000       1.00800           0
     80429 TIP3     19349    TIP3     H2       HT       0.417000       1.00800           0
     80430 TIP3     19350    TIP3     OH2      OT      -0.834000       15.9994           0
     80431 TIP3     19350    TIP3     H1       HT       0.417000       1.00800           0
     80432 TIP3     19350    TIP3     H2       HT       0.417000       1.00800           0
     80433 TIP3     19351    TIP3     OH2      OT      -0.834000       15.9994           0
     80434 TIP3     19351    TIP3     H1       HT       0.417000       1.00800           0
     80435 TIP3     19351    TIP3     H2       HT       0.417000       1.00800           0
     80436 TIP3     19352    TIP3     OH2      OT      -0.834000       15.9994           0
     80437 TIP3     19352    TIP3     H1       HT       0.417000       1.00800           0
     80438 TIP3     19352    TIP3     H2       HT       0.417000       1.00800           0
     80439 TIP3     19353    TIP3     OH2      OT      -0.834000       15.9994           0
     80440 TIP3     19353    TIP3     H1       HT       0.417000       1.00800           0
     80441 TIP3     19353    TIP3     H2       HT       0.417000       1.00800           0
     80442 TIP3     19354    TIP3     OH2      OT      -0.834000       15.9994           0
     80443 TIP3     19354    TIP3     H1       HT       0.417000       1.00800           0
     80444 TIP3     19354    TIP3     H2       HT       0.417000       1.00800           0
     80445 TIP3     19355    TIP3     OH2      OT      -0.834000       15.9994           0
     80446 TIP3     19355    TIP3     H1       HT       0.417000       1.00800           0
     80447 TIP3     19355    TIP3     H2       HT       0.417000       1.00800           0
     80448 TIP3     19356    TIP3     OH2      OT      -0.834000       15.9994           0
     80449 TIP3     19356    TIP3     H1       HT       0.417000       1.00800           0
     80450 TIP3     19356    TIP3     H2       HT       0.417000       1.00800           0
     80451 TIP3     19357    TIP3     OH2      OT      -0.834000       15.9994           0
     80452 TIP3     19357    TIP3     H1       HT       0.417000       1.00800           0
     80453 TIP3     19357    TIP3     H2       HT       0.417000       1.00800           0
     80454 TIP3     19358    TIP3     OH2      OT      -0.834000       15.9994           0
     80455 TIP3     19358    TIP3     H1       HT       0.417000       1.00800           0
     80456 TIP3     19358    TIP3     H2       HT       0.417000       1.00800           0
     80457 TIP3     19359    TIP3     OH2      OT      -0.834000       15.9994           0
     80458 TIP3     19359    TIP3     H1       HT       0.417000       1.00800           0
     80459 TIP3     19359    TIP3     H2       HT       0.417000       1.00800           0
     80460 TIP3     19360    TIP3     OH2      OT      -0.834000       15.9994           0
     80461 TIP3     19360    TIP3     H1       HT       0.417000       1.00800           0
     80462 TIP3     19360    TIP3     H2       HT       0.417000       1.00800           0
     80463 TIP3     19361    TIP3     OH2      OT      -0.834000       15.9994           0
     80464 TIP3     19361    TIP3     H1       HT       0.417000       1.00800           0
     80465 TIP3     19361    TIP3     H2       HT       0.417000       1.00800           0
     80466 TIP3     19362    TIP3     OH2      OT      -0.834000       15.9994           0
     80467 TIP3     19362    TIP3     H1       HT       0.417000       1.00800           0
     80468 TIP3     19362    TIP3     H2       HT       0.417000       1.00800           0
     80469 TIP3     19363    TIP3     OH2      OT      -0.834000       15.9994           0
     80470 TIP3     19363    TIP3     H1       HT       0.417000       1.00800           0
     80471 TIP3     19363    TIP3     H2       HT       0.417000       1.00800           0
     80472 TIP3     19364    TIP3     OH2      OT      -0.834000       15.9994           0
     80473 TIP3     19364    TIP3     H1       HT       0.417000       1.00800           0
     80474 TIP3     19364    TIP3     H2       HT       0.417000       1.00800           0
     80475 TIP3     19365    TIP3     OH2      OT      -0.834000       15.9994           0
     80476 TIP3     19365    TIP3     H1       HT       0.417000       1.00800           0
     80477 TIP3     19365    TIP3     H2       HT       0.417000       1.00800           0
     80478 TIP3     19366    TIP3     OH2      OT      -0.834000       15.9994           0
     80479 TIP3     19366    TIP3     H1       HT       0.417000       1.00800           0
     80480 TIP3     19366    TIP3     H2       HT       0.417000       1.00800           0
     80481 TIP3     19367    TIP3     OH2      OT      -0.834000       15.9994           0
     80482 TIP3     19367    TIP3     H1       HT       0.417000       1.00800           0
     80483 TIP3     19367    TIP3     H2       HT       0.417000       1.00800           0
     80484 TIP3     19368    TIP3     OH2      OT      -0.834000       15.9994           0
     80485 TIP3     19368    TIP3     H1       HT       0.417000       1.00800           0
     80486 TIP3     19368    TIP3     H2       HT       0.417000       1.00800           0
     80487 TIP3     19369    TIP3     OH2      OT      -0.834000       15.9994           0
     80488 TIP3     19369    TIP3     H1       HT       0.417000       1.00800           0
     80489 TIP3     19369    TIP3     H2       HT       0.417000       1.00800           0
     80490 TIP3     19370    TIP3     OH2      OT      -0.834000       15.9994           0
     80491 TIP3     19370    TIP3     H1       HT       0.417000       1.00800           0
     80492 TIP3     19370    TIP3     H2       HT       0.417000       1.00800           0
     80493 TIP3     19371    TIP3     OH2      OT      -0.834000       15.9994           0
     80494 TIP3     19371    TIP3     H1       HT       0.417000       1.00800           0
     80495 TIP3     19371    TIP3     H2       HT       0.417000       1.00800           0
     80496 TIP3     19372    TIP3     OH2      OT      -0.834000       15.9994           0
     80497 TIP3     19372    TIP3     H1       HT       0.417000       1.00800           0
     80498 TIP3     19372    TIP3     H2       HT       0.417000       1.00800           0
     80499 TIP3     19373    TIP3     OH2      OT      -0.834000       15.9994           0
     80500 TIP3     19373    TIP3     H1       HT       0.417000       1.00800           0
     80501 TIP3     19373    TIP3     H2       HT       0.417000       1.00800           0
     80502 TIP3     19374    TIP3     OH2      OT      -0.834000       15.9994           0
     80503 TIP3     19374    TIP3     H1       HT       0.417000       1.00800           0
     80504 TIP3     19374    TIP3     H2       HT       0.417000       1.00800           0
     80505 TIP3     19375    TIP3     OH2      OT      -0.834000       15.9994           0
     80506 TIP3     19375    TIP3     H1       HT       0.417000       1.00800           0
     80507 TIP3     19375    TIP3     H2       HT       0.417000       1.00800           0
     80508 TIP3     19376    TIP3     OH2      OT      -0.834000       15.9994           0
     80509 TIP3     19376    TIP3     H1       HT       0.417000       1.00800           0
     80510 TIP3     19376    TIP3     H2       HT       0.417000       1.00800           0
     80511 TIP3     19377    TIP3     OH2      OT      -0.834000       15.9994           0
     80512 TIP3     19377    TIP3     H1       HT       0.417000       1.00800           0
     80513 TIP3     19377    TIP3     H2       HT       0.417000       1.00800           0
     80514 TIP3     19378    TIP3     OH2      OT      -0.834000       15.9994           0
     80515 TIP3     19378    TIP3     H1       HT       0.417000       1.00800           0
     80516 TIP3     19378    TIP3     H2       HT       0.417000       1.00800           0
     80517 TIP3     19379    TIP3     OH2      OT      -0.834000       15.9994           0
     80518 TIP3     19379    TIP3     H1       HT       0.417000       1.00800           0
     80519 TIP3     19379    TIP3     H2       HT       0.417000       1.00800           0
     80520 TIP3     19380    TIP3     OH2      OT      -0.834000       15.9994           0
     80521 TIP3     19380    TIP3     H1       HT       0.417000       1.00800           0
     80522 TIP3     19380    TIP3     H2       HT       0.417000       1.00800           0
     80523 TIP3     19381    TIP3     OH2      OT      -0.834000       15.9994           0
     80524 TIP3     19381    TIP3     H1       HT       0.417000       1.00800           0
     80525 TIP3     19381    TIP3     H2       HT       0.417000       1.00800           0
     80526 TIP3     19382    TIP3     OH2      OT      -0.834000       15.9994           0
     80527 TIP3     19382    TIP3     H1       HT       0.417000       1.00800           0
     80528 TIP3     19382    TIP3     H2       HT       0.417000       1.00800           0
     80529 TIP3     19383    TIP3     OH2      OT      -0.834000       15.9994           0
     80530 TIP3     19383    TIP3     H1       HT       0.417000       1.00800           0
     80531 TIP3     19383    TIP3     H2       HT       0.417000       1.00800           0
     80532 TIP3     19384    TIP3     OH2      OT      -0.834000       15.9994           0
     80533 TIP3     19384    TIP3     H1       HT       0.417000       1.00800           0
     80534 TIP3     19384    TIP3     H2       HT       0.417000       1.00800           0
     80535 TIP3     19385    TIP3     OH2      OT      -0.834000       15.9994           0
     80536 TIP3     19385    TIP3     H1       HT       0.417000       1.00800           0
     80537 TIP3     19385    TIP3     H2       HT       0.417000       1.00800           0
     80538 TIP3     19386    TIP3     OH2      OT      -0.834000       15.9994           0
     80539 TIP3     19386    TIP3     H1       HT       0.417000       1.00800           0
     80540 TIP3     19386    TIP3     H2       HT       0.417000       1.00800           0
     80541 TIP3     19387    TIP3     OH2      OT      -0.834000       15.9994           0
     80542 TIP3     19387    TIP3     H1       HT       0.417000       1.00800           0
     80543 TIP3     19387    TIP3     H2       HT       0.417000       1.00800           0
     80544 TIP3     19388    TIP3     OH2      OT      -0.834000       15.9994           0
     80545 TIP3     19388    TIP3     H1       HT       0.417000       1.00800           0
     80546 TIP3     19388    TIP3     H2       HT       0.417000       1.00800           0
     80547 TIP3     19389    TIP3     OH2      OT      -0.834000       15.9994           0
     80548 TIP3     19389    TIP3     H1       HT       0.417000       1.00800           0
     80549 TIP3     19389    TIP3     H2       HT       0.417000       1.00800           0
     80550 TIP3     19390    TIP3     OH2      OT      -0.834000       15.9994           0
     80551 TIP3     19390    TIP3     H1       HT       0.417000       1.00800           0
     80552 TIP3     19390    TIP3     H2       HT       0.417000       1.00800           0
     80553 TIP3     19391    TIP3     OH2      OT      -0.834000       15.9994           0
     80554 TIP3     19391    TIP3     H1       HT       0.417000       1.00800           0
     80555 TIP3     19391    TIP3     H2       HT       0.417000       1.00800           0
     80556 TIP3     19392    TIP3     OH2      OT      -0.834000       15.9994           0
     80557 TIP3     19392    TIP3     H1       HT       0.417000       1.00800           0
     80558 TIP3     19392    TIP3     H2       HT       0.417000       1.00800           0
     80559 TIP3     19393    TIP3     OH2      OT      -0.834000       15.9994           0
     80560 TIP3     19393    TIP3     H1       HT       0.417000       1.00800           0
     80561 TIP3     19393    TIP3     H2       HT       0.417000       1.00800           0
     80562 TIP3     19394    TIP3     OH2      OT      -0.834000       15.9994           0
     80563 TIP3     19394    TIP3     H1       HT       0.417000       1.00800           0
     80564 TIP3     19394    TIP3     H2       HT       0.417000       1.00800           0
     80565 TIP3     19395    TIP3     OH2      OT      -0.834000       15.9994           0
     80566 TIP3     19395    TIP3     H1       HT       0.417000       1.00800           0
     80567 TIP3     19395    TIP3     H2       HT       0.417000       1.00800           0
     80568 TIP3     19396    TIP3     OH2      OT      -0.834000       15.9994           0
     80569 TIP3     19396    TIP3     H1       HT       0.417000       1.00800           0
     80570 TIP3     19396    TIP3     H2       HT       0.417000       1.00800           0
     80571 TIP3     19397    TIP3     OH2      OT      -0.834000       15.9994           0
     80572 TIP3     19397    TIP3     H1       HT       0.417000       1.00800           0
     80573 TIP3     19397    TIP3     H2       HT       0.417000       1.00800           0
     80574 TIP3     19398    TIP3     OH2      OT      -0.834000       15.9994           0
     80575 TIP3     19398    TIP3     H1       HT       0.417000       1.00800           0
     80576 TIP3     19398    TIP3     H2       HT       0.417000       1.00800           0
     80577 TIP3     19399    TIP3     OH2      OT      -0.834000       15.9994           0
     80578 TIP3     19399    TIP3     H1       HT       0.417000       1.00800           0
     80579 TIP3     19399    TIP3     H2       HT       0.417000       1.00800           0
     80580 TIP3     19400    TIP3     OH2      OT      -0.834000       15.9994           0
     80581 TIP3     19400    TIP3     H1       HT       0.417000       1.00800           0
     80582 TIP3     19400    TIP3     H2       HT       0.417000       1.00800           0
     80583 TIP3     19401    TIP3     OH2      OT      -0.834000       15.9994           0
     80584 TIP3     19401    TIP3     H1       HT       0.417000       1.00800           0
     80585 TIP3     19401    TIP3     H2       HT       0.417000       1.00800           0
     80586 TIP3     19402    TIP3     OH2      OT      -0.834000       15.9994           0
     80587 TIP3     19402    TIP3     H1       HT       0.417000       1.00800           0
     80588 TIP3     19402    TIP3     H2       HT       0.417000       1.00800           0
     80589 TIP3     19403    TIP3     OH2      OT      -0.834000       15.9994           0
     80590 TIP3     19403    TIP3     H1       HT       0.417000       1.00800           0
     80591 TIP3     19403    TIP3     H2       HT       0.417000       1.00800           0
     80592 TIP3     19404    TIP3     OH2      OT      -0.834000       15.9994           0
     80593 TIP3     19404    TIP3     H1       HT       0.417000       1.00800           0
     80594 TIP3     19404    TIP3     H2       HT       0.417000       1.00800           0
     80595 TIP3     19405    TIP3     OH2      OT      -0.834000       15.9994           0
     80596 TIP3     19405    TIP3     H1       HT       0.417000       1.00800           0
     80597 TIP3     19405    TIP3     H2       HT       0.417000       1.00800           0
     80598 TIP3     19406    TIP3     OH2      OT      -0.834000       15.9994           0
     80599 TIP3     19406    TIP3     H1       HT       0.417000       1.00800           0
     80600 TIP3     19406    TIP3     H2       HT       0.417000       1.00800           0
     80601 TIP3     19407    TIP3     OH2      OT      -0.834000       15.9994           0
     80602 TIP3     19407    TIP3     H1       HT       0.417000       1.00800           0
     80603 TIP3     19407    TIP3     H2       HT       0.417000       1.00800           0
     80604 TIP3     19408    TIP3     OH2      OT      -0.834000       15.9994           0
     80605 TIP3     19408    TIP3     H1       HT       0.417000       1.00800           0
     80606 TIP3     19408    TIP3     H2       HT       0.417000       1.00800           0
     80607 TIP3     19409    TIP3     OH2      OT      -0.834000       15.9994           0
     80608 TIP3     19409    TIP3     H1       HT       0.417000       1.00800           0
     80609 TIP3     19409    TIP3     H2       HT       0.417000       1.00800           0
     80610 TIP3     19410    TIP3     OH2      OT      -0.834000       15.9994           0
     80611 TIP3     19410    TIP3     H1       HT       0.417000       1.00800           0
     80612 TIP3     19410    TIP3     H2       HT       0.417000       1.00800           0
     80613 TIP3     19411    TIP3     OH2      OT      -0.834000       15.9994           0
     80614 TIP3     19411    TIP3     H1       HT       0.417000       1.00800           0
     80615 TIP3     19411    TIP3     H2       HT       0.417000       1.00800           0
     80616 TIP3     19412    TIP3     OH2      OT      -0.834000       15.9994           0
     80617 TIP3     19412    TIP3     H1       HT       0.417000       1.00800           0
     80618 TIP3     19412    TIP3     H2       HT       0.417000       1.00800           0
     80619 TIP3     19413    TIP3     OH2      OT      -0.834000       15.9994           0
     80620 TIP3     19413    TIP3     H1       HT       0.417000       1.00800           0
     80621 TIP3     19413    TIP3     H2       HT       0.417000       1.00800           0
     80622 TIP3     19414    TIP3     OH2      OT      -0.834000       15.9994           0
     80623 TIP3     19414    TIP3     H1       HT       0.417000       1.00800           0
     80624 TIP3     19414    TIP3     H2       HT       0.417000       1.00800           0
     80625 TIP3     19415    TIP3     OH2      OT      -0.834000       15.9994           0
     80626 TIP3     19415    TIP3     H1       HT       0.417000       1.00800           0
     80627 TIP3     19415    TIP3     H2       HT       0.417000       1.00800           0
     80628 TIP3     19416    TIP3     OH2      OT      -0.834000       15.9994           0
     80629 TIP3     19416    TIP3     H1       HT       0.417000       1.00800           0
     80630 TIP3     19416    TIP3     H2       HT       0.417000       1.00800           0
     80631 TIP3     19417    TIP3     OH2      OT      -0.834000       15.9994           0
     80632 TIP3     19417    TIP3     H1       HT       0.417000       1.00800           0
     80633 TIP3     19417    TIP3     H2       HT       0.417000       1.00800           0
     80634 TIP3     19418    TIP3     OH2      OT      -0.834000       15.9994           0
     80635 TIP3     19418    TIP3     H1       HT       0.417000       1.00800           0
     80636 TIP3     19418    TIP3     H2       HT       0.417000       1.00800           0
     80637 TIP3     19419    TIP3     OH2      OT      -0.834000       15.9994           0
     80638 TIP3     19419    TIP3     H1       HT       0.417000       1.00800           0
     80639 TIP3     19419    TIP3     H2       HT       0.417000       1.00800           0
     80640 TIP3     19420    TIP3     OH2      OT      -0.834000       15.9994           0
     80641 TIP3     19420    TIP3     H1       HT       0.417000       1.00800           0
     80642 TIP3     19420    TIP3     H2       HT       0.417000       1.00800           0
     80643 TIP3     19421    TIP3     OH2      OT      -0.834000       15.9994           0
     80644 TIP3     19421    TIP3     H1       HT       0.417000       1.00800           0
     80645 TIP3     19421    TIP3     H2       HT       0.417000       1.00800           0
     80646 TIP3     19422    TIP3     OH2      OT      -0.834000       15.9994           0
     80647 TIP3     19422    TIP3     H1       HT       0.417000       1.00800           0
     80648 TIP3     19422    TIP3     H2       HT       0.417000       1.00800           0
     80649 TIP3     19423    TIP3     OH2      OT      -0.834000       15.9994           0
     80650 TIP3     19423    TIP3     H1       HT       0.417000       1.00800           0
     80651 TIP3     19423    TIP3     H2       HT       0.417000       1.00800           0
     80652 TIP3     19424    TIP3     OH2      OT      -0.834000       15.9994           0
     80653 TIP3     19424    TIP3     H1       HT       0.417000       1.00800           0
     80654 TIP3     19424    TIP3     H2       HT       0.417000       1.00800           0
     80655 TIP3     19425    TIP3     OH2      OT      -0.834000       15.9994           0
     80656 TIP3     19425    TIP3     H1       HT       0.417000       1.00800           0
     80657 TIP3     19425    TIP3     H2       HT       0.417000       1.00800           0
     80658 TIP3     19426    TIP3     OH2      OT      -0.834000       15.9994           0
     80659 TIP3     19426    TIP3     H1       HT       0.417000       1.00800           0
     80660 TIP3     19426    TIP3     H2       HT       0.417000       1.00800           0
     80661 TIP3     19427    TIP3     OH2      OT      -0.834000       15.9994           0
     80662 TIP3     19427    TIP3     H1       HT       0.417000       1.00800           0
     80663 TIP3     19427    TIP3     H2       HT       0.417000       1.00800           0
     80664 TIP3     19428    TIP3     OH2      OT      -0.834000       15.9994           0
     80665 TIP3     19428    TIP3     H1       HT       0.417000       1.00800           0
     80666 TIP3     19428    TIP3     H2       HT       0.417000       1.00800           0
     80667 TIP3     19429    TIP3     OH2      OT      -0.834000       15.9994           0
     80668 TIP3     19429    TIP3     H1       HT       0.417000       1.00800           0
     80669 TIP3     19429    TIP3     H2       HT       0.417000       1.00800           0
     80670 TIP3     19430    TIP3     OH2      OT      -0.834000       15.9994           0
     80671 TIP3     19430    TIP3     H1       HT       0.417000       1.00800           0
     80672 TIP3     19430    TIP3     H2       HT       0.417000       1.00800           0
     80673 TIP3     19431    TIP3     OH2      OT      -0.834000       15.9994           0
     80674 TIP3     19431    TIP3     H1       HT       0.417000       1.00800           0
     80675 TIP3     19431    TIP3     H2       HT       0.417000       1.00800           0
     80676 TIP3     19432    TIP3     OH2      OT      -0.834000       15.9994           0
     80677 TIP3     19432    TIP3     H1       HT       0.417000       1.00800           0
     80678 TIP3     19432    TIP3     H2       HT       0.417000       1.00800           0
     80679 TIP3     19433    TIP3     OH2      OT      -0.834000       15.9994           0
     80680 TIP3     19433    TIP3     H1       HT       0.417000       1.00800           0
     80681 TIP3     19433    TIP3     H2       HT       0.417000       1.00800           0
     80682 TIP3     19434    TIP3     OH2      OT      -0.834000       15.9994           0
     80683 TIP3     19434    TIP3     H1       HT       0.417000       1.00800           0
     80684 TIP3     19434    TIP3     H2       HT       0.417000       1.00800           0
     80685 TIP3     19435    TIP3     OH2      OT      -0.834000       15.9994           0
     80686 TIP3     19435    TIP3     H1       HT       0.417000       1.00800           0
     80687 TIP3     19435    TIP3     H2       HT       0.417000       1.00800           0
     80688 TIP3     19436    TIP3     OH2      OT      -0.834000       15.9994           0
     80689 TIP3     19436    TIP3     H1       HT       0.417000       1.00800           0
     80690 TIP3     19436    TIP3     H2       HT       0.417000       1.00800           0
     80691 TIP3     19437    TIP3     OH2      OT      -0.834000       15.9994           0
     80692 TIP3     19437    TIP3     H1       HT       0.417000       1.00800           0
     80693 TIP3     19437    TIP3     H2       HT       0.417000       1.00800           0
     80694 TIP3     19438    TIP3     OH2      OT      -0.834000       15.9994           0
     80695 TIP3     19438    TIP3     H1       HT       0.417000       1.00800           0
     80696 TIP3     19438    TIP3     H2       HT       0.417000       1.00800           0
     80697 TIP3     19439    TIP3     OH2      OT      -0.834000       15.9994           0
     80698 TIP3     19439    TIP3     H1       HT       0.417000       1.00800           0
     80699 TIP3     19439    TIP3     H2       HT       0.417000       1.00800           0
     80700 TIP3     19440    TIP3     OH2      OT      -0.834000       15.9994           0
     80701 TIP3     19440    TIP3     H1       HT       0.417000       1.00800           0
     80702 TIP3     19440    TIP3     H2       HT       0.417000       1.00800           0
     80703 TIP3     19441    TIP3     OH2      OT      -0.834000       15.9994           0
     80704 TIP3     19441    TIP3     H1       HT       0.417000       1.00800           0
     80705 TIP3     19441    TIP3     H2       HT       0.417000       1.00800           0
     80706 TIP3     19442    TIP3     OH2      OT      -0.834000       15.9994           0
     80707 TIP3     19442    TIP3     H1       HT       0.417000       1.00800           0
     80708 TIP3     19442    TIP3     H2       HT       0.417000       1.00800           0
     80709 TIP3     19443    TIP3     OH2      OT      -0.834000       15.9994           0
     80710 TIP3     19443    TIP3     H1       HT       0.417000       1.00800           0
     80711 TIP3     19443    TIP3     H2       HT       0.417000       1.00800           0
     80712 TIP3     19444    TIP3     OH2      OT      -0.834000       15.9994           0
     80713 TIP3     19444    TIP3     H1       HT       0.417000       1.00800           0
     80714 TIP3     19444    TIP3     H2       HT       0.417000       1.00800           0
     80715 TIP3     19445    TIP3     OH2      OT      -0.834000       15.9994           0
     80716 TIP3     19445    TIP3     H1       HT       0.417000       1.00800           0
     80717 TIP3     19445    TIP3     H2       HT       0.417000       1.00800           0
     80718 TIP3     19446    TIP3     OH2      OT      -0.834000       15.9994           0
     80719 TIP3     19446    TIP3     H1       HT       0.417000       1.00800           0
     80720 TIP3     19446    TIP3     H2       HT       0.417000       1.00800           0
     80721 TIP3     19447    TIP3     OH2      OT      -0.834000       15.9994           0
     80722 TIP3     19447    TIP3     H1       HT       0.417000       1.00800           0
     80723 TIP3     19447    TIP3     H2       HT       0.417000       1.00800           0
     80724 TIP3     19448    TIP3     OH2      OT      -0.834000       15.9994           0
     80725 TIP3     19448    TIP3     H1       HT       0.417000       1.00800           0
     80726 TIP3     19448    TIP3     H2       HT       0.417000       1.00800           0
     80727 TIP3     19449    TIP3     OH2      OT      -0.834000       15.9994           0
     80728 TIP3     19449    TIP3     H1       HT       0.417000       1.00800           0
     80729 TIP3     19449    TIP3     H2       HT       0.417000       1.00800           0
     80730 TIP3     19450    TIP3     OH2      OT      -0.834000       15.9994           0
     80731 TIP3     19450    TIP3     H1       HT       0.417000       1.00800           0
     80732 TIP3     19450    TIP3     H2       HT       0.417000       1.00800           0
     80733 TIP3     19451    TIP3     OH2      OT      -0.834000       15.9994           0
     80734 TIP3     19451    TIP3     H1       HT       0.417000       1.00800           0
     80735 TIP3     19451    TIP3     H2       HT       0.417000       1.00800           0
     80736 TIP3     19452    TIP3     OH2      OT      -0.834000       15.9994           0
     80737 TIP3     19452    TIP3     H1       HT       0.417000       1.00800           0
     80738 TIP3     19452    TIP3     H2       HT       0.417000       1.00800           0
     80739 TIP3     19453    TIP3     OH2      OT      -0.834000       15.9994           0
     80740 TIP3     19453    TIP3     H1       HT       0.417000       1.00800           0
     80741 TIP3     19453    TIP3     H2       HT       0.417000       1.00800           0
     80742 TIP3     19454    TIP3     OH2      OT      -0.834000       15.9994           0
     80743 TIP3     19454    TIP3     H1       HT       0.417000       1.00800           0
     80744 TIP3     19454    TIP3     H2       HT       0.417000       1.00800           0
     80745 TIP3     19455    TIP3     OH2      OT      -0.834000       15.9994           0
     80746 TIP3     19455    TIP3     H1       HT       0.417000       1.00800           0
     80747 TIP3     19455    TIP3     H2       HT       0.417000       1.00800           0
     80748 TIP3     19456    TIP3     OH2      OT      -0.834000       15.9994           0
     80749 TIP3     19456    TIP3     H1       HT       0.417000       1.00800           0
     80750 TIP3     19456    TIP3     H2       HT       0.417000       1.00800           0
     80751 TIP3     19457    TIP3     OH2      OT      -0.834000       15.9994           0
     80752 TIP3     19457    TIP3     H1       HT       0.417000       1.00800           0
     80753 TIP3     19457    TIP3     H2       HT       0.417000       1.00800           0
     80754 TIP3     19458    TIP3     OH2      OT      -0.834000       15.9994           0
     80755 TIP3     19458    TIP3     H1       HT       0.417000       1.00800           0
     80756 TIP3     19458    TIP3     H2       HT       0.417000       1.00800           0
     80757 TIP3     19459    TIP3     OH2      OT      -0.834000       15.9994           0
     80758 TIP3     19459    TIP3     H1       HT       0.417000       1.00800           0
     80759 TIP3     19459    TIP3     H2       HT       0.417000       1.00800           0
     80760 TIP3     19460    TIP3     OH2      OT      -0.834000       15.9994           0
     80761 TIP3     19460    TIP3     H1       HT       0.417000       1.00800           0
     80762 TIP3     19460    TIP3     H2       HT       0.417000       1.00800           0
     80763 TIP3     19461    TIP3     OH2      OT      -0.834000       15.9994           0
     80764 TIP3     19461    TIP3     H1       HT       0.417000       1.00800           0
     80765 TIP3     19461    TIP3     H2       HT       0.417000       1.00800           0
     80766 TIP3     19462    TIP3     OH2      OT      -0.834000       15.9994           0
     80767 TIP3     19462    TIP3     H1       HT       0.417000       1.00800           0
     80768 TIP3     19462    TIP3     H2       HT       0.417000       1.00800           0
     80769 TIP3     19463    TIP3     OH2      OT      -0.834000       15.9994           0
     80770 TIP3     19463    TIP3     H1       HT       0.417000       1.00800           0
     80771 TIP3     19463    TIP3     H2       HT       0.417000       1.00800           0
     80772 TIP3     19464    TIP3     OH2      OT      -0.834000       15.9994           0
     80773 TIP3     19464    TIP3     H1       HT       0.417000       1.00800           0
     80774 TIP3     19464    TIP3     H2       HT       0.417000       1.00800           0
     80775 TIP3     19465    TIP3     OH2      OT      -0.834000       15.9994           0
     80776 TIP3     19465    TIP3     H1       HT       0.417000       1.00800           0
     80777 TIP3     19465    TIP3     H2       HT       0.417000       1.00800           0
     80778 TIP3     19466    TIP3     OH2      OT      -0.834000       15.9994           0
     80779 TIP3     19466    TIP3     H1       HT       0.417000       1.00800           0
     80780 TIP3     19466    TIP3     H2       HT       0.417000       1.00800           0
     80781 TIP3     19467    TIP3     OH2      OT      -0.834000       15.9994           0
     80782 TIP3     19467    TIP3     H1       HT       0.417000       1.00800           0
     80783 TIP3     19467    TIP3     H2       HT       0.417000       1.00800           0
     80784 TIP3     19468    TIP3     OH2      OT      -0.834000       15.9994           0
     80785 TIP3     19468    TIP3     H1       HT       0.417000       1.00800           0
     80786 TIP3     19468    TIP3     H2       HT       0.417000       1.00800           0
     80787 TIP3     19469    TIP3     OH2      OT      -0.834000       15.9994           0
     80788 TIP3     19469    TIP3     H1       HT       0.417000       1.00800           0
     80789 TIP3     19469    TIP3     H2       HT       0.417000       1.00800           0
     80790 TIP3     19470    TIP3     OH2      OT      -0.834000       15.9994           0
     80791 TIP3     19470    TIP3     H1       HT       0.417000       1.00800           0
     80792 TIP3     19470    TIP3     H2       HT       0.417000       1.00800           0
     80793 TIP3     19471    TIP3     OH2      OT      -0.834000       15.9994           0
     80794 TIP3     19471    TIP3     H1       HT       0.417000       1.00800           0
     80795 TIP3     19471    TIP3     H2       HT       0.417000       1.00800           0
     80796 TIP3     19472    TIP3     OH2      OT      -0.834000       15.9994           0
     80797 TIP3     19472    TIP3     H1       HT       0.417000       1.00800           0
     80798 TIP3     19472    TIP3     H2       HT       0.417000       1.00800           0
     80799 TIP3     19473    TIP3     OH2      OT      -0.834000       15.9994           0
     80800 TIP3     19473    TIP3     H1       HT       0.417000       1.00800           0
     80801 TIP3     19473    TIP3     H2       HT       0.417000       1.00800           0
     80802 TIP3     19474    TIP3     OH2      OT      -0.834000       15.9994           0
     80803 TIP3     19474    TIP3     H1       HT       0.417000       1.00800           0
     80804 TIP3     19474    TIP3     H2       HT       0.417000       1.00800           0
     80805 TIP3     19475    TIP3     OH2      OT      -0.834000       15.9994           0
     80806 TIP3     19475    TIP3     H1       HT       0.417000       1.00800           0
     80807 TIP3     19475    TIP3     H2       HT       0.417000       1.00800           0
     80808 TIP3     19476    TIP3     OH2      OT      -0.834000       15.9994           0
     80809 TIP3     19476    TIP3     H1       HT       0.417000       1.00800           0
     80810 TIP3     19476    TIP3     H2       HT       0.417000       1.00800           0
     80811 TIP3     19477    TIP3     OH2      OT      -0.834000       15.9994           0
     80812 TIP3     19477    TIP3     H1       HT       0.417000       1.00800           0
     80813 TIP3     19477    TIP3     H2       HT       0.417000       1.00800           0
     80814 TIP3     19478    TIP3     OH2      OT      -0.834000       15.9994           0
     80815 TIP3     19478    TIP3     H1       HT       0.417000       1.00800           0
     80816 TIP3     19478    TIP3     H2       HT       0.417000       1.00800           0
     80817 TIP3     19479    TIP3     OH2      OT      -0.834000       15.9994           0
     80818 TIP3     19479    TIP3     H1       HT       0.417000       1.00800           0
     80819 TIP3     19479    TIP3     H2       HT       0.417000       1.00800           0
     80820 TIP3     19480    TIP3     OH2      OT      -0.834000       15.9994           0
     80821 TIP3     19480    TIP3     H1       HT       0.417000       1.00800           0
     80822 TIP3     19480    TIP3     H2       HT       0.417000       1.00800           0
     80823 TIP3     19481    TIP3     OH2      OT      -0.834000       15.9994           0
     80824 TIP3     19481    TIP3     H1       HT       0.417000       1.00800           0
     80825 TIP3     19481    TIP3     H2       HT       0.417000       1.00800           0
     80826 TIP3     19482    TIP3     OH2      OT      -0.834000       15.9994           0
     80827 TIP3     19482    TIP3     H1       HT       0.417000       1.00800           0
     80828 TIP3     19482    TIP3     H2       HT       0.417000       1.00800           0
     80829 TIP3     19483    TIP3     OH2      OT      -0.834000       15.9994           0
     80830 TIP3     19483    TIP3     H1       HT       0.417000       1.00800           0
     80831 TIP3     19483    TIP3     H2       HT       0.417000       1.00800           0
     80832 TIP3     19484    TIP3     OH2      OT      -0.834000       15.9994           0
     80833 TIP3     19484    TIP3     H1       HT       0.417000       1.00800           0
     80834 TIP3     19484    TIP3     H2       HT       0.417000       1.00800           0
     80835 TIP3     19485    TIP3     OH2      OT      -0.834000       15.9994           0
     80836 TIP3     19485    TIP3     H1       HT       0.417000       1.00800           0
     80837 TIP3     19485    TIP3     H2       HT       0.417000       1.00800           0
     80838 TIP3     19486    TIP3     OH2      OT      -0.834000       15.9994           0
     80839 TIP3     19486    TIP3     H1       HT       0.417000       1.00800           0
     80840 TIP3     19486    TIP3     H2       HT       0.417000       1.00800           0
     80841 TIP3     19487    TIP3     OH2      OT      -0.834000       15.9994           0
     80842 TIP3     19487    TIP3     H1       HT       0.417000       1.00800           0
     80843 TIP3     19487    TIP3     H2       HT       0.417000       1.00800           0
     80844 TIP3     19488    TIP3     OH2      OT      -0.834000       15.9994           0
     80845 TIP3     19488    TIP3     H1       HT       0.417000       1.00800           0
     80846 TIP3     19488    TIP3     H2       HT       0.417000       1.00800           0
     80847 TIP3     19489    TIP3     OH2      OT      -0.834000       15.9994           0
     80848 TIP3     19489    TIP3     H1       HT       0.417000       1.00800           0
     80849 TIP3     19489    TIP3     H2       HT       0.417000       1.00800           0
     80850 TIP3     19490    TIP3     OH2      OT      -0.834000       15.9994           0
     80851 TIP3     19490    TIP3     H1       HT       0.417000       1.00800           0
     80852 TIP3     19490    TIP3     H2       HT       0.417000       1.00800           0
     80853 TIP3     19491    TIP3     OH2      OT      -0.834000       15.9994           0
     80854 TIP3     19491    TIP3     H1       HT       0.417000       1.00800           0
     80855 TIP3     19491    TIP3     H2       HT       0.417000       1.00800           0
     80856 TIP3     19492    TIP3     OH2      OT      -0.834000       15.9994           0
     80857 TIP3     19492    TIP3     H1       HT       0.417000       1.00800           0
     80858 TIP3     19492    TIP3     H2       HT       0.417000       1.00800           0
     80859 TIP3     19493    TIP3     OH2      OT      -0.834000       15.9994           0
     80860 TIP3     19493    TIP3     H1       HT       0.417000       1.00800           0
     80861 TIP3     19493    TIP3     H2       HT       0.417000       1.00800           0
     80862 TIP3     19494    TIP3     OH2      OT      -0.834000       15.9994           0
     80863 TIP3     19494    TIP3     H1       HT       0.417000       1.00800           0
     80864 TIP3     19494    TIP3     H2       HT       0.417000       1.00800           0
     80865 TIP3     19495    TIP3     OH2      OT      -0.834000       15.9994           0
     80866 TIP3     19495    TIP3     H1       HT       0.417000       1.00800           0
     80867 TIP3     19495    TIP3     H2       HT       0.417000       1.00800           0
     80868 TIP3     19496    TIP3     OH2      OT      -0.834000       15.9994           0
     80869 TIP3     19496    TIP3     H1       HT       0.417000       1.00800           0
     80870 TIP3     19496    TIP3     H2       HT       0.417000       1.00800           0
     80871 TIP3     19497    TIP3     OH2      OT      -0.834000       15.9994           0
     80872 TIP3     19497    TIP3     H1       HT       0.417000       1.00800           0
     80873 TIP3     19497    TIP3     H2       HT       0.417000       1.00800           0
     80874 TIP3     19498    TIP3     OH2      OT      -0.834000       15.9994           0
     80875 TIP3     19498    TIP3     H1       HT       0.417000       1.00800           0
     80876 TIP3     19498    TIP3     H2       HT       0.417000       1.00800           0
     80877 TIP3     19499    TIP3     OH2      OT      -0.834000       15.9994           0
     80878 TIP3     19499    TIP3     H1       HT       0.417000       1.00800           0
     80879 TIP3     19499    TIP3     H2       HT       0.417000       1.00800           0
     80880 TIP3     19500    TIP3     OH2      OT      -0.834000       15.9994           0
     80881 TIP3     19500    TIP3     H1       HT       0.417000       1.00800           0
     80882 TIP3     19500    TIP3     H2       HT       0.417000       1.00800           0
     80883 TIP3     19501    TIP3     OH2      OT      -0.834000       15.9994           0
     80884 TIP3     19501    TIP3     H1       HT       0.417000       1.00800           0
     80885 TIP3     19501    TIP3     H2       HT       0.417000       1.00800           0
     80886 TIP3     19502    TIP3     OH2      OT      -0.834000       15.9994           0
     80887 TIP3     19502    TIP3     H1       HT       0.417000       1.00800           0
     80888 TIP3     19502    TIP3     H2       HT       0.417000       1.00800           0
     80889 TIP3     19503    TIP3     OH2      OT      -0.834000       15.9994           0
     80890 TIP3     19503    TIP3     H1       HT       0.417000       1.00800           0
     80891 TIP3     19503    TIP3     H2       HT       0.417000       1.00800           0
     80892 TIP3     19504    TIP3     OH2      OT      -0.834000       15.9994           0
     80893 TIP3     19504    TIP3     H1       HT       0.417000       1.00800           0
     80894 TIP3     19504    TIP3     H2       HT       0.417000       1.00800           0
     80895 TIP3     19505    TIP3     OH2      OT      -0.834000       15.9994           0
     80896 TIP3     19505    TIP3     H1       HT       0.417000       1.00800           0
     80897 TIP3     19505    TIP3     H2       HT       0.417000       1.00800           0
     80898 TIP3     19506    TIP3     OH2      OT      -0.834000       15.9994           0
     80899 TIP3     19506    TIP3     H1       HT       0.417000       1.00800           0
     80900 TIP3     19506    TIP3     H2       HT       0.417000       1.00800           0
     80901 TIP3     19507    TIP3     OH2      OT      -0.834000       15.9994           0
     80902 TIP3     19507    TIP3     H1       HT       0.417000       1.00800           0
     80903 TIP3     19507    TIP3     H2       HT       0.417000       1.00800           0
     80904 TIP3     19508    TIP3     OH2      OT      -0.834000       15.9994           0
     80905 TIP3     19508    TIP3     H1       HT       0.417000       1.00800           0
     80906 TIP3     19508    TIP3     H2       HT       0.417000       1.00800           0
     80907 TIP3     19509    TIP3     OH2      OT      -0.834000       15.9994           0
     80908 TIP3     19509    TIP3     H1       HT       0.417000       1.00800           0
     80909 TIP3     19509    TIP3     H2       HT       0.417000       1.00800           0
     80910 TIP3     19510    TIP3     OH2      OT      -0.834000       15.9994           0
     80911 TIP3     19510    TIP3     H1       HT       0.417000       1.00800           0
     80912 TIP3     19510    TIP3     H2       HT       0.417000       1.00800           0
     80913 TIP3     19511    TIP3     OH2      OT      -0.834000       15.9994           0
     80914 TIP3     19511    TIP3     H1       HT       0.417000       1.00800           0
     80915 TIP3     19511    TIP3     H2       HT       0.417000       1.00800           0
     80916 TIP3     19512    TIP3     OH2      OT      -0.834000       15.9994           0
     80917 TIP3     19512    TIP3     H1       HT       0.417000       1.00800           0
     80918 TIP3     19512    TIP3     H2       HT       0.417000       1.00800           0
     80919 TIP3     19513    TIP3     OH2      OT      -0.834000       15.9994           0
     80920 TIP3     19513    TIP3     H1       HT       0.417000       1.00800           0
     80921 TIP3     19513    TIP3     H2       HT       0.417000       1.00800           0
     80922 TIP3     19514    TIP3     OH2      OT      -0.834000       15.9994           0
     80923 TIP3     19514    TIP3     H1       HT       0.417000       1.00800           0
     80924 TIP3     19514    TIP3     H2       HT       0.417000       1.00800           0
     80925 TIP3     19515    TIP3     OH2      OT      -0.834000       15.9994           0
     80926 TIP3     19515    TIP3     H1       HT       0.417000       1.00800           0
     80927 TIP3     19515    TIP3     H2       HT       0.417000       1.00800           0
     80928 TIP3     19516    TIP3     OH2      OT      -0.834000       15.9994           0
     80929 TIP3     19516    TIP3     H1       HT       0.417000       1.00800           0
     80930 TIP3     19516    TIP3     H2       HT       0.417000       1.00800           0
     80931 TIP3     19517    TIP3     OH2      OT      -0.834000       15.9994           0
     80932 TIP3     19517    TIP3     H1       HT       0.417000       1.00800           0
     80933 TIP3     19517    TIP3     H2       HT       0.417000       1.00800           0
     80934 TIP3     19518    TIP3     OH2      OT      -0.834000       15.9994           0
     80935 TIP3     19518    TIP3     H1       HT       0.417000       1.00800           0
     80936 TIP3     19518    TIP3     H2       HT       0.417000       1.00800           0
     80937 TIP3     19519    TIP3     OH2      OT      -0.834000       15.9994           0
     80938 TIP3     19519    TIP3     H1       HT       0.417000       1.00800           0
     80939 TIP3     19519    TIP3     H2       HT       0.417000       1.00800           0
     80940 TIP3     19520    TIP3     OH2      OT      -0.834000       15.9994           0
     80941 TIP3     19520    TIP3     H1       HT       0.417000       1.00800           0
     80942 TIP3     19520    TIP3     H2       HT       0.417000       1.00800           0
     80943 TIP3     19521    TIP3     OH2      OT      -0.834000       15.9994           0
     80944 TIP3     19521    TIP3     H1       HT       0.417000       1.00800           0
     80945 TIP3     19521    TIP3     H2       HT       0.417000       1.00800           0
     80946 TIP3     19522    TIP3     OH2      OT      -0.834000       15.9994           0
     80947 TIP3     19522    TIP3     H1       HT       0.417000       1.00800           0
     80948 TIP3     19522    TIP3     H2       HT       0.417000       1.00800           0
     80949 TIP3     19523    TIP3     OH2      OT      -0.834000       15.9994           0
     80950 TIP3     19523    TIP3     H1       HT       0.417000       1.00800           0
     80951 TIP3     19523    TIP3     H2       HT       0.417000       1.00800           0
     80952 TIP3     19524    TIP3     OH2      OT      -0.834000       15.9994           0
     80953 TIP3     19524    TIP3     H1       HT       0.417000       1.00800           0
     80954 TIP3     19524    TIP3     H2       HT       0.417000       1.00800           0
     80955 TIP3     19525    TIP3     OH2      OT      -0.834000       15.9994           0
     80956 TIP3     19525    TIP3     H1       HT       0.417000       1.00800           0
     80957 TIP3     19525    TIP3     H2       HT       0.417000       1.00800           0
     80958 TIP3     19526    TIP3     OH2      OT      -0.834000       15.9994           0
     80959 TIP3     19526    TIP3     H1       HT       0.417000       1.00800           0
     80960 TIP3     19526    TIP3     H2       HT       0.417000       1.00800           0
     80961 TIP3     19527    TIP3     OH2      OT      -0.834000       15.9994           0
     80962 TIP3     19527    TIP3     H1       HT       0.417000       1.00800           0
     80963 TIP3     19527    TIP3     H2       HT       0.417000       1.00800           0
     80964 TIP3     19528    TIP3     OH2      OT      -0.834000       15.9994           0
     80965 TIP3     19528    TIP3     H1       HT       0.417000       1.00800           0
     80966 TIP3     19528    TIP3     H2       HT       0.417000       1.00800           0
     80967 TIP3     19529    TIP3     OH2      OT      -0.834000       15.9994           0
     80968 TIP3     19529    TIP3     H1       HT       0.417000       1.00800           0
     80969 TIP3     19529    TIP3     H2       HT       0.417000       1.00800           0
     80970 TIP3     19530    TIP3     OH2      OT      -0.834000       15.9994           0
     80971 TIP3     19530    TIP3     H1       HT       0.417000       1.00800           0
     80972 TIP3     19530    TIP3     H2       HT       0.417000       1.00800           0
     80973 TIP3     19531    TIP3     OH2      OT      -0.834000       15.9994           0
     80974 TIP3     19531    TIP3     H1       HT       0.417000       1.00800           0
     80975 TIP3     19531    TIP3     H2       HT       0.417000       1.00800           0
     80976 TIP3     19532    TIP3     OH2      OT      -0.834000       15.9994           0
     80977 TIP3     19532    TIP3     H1       HT       0.417000       1.00800           0
     80978 TIP3     19532    TIP3     H2       HT       0.417000       1.00800           0
     80979 TIP3     19533    TIP3     OH2      OT      -0.834000       15.9994           0
     80980 TIP3     19533    TIP3     H1       HT       0.417000       1.00800           0
     80981 TIP3     19533    TIP3     H2       HT       0.417000       1.00800           0
     80982 TIP3     19534    TIP3     OH2      OT      -0.834000       15.9994           0
     80983 TIP3     19534    TIP3     H1       HT       0.417000       1.00800           0
     80984 TIP3     19534    TIP3     H2       HT       0.417000       1.00800           0
     80985 TIP3     19535    TIP3     OH2      OT      -0.834000       15.9994           0
     80986 TIP3     19535    TIP3     H1       HT       0.417000       1.00800           0
     80987 TIP3     19535    TIP3     H2       HT       0.417000       1.00800           0
     80988 TIP3     19536    TIP3     OH2      OT      -0.834000       15.9994           0
     80989 TIP3     19536    TIP3     H1       HT       0.417000       1.00800           0
     80990 TIP3     19536    TIP3     H2       HT       0.417000       1.00800           0
     80991 TIP3     19537    TIP3     OH2      OT      -0.834000       15.9994           0
     80992 TIP3     19537    TIP3     H1       HT       0.417000       1.00800           0
     80993 TIP3     19537    TIP3     H2       HT       0.417000       1.00800           0
     80994 TIP3     19538    TIP3     OH2      OT      -0.834000       15.9994           0
     80995 TIP3     19538    TIP3     H1       HT       0.417000       1.00800           0
     80996 TIP3     19538    TIP3     H2       HT       0.417000       1.00800           0
     80997 TIP3     19539    TIP3     OH2      OT      -0.834000       15.9994           0
     80998 TIP3     19539    TIP3     H1       HT       0.417000       1.00800           0
     80999 TIP3     19539    TIP3     H2       HT       0.417000       1.00800           0
     81000 TIP3     19540    TIP3     OH2      OT      -0.834000       15.9994           0
     81001 TIP3     19540    TIP3     H1       HT       0.417000       1.00800           0
     81002 TIP3     19540    TIP3     H2       HT       0.417000       1.00800           0
     81003 TIP3     19541    TIP3     OH2      OT      -0.834000       15.9994           0
     81004 TIP3     19541    TIP3     H1       HT       0.417000       1.00800           0
     81005 TIP3     19541    TIP3     H2       HT       0.417000       1.00800           0
     81006 TIP3     19542    TIP3     OH2      OT      -0.834000       15.9994           0
     81007 TIP3     19542    TIP3     H1       HT       0.417000       1.00800           0
     81008 TIP3     19542    TIP3     H2       HT       0.417000       1.00800           0
     81009 TIP3     19543    TIP3     OH2      OT      -0.834000       15.9994           0
     81010 TIP3     19543    TIP3     H1       HT       0.417000       1.00800           0
     81011 TIP3     19543    TIP3     H2       HT       0.417000       1.00800           0
     81012 TIP3     19544    TIP3     OH2      OT      -0.834000       15.9994           0
     81013 TIP3     19544    TIP3     H1       HT       0.417000       1.00800           0
     81014 TIP3     19544    TIP3     H2       HT       0.417000       1.00800           0
     81015 TIP3     19545    TIP3     OH2      OT      -0.834000       15.9994           0
     81016 TIP3     19545    TIP3     H1       HT       0.417000       1.00800           0
     81017 TIP3     19545    TIP3     H2       HT       0.417000       1.00800           0
     81018 TIP3     19546    TIP3     OH2      OT      -0.834000       15.9994           0
     81019 TIP3     19546    TIP3     H1       HT       0.417000       1.00800           0
     81020 TIP3     19546    TIP3     H2       HT       0.417000       1.00800           0
     81021 TIP3     19547    TIP3     OH2      OT      -0.834000       15.9994           0
     81022 TIP3     19547    TIP3     H1       HT       0.417000       1.00800           0
     81023 TIP3     19547    TIP3     H2       HT       0.417000       1.00800           0
     81024 TIP3     19548    TIP3     OH2      OT      -0.834000       15.9994           0
     81025 TIP3     19548    TIP3     H1       HT       0.417000       1.00800           0
     81026 TIP3     19548    TIP3     H2       HT       0.417000       1.00800           0
     81027 TIP3     19549    TIP3     OH2      OT      -0.834000       15.9994           0
     81028 TIP3     19549    TIP3     H1       HT       0.417000       1.00800           0
     81029 TIP3     19549    TIP3     H2       HT       0.417000       1.00800           0
     81030 TIP3     19550    TIP3     OH2      OT      -0.834000       15.9994           0
     81031 TIP3     19550    TIP3     H1       HT       0.417000       1.00800           0
     81032 TIP3     19550    TIP3     H2       HT       0.417000       1.00800           0
     81033 TIP3     19551    TIP3     OH2      OT      -0.834000       15.9994           0
     81034 TIP3     19551    TIP3     H1       HT       0.417000       1.00800           0
     81035 TIP3     19551    TIP3     H2       HT       0.417000       1.00800           0
     81036 TIP3     19552    TIP3     OH2      OT      -0.834000       15.9994           0
     81037 TIP3     19552    TIP3     H1       HT       0.417000       1.00800           0
     81038 TIP3     19552    TIP3     H2       HT       0.417000       1.00800           0
     81039 TIP3     19553    TIP3     OH2      OT      -0.834000       15.9994           0
     81040 TIP3     19553    TIP3     H1       HT       0.417000       1.00800           0
     81041 TIP3     19553    TIP3     H2       HT       0.417000       1.00800           0
     81042 TIP3     19554    TIP3     OH2      OT      -0.834000       15.9994           0
     81043 TIP3     19554    TIP3     H1       HT       0.417000       1.00800           0
     81044 TIP3     19554    TIP3     H2       HT       0.417000       1.00800           0
     81045 TIP3     19555    TIP3     OH2      OT      -0.834000       15.9994           0
     81046 TIP3     19555    TIP3     H1       HT       0.417000       1.00800           0
     81047 TIP3     19555    TIP3     H2       HT       0.417000       1.00800           0
     81048 TIP3     19556    TIP3     OH2      OT      -0.834000       15.9994           0
     81049 TIP3     19556    TIP3     H1       HT       0.417000       1.00800           0
     81050 TIP3     19556    TIP3     H2       HT       0.417000       1.00800           0
     81051 TIP3     19557    TIP3     OH2      OT      -0.834000       15.9994           0
     81052 TIP3     19557    TIP3     H1       HT       0.417000       1.00800           0
     81053 TIP3     19557    TIP3     H2       HT       0.417000       1.00800           0
     81054 TIP3     19558    TIP3     OH2      OT      -0.834000       15.9994           0
     81055 TIP3     19558    TIP3     H1       HT       0.417000       1.00800           0
     81056 TIP3     19558    TIP3     H2       HT       0.417000       1.00800           0
     81057 TIP3     19559    TIP3     OH2      OT      -0.834000       15.9994           0
     81058 TIP3     19559    TIP3     H1       HT       0.417000       1.00800           0
     81059 TIP3     19559    TIP3     H2       HT       0.417000       1.00800           0
     81060 TIP3     19560    TIP3     OH2      OT      -0.834000       15.9994           0
     81061 TIP3     19560    TIP3     H1       HT       0.417000       1.00800           0
     81062 TIP3     19560    TIP3     H2       HT       0.417000       1.00800           0
     81063 TIP3     19561    TIP3     OH2      OT      -0.834000       15.9994           0
     81064 TIP3     19561    TIP3     H1       HT       0.417000       1.00800           0
     81065 TIP3     19561    TIP3     H2       HT       0.417000       1.00800           0
     81066 TIP3     19562    TIP3     OH2      OT      -0.834000       15.9994           0
     81067 TIP3     19562    TIP3     H1       HT       0.417000       1.00800           0
     81068 TIP3     19562    TIP3     H2       HT       0.417000       1.00800           0
     81069 TIP3     19563    TIP3     OH2      OT      -0.834000       15.9994           0
     81070 TIP3     19563    TIP3     H1       HT       0.417000       1.00800           0
     81071 TIP3     19563    TIP3     H2       HT       0.417000       1.00800           0
     81072 TIP3     19564    TIP3     OH2      OT      -0.834000       15.9994           0
     81073 TIP3     19564    TIP3     H1       HT       0.417000       1.00800           0
     81074 TIP3     19564    TIP3     H2       HT       0.417000       1.00800           0
     81075 TIP3     19565    TIP3     OH2      OT      -0.834000       15.9994           0
     81076 TIP3     19565    TIP3     H1       HT       0.417000       1.00800           0
     81077 TIP3     19565    TIP3     H2       HT       0.417000       1.00800           0
     81078 TIP3     19566    TIP3     OH2      OT      -0.834000       15.9994           0
     81079 TIP3     19566    TIP3     H1       HT       0.417000       1.00800           0
     81080 TIP3     19566    TIP3     H2       HT       0.417000       1.00800           0
     81081 TIP3     19567    TIP3     OH2      OT      -0.834000       15.9994           0
     81082 TIP3     19567    TIP3     H1       HT       0.417000       1.00800           0
     81083 TIP3     19567    TIP3     H2       HT       0.417000       1.00800           0
     81084 TIP3     19568    TIP3     OH2      OT      -0.834000       15.9994           0
     81085 TIP3     19568    TIP3     H1       HT       0.417000       1.00800           0
     81086 TIP3     19568    TIP3     H2       HT       0.417000       1.00800           0
     81087 TIP3     19569    TIP3     OH2      OT      -0.834000       15.9994           0
     81088 TIP3     19569    TIP3     H1       HT       0.417000       1.00800           0
     81089 TIP3     19569    TIP3     H2       HT       0.417000       1.00800           0
     81090 TIP3     19570    TIP3     OH2      OT      -0.834000       15.9994           0
     81091 TIP3     19570    TIP3     H1       HT       0.417000       1.00800           0
     81092 TIP3     19570    TIP3     H2       HT       0.417000       1.00800           0
     81093 TIP3     19571    TIP3     OH2      OT      -0.834000       15.9994           0
     81094 TIP3     19571    TIP3     H1       HT       0.417000       1.00800           0
     81095 TIP3     19571    TIP3     H2       HT       0.417000       1.00800           0
     81096 TIP3     19572    TIP3     OH2      OT      -0.834000       15.9994           0
     81097 TIP3     19572    TIP3     H1       HT       0.417000       1.00800           0
     81098 TIP3     19572    TIP3     H2       HT       0.417000       1.00800           0
     81099 TIP3     19573    TIP3     OH2      OT      -0.834000       15.9994           0
     81100 TIP3     19573    TIP3     H1       HT       0.417000       1.00800           0
     81101 TIP3     19573    TIP3     H2       HT       0.417000       1.00800           0
     81102 TIP3     19574    TIP3     OH2      OT      -0.834000       15.9994           0
     81103 TIP3     19574    TIP3     H1       HT       0.417000       1.00800           0
     81104 TIP3     19574    TIP3     H2       HT       0.417000       1.00800           0
     81105 TIP3     19575    TIP3     OH2      OT      -0.834000       15.9994           0
     81106 TIP3     19575    TIP3     H1       HT       0.417000       1.00800           0
     81107 TIP3     19575    TIP3     H2       HT       0.417000       1.00800           0
     81108 TIP3     19576    TIP3     OH2      OT      -0.834000       15.9994           0
     81109 TIP3     19576    TIP3     H1       HT       0.417000       1.00800           0
     81110 TIP3     19576    TIP3     H2       HT       0.417000       1.00800           0
     81111 TIP3     19577    TIP3     OH2      OT      -0.834000       15.9994           0
     81112 TIP3     19577    TIP3     H1       HT       0.417000       1.00800           0
     81113 TIP3     19577    TIP3     H2       HT       0.417000       1.00800           0
     81114 TIP3     19578    TIP3     OH2      OT      -0.834000       15.9994           0
     81115 TIP3     19578    TIP3     H1       HT       0.417000       1.00800           0
     81116 TIP3     19578    TIP3     H2       HT       0.417000       1.00800           0
     81117 TIP3     19579    TIP3     OH2      OT      -0.834000       15.9994           0
     81118 TIP3     19579    TIP3     H1       HT       0.417000       1.00800           0
     81119 TIP3     19579    TIP3     H2       HT       0.417000       1.00800           0
     81120 TIP3     19580    TIP3     OH2      OT      -0.834000       15.9994           0
     81121 TIP3     19580    TIP3     H1       HT       0.417000       1.00800           0
     81122 TIP3     19580    TIP3     H2       HT       0.417000       1.00800           0
     81123 TIP3     19581    TIP3     OH2      OT      -0.834000       15.9994           0
     81124 TIP3     19581    TIP3     H1       HT       0.417000       1.00800           0
     81125 TIP3     19581    TIP3     H2       HT       0.417000       1.00800           0
     81126 TIP3     19582    TIP3     OH2      OT      -0.834000       15.9994           0
     81127 TIP3     19582    TIP3     H1       HT       0.417000       1.00800           0
     81128 TIP3     19582    TIP3     H2       HT       0.417000       1.00800           0
     81129 TIP3     19583    TIP3     OH2      OT      -0.834000       15.9994           0
     81130 TIP3     19583    TIP3     H1       HT       0.417000       1.00800           0
     81131 TIP3     19583    TIP3     H2       HT       0.417000       1.00800           0
     81132 TIP3     19584    TIP3     OH2      OT      -0.834000       15.9994           0
     81133 TIP3     19584    TIP3     H1       HT       0.417000       1.00800           0
     81134 TIP3     19584    TIP3     H2       HT       0.417000       1.00800           0
     81135 TIP3     19585    TIP3     OH2      OT      -0.834000       15.9994           0
     81136 TIP3     19585    TIP3     H1       HT       0.417000       1.00800           0
     81137 TIP3     19585    TIP3     H2       HT       0.417000       1.00800           0
     81138 TIP3     19586    TIP3     OH2      OT      -0.834000       15.9994           0
     81139 TIP3     19586    TIP3     H1       HT       0.417000       1.00800           0
     81140 TIP3     19586    TIP3     H2       HT       0.417000       1.00800           0
     81141 TIP3     19587    TIP3     OH2      OT      -0.834000       15.9994           0
     81142 TIP3     19587    TIP3     H1       HT       0.417000       1.00800           0
     81143 TIP3     19587    TIP3     H2       HT       0.417000       1.00800           0
     81144 TIP3     19588    TIP3     OH2      OT      -0.834000       15.9994           0
     81145 TIP3     19588    TIP3     H1       HT       0.417000       1.00800           0
     81146 TIP3     19588    TIP3     H2       HT       0.417000       1.00800           0
     81147 TIP3     19589    TIP3     OH2      OT      -0.834000       15.9994           0
     81148 TIP3     19589    TIP3     H1       HT       0.417000       1.00800           0
     81149 TIP3     19589    TIP3     H2       HT       0.417000       1.00800           0
     81150 TIP3     19590    TIP3     OH2      OT      -0.834000       15.9994           0
     81151 TIP3     19590    TIP3     H1       HT       0.417000       1.00800           0
     81152 TIP3     19590    TIP3     H2       HT       0.417000       1.00800           0
     81153 TIP3     19591    TIP3     OH2      OT      -0.834000       15.9994           0
     81154 TIP3     19591    TIP3     H1       HT       0.417000       1.00800           0
     81155 TIP3     19591    TIP3     H2       HT       0.417000       1.00800           0
     81156 TIP3     19592    TIP3     OH2      OT      -0.834000       15.9994           0
     81157 TIP3     19592    TIP3     H1       HT       0.417000       1.00800           0
     81158 TIP3     19592    TIP3     H2       HT       0.417000       1.00800           0
     81159 TIP3     19593    TIP3     OH2      OT      -0.834000       15.9994           0
     81160 TIP3     19593    TIP3     H1       HT       0.417000       1.00800           0
     81161 TIP3     19593    TIP3     H2       HT       0.417000       1.00800           0
     81162 TIP3     19594    TIP3     OH2      OT      -0.834000       15.9994           0
     81163 TIP3     19594    TIP3     H1       HT       0.417000       1.00800           0
     81164 TIP3     19594    TIP3     H2       HT       0.417000       1.00800           0
     81165 TIP3     19595    TIP3     OH2      OT      -0.834000       15.9994           0
     81166 TIP3     19595    TIP3     H1       HT       0.417000       1.00800           0
     81167 TIP3     19595    TIP3     H2       HT       0.417000       1.00800           0
     81168 TIP3     19596    TIP3     OH2      OT      -0.834000       15.9994           0
     81169 TIP3     19596    TIP3     H1       HT       0.417000       1.00800           0
     81170 TIP3     19596    TIP3     H2       HT       0.417000       1.00800           0
     81171 TIP3     19597    TIP3     OH2      OT      -0.834000       15.9994           0
     81172 TIP3     19597    TIP3     H1       HT       0.417000       1.00800           0
     81173 TIP3     19597    TIP3     H2       HT       0.417000       1.00800           0
     81174 TIP3     19598    TIP3     OH2      OT      -0.834000       15.9994           0
     81175 TIP3     19598    TIP3     H1       HT       0.417000       1.00800           0
     81176 TIP3     19598    TIP3     H2       HT       0.417000       1.00800           0
     81177 TIP3     19599    TIP3     OH2      OT      -0.834000       15.9994           0
     81178 TIP3     19599    TIP3     H1       HT       0.417000       1.00800           0
     81179 TIP3     19599    TIP3     H2       HT       0.417000       1.00800           0
     81180 TIP3     19600    TIP3     OH2      OT      -0.834000       15.9994           0
     81181 TIP3     19600    TIP3     H1       HT       0.417000       1.00800           0
     81182 TIP3     19600    TIP3     H2       HT       0.417000       1.00800           0
     81183 TIP3     19601    TIP3     OH2      OT      -0.834000       15.9994           0
     81184 TIP3     19601    TIP3     H1       HT       0.417000       1.00800           0
     81185 TIP3     19601    TIP3     H2       HT       0.417000       1.00800           0
     81186 TIP3     19602    TIP3     OH2      OT      -0.834000       15.9994           0
     81187 TIP3     19602    TIP3     H1       HT       0.417000       1.00800           0
     81188 TIP3     19602    TIP3     H2       HT       0.417000       1.00800           0
     81189 TIP3     19603    TIP3     OH2      OT      -0.834000       15.9994           0
     81190 TIP3     19603    TIP3     H1       HT       0.417000       1.00800           0
     81191 TIP3     19603    TIP3     H2       HT       0.417000       1.00800           0
     81192 TIP3     19604    TIP3     OH2      OT      -0.834000       15.9994           0
     81193 TIP3     19604    TIP3     H1       HT       0.417000       1.00800           0
     81194 TIP3     19604    TIP3     H2       HT       0.417000       1.00800           0
     81195 TIP3     19605    TIP3     OH2      OT      -0.834000       15.9994           0
     81196 TIP3     19605    TIP3     H1       HT       0.417000       1.00800           0
     81197 TIP3     19605    TIP3     H2       HT       0.417000       1.00800           0
     81198 TIP3     19606    TIP3     OH2      OT      -0.834000       15.9994           0
     81199 TIP3     19606    TIP3     H1       HT       0.417000       1.00800           0
     81200 TIP3     19606    TIP3     H2       HT       0.417000       1.00800           0
     81201 TIP3     19607    TIP3     OH2      OT      -0.834000       15.9994           0
     81202 TIP3     19607    TIP3     H1       HT       0.417000       1.00800           0
     81203 TIP3     19607    TIP3     H2       HT       0.417000       1.00800           0
     81204 TIP3     19608    TIP3     OH2      OT      -0.834000       15.9994           0
     81205 TIP3     19608    TIP3     H1       HT       0.417000       1.00800           0
     81206 TIP3     19608    TIP3     H2       HT       0.417000       1.00800           0
     81207 TIP3     19609    TIP3     OH2      OT      -0.834000       15.9994           0
     81208 TIP3     19609    TIP3     H1       HT       0.417000       1.00800           0
     81209 TIP3     19609    TIP3     H2       HT       0.417000       1.00800           0
     81210 TIP3     19610    TIP3     OH2      OT      -0.834000       15.9994           0
     81211 TIP3     19610    TIP3     H1       HT       0.417000       1.00800           0
     81212 TIP3     19610    TIP3     H2       HT       0.417000       1.00800           0
     81213 TIP3     19611    TIP3     OH2      OT      -0.834000       15.9994           0
     81214 TIP3     19611    TIP3     H1       HT       0.417000       1.00800           0
     81215 TIP3     19611    TIP3     H2       HT       0.417000       1.00800           0
     81216 TIP3     19612    TIP3     OH2      OT      -0.834000       15.9994           0
     81217 TIP3     19612    TIP3     H1       HT       0.417000       1.00800           0
     81218 TIP3     19612    TIP3     H2       HT       0.417000       1.00800           0
     81219 TIP3     19613    TIP3     OH2      OT      -0.834000       15.9994           0
     81220 TIP3     19613    TIP3     H1       HT       0.417000       1.00800           0
     81221 TIP3     19613    TIP3     H2       HT       0.417000       1.00800           0
     81222 TIP3     19614    TIP3     OH2      OT      -0.834000       15.9994           0
     81223 TIP3     19614    TIP3     H1       HT       0.417000       1.00800           0
     81224 TIP3     19614    TIP3     H2       HT       0.417000       1.00800           0
     81225 TIP3     19615    TIP3     OH2      OT      -0.834000       15.9994           0
     81226 TIP3     19615    TIP3     H1       HT       0.417000       1.00800           0
     81227 TIP3     19615    TIP3     H2       HT       0.417000       1.00800           0
     81228 TIP3     19616    TIP3     OH2      OT      -0.834000       15.9994           0
     81229 TIP3     19616    TIP3     H1       HT       0.417000       1.00800           0
     81230 TIP3     19616    TIP3     H2       HT       0.417000       1.00800           0
     81231 TIP3     19617    TIP3     OH2      OT      -0.834000       15.9994           0
     81232 TIP3     19617    TIP3     H1       HT       0.417000       1.00800           0
     81233 TIP3     19617    TIP3     H2       HT       0.417000       1.00800           0
     81234 TIP3     19618    TIP3     OH2      OT      -0.834000       15.9994           0
     81235 TIP3     19618    TIP3     H1       HT       0.417000       1.00800           0
     81236 TIP3     19618    TIP3     H2       HT       0.417000       1.00800           0
     81237 TIP3     19619    TIP3     OH2      OT      -0.834000       15.9994           0
     81238 TIP3     19619    TIP3     H1       HT       0.417000       1.00800           0
     81239 TIP3     19619    TIP3     H2       HT       0.417000       1.00800           0
     81240 TIP3     19620    TIP3     OH2      OT      -0.834000       15.9994           0
     81241 TIP3     19620    TIP3     H1       HT       0.417000       1.00800           0
     81242 TIP3     19620    TIP3     H2       HT       0.417000       1.00800           0
     81243 TIP3     19621    TIP3     OH2      OT      -0.834000       15.9994           0
     81244 TIP3     19621    TIP3     H1       HT       0.417000       1.00800           0
     81245 TIP3     19621    TIP3     H2       HT       0.417000       1.00800           0
     81246 TIP3     19622    TIP3     OH2      OT      -0.834000       15.9994           0
     81247 TIP3     19622    TIP3     H1       HT       0.417000       1.00800           0
     81248 TIP3     19622    TIP3     H2       HT       0.417000       1.00800           0
     81249 TIP3     19623    TIP3     OH2      OT      -0.834000       15.9994           0
     81250 TIP3     19623    TIP3     H1       HT       0.417000       1.00800           0
     81251 TIP3     19623    TIP3     H2       HT       0.417000       1.00800           0
     81252 TIP3     19624    TIP3     OH2      OT      -0.834000       15.9994           0
     81253 TIP3     19624    TIP3     H1       HT       0.417000       1.00800           0
     81254 TIP3     19624    TIP3     H2       HT       0.417000       1.00800           0
     81255 TIP3     19625    TIP3     OH2      OT      -0.834000       15.9994           0
     81256 TIP3     19625    TIP3     H1       HT       0.417000       1.00800           0
     81257 TIP3     19625    TIP3     H2       HT       0.417000       1.00800           0
     81258 TIP3     19626    TIP3     OH2      OT      -0.834000       15.9994           0
     81259 TIP3     19626    TIP3     H1       HT       0.417000       1.00800           0
     81260 TIP3     19626    TIP3     H2       HT       0.417000       1.00800           0
     81261 TIP3     19627    TIP3     OH2      OT      -0.834000       15.9994           0
     81262 TIP3     19627    TIP3     H1       HT       0.417000       1.00800           0
     81263 TIP3     19627    TIP3     H2       HT       0.417000       1.00800           0
     81264 TIP3     19628    TIP3     OH2      OT      -0.834000       15.9994           0
     81265 TIP3     19628    TIP3     H1       HT       0.417000       1.00800           0
     81266 TIP3     19628    TIP3     H2       HT       0.417000       1.00800           0
     81267 TIP3     19629    TIP3     OH2      OT      -0.834000       15.9994           0
     81268 TIP3     19629    TIP3     H1       HT       0.417000       1.00800           0
     81269 TIP3     19629    TIP3     H2       HT       0.417000       1.00800           0
     81270 TIP3     19630    TIP3     OH2      OT      -0.834000       15.9994           0
     81271 TIP3     19630    TIP3     H1       HT       0.417000       1.00800           0
     81272 TIP3     19630    TIP3     H2       HT       0.417000       1.00800           0
     81273 TIP3     19631    TIP3     OH2      OT      -0.834000       15.9994           0
     81274 TIP3     19631    TIP3     H1       HT       0.417000       1.00800           0
     81275 TIP3     19631    TIP3     H2       HT       0.417000       1.00800           0
     81276 TIP3     19632    TIP3     OH2      OT      -0.834000       15.9994           0
     81277 TIP3     19632    TIP3     H1       HT       0.417000       1.00800           0
     81278 TIP3     19632    TIP3     H2       HT       0.417000       1.00800           0
     81279 TIP3     19633    TIP3     OH2      OT      -0.834000       15.9994           0
     81280 TIP3     19633    TIP3     H1       HT       0.417000       1.00800           0
     81281 TIP3     19633    TIP3     H2       HT       0.417000       1.00800           0
     81282 TIP3     19634    TIP3     OH2      OT      -0.834000       15.9994           0
     81283 TIP3     19634    TIP3     H1       HT       0.417000       1.00800           0
     81284 TIP3     19634    TIP3     H2       HT       0.417000       1.00800           0
     81285 TIP3     19635    TIP3     OH2      OT      -0.834000       15.9994           0
     81286 TIP3     19635    TIP3     H1       HT       0.417000       1.00800           0
     81287 TIP3     19635    TIP3     H2       HT       0.417000       1.00800           0
     81288 TIP3     19636    TIP3     OH2      OT      -0.834000       15.9994           0
     81289 TIP3     19636    TIP3     H1       HT       0.417000       1.00800           0
     81290 TIP3     19636    TIP3     H2       HT       0.417000       1.00800           0
     81291 TIP3     19637    TIP3     OH2      OT      -0.834000       15.9994           0
     81292 TIP3     19637    TIP3     H1       HT       0.417000       1.00800           0
     81293 TIP3     19637    TIP3     H2       HT       0.417000       1.00800           0
     81294 TIP3     19638    TIP3     OH2      OT      -0.834000       15.9994           0
     81295 TIP3     19638    TIP3     H1       HT       0.417000       1.00800           0
     81296 TIP3     19638    TIP3     H2       HT       0.417000       1.00800           0
     81297 TIP3     19639    TIP3     OH2      OT      -0.834000       15.9994           0
     81298 TIP3     19639    TIP3     H1       HT       0.417000       1.00800           0
     81299 TIP3     19639    TIP3     H2       HT       0.417000       1.00800           0
     81300 TIP3     19640    TIP3     OH2      OT      -0.834000       15.9994           0
     81301 TIP3     19640    TIP3     H1       HT       0.417000       1.00800           0
     81302 TIP3     19640    TIP3     H2       HT       0.417000       1.00800           0
     81303 TIP3     19641    TIP3     OH2      OT      -0.834000       15.9994           0
     81304 TIP3     19641    TIP3     H1       HT       0.417000       1.00800           0
     81305 TIP3     19641    TIP3     H2       HT       0.417000       1.00800           0
     81306 TIP3     19642    TIP3     OH2      OT      -0.834000       15.9994           0
     81307 TIP3     19642    TIP3     H1       HT       0.417000       1.00800           0
     81308 TIP3     19642    TIP3     H2       HT       0.417000       1.00800           0
     81309 TIP3     19643    TIP3     OH2      OT      -0.834000       15.9994           0
     81310 TIP3     19643    TIP3     H1       HT       0.417000       1.00800           0
     81311 TIP3     19643    TIP3     H2       HT       0.417000       1.00800           0
     81312 TIP3     19644    TIP3     OH2      OT      -0.834000       15.9994           0
     81313 TIP3     19644    TIP3     H1       HT       0.417000       1.00800           0
     81314 TIP3     19644    TIP3     H2       HT       0.417000       1.00800           0
     81315 TIP3     19645    TIP3     OH2      OT      -0.834000       15.9994           0
     81316 TIP3     19645    TIP3     H1       HT       0.417000       1.00800           0
     81317 TIP3     19645    TIP3     H2       HT       0.417000       1.00800           0
     81318 TIP3     19646    TIP3     OH2      OT      -0.834000       15.9994           0
     81319 TIP3     19646    TIP3     H1       HT       0.417000       1.00800           0
     81320 TIP3     19646    TIP3     H2       HT       0.417000       1.00800           0
     81321 TIP3     19647    TIP3     OH2      OT      -0.834000       15.9994           0
     81322 TIP3     19647    TIP3     H1       HT       0.417000       1.00800           0
     81323 TIP3     19647    TIP3     H2       HT       0.417000       1.00800           0
     81324 TIP3     19648    TIP3     OH2      OT      -0.834000       15.9994           0
     81325 TIP3     19648    TIP3     H1       HT       0.417000       1.00800           0
     81326 TIP3     19648    TIP3     H2       HT       0.417000       1.00800           0
     81327 TIP3     19649    TIP3     OH2      OT      -0.834000       15.9994           0
     81328 TIP3     19649    TIP3     H1       HT       0.417000       1.00800           0
     81329 TIP3     19649    TIP3     H2       HT       0.417000       1.00800           0
     81330 TIP3     19650    TIP3     OH2      OT      -0.834000       15.9994           0
     81331 TIP3     19650    TIP3     H1       HT       0.417000       1.00800           0
     81332 TIP3     19650    TIP3     H2       HT       0.417000       1.00800           0
     81333 TIP3     19651    TIP3     OH2      OT      -0.834000       15.9994           0
     81334 TIP3     19651    TIP3     H1       HT       0.417000       1.00800           0
     81335 TIP3     19651    TIP3     H2       HT       0.417000       1.00800           0
     81336 TIP3     19652    TIP3     OH2      OT      -0.834000       15.9994           0
     81337 TIP3     19652    TIP3     H1       HT       0.417000       1.00800           0
     81338 TIP3     19652    TIP3     H2       HT       0.417000       1.00800           0
     81339 TIP3     19653    TIP3     OH2      OT      -0.834000       15.9994           0
     81340 TIP3     19653    TIP3     H1       HT       0.417000       1.00800           0
     81341 TIP3     19653    TIP3     H2       HT       0.417000       1.00800           0
     81342 TIP3     19654    TIP3     OH2      OT      -0.834000       15.9994           0
     81343 TIP3     19654    TIP3     H1       HT       0.417000       1.00800           0
     81344 TIP3     19654    TIP3     H2       HT       0.417000       1.00800           0
     81345 TIP3     19655    TIP3     OH2      OT      -0.834000       15.9994           0
     81346 TIP3     19655    TIP3     H1       HT       0.417000       1.00800           0
     81347 TIP3     19655    TIP3     H2       HT       0.417000       1.00800           0
     81348 TIP3     19656    TIP3     OH2      OT      -0.834000       15.9994           0
     81349 TIP3     19656    TIP3     H1       HT       0.417000       1.00800           0
     81350 TIP3     19656    TIP3     H2       HT       0.417000       1.00800           0
     81351 TIP3     19657    TIP3     OH2      OT      -0.834000       15.9994           0
     81352 TIP3     19657    TIP3     H1       HT       0.417000       1.00800           0
     81353 TIP3     19657    TIP3     H2       HT       0.417000       1.00800           0
     81354 TIP3     19658    TIP3     OH2      OT      -0.834000       15.9994           0
     81355 TIP3     19658    TIP3     H1       HT       0.417000       1.00800           0
     81356 TIP3     19658    TIP3     H2       HT       0.417000       1.00800           0
     81357 TIP3     19659    TIP3     OH2      OT      -0.834000       15.9994           0
     81358 TIP3     19659    TIP3     H1       HT       0.417000       1.00800           0
     81359 TIP3     19659    TIP3     H2       HT       0.417000       1.00800           0
     81360 TIP3     19660    TIP3     OH2      OT      -0.834000       15.9994           0
     81361 TIP3     19660    TIP3     H1       HT       0.417000       1.00800           0
     81362 TIP3     19660    TIP3     H2       HT       0.417000       1.00800           0
     81363 TIP3     19661    TIP3     OH2      OT      -0.834000       15.9994           0
     81364 TIP3     19661    TIP3     H1       HT       0.417000       1.00800           0
     81365 TIP3     19661    TIP3     H2       HT       0.417000       1.00800           0
     81366 TIP3     19662    TIP3     OH2      OT      -0.834000       15.9994           0
     81367 TIP3     19662    TIP3     H1       HT       0.417000       1.00800           0
     81368 TIP3     19662    TIP3     H2       HT       0.417000       1.00800           0
     81369 TIP3     19663    TIP3     OH2      OT      -0.834000       15.9994           0
     81370 TIP3     19663    TIP3     H1       HT       0.417000       1.00800           0
     81371 TIP3     19663    TIP3     H2       HT       0.417000       1.00800           0
     81372 TIP3     19664    TIP3     OH2      OT      -0.834000       15.9994           0
     81373 TIP3     19664    TIP3     H1       HT       0.417000       1.00800           0
     81374 TIP3     19664    TIP3     H2       HT       0.417000       1.00800           0
     81375 TIP3     19665    TIP3     OH2      OT      -0.834000       15.9994           0
     81376 TIP3     19665    TIP3     H1       HT       0.417000       1.00800           0
     81377 TIP3     19665    TIP3     H2       HT       0.417000       1.00800           0
     81378 TIP3     19666    TIP3     OH2      OT      -0.834000       15.9994           0
     81379 TIP3     19666    TIP3     H1       HT       0.417000       1.00800           0
     81380 TIP3     19666    TIP3     H2       HT       0.417000       1.00800           0
     81381 TIP3     19667    TIP3     OH2      OT      -0.834000       15.9994           0
     81382 TIP3     19667    TIP3     H1       HT       0.417000       1.00800           0
     81383 TIP3     19667    TIP3     H2       HT       0.417000       1.00800           0
     81384 TIP3     19668    TIP3     OH2      OT      -0.834000       15.9994           0
     81385 TIP3     19668    TIP3     H1       HT       0.417000       1.00800           0
     81386 TIP3     19668    TIP3     H2       HT       0.417000       1.00800           0
     81387 TIP3     19669    TIP3     OH2      OT      -0.834000       15.9994           0
     81388 TIP3     19669    TIP3     H1       HT       0.417000       1.00800           0
     81389 TIP3     19669    TIP3     H2       HT       0.417000       1.00800           0
     81390 TIP3     19670    TIP3     OH2      OT      -0.834000       15.9994           0
     81391 TIP3     19670    TIP3     H1       HT       0.417000       1.00800           0
     81392 TIP3     19670    TIP3     H2       HT       0.417000       1.00800           0
     81393 TIP3     19671    TIP3     OH2      OT      -0.834000       15.9994           0
     81394 TIP3     19671    TIP3     H1       HT       0.417000       1.00800           0
     81395 TIP3     19671    TIP3     H2       HT       0.417000       1.00800           0
     81396 TIP3     19672    TIP3     OH2      OT      -0.834000       15.9994           0
     81397 TIP3     19672    TIP3     H1       HT       0.417000       1.00800           0
     81398 TIP3     19672    TIP3     H2       HT       0.417000       1.00800           0
     81399 TIP3     19673    TIP3     OH2      OT      -0.834000       15.9994           0
     81400 TIP3     19673    TIP3     H1       HT       0.417000       1.00800           0
     81401 TIP3     19673    TIP3     H2       HT       0.417000       1.00800           0
     81402 TIP3     19674    TIP3     OH2      OT      -0.834000       15.9994           0
     81403 TIP3     19674    TIP3     H1       HT       0.417000       1.00800           0
     81404 TIP3     19674    TIP3     H2       HT       0.417000       1.00800           0

     81310 !NBOND: bonds
         1         3         1         2         3         4         1        47
        47        48        47        49        47        44        44        45
        44        46         1         5         5         6         5         7
         5         8         8        39        39        44        39        40
        40        41        40        42        40        43         8         9
         9        10         9        11        11        12        11        13
        11        14        14        15        14        37        37        38
        37        39        14        16        16        17        16        26
        26        31        31        32        31        33        31        34
        34        35        34        36        34        37        26        27
        27        28        27        29        27        30        16        18
        18        19        18        20        18        21        21        22
        21        23        21        24        24        25        24        26
        24        50        50        51        50        52        52        53
        52        54        52        55        50        56        56        57
        56        58        56        59        59        60        59        61
        59        62        62        63        62        64        62        65
        65        66        65        67        67        68        67        69
        67        70        65        71        71        72        71        73
        71        74      4145      4149      4145      4153      4145      4157
      4149      4150      4149      4151      4149      4152      4153      4154
      4153      4155      4153      4156      4157      4158      4157      4159
      4157      4160      4145      4146      4146      4147      4146      4148
      4146      4161      4161      4162      4161      4163      4161      4167
      4168      4169      4167      4164      4164      4168      4164      4165
      4164      4166      4169      4170      4169      4171      4169      4172
      4172      4173      4172      4180      4172      4174      4180      4181
      4180      4182      4180      4183      4174      4175      4175      4177
      4175      4176      4177      4178      4177      4179      4177      4189
      4189      4190      4189      4191      4189      4192      4192      4193
      4192      4194      4192      4195      4195      4196      4195      4197
      4197      4198      4197      4199      4199      4200      4199      4201
      4199      4202      4202      4203      4202      4204      4204      4205
      4204      4206      4206      4207      4206      4208      4206      4209
      4209      4210      4209      4211      4211      4212      4211      4213
      4213      4214      4213      4215      4213      4216      4216      4217
      4216      4218      4218      4219      4218      4220      4220      4221
      4220      4222      4220      4223      4223      4224      4223      4225
      4223      4226      4226      4227      4226      4228      4226      4229
      4229      4230      4229      4231      4229      4232      4232      4233
      4232      4234      4232      4235      4183      4184      4184      4186
      4184      4185      4186      4187      4186      4188      4186      4236
      4236      4237      4236      4238      4236      4239      4239      4240
      4239      4241      4239      4242      4242      4243      4242      4244
      4242      4245      4245      4246      4245      4247      4245      4248
      4248      4249      4248      4250      4248      4251      4251      4252
      4251      4253      4251      4254      4254      4255      4254      4256
      4254      4257      4257      4258      4257      4259      4257      4260
      4260      4261      4260      4262      4260      4263      4263      4264
      4263      4265      4263      4266      4266      4267      4266      4268
      4266      4269      4269      4270      4269      4271      4269      4272
      4272      4273      4272      4274      4272      4275      4275      4276
      4275      4277      4275      4278      4278      4279      4278      4280
      4278      4281      4281      4282      4281      4283      4281      4284
      5825      5826      5825      5830      5825      5834      5826      5827
      5826      5828      5826      5829      5830      5831      5830      5832
      5830      5833      5834      5835      5834      5836      5834      5837
      5825      5838      5838      5839      5838      5840      5838      5841
      5841      5842      5841      5843      5841      5847      5848      5849
      5847      5844      5844      5848      5844      5845      5844      5846
      5849      5850      5849      5851      5849      5852      5852      5853
      5852      5860      5852      5854      5860      5861      5860      5862
      5860      5863      5854      5855      5855      5857      5855      5856
      5857      5858      5857      5859      5857      5869      5869      5870
      5869      5871      5869      5872      5872      5873      5872      5874
      5872      5875      5875      5876      5875      5877      5875      5878
      5878      5879      5878      5880      5878      5881      5881      5882
      5881      5883      5881      5884      5884      5885      5884      5886
      5884      5887      5887      5888      5887      5889      5889      5890
      5889      5891      5891      5892      5891      5893      5891      5894
      5894      5895      5894      5896      5896      5897      5896      5898
      5898      5899      5898      5900      5898      5901      5901      5902
      5901      5903      5901      5904      5904      5905      5904      5906
      5904      5907      5907      5908      5907      5909      5907      5910
      5910      5911      5910      5912      5910      5913      5863      5864
      5864      5866      5864      5865      5866      5867      5866      5868
      5866      5914      5914      5915      5914      5916      5914      5917
      5917      5918      5917      5919      5917      5920      5920      5921
      5920      5922      5920      5923      5923      5924      5923      5925
      5923      5926      5926      5927      5926      5928      5926      5929
      5929      5930      5929      5931      5929      5932      5932      5933
      5932      5934      5932      5935      5935      5936      5935      5937
      5935      5938      5938      5939      5938      5940      5938      5941
      5941      5942      5941      5943      5941      5944      5944      5945
      5944      5946      5944      5947      5947      5948      5947      5949
      5947      5950      5950      5951      5950      5952      5950      5953
      5953      5954      5953      5955      5953      5956      5956      5957
      5956      5958      5956      5959      5959      5960      5959      5961
      5959      5962      7481      7482      7481      7483      7481      7484
      7481      7485      7489      7487      7487      7485      7487      7488
      7485      7486      7485      7490      7498      7497      7490      7491
      7490      7492      7490      7496      7496      7493      7493      7497
      7493      7494      7493      7495      7498      7499      7498      7500
      7498      7501      7501      7502      7501      7509      7501      7503
      7509      7510      7509      7511      7509      7512      7503      7504
      7504      7506      7504      7505      7506      7507      7506      7508
      7506      7518      7518      7519      7518      7520      7518      7521
      7521      7522      7521      7523      7521      7524      7524      7525
      7524      7526      7526      7527      7526      7528      7528      7529
      7528      7530      7528      7531      7531      7532      7531      7533
      7533      7534      7533      7535      7535      7536      7535      7537
      7535      7538      7538      7539      7538      7540      7540      7541
      7540      7542      7542      7543      7542      7544      7542      7545
      7545      7546      7545      7547      7547      7548      7547      7549
      7549      7550      7549      7551      7549      7552      7552      7553
      7552      7554      7552      7555      7555      7556      7555      7557
      7555      7558      7558      7559      7558      7560      7558      7561
      7561      7562      7561      7563      7561      7564      7512      7513
      7513      7515      7513      7514      7515      7516      7515      7517
      7515      7565      7565      7566      7565      7567      7565      7568
      7568      7569      7568      7570      7568      7571      7571      7572
      7571      7573      7571      7574      7574      7575      7574      7576
      7574      7577      7577      7578      7577      7579      7577      7580
      7580      7581      7580      7582      7580      7583      7583      7584
      7583      7585      7583      7586      7586      7587      7586      7588
      7586      7589      7589      7590      7589      7591      7589      7592
      7592      7593      7592      7594      7592      7595      7595      7596
      7595      7597      7595      7598      7598      7599      7598      7600
      7598      7601      7601      7602      7601      7603      7601      7604
      7604      7605      7604      7606      7604      7607      7607      7608
      7607      7609      7607      7610      7610      7611      7610      7612
      7610      7613      7614      7615      7614      7616      7614      7617
      7614      7618      7622      7620      7620      7618      7620      7621
      7618      7619      7618      7623      7631      7630      7623      7624
      7623      7625      7623      7629      7629      7626      7626      7630
      7626      7627      7626      7628      7631      7632      7631      7633
      7631      7634      7634      7635      7634      7642      7634      7636
      7642      7643      7642      7644      7642      7645      7636      7637
      7637      7639      7637      7638      7639      7640      7639      7641
      7639      7651      7651      7652      7651      7653      7651      7654
      7654      7655      7654      7656      7654      7657      7657      7658
      7657      7659      7659      7660      7659      7661      7661      7662
      7661      7663      7661      7664      7664      7665      7664      7666
      7666      7667      7666      7668      7668      7669      7668      7670
      7668      7671      7671      7672      7671      7673      7673      7674
      7673      7675      7675      7676      7675      7677      7675      7678
      7678      7679      7678      7680      7680      7681      7680      7682
      7682      7683      7682      7684      7682      7685      7685      7686
      7685      7687      7685      7688      7688      7689      7688      7690
      7688      7691      7691      7692      7691      7693      7691      7694
      7694      7695      7694      7696      7694      7697      7645      7646
      7646      7648      7646      7647      7648      7649      7648      7650
      7648      7698      7698      7699      7698      7700      7698      7701
      7701      7702      7701      7703      7701      7704      7704      7705
      7704      7706      7704      7707      7707      7708      7707      7709
      7707      7710      7710      7711      7710      7712      7710      7713
      7713      7714      7713      7715      7713      7716      7716      7717
      7716      7718      7716      7719      7719      7720      7719      7721
      7719      7722      7722      7723      7722      7724      7722      7725
      7725      7726      7725      7727      7725      7728      7728      7729
      7728      7730      7728      7731      7731      7732      7731      7733
      7731      7734      7734      7735      7734      7736      7734      7737
      7737      7738      7737      7739      7737      7740      7740      7741
      7740      7742      7740      7743      7743      7744      7743      7745
      7743      7746        75        77        75        76        77        78
        75       121       121       122       121       123       121       118
       118       119       118       120        75        79        79        80
        79        81        79        82        82       113       113       118
       113       114       114       115       114       116       114       117
        82        83        83        84        83        85        85        86
        85        87        85        88        88        89        88       111
       111       112       111       113        88        90        90        91
        90       100       100       105       105       106       105       107
       105       108       108       109       108       110       108       111
       100       101       101       102       101       103       101       104
        90        92        92        93        92        94        92        95
        95        96        95        97        95        98        98        99
        98       100        98       124       124       125       124       126
       126       127       126       128       126       129       124       130
       130       131       130       132       130       133       133       134
       133       135       133       136       136       137       136       138
       136       139       139       140       139       141       141       142
       141       143       141       144       139       145       145       146
       145       147       145       148      5963      5964      5963      5968
      5963      5972      5964      5965      5964      5966      5964      5967
      5968      5969      5968      5970      5968      5971      5972      5973
      5972      5974      5972      5975      5963      5976      5976      5977
      5976      5978      5976      5979      5979      5980      5979      5981
      5979      5985      5986      5987      5985      5982      5982      5986
      5982      5983      5982      5984      5987      5988      5987      5989
      5987      5990      5990      5991      5990      5998      5990      5992
      5998      5999      5998      6000      5998      6001      5992      5993
      5993      5995      5993      5994      5995      5996      5995      5997
      5995      6007      6007      6008      6007      6009      6007      6010
      6010      6011      6010      6012      6010      6013      6013      6014
      6013      6015      6013      6016      6016      6017      6016      6018
      6016      6019      6019      6020      6019      6021      6019      6022
      6022      6023      6022      6024      6022      6025      6025      6026
      6025      6027      6027      6028      6027      6029      6029      6030
      6029      6031      6029      6032      6032      6033      6032      6034
      6034      6035      6034      6036      6036      6037      6036      6038
      6036      6039      6039      6040      6039      6041      6039      6042
      6042      6043      6042      6044      6042      6045      6045      6046
      6045      6047      6045      6048      6048      6049      6048      6050
      6048      6051      6001      6002      6002      6004      6002      6003
      6004      6005      6004      6006      6004      6052      6052      6053
      6052      6054      6052      6055      6055      6056      6055      6057
      6055      6058      6058      6059      6058      6060      6058      6061
      6061      6062      6061      6063      6061      6064      6064      6065
      6064      6066      6064      6067      6067      6068      6067      6069
      6067      6070      6070      6071      6070      6072      6070      6073
      6073      6074      6073      6075      6073      6076      6076      6077
      6076      6078      6076      6079      6079      6080      6079      6081
      6079      6082      6082      6083      6082      6084      6082      6085
      6085      6086      6085      6087      6085      6088      6088      6089
      6088      6090      6088      6091      6091      6092      6091      6093
      6091      6094      6094      6095      6094      6096      6094      6097
      6097      6098      6097      6099      6097      6100     10216     10217
     10216     10218     10216     10219     10216     10213     10213     10214
     10213     10215     10213     10210     10210     10211     10210     10212
     10210     10207     10207     10208     10207     10209     10207     10204
     10204     10205     10204     10206     10204     10201     10201     10202
     10201     10203     10201     10198     10198     10199     10198     10200
     10198     10195     10195     10196     10195     10197     10195     10192
     10192     10193     10192     10194     10192     10189     10189     10190
     10189     10191     10189     10186     10186     10187     10186     10188
     10186     10183     10183     10184     10183     10185     10183     10180
     10180     10181     10180     10182     10180     10178     10178     10179
     10176     10177     10176     10172     10172     10173     10172     10174
     10174     10175     10172     10170     10170     10171     10170     10165
     10165     10166     10165     10167     10165     10163     10163     10160
     10164     10160     10161     10160     10162     10160     10164     10157
     10157     10158     10157     10159     10157     10154     10154     10155
     10154     10156     10154     10141     10141     10150     10141     10146
     10141     10142     10150     10151     10150     10152     10150     10153
     10146     10147     10146     10148     10146     10149     10142     10143
     10142     10144     10142     10145     10170     10168     10168     10169
     10168     10220     10220     10222     10222     10223     10222     10224
     10222     10225     10225     10226     10225     10227     10225     10228
     10228     10229     10228     10230     10228     10231     10231     10232
     10231     10233     10231     10234     10234     10235     10234     10236
     10234     10237     10237     10238     10237     10239     10237     10240
     10240     10241     10240     10242     10240     10243     10243     10244
     10245     10246     10245     10247     10247     10248     10247     10249
     10247     10250     10250     10251     10250     10252     10250     10253
     10253     10254     10253     10255     10253     10256     10256     10257
     10256     10258     10256     10259     10259     10260     10259     10261
     10259     10262     10262     10263     10262     10264     10262     10265
     10265     10266     10265     10267     10265     10268     10268     10269
     10268     10270     10268     10271     10176     10178     10243     10245
     10220     10221     15905     15906     15905     15907     15905     15908
     15905     15909     15909     15910     15909     15911     15909     15912
     15912     15913     15912     15914     15912     15918     15920     15919
     15918     15915     15915     15919     15915     15916     15915     15917
     15920     15921     15920     15922     15920     15923     15923     15924
     15923     15931     15923     15925     15931     15932     15931     15933
     15931     15934     15925     15926     15926     15928     15926     15927
     15928     15929     15928     15930     15928     15940     15940     15941
     15940     15942     15940     15943     15943     15944     15943     15945
     15943     15946     15946     15947     15946     15948     15948     15949
     15948     15950     15950     15951     15950     15952     15950     15953
     15953     15954     15953     15955     15955     15956     15955     15957
     15957     15958     15957     15959     15957     15960     15960     15961
     15960     15962     15962     15963     15962     15964     15964     15965
     15964     15966     15964     15967     15967     15968     15967     15969
     15969     15970     15969     15971     15971     15972     15971     15973
     15971     15974     15974     15975     15974     15976     15974     15977
     15977     15978     15977     15979     15977     15980     15980     15981
     15980     15982     15980     15983     15983     15984     15983     15985
     15983     15986     15934     15935     15935     15937     15935     15936
     15937     15938     15937     15939     15937     15987     15987     15988
     15987     15989     15987     15990     15990     15991     15990     15992
     15990     15993     15993     15994     15993     15995     15993     15996
     15996     15997     15996     15998     15996     15999     15999     16000
     15999     16001     15999     16002     16002     16003     16002     16004
     16002     16005     16005     16006     16005     16007     16005     16008
     16008     16009     16008     16010     16008     16011     16011     16012
     16011     16013     16011     16014     16014     16015     16014     16016
     16014     16017     16017     16018     16017     16019     16017     16020
     16020     16021     16020     16022     16020     16023     16023     16024
     16023     16025     16023     16026     16026     16027     16026     16028
     16026     16029     16029     16030     16029     16031     16029     16032
     16032     16033     16032     16034     16032     16035     10347     10348
     10347     10349     10347     10350     10347     10344     10344     10345
     10344     10346     10344     10341     10341     10342     10341     10343
     10341     10338     10338     10339     10338     10340     10338     10335
     10335     10336     10335     10337     10335     10332     10332     10333
     10332     10334     10332     10329     10329     10330     10329     10331
     10329     10326     10326     10327     10326     10328     10326     10323
     10323     10324     10323     10325     10323     10320     10320     10321
     10320     10322     10320     10317     10317     10318     10317     10319
     10317     10314     10314     10315     10314     10316     10314     10311
     10311     10312     10311     10313     10311     10309     10309     10310
     10307     10308     10307     10303     10303     10304     10303     10305
     10305     10306     10303     10301     10301     10302     10301     10296
     10296     10297     10296     10298     10296     10294     10294     10291
     10295     10291     10292     10291     10293     10291     10295     10288
     10288     10289     10288     10290     10288     10285     10285     10286
     10285     10287     10285     10272     10272     10281     10272     10277
     10272     10273     10281     10282     10281     10283     10281     10284
     10277     10278     10277     10279     10277     10280     10273     10274
     10273     10275     10273     10276     10301     10299     10299     10300
     10299     10351     10351     10353     10353     10354     10353     10355
     10353     10356     10356     10357     10356     10358     10356     10359
     10359     10360     10359     10361     10359     10362     10362     10363
     10362     10364     10362     10365     10365     10366     10365     10367
     10365     10368     10368     10369     10368     10370     10368     10371
     10371     10372     10371     10373     10371     10374     10374     10375
     10376     10377     10376     10378     10378     10379     10378     10380
     10378     10381     10381     10382     10381     10383     10381     10384
     10384     10385     10384     10386     10384     10387     10387     10388
     10387     10389     10387     10390     10390     10391     10390     10392
     10390     10393     10393     10394     10393     10395     10393     10396
     10396     10397     10396     10398     10396     10399     10399     10400
     10399     10401     10399     10402     10307     10309     10374     10376
     10351     10352     19573     19574     19573     19575     19573     19576
     19573     19577     19577     19578     19577     19579     19577     19580
     19580     19581     19580     19582     19580     19586     19588     19587
     19586     19583     19583     19587     19583     19584     19583     19585
     19588     19589     19588     19590     19588     19591     19591     19592
     19591     19599     19591     19593     19599     19600     19599     19601
     19599     19602     19593     19594     19594     19596     19594     19595
     19596     19597     19596     19598     19596     19608     19608     19609
     19608     19610     19608     19611     19611     19612     19611     19613
     19611     19614     19614     19615     19614     19616     19614     19617
     19617     19618     19617     19619     19617     19620     19620     19621
     19620     19622     19620     19623     19623     19624     19623     19625
     19623     19626     19626     19627     19626     19628     19628     19629
     19628     19630     19630     19631     19630     19632     19630     19633
     19633     19634     19633     19635     19633     19636     19636     19637
     19636     19638     19636     19639     19639     19640     19639     19641
     19639     19642     19642     19643     19642     19644     19642     19645
     19645     19646     19645     19647     19645     19648     19648     19649
     19648     19650     19648     19651     19651     19652     19651     19653
     19651     19654     19602     19603     19603     19605     19603     19604
     19605     19606     19605     19607     19605     19655     19655     19656
     19655     19657     19655     19658     19658     19659     19658     19660
     19658     19661     19661     19662     19661     19663     19661     19664
     19664     19665     19664     19666     19664     19667     19667     19668
     19667     19669     19667     19670     19670     19671     19670     19672
     19670     19673     19673     19674     19673     19675     19673     19676
     19676     19677     19676     19678     19676     19679     19679     19680
     19679     19681     19679     19682     19682     19683     19682     19684
     19682     19685     19685     19686     19685     19687     19685     19688
     19688     19689     19688     19690     19688     19691     19691     19692
     19691     19693     19691     19694     19694     19695     19694     19696
     19694     19697     19697     19698     19697     19699     19697     19700
     19700     19701     19700     19702     19700     19703     10478     10479
     10478     10480     10478     10481     10478     10475     10475     10476
     10475     10477     10475     10472     10472     10473     10472     10474
     10472     10469     10469     10470     10469     10471     10469     10466
     10466     10467     10466     10468     10466     10463     10463     10464
     10463     10465     10463     10460     10460     10461     10460     10462
     10460     10457     10457     10458     10457     10459     10457     10454
     10454     10455     10454     10456     10454     10451     10451     10452
     10451     10453     10451     10448     10448     10449     10448     10450
     10448     10445     10445     10446     10445     10447     10445     10442
     10442     10443     10442     10444     10442     10440     10440     10441
     10438     10439     10438     10434     10434     10435     10434     10436
     10436     10437     10434     10432     10432     10433     10432     10427
     10427     10428     10427     10429     10427     10425     10425     10422
     10426     10422     10423     10422     10424     10422     10426     10419
     10419     10420     10419     10421     10419     10416     10416     10417
     10416     10418     10416     10403     10403     10412     10403     10408
     10403     10404     10412     10413     10412     10414     10412     10415
     10408     10409     10408     10410     10408     10411     10404     10405
     10404     10406     10404     10407     10432     10430     10430     10431
     10430     10482     10482     10484     10484     10485     10484     10486
     10484     10487     10487     10488     10487     10489     10487     10490
     10490     10491     10490     10492     10490     10493     10493     10494
     10493     10495     10493     10496     10496     10497     10496     10498
     10496     10499     10499     10500     10499     10501     10499     10502
     10502     10503     10502     10504     10502     10505     10505     10506
     10507     10508     10507     10509     10509     10510     10509     10511
     10509     10512     10512     10513     10512     10514     10512     10515
     10515     10516     10515     10517     10515     10518     10518     10519
     10518     10520     10518     10521     10521     10522     10521     10523
     10521     10524     10524     10525     10524     10526     10524     10527
     10527     10528     10527     10529     10527     10530     10530     10531
     10530     10532     10530     10533     10438     10440     10505     10507
     10482     10483     10609     10610     10609     10611     10609     10612
     10609     10606     10606     10607     10606     10608     10606     10603
     10603     10604     10603     10605     10603     10600     10600     10601
     10600     10602     10600     10597     10597     10598     10597     10599
     10597     10594     10594     10595     10594     10596     10594     10591
     10591     10592     10591     10593     10591     10588     10588     10589
     10588     10590     10588     10585     10585     10586     10585     10587
     10585     10582     10582     10583     10582     10584     10582     10579
     10579     10580     10579     10581     10579     10576     10576     10577
     10576     10578     10576     10573     10573     10574     10573     10575
     10573     10571     10571     10572     10569     10570     10569     10565
     10565     10566     10565     10567     10567     10568     10565     10563
     10563     10564     10563     10558     10558     10559     10558     10560
     10558     10556     10556     10553     10557     10553     10554     10553
     10555     10553     10557     10550     10550     10551     10550     10552
     10550     10547     10547     10548     10547     10549     10547     10534
     10534     10543     10534     10539     10534     10535     10543     10544
     10543     10545     10543     10546     10539     10540     10539     10541
     10539     10542     10535     10536     10535     10537     10535     10538
     10563     10561     10561     10562     10561     10613     10613     10615
     10615     10616     10615     10617     10615     10618     10618     10619
     10618     10620     10618     10621     10621     10622     10621     10623
     10621     10624     10624     10625     10624     10626     10624     10627
     10627     10628     10627     10629     10627     10630     10630     10631
     10630     10632     10630     10633     10633     10634     10633     10635
     10633     10636     10636     10637     10638     10639     10638     10640
     10640     10641     10640     10642     10640     10643     10643     10644
     10643     10645     10643     10646     10646     10647     10646     10648
     10646     10649     10649     10650     10649     10651     10649     10652
     10652     10653     10652     10654     10652     10655     10655     10656
     10655     10657     10655     10658     10658     10659     10658     10660
     10658     10661     10661     10662     10661     10663     10661     10664
     10569     10571     10636     10638     10613     10614     19704     19705
     19704     19706     19704     19707     19704     19708     19708     19709
     19708     19710     19708     19711     19711     19712     19711     19713
     19711     19717     19719     19718     19717     19714     19714     19718
     19714     19715     19714     19716     19719     19720     19719     19721
     19719     19722     19722     19723     19722     19730     19722     19724
     19730     19731     19730     19732     19730     19733     19724     19725
     19725     19727     19725     19726     19727     19728     19727     19729
     19727     19739     19739     19740     19739     19741     19739     19742
     19742     19743     19742     19744     19742     19745     19745     19746
     19745     19747     19745     19748     19748     19749     19748     19750
     19748     19751     19751     19752     19751     19753     19751     19754
     19754     19755     19754     19756     19754     19757     19757     19758
     19757     19759     19759     19760     19759     19761     19761     19762
     19761     19763     19761     19764     19764     19765     19764     19766
     19764     19767     19767     19768     19767     19769     19767     19770
     19770     19771     19770     19772     19770     19773     19773     19774
     19773     19775     19773     19776     19776     19777     19776     19778
     19776     19779     19779     19780     19779     19781     19779     19782
     19782     19783     19782     19784     19782     19785     19733     19734
     19734     19736     19734     19735     19736     19737     19736     19738
     19736     19786     19786     19787     19786     19788     19786     19789
     19789     19790     19789     19791     19789     19792     19792     19793
     19792     19794     19792     19795     19795     19796     19795     19797
     19795     19798     19798     19799     19798     19800     19798     19801
     19801     19802     19801     19803     19801     19804     19804     19805
     19804     19806     19804     19807     19807     19808     19807     19809
     19807     19810     19810     19811     19810     19812     19810     19813
     19813     19814     19813     19815     19813     19816     19816     19817
     19816     19818     19816     19819     19819     19820     19819     19821
     19819     19822     19822     19823     19822     19824     19822     19825
     19825     19826     19825     19827     19825     19828     19828     19829
     19828     19830     19828     19831     19831     19832     19831     19833
     19831     19834      7747      7748      7747      7749      7747      7750
      7747      7751      7755      7753      7753      7751      7753      7754
      7751      7752      7751      7756      7764      7763      7756      7757
      7756      7758      7756      7762      7762      7759      7759      7763
      7759      7760      7759      7761      7764      7765      7764      7766
      7764      7767      7767      7768      7767      7775      7767      7769
      7775      7776      7775      7777      7775      7778      7769      7770
      7770      7772      7770      7771      7772      7773      7772      7774
      7772      7784      7784      7785      7784      7786      7784      7787
      7787      7788      7787      7789      7787      7790      7790      7791
      7790      7792      7792      7793      7792      7794      7794      7795
      7794      7796      7794      7797      7797      7798      7797      7799
      7799      7800      7799      7801      7801      7802      7801      7803
      7801      7804      7804      7805      7804      7806      7806      7807
      7806      7808      7808      7809      7808      7810      7808      7811
      7811      7812      7811      7813      7813      7814      7813      7815
      7815      7816      7815      7817      7815      7818      7818      7819
      7818      7820      7818      7821      7821      7822      7821      7823
      7821      7824      7824      7825      7824      7826      7824      7827
      7827      7828      7827      7829      7827      7830      7778      7779
      7779      7781      7779      7780      7781      7782      7781      7783
      7781      7831      7831      7832      7831      7833      7831      7834
      7834      7835      7834      7836      7834      7837      7837      7838
      7837      7839      7837      7840      7840      7841      7840      7842
      7840      7843      7843      7844      7843      7845      7843      7846
      7846      7847      7846      7848      7846      7849      7849      7850
      7849      7851      7849      7852      7852      7853      7852      7854
      7852      7855      7855      7856      7855      7857      7855      7858
      7858      7859      7858      7860      7858      7861      7861      7862
      7861      7863      7861      7864      7864      7865      7864      7866
      7864      7867      7867      7868      7867      7869      7867      7870
      7870      7871      7870      7872      7870      7873      7873      7874
      7873      7875      7873      7876      7876      7877      7876      7878
      7876      7879      4285      4289      4285      4293      4285      4297
      4289      4290      4289      4291      4289      4292      4293      4294
      4293      4295      4293      4296      4297      4298      4297      4299
      4297      4300      4285      4286      4286      4287      4286      4288
      4286      4301      4301      4302      4301      4303      4301      4307
      4308      4309      4307      4304      4304      4308      4304      4305
      4304      4306      4309      4310      4309      4311      4309      4312
      4312      4313      4312      4320      4312      4314      4320      4321
      4320      4322      4320      4323      4314      4315      4315      4317
      4315      4316      4317      4318      4317      4319      4317      4329
      4329      4330      4329      4331      4329      4332      4332      4333
      4332      4334      4332      4335      4335      4336      4335      4337
      4337      4338      4337      4339      4339      4340      4339      4341
      4339      4342      4342      4343      4342      4344      4344      4345
      4344      4346      4346      4347      4346      4348      4346      4349
      4349      4350      4349      4351      4351      4352      4351      4353
      4353      4354      4353      4355      4353      4356      4356      4357
      4356      4358      4358      4359      4358      4360      4360      4361
      4360      4362      4360      4363      4363      4364      4363      4365
      4363      4366      4366      4367      4366      4368      4366      4369
      4369      4370      4369      4371      4369      4372      4372      4373
      4372      4374      4372      4375      4323      4324      4324      4326
      4324      4325      4326      4327      4326      4328      4326      4376
      4376      4377      4376      4378      4376      4379      4379      4380
      4379      4381      4379      4382      4382      4383      4382      4384
      4382      4385      4385      4386      4385      4387      4385      4388
      4388      4389      4388      4390      4388      4391      4391      4392
      4391      4393      4391      4394      4394      4395      4394      4396
      4394      4397      4397      4398      4397      4399      4397      4400
      4400      4401      4400      4402      4400      4403      4403      4404
      4403      4405      4403      4406      4406      4407      4406      4408
      4406      4409      4409      4410      4409      4411      4409      4412
      4412      4413      4412      4414      4412      4415      4415      4416
      4415      4417      4415      4418      4418      4419      4418      4420
      4418      4421      4421      4422      4421      4423      4421      4424
       149       151       149       150       151       152       149       195
       195       196       195       197       195       192       192       193
       192       194       149       153       153       154       153       155
       153       156       156       187       187       192       187       188
       188       189       188       190       188       191       156       157
       157       158       157       159       159       160       159       161
       159       162       162       163       162       185       185       186
       185       187       162       164       164       165       164       174
       174       179       179       180       179       181       179       182
       182       183       182       184       182       185       174       175
       175       176       175       177       175       178       164       166
       166       167       166       168       166       169       169       170
       169       171       169       172       172       173       172       174
       172       198       198       199       198       200       200       201
       200       202       200       203       198       204       204       205
       204       206       204       207       207       208       207       209
       207       210       210       211       210       212       210       213
       213       214       213       215       215       216       215       217
       215       218       213       219       219       220       219       221
       219       222     10740     10741     10740     10742     10740     10743
     10740     10737     10737     10738     10737     10739     10737     10734
     10734     10735     10734     10736     10734     10731     10731     10732
     10731     10733     10731     10728     10728     10729     10728     10730
     10728     10725     10725     10726     10725     10727     10725     10722
     10722     10723     10722     10724     10722     10719     10719     10720
     10719     10721     10719     10716     10716     10717     10716     10718
     10716     10713     10713     10714     10713     10715     10713     10710
     10710     10711     10710     10712     10710     10707     10707     10708
     10707     10709     10707     10704     10704     10705     10704     10706
     10704     10702     10702     10703     10700     10701     10700     10696
     10696     10697     10696     10698     10698     10699     10696     10694
     10694     10695     10694     10689     10689     10690     10689     10691
     10689     10687     10687     10684     10688     10684     10685     10684
     10686     10684     10688     10681     10681     10682     10681     10683
     10681     10678     10678     10679     10678     10680     10678     10665
     10665     10674     10665     10670     10665     10666     10674     10675
     10674     10676     10674     10677     10670     10671     10670     10672
     10670     10673     10666     10667     10666     10668     10666     10669
     10694     10692     10692     10693     10692     10744     10744     10746
     10746     10747     10746     10748     10746     10749     10749     10750
     10749     10751     10749     10752     10752     10753     10752     10754
     10752     10755     10755     10756     10755     10757     10755     10758
     10758     10759     10758     10760     10758     10761     10761     10762
     10761     10763     10761     10764     10764     10765     10764     10766
     10764     10767     10767     10768     10769     10770     10769     10771
     10771     10772     10771     10773     10771     10774     10774     10775
     10774     10776     10774     10777     10777     10778     10777     10779
     10777     10780     10780     10781     10780     10782     10780     10783
     10783     10784     10783     10785     10783     10786     10786     10787
     10786     10788     10786     10789     10789     10790     10789     10791
     10789     10792     10792     10793     10792     10794     10792     10795
     10700     10702     10767     10769     10744     10745      6101      6102
      6101      6106      6101      6110      6102      6103      6102      6104
      6102      6105      6106      6107      6106      6108      6106      6109
      6110      6111      6110      6112      6110      6113      6101      6114
      6114      6115      6114      6116      6114      6117      6117      6118
      6117      6119      6117      6123      6124      6125      6123      6120
      6120      6124      6120      6121      6120      6122      6125      6126
      6125      6127      6125      6128      6128      6129      6128      6136
      6128      6130      6136      6137      6136      6138      6136      6139
      6130      6131      6131      6133      6131      6132      6133      6134
      6133      6135      6133      6145      6145      6146      6145      6147
      6145      6148      6148      6149      6148      6150      6148      6151
      6151      6152      6151      6153      6151      6154      6154      6155
      6154      6156      6154      6157      6157      6158      6157      6159
      6157      6160      6160      6161      6160      6162      6160      6163
      6163      6164      6163      6165      6165      6166      6165      6167
      6167      6168      6167      6169      6167      6170      6170      6171
      6170      6172      6172      6173      6172      6174      6174      6175
      6174      6176      6174      6177      6177      6178      6177      6179
      6177      6180      6180      6181      6180      6182      6180      6183
      6183      6184      6183      6185      6183      6186      6186      6187
      6186      6188      6186      6189      6139      6140      6140      6142
      6140      6141      6142      6143      6142      6144      6142      6190
      6190      6191      6190      6192      6190      6193      6193      6194
      6193      6195      6193      6196      6196      6197      6196      6198
      6196      6199      6199      6200      6199      6201      6199      6202
      6202      6203      6202      6204      6202      6205      6205      6206
      6205      6207      6205      6208      6208      6209      6208      6210
      6208      6211      6211      6212      6211      6213      6211      6214
      6214      6215      6214      6216      6214      6217      6217      6218
      6217      6219      6217      6220      6220      6221      6220      6222
      6220      6223      6223      6224      6223      6225      6223      6226
      6226      6227      6226      6228      6226      6229      6229      6230
      6229      6231      6229      6232      6232      6233      6232      6234
      6232      6235      6235      6236      6235      6237      6235      6238
       223       225       223       224       225       226       223       269
       269       270       269       271       269       266       266       267
       266       268       223       227       227       228       227       229
       227       230       230       261       261       266       261       262
       262       263       262       264       262       265       230       231
       231       232       231       233       233       234       233       235
       233       236       236       237       236       259       259       260
       259       261       236       238       238       239       238       248
       248       253       253       254       253       255       253       256
       256       257       256       258       256       259       248       249
       249       250       249       251       249       252       238       240
       240       241       240       242       240       243       243       244
       243       245       243       246       246       247       246       248
       246       272       272       273       272       274       274       275
       274       276       274       277       272       278       278       279
       278       280       278       281       281       282       281       283
       281       284       284       285       284       286       284       287
       287       288       287       289       289       290       289       291
       289       292       287       293       293       294       293       295
       293       296       297       299       297       298       299       300
       297       343       343       344       343       345       343       340
       340       341       340       342       297       301       301       302
       301       303       301       304       304       335       335       340
       335       336       336       337       336       338       336       339
       304       305       305       306       305       307       307       308
       307       309       307       310       310       311       310       333
       333       334       333       335       310       312       312       313
       312       322       322       327       327       328       327       329
       327       330       330       331       330       332       330       333
       322       323       323       324       323       325       323       326
       312       314       314       315       314       316       314       317
       317       318       317       319       317       320       320       321
       320       322       320       346       346       347       346       348
       348       349       348       350       348       351       346       352
       352       353       352       354       352       355       355       356
       355       357       355       358       358       359       358       360
       358       361       361       362       361       363       363       364
       363       365       363       366       361       367       367       368
       367       369       367       370     16036     16037     16036     16038
     16036     16039     16036     16040     16040     16041     16040     16042
     16040     16043     16043     16044     16043     16045     16043     16049
     16051     16050     16049     16046     16046     16050     16046     16047
     16046     16048     16051     16052     16051     16053     16051     16054
     16054     16055     16054     16062     16054     16056     16062     16063
     16062     16064     16062     16065     16056     16057     16057     16059
     16057     16058     16059     16060     16059     16061     16059     16071
     16071     16072     16071     16073     16071     16074     16074     16075
     16074     16076     16074     16077     16077     16078     16077     16079
     16079     16080     16079     16081     16081     16082     16081     16083
     16081     16084     16084     16085     16084     16086     16086     16087
     16086     16088     16088     16089     16088     16090     16088     16091
     16091     16092     16091     16093     16093     16094     16093     16095
     16095     16096     16095     16097     16095     16098     16098     16099
     16098     16100     16100     16101     16100     16102     16102     16103
     16102     16104     16102     16105     16105     16106     16105     16107
     16105     16108     16108     16109     16108     16110     16108     16111
     16111     16112     16111     16113     16111     16114     16114     16115
     16114     16116     16114     16117     16065     16066     16066     16068
     16066     16067     16068     16069     16068     16070     16068     16118
     16118     16119     16118     16120     16118     16121     16121     16122
     16121     16123     16121     16124     16124     16125     16124     16126
     16124     16127     16127     16128     16127     16129     16127     16130
     16130     16131     16130     16132     16130     16133     16133     16134
     16133     16135     16133     16136     16136     16137     16136     16138
     16136     16139     16139     16140     16139     16141     16139     16142
     16142     16143     16142     16144     16142     16145     16145     16146
     16145     16147     16145     16148     16148     16149     16148     16150
     16148     16151     16151     16152     16151     16153     16151     16154
     16154     16155     16154     16156     16154     16157     16157     16158
     16157     16159     16157     16160     16160     16161     16160     16162
     16160     16163     16163     16164     16163     16165     16163     16166
     10871     10872     10871     10873     10871     10874     10871     10868
     10868     10869     10868     10870     10868     10865     10865     10866
     10865     10867     10865     10862     10862     10863     10862     10864
     10862     10859     10859     10860     10859     10861     10859     10856
     10856     10857     10856     10858     10856     10853     10853     10854
     10853     10855     10853     10850     10850     10851     10850     10852
     10850     10847     10847     10848     10847     10849     10847     10844
     10844     10845     10844     10846     10844     10841     10841     10842
     10841     10843     10841     10838     10838     10839     10838     10840
     10838     10835     10835     10836     10835     10837     10835     10833
     10833     10834     10831     10832     10831     10827     10827     10828
     10827     10829     10829     10830     10827     10825     10825     10826
     10825     10820     10820     10821     10820     10822     10820     10818
     10818     10815     10819     10815     10816     10815     10817     10815
     10819     10812     10812     10813     10812     10814     10812     10809
     10809     10810     10809     10811     10809     10796     10796     10805
     10796     10801     10796     10797     10805     10806     10805     10807
     10805     10808     10801     10802     10801     10803     10801     10804
     10797     10798     10797     10799     10797     10800     10825     10823
     10823     10824     10823     10875     10875     10877     10877     10878
     10877     10879     10877     10880     10880     10881     10880     10882
     10880     10883     10883     10884     10883     10885     10883     10886
     10886     10887     10886     10888     10886     10889     10889     10890
     10889     10891     10889     10892     10892     10893     10892     10894
     10892     10895     10895     10896     10895     10897     10895     10898
     10898     10899     10900     10901     10900     10902     10902     10903
     10902     10904     10902     10905     10905     10906     10905     10907
     10905     10908     10908     10909     10908     10910     10908     10911
     10911     10912     10911     10913     10911     10914     10914     10915
     10914     10916     10914     10917     10917     10918     10917     10919
     10917     10920     10920     10921     10920     10922     10920     10923
     10923     10924     10923     10925     10923     10926     10831     10833
     10898     10900     10875     10876       371       373       371       372
       373       374       371       417       417       418       417       419
       417       414       414       415       414       416       371       375
       375       376       375       377       375       378       378       409
       409       414       409       410       410       411       410       412
       410       413       378       379       379       380       379       381
       381       382       381       383       381       384       384       385
       384       407       407       408       407       409       384       386
       386       387       386       396       396       401       401       402
       401       403       401       404       404       405       404       406
       404       407       396       397       397       398       397       399
       397       400       386       388       388       389       388       390
       388       391       391       392       391       393       391       394
       394       395       394       396       394       420       420       421
       420       422       422       423       422       424       422       425
       420       426       426       427       426       428       426       429
       429       430       429       431       429       432       432       433
       432       434       432       435       435       436       435       437
       437       438       437       439       437       440       435       441
       441       442       441       443       441       444     11002     11003
     11002     11004     11002     11005     11002     10999     10999     11000
     10999     11001     10999     10996     10996     10997     10996     10998
     10996     10993     10993     10994     10993     10995     10993     10990
     10990     10991     10990     10992     10990     10987     10987     10988
     10987     10989     10987     10984     10984     10985     10984     10986
     10984     10981     10981     10982     10981     10983     10981     10978
     10978     10979     10978     10980     10978     10975     10975     10976
     10975     10977     10975     10972     10972     10973     10972     10974
     10972     10969     10969     10970     10969     10971     10969     10966
     10966     10967     10966     10968     10966     10964     10964     10965
     10962     10963     10962     10958     10958     10959     10958     10960
     10960     10961     10958     10956     10956     10957     10956     10951
     10951     10952     10951     10953     10951     10949     10949     10946
     10950     10946     10947     10946     10948     10946     10950     10943
     10943     10944     10943     10945     10943     10940     10940     10941
     10940     10942     10940     10927     10927     10936     10927     10932
     10927     10928     10936     10937     10936     10938     10936     10939
     10932     10933     10932     10934     10932     10935     10928     10929
     10928     10930     10928     10931     10956     10954     10954     10955
     10954     11006     11006     11008     11008     11009     11008     11010
     11008     11011     11011     11012     11011     11013     11011     11014
     11014     11015     11014     11016     11014     11017     11017     11018
     11017     11019     11017     11020     11020     11021     11020     11022
     11020     11023     11023     11024     11023     11025     11023     11026
     11026     11027     11026     11028     11026     11029     11029     11030
     11031     11032     11031     11033     11033     11034     11033     11035
     11033     11036     11036     11037     11036     11038     11036     11039
     11039     11040     11039     11041     11039     11042     11042     11043
     11042     11044     11042     11045     11045     11046     11045     11047
     11045     11048     11048     11049     11048     11050     11048     11051
     11051     11052     11051     11053     11051     11054     11054     11055
     11054     11056     11054     11057     10962     10964     11029     11031
     11006     11007     11133     11134     11133     11135     11133     11136
     11133     11130     11130     11131     11130     11132     11130     11127
     11127     11128     11127     11129     11127     11124     11124     11125
     11124     11126     11124     11121     11121     11122     11121     11123
     11121     11118     11118     11119     11118     11120     11118     11115
     11115     11116     11115     11117     11115     11112     11112     11113
     11112     11114     11112     11109     11109     11110     11109     11111
     11109     11106     11106     11107     11106     11108     11106     11103
     11103     11104     11103     11105     11103     11100     11100     11101
     11100     11102     11100     11097     11097     11098     11097     11099
     11097     11095     11095     11096     11093     11094     11093     11089
     11089     11090     11089     11091     11091     11092     11089     11087
     11087     11088     11087     11082     11082     11083     11082     11084
     11082     11080     11080     11077     11081     11077     11078     11077
     11079     11077     11081     11074     11074     11075     11074     11076
     11074     11071     11071     11072     11071     11073     11071     11058
     11058     11067     11058     11063     11058     11059     11067     11068
     11067     11069     11067     11070     11063     11064     11063     11065
     11063     11066     11059     11060     11059     11061     11059     11062
     11087     11085     11085     11086     11085     11137     11137     11139
     11139     11140     11139     11141     11139     11142     11142     11143
     11142     11144     11142     11145     11145     11146     11145     11147
     11145     11148     11148     11149     11148     11150     11148     11151
     11151     11152     11151     11153     11151     11154     11154     11155
     11154     11156     11154     11157     11157     11158     11157     11159
     11157     11160     11160     11161     11162     11163     11162     11164
     11164     11165     11164     11166     11164     11167     11167     11168
     11167     11169     11167     11170     11170     11171     11170     11172
     11170     11173     11173     11174     11173     11175     11173     11176
     11176     11177     11176     11178     11176     11179     11179     11180
     11179     11181     11179     11182     11182     11183     11182     11184
     11182     11185     11185     11186     11185     11187     11185     11188
     11093     11095     11160     11162     11137     11138     19835     19836
     19835     19837     19835     19838     19835     19839     19839     19840
     19839     19841     19839     19842     19842     19843     19842     19844
     19842     19848     19850     19849     19848     19845     19845     19849
     19845     19846     19845     19847     19850     19851     19850     19852
     19850     19853     19853     19854     19853     19861     19853     19855
     19861     19862     19861     19863     19861     19864     19855     19856
     19856     19858     19856     19857     19858     19859     19858     19860
     19858     19870     19870     19871     19870     19872     19870     19873
     19873     19874     19873     19875     19873     19876     19876     19877
     19876     19878     19876     19879     19879     19880     19879     19881
     19879     19882     19882     19883     19882     19884     19882     19885
     19885     19886     19885     19887     19885     19888     19888     19889
     19888     19890     19890     19891     19890     19892     19892     19893
     19892     19894     19892     19895     19895     19896     19895     19897
     19895     19898     19898     19899     19898     19900     19898     19901
     19901     19902     19901     19903     19901     19904     19904     19905
     19904     19906     19904     19907     19907     19908     19907     19909
     19907     19910     19910     19911     19910     19912     19910     19913
     19913     19914     19913     19915     19913     19916     19864     19865
     19865     19867     19865     19866     19867     19868     19867     19869
     19867     19917     19917     19918     19917     19919     19917     19920
     19920     19921     19920     19922     19920     19923     19923     19924
     19923     19925     19923     19926     19926     19927     19926     19928
     19926     19929     19929     19930     19929     19931     19929     19932
     19932     19933     19932     19934     19932     19935     19935     19936
     19935     19937     19935     19938     19938     19939     19938     19940
     19938     19941     19941     19942     19941     19943     19941     19944
     19944     19945     19944     19946     19944     19947     19947     19948
     19947     19949     19947     19950     19950     19951     19950     19952
     19950     19953     19953     19954     19953     19955     19953     19956
     19956     19957     19956     19958     19956     19959     19959     19960
     19959     19961     19959     19962     19962     19963     19962     19964
     19962     19965     11264     11265     11264     11266     11264     11267
     11264     11261     11261     11262     11261     11263     11261     11258
     11258     11259     11258     11260     11258     11255     11255     11256
     11255     11257     11255     11252     11252     11253     11252     11254
     11252     11249     11249     11250     11249     11251     11249     11246
     11246     11247     11246     11248     11246     11243     11243     11244
     11243     11245     11243     11240     11240     11241     11240     11242
     11240     11237     11237     11238     11237     11239     11237     11234
     11234     11235     11234     11236     11234     11231     11231     11232
     11231     11233     11231     11228     11228     11229     11228     11230
     11228     11226     11226     11227     11224     11225     11224     11220
     11220     11221     11220     11222     11222     11223     11220     11218
     11218     11219     11218     11213     11213     11214     11213     11215
     11213     11211     11211     11208     11212     11208     11209     11208
     11210     11208     11212     11205     11205     11206     11205     11207
     11205     11202     11202     11203     11202     11204     11202     11189
     11189     11198     11189     11194     11189     11190     11198     11199
     11198     11200     11198     11201     11194     11195     11194     11196
     11194     11197     11190     11191     11190     11192     11190     11193
     11218     11216     11216     11217     11216     11268     11268     11270
     11270     11271     11270     11272     11270     11273     11273     11274
     11273     11275     11273     11276     11276     11277     11276     11278
     11276     11279     11279     11280     11279     11281     11279     11282
     11282     11283     11282     11284     11282     11285     11285     11286
     11285     11287     11285     11288     11288     11289     11288     11290
     11288     11291     11291     11292     11293     11294     11293     11295
     11295     11296     11295     11297     11295     11298     11298     11299
     11298     11300     11298     11301     11301     11302     11301     11303
     11301     11304     11304     11305     11304     11306     11304     11307
     11307     11308     11307     11309     11307     11310     11310     11311
     11310     11312     11310     11313     11313     11314     11313     11315
     11313     11316     11316     11317     11316     11318     11316     11319
     11224     11226     11291     11293     11268     11269     11395     11396
     11395     11397     11395     11398     11395     11392     11392     11393
     11392     11394     11392     11389     11389     11390     11389     11391
     11389     11386     11386     11387     11386     11388     11386     11383
     11383     11384     11383     11385     11383     11380     11380     11381
     11380     11382     11380     11377     11377     11378     11377     11379
     11377     11374     11374     11375     11374     11376     11374     11371
     11371     11372     11371     11373     11371     11368     11368     11369
     11368     11370     11368     11365     11365     11366     11365     11367
     11365     11362     11362     11363     11362     11364     11362     11359
     11359     11360     11359     11361     11359     11357     11357     11358
     11355     11356     11355     11351     11351     11352     11351     11353
     11353     11354     11351     11349     11349     11350     11349     11344
     11344     11345     11344     11346     11344     11342     11342     11339
     11343     11339     11340     11339     11341     11339     11343     11336
     11336     11337     11336     11338     11336     11333     11333     11334
     11333     11335     11333     11320     11320     11329     11320     11325
     11320     11321     11329     11330     11329     11331     11329     11332
     11325     11326     11325     11327     11325     11328     11321     11322
     11321     11323     11321     11324     11349     11347     11347     11348
     11347     11399     11399     11401     11401     11402     11401     11403
     11401     11404     11404     11405     11404     11406     11404     11407
     11407     11408     11407     11409     11407     11410     11410     11411
     11410     11412     11410     11413     11413     11414     11413     11415
     11413     11416     11416     11417     11416     11418     11416     11419
     11419     11420     11419     11421     11419     11422     11422     11423
     11424     11425     11424     11426     11426     11427     11426     11428
     11426     11429     11429     11430     11429     11431     11429     11432
     11432     11433     11432     11434     11432     11435     11435     11436
     11435     11437     11435     11438     11438     11439     11438     11440
     11438     11441     11441     11442     11441     11443     11441     11444
     11444     11445     11444     11446     11444     11447     11447     11448
     11447     11449     11447     11450     11355     11357     11422     11424
     11399     11400     19966     19967     19966     19968     19966     19969
     19966     19970     19970     19971     19970     19972     19970     19973
     19973     19974     19973     19975     19973     19979     19981     19980
     19979     19976     19976     19980     19976     19977     19976     19978
     19981     19982     19981     19983     19981     19984     19984     19985
     19984     19992     19984     19986     19992     19993     19992     19994
     19992     19995     19986     19987     19987     19989     19987     19988
     19989     19990     19989     19991     19989     20001     20001     20002
     20001     20003     20001     20004     20004     20005     20004     20006
     20004     20007     20007     20008     20007     20009     20007     20010
     20010     20011     20010     20012     20010     20013     20013     20014
     20013     20015     20013     20016     20016     20017     20016     20018
     20016     20019     20019     20020     20019     20021     20021     20022
     20021     20023     20023     20024     20023     20025     20023     20026
     20026     20027     20026     20028     20026     20029     20029     20030
     20029     20031     20029     20032     20032     20033     20032     20034
     20032     20035     20035     20036     20035     20037     20035     20038
     20038     20039     20038     20040     20038     20041     20041     20042
     20041     20043     20041     20044     20044     20045     20044     20046
     20044     20047     19995     19996     19996     19998     19996     19997
     19998     19999     19998     20000     19998     20048     20048     20049
     20048     20050     20048     20051     20051     20052     20051     20053
     20051     20054     20054     20055     20054     20056     20054     20057
     20057     20058     20057     20059     20057     20060     20060     20061
     20060     20062     20060     20063     20063     20064     20063     20065
     20063     20066     20066     20067     20066     20068     20066     20069
     20069     20070     20069     20071     20069     20072     20072     20073
     20072     20074     20072     20075     20075     20076     20075     20077
     20075     20078     20078     20079     20078     20080     20078     20081
     20081     20082     20081     20083     20081     20084     20084     20085
     20084     20086     20084     20087     20087     20088     20087     20089
     20087     20090     20090     20091     20090     20092     20090     20093
     20093     20094     20093     20095     20093     20096     11526     11527
     11526     11528     11526     11529     11526     11523     11523     11524
     11523     11525     11523     11520     11520     11521     11520     11522
     11520     11517     11517     11518     11517     11519     11517     11514
     11514     11515     11514     11516     11514     11511     11511     11512
     11511     11513     11511     11508     11508     11509     11508     11510
     11508     11505     11505     11506     11505     11507     11505     11502
     11502     11503     11502     11504     11502     11499     11499     11500
     11499     11501     11499     11496     11496     11497     11496     11498
     11496     11493     11493     11494     11493     11495     11493     11490
     11490     11491     11490     11492     11490     11488     11488     11489
     11486     11487     11486     11482     11482     11483     11482     11484
     11484     11485     11482     11480     11480     11481     11480     11475
     11475     11476     11475     11477     11475     11473     11473     11470
     11474     11470     11471     11470     11472     11470     11474     11467
     11467     11468     11467     11469     11467     11464     11464     11465
     11464     11466     11464     11451     11451     11460     11451     11456
     11451     11452     11460     11461     11460     11462     11460     11463
     11456     11457     11456     11458     11456     11459     11452     11453
     11452     11454     11452     11455     11480     11478     11478     11479
     11478     11530     11530     11532     11532     11533     11532     11534
     11532     11535     11535     11536     11535     11537     11535     11538
     11538     11539     11538     11540     11538     11541     11541     11542
     11541     11543     11541     11544     11544     11545     11544     11546
     11544     11547     11547     11548     11547     11549     11547     11550
     11550     11551     11550     11552     11550     11553     11553     11554
     11555     11556     11555     11557     11557     11558     11557     11559
     11557     11560     11560     11561     11560     11562     11560     11563
     11563     11564     11563     11565     11563     11566     11566     11567
     11566     11568     11566     11569     11569     11570     11569     11571
     11569     11572     11572     11573     11572     11574     11572     11575
     11575     11576     11575     11577     11575     11578     11578     11579
     11578     11580     11578     11581     11486     11488     11553     11555
     11530     11531     11657     11658     11657     11659     11657     11660
     11657     11654     11654     11655     11654     11656     11654     11651
     11651     11652     11651     11653     11651     11648     11648     11649
     11648     11650     11648     11645     11645     11646     11645     11647
     11645     11642     11642     11643     11642     11644     11642     11639
     11639     11640     11639     11641     11639     11636     11636     11637
     11636     11638     11636     11633     11633     11634     11633     11635
     11633     11630     11630     11631     11630     11632     11630     11627
     11627     11628     11627     11629     11627     11624     11624     11625
     11624     11626     11624     11621     11621     11622     11621     11623
     11621     11619     11619     11620     11617     11618     11617     11613
     11613     11614     11613     11615     11615     11616     11613     11611
     11611     11612     11611     11606     11606     11607     11606     11608
     11606     11604     11604     11601     11605     11601     11602     11601
     11603     11601     11605     11598     11598     11599     11598     11600
     11598     11595     11595     11596     11595     11597     11595     11582
     11582     11591     11582     11587     11582     11583     11591     11592
     11591     11593     11591     11594     11587     11588     11587     11589
     11587     11590     11583     11584     11583     11585     11583     11586
     11611     11609     11609     11610     11609     11661     11661     11663
     11663     11664     11663     11665     11663     11666     11666     11667
     11666     11668     11666     11669     11669     11670     11669     11671
     11669     11672     11672     11673     11672     11674     11672     11675
     11675     11676     11675     11677     11675     11678     11678     11679
     11678     11680     11678     11681     11681     11682     11681     11683
     11681     11684     11684     11685     11686     11687     11686     11688
     11688     11689     11688     11690     11688     11691     11691     11692
     11691     11693     11691     11694     11694     11695     11694     11696
     11694     11697     11697     11698     11697     11699     11697     11700
     11700     11701     11700     11702     11700     11703     11703     11704
     11703     11705     11703     11706     11706     11707     11706     11708
     11706     11709     11709     11710     11709     11711     11709     11712
     11617     11619     11684     11686     11661     11662      7880      7881
      7880      7882      7880      7883      7880      7884      7888      7886
      7886      7884      7886      7887      7884      7885      7884      7889
      7897      7896      7889      7890      7889      7891      7889      7895
      7895      7892      7892      7896      7892      7893      7892      7894
      7897      7898      7897      7899      7897      7900      7900      7901
      7900      7908      7900      7902      7908      7909      7908      7910
      7908      7911      7902      7903      7903      7905      7903      7904
      7905      7906      7905      7907      7905      7917      7917      7918
      7917      7919      7917      7920      7920      7921      7920      7922
      7920      7923      7923      7924      7923      7925      7925      7926
      7925      7927      7927      7928      7927      7929      7927      7930
      7930      7931      7930      7932      7932      7933      7932      7934
      7934      7935      7934      7936      7934      7937      7937      7938
      7937      7939      7939      7940      7939      7941      7941      7942
      7941      7943      7941      7944      7944      7945      7944      7946
      7946      7947      7946      7948      7948      7949      7948      7950
      7948      7951      7951      7952      7951      7953      7951      7954
      7954      7955      7954      7956      7954      7957      7957      7958
      7957      7959      7957      7960      7960      7961      7960      7962
      7960      7963      7911      7912      7912      7914      7912      7913
      7914      7915      7914      7916      7914      7964      7964      7965
      7964      7966      7964      7967      7967      7968      7967      7969
      7967      7970      7970      7971      7970      7972      7970      7973
      7973      7974      7973      7975      7973      7976      7976      7977
      7976      7978      7976      7979      7979      7980      7979      7981
      7979      7982      7982      7983      7982      7984      7982      7985
      7985      7986      7985      7987      7985      7988      7988      7989
      7988      7990      7988      7991      7991      7992      7991      7993
      7991      7994      7994      7995      7994      7996      7994      7997
      7997      7998      7997      7999      7997      8000      8000      8001
      8000      8002      8000      8003      8003      8004      8003      8005
      8003      8006      8006      8007      8006      8008      8006      8009
      8009      8010      8009      8011      8009      8012       445       447
       445       446       447       448       445       491       491       492
       491       493       491       488       488       489       488       490
       445       449       449       450       449       451       449       452
       452       483       483       488       483       484       484       485
       484       486       484       487       452       453       453       454
       453       455       455       456       455       457       455       458
       458       459       458       481       481       482       481       483
       458       460       460       461       460       470       470       475
       475       476       475       477       475       478       478       479
       478       480       478       481       470       471       471       472
       471       473       471       474       460       462       462       463
       462       464       462       465       465       466       465       467
       465       468       468       469       468       470       468       494
       494       495       494       496       496       497       496       498
       496       499       494       500       500       501       500       502
       500       503       503       504       503       505       503       506
       506       507       506       508       506       509       509       510
       509       511       511       512       511       513       511       514
       509       515       515       516       515       517       515       518
     16167     16168     16167     16169     16167     16170     16167     16171
     16171     16172     16171     16173     16171     16174     16174     16175
     16174     16176     16174     16180     16182     16181     16180     16177
     16177     16181     16177     16178     16177     16179     16182     16183
     16182     16184     16182     16185     16185     16186     16185     16193
     16185     16187     16193     16194     16193     16195     16193     16196
     16187     16188     16188     16190     16188     16189     16190     16191
     16190     16192     16190     16202     16202     16203     16202     16204
     16202     16205     16205     16206     16205     16207     16205     16208
     16208     16209     16208     16210     16210     16211     16210     16212
     16212     16213     16212     16214     16212     16215     16215     16216
     16215     16217     16217     16218     16217     16219     16219     16220
     16219     16221     16219     16222     16222     16223     16222     16224
     16224     16225     16224     16226     16226     16227     16226     16228
     16226     16229     16229     16230     16229     16231     16231     16232
     16231     16233     16233     16234     16233     16235     16233     16236
     16236     16237     16236     16238     16236     16239     16239     16240
     16239     16241     16239     16242     16242     16243     16242     16244
     16242     16245     16245     16246     16245     16247     16245     16248
     16196     16197     16197     16199     16197     16198     16199     16200
     16199     16201     16199     16249     16249     16250     16249     16251
     16249     16252     16252     16253     16252     16254     16252     16255
     16255     16256     16255     16257     16255     16258     16258     16259
     16258     16260     16258     16261     16261     16262     16261     16263
     16261     16264     16264     16265     16264     16266     16264     16267
     16267     16268     16267     16269     16267     16270     16270     16271
     16270     16272     16270     16273     16273     16274     16273     16275
     16273     16276     16276     16277     16276     16278     16276     16279
     16279     16280     16279     16281     16279     16282     16282     16283
     16282     16284     16282     16285     16285     16286     16285     16287
     16285     16288     16288     16289     16288     16290     16288     16291
     16291     16292     16291     16293     16291     16294     16294     16295
     16294     16296     16294     16297     21165     21166     21165     21161
     21165     21145     21165     21170     21145     21146     21145     21147
     21147     21148     21145     21149     21149     21150     21149     21151
     21151     21152     21149     21153     21153     21154     21153     21155
     21155     21156     21153     21157     21157     21158     21157     21161
     21161     21162     21161     21163     21163     21164     21157     21159
     21159     21160     21170     21167     21167     21171     21167     21168
     21167     21169     21171     21172     21172     21173     21172     21174
     21172     21175     21175     21176     21175     21183     21175     21177
     21183     21184     21183     21185     21183     21186     21177     21178
     21178     21180     21178     21179     21180     21181     21180     21182
     21180     21192     21192     21193     21192     21194     21192     21195
     21195     21196     21195     21197     21195     21198     21198     21199
     21198     21200     21200     21201     21200     21202     21202     21203
     21202     21204     21202     21205     21205     21206     21205     21207
     21207     21208     21207     21209     21209     21210     21209     21211
     21209     21212     21212     21213     21212     21214     21214     21215
     21214     21216     21216     21217     21216     21218     21216     21219
     21219     21220     21219     21221     21221     21222     21221     21223
     21223     21224     21223     21225     21223     21226     21226     21227
     21226     21228     21226     21229     21229     21230     21229     21231
     21229     21232     21232     21233     21232     21234     21232     21235
     21235     21236     21235     21237     21235     21238     21186     21187
     21187     21189     21187     21188     21189     21190     21189     21191
     21189     21239     21239     21240     21239     21241     21239     21242
     21242     21243     21242     21244     21242     21245     21245     21246
     21245     21247     21245     21248     21248     21249     21248     21250
     21248     21251     21251     21252     21251     21253     21251     21254
     21254     21255     21254     21256     21254     21257     21257     21258
     21257     21259     21257     21260     21260     21261     21260     21262
     21260     21263     21263     21264     21263     21265     21263     21266
     21266     21267     21266     21268     21266     21269     21269     21270
     21269     21271     21269     21272     21272     21273     21272     21274
     21272     21275     21275     21276     21275     21277     21275     21278
     21278     21279     21278     21280     21278     21281     21281     21282
     21281     21283     21281     21284     21284     21285     21284     21286
     21284     21287     16298     16299     16298     16300     16298     16301
     16298     16302     16302     16303     16302     16304     16302     16305
     16305     16306     16305     16307     16305     16311     16313     16312
     16311     16308     16308     16312     16308     16309     16308     16310
     16313     16314     16313     16315     16313     16316     16316     16317
     16316     16324     16316     16318     16324     16325     16324     16326
     16324     16327     16318     16319     16319     16321     16319     16320
     16321     16322     16321     16323     16321     16333     16333     16334
     16333     16335     16333     16336     16336     16337     16336     16338
     16336     16339     16339     16340     16339     16341     16341     16342
     16341     16343     16343     16344     16343     16345     16343     16346
     16346     16347     16346     16348     16348     16349     16348     16350
     16350     16351     16350     16352     16350     16353     16353     16354
     16353     16355     16355     16356     16355     16357     16357     16358
     16357     16359     16357     16360     16360     16361     16360     16362
     16362     16363     16362     16364     16364     16365     16364     16366
     16364     16367     16367     16368     16367     16369     16367     16370
     16370     16371     16370     16372     16370     16373     16373     16374
     16373     16375     16373     16376     16376     16377     16376     16378
     16376     16379     16327     16328     16328     16330     16328     16329
     16330     16331     16330     16332     16330     16380     16380     16381
     16380     16382     16380     16383     16383     16384     16383     16385
     16383     16386     16386     16387     16386     16388     16386     16389
     16389     16390     16389     16391     16389     16392     16392     16393
     16392     16394     16392     16395     16395     16396     16395     16397
     16395     16398     16398     16399     16398     16400     16398     16401
     16401     16402     16401     16403     16401     16404     16404     16405
     16404     16406     16404     16407     16407     16408     16407     16409
     16407     16410     16410     16411     16410     16412     16410     16413
     16413     16414     16413     16415     16413     16416     16416     16417
     16416     16418     16416     16419     16419     16420     16419     16421
     16419     16422     16422     16423     16422     16424     16422     16425
     16425     16426     16425     16427     16425     16428     16429     16430
     16429     16431     16429     16432     16429     16433     16433     16434
     16433     16435     16433     16436     16436     16437     16436     16438
     16436     16442     16444     16443     16442     16439     16439     16443
     16439     16440     16439     16441     16444     16445     16444     16446
     16444     16447     16447     16448     16447     16455     16447     16449
     16455     16456     16455     16457     16455     16458     16449     16450
     16450     16452     16450     16451     16452     16453     16452     16454
     16452     16464     16464     16465     16464     16466     16464     16467
     16467     16468     16467     16469     16467     16470     16470     16471
     16470     16472     16472     16473     16472     16474     16474     16475
     16474     16476     16474     16477     16477     16478     16477     16479
     16479     16480     16479     16481     16481     16482     16481     16483
     16481     16484     16484     16485     16484     16486     16486     16487
     16486     16488     16488     16489     16488     16490     16488     16491
     16491     16492     16491     16493     16493     16494     16493     16495
     16495     16496     16495     16497     16495     16498     16498     16499
     16498     16500     16498     16501     16501     16502     16501     16503
     16501     16504     16504     16505     16504     16506     16504     16507
     16507     16508     16507     16509     16507     16510     16458     16459
     16459     16461     16459     16460     16461     16462     16461     16463
     16461     16511     16511     16512     16511     16513     16511     16514
     16514     16515     16514     16516     16514     16517     16517     16518
     16517     16519     16517     16520     16520     16521     16520     16522
     16520     16523     16523     16524     16523     16525     16523     16526
     16526     16527     16526     16528     16526     16529     16529     16530
     16529     16531     16529     16532     16532     16533     16532     16534
     16532     16535     16535     16536     16535     16537     16535     16538
     16538     16539     16538     16540     16538     16541     16541     16542
     16541     16543     16541     16544     16544     16545     16544     16546
     16544     16547     16547     16548     16547     16549     16547     16550
     16550     16551     16550     16552     16550     16553     16553     16554
     16553     16555     16553     16556     16556     16557     16556     16558
     16556     16559       519       521       519       520       521       522
       519       565       565       566       565       567       565       562
       562       563       562       564       519       523       523       524
       523       525       523       526       526       557       557       562
       557       558       558       559       558       560       558       561
       526       527       527       528       527       529       529       530
       529       531       529       532       532       533       532       555
       555       556       555       557       532       534       534       535
       534       544       544       549       549       550       549       551
       549       552       552       553       552       554       552       555
       544       545       545       546       545       547       545       548
       534       536       536       537       536       538       536       539
       539       540       539       541       539       542       542       543
       542       544       542       568       568       569       568       570
       570       571       570       572       570       573       568       574
       574       575       574       576       574       577       577       578
       577       579       577       580       580       581       580       582
       580       583       583       584       583       585       585       586
       585       587       585       588       583       589       589       590
       589       591       589       592     16560     16561     16560     16562
     16560     16563     16560     16564     16564     16565     16564     16566
     16564     16567     16567     16568     16567     16569     16567     16573
     16575     16574     16573     16570     16570     16574     16570     16571
     16570     16572     16575     16576     16575     16577     16575     16578
     16578     16579     16578     16586     16578     16580     16586     16587
     16586     16588     16586     16589     16580     16581     16581     16583
     16581     16582     16583     16584     16583     16585     16583     16595
     16595     16596     16595     16597     16595     16598     16598     16599
     16598     16600     16598     16601     16601     16602     16601     16603
     16603     16604     16603     16605     16605     16606     16605     16607
     16605     16608     16608     16609     16608     16610     16610     16611
     16610     16612     16612     16613     16612     16614     16612     16615
     16615     16616     16615     16617     16617     16618     16617     16619
     16619     16620     16619     16621     16619     16622     16622     16623
     16622     16624     16624     16625     16624     16626     16626     16627
     16626     16628     16626     16629     16629     16630     16629     16631
     16629     16632     16632     16633     16632     16634     16632     16635
     16635     16636     16635     16637     16635     16638     16638     16639
     16638     16640     16638     16641     16589     16590     16590     16592
     16590     16591     16592     16593     16592     16594     16592     16642
     16642     16643     16642     16644     16642     16645     16645     16646
     16645     16647     16645     16648     16648     16649     16648     16650
     16648     16651     16651     16652     16651     16653     16651     16654
     16654     16655     16654     16656     16654     16657     16657     16658
     16657     16659     16657     16660     16660     16661     16660     16662
     16660     16663     16663     16664     16663     16665     16663     16666
     16666     16667     16666     16668     16666     16669     16669     16670
     16669     16671     16669     16672     16672     16673     16672     16674
     16672     16675     16675     16676     16675     16677     16675     16678
     16678     16679     16678     16680     16678     16681     16681     16682
     16681     16683     16681     16684     16684     16685     16684     16686
     16684     16687     16687     16688     16687     16689     16687     16690
     11788     11789     11788     11790     11788     11791     11788     11785
     11785     11786     11785     11787     11785     11782     11782     11783
     11782     11784     11782     11779     11779     11780     11779     11781
     11779     11776     11776     11777     11776     11778     11776     11773
     11773     11774     11773     11775     11773     11770     11770     11771
     11770     11772     11770     11767     11767     11768     11767     11769
     11767     11764     11764     11765     11764     11766     11764     11761
     11761     11762     11761     11763     11761     11758     11758     11759
     11758     11760     11758     11755     11755     11756     11755     11757
     11755     11752     11752     11753     11752     11754     11752     11750
     11750     11751     11748     11749     11748     11744     11744     11745
     11744     11746     11746     11747     11744     11742     11742     11743
     11742     11737     11737     11738     11737     11739     11737     11735
     11735     11732     11736     11732     11733     11732     11734     11732
     11736     11729     11729     11730     11729     11731     11729     11726
     11726     11727     11726     11728     11726     11713     11713     11722
     11713     11718     11713     11714     11722     11723     11722     11724
     11722     11725     11718     11719     11718     11720     11718     11721
     11714     11715     11714     11716     11714     11717     11742     11740
     11740     11741     11740     11792     11792     11794     11794     11795
     11794     11796     11794     11797     11797     11798     11797     11799
     11797     11800     11800     11801     11800     11802     11800     11803
     11803     11804     11803     11805     11803     11806     11806     11807
     11806     11808     11806     11809     11809     11810     11809     11811
     11809     11812     11812     11813     11812     11814     11812     11815
     11815     11816     11817     11818     11817     11819     11819     11820
     11819     11821     11819     11822     11822     11823     11822     11824
     11822     11825     11825     11826     11825     11827     11825     11828
     11828     11829     11828     11830     11828     11831     11831     11832
     11831     11833     11831     11834     11834     11835     11834     11836
     11834     11837     11837     11838     11837     11839     11837     11840
     11840     11841     11840     11842     11840     11843     11748     11750
     11815     11817     11792     11793     20097     20098     20097     20099
     20097     20100     20097     20101     20101     20102     20101     20103
     20101     20104     20104     20105     20104     20106     20104     20110
     20112     20111     20110     20107     20107     20111     20107     20108
     20107     20109     20112     20113     20112     20114     20112     20115
     20115     20116     20115     20123     20115     20117     20123     20124
     20123     20125     20123     20126     20117     20118     20118     20120
     20118     20119     20120     20121     20120     20122     20120     20132
     20132     20133     20132     20134     20132     20135     20135     20136
     20135     20137     20135     20138     20138     20139     20138     20140
     20138     20141     20141     20142     20141     20143     20141     20144
     20144     20145     20144     20146     20144     20147     20147     20148
     20147     20149     20147     20150     20150     20151     20150     20152
     20152     20153     20152     20154     20154     20155     20154     20156
     20154     20157     20157     20158     20157     20159     20157     20160
     20160     20161     20160     20162     20160     20163     20163     20164
     20163     20165     20163     20166     20166     20167     20166     20168
     20166     20169     20169     20170     20169     20171     20169     20172
     20172     20173     20172     20174     20172     20175     20175     20176
     20175     20177     20175     20178     20126     20127     20127     20129
     20127     20128     20129     20130     20129     20131     20129     20179
     20179     20180     20179     20181     20179     20182     20182     20183
     20182     20184     20182     20185     20185     20186     20185     20187
     20185     20188     20188     20189     20188     20190     20188     20191
     20191     20192     20191     20193     20191     20194     20194     20195
     20194     20196     20194     20197     20197     20198     20197     20199
     20197     20200     20200     20201     20200     20202     20200     20203
     20203     20204     20203     20205     20203     20206     20206     20207
     20206     20208     20206     20209     20209     20210     20209     20211
     20209     20212     20212     20213     20212     20214     20212     20215
     20215     20216     20215     20217     20215     20218     20218     20219
     20218     20220     20218     20221     20221     20222     20221     20223
     20221     20224     20224     20225     20224     20226     20224     20227
       593       595       593       594       595       596       593       639
       639       640       639       641       639       636       636       637
       636       638       593       597       597       598       597       599
       597       600       600       631       631       636       631       632
       632       633       632       634       632       635       600       601
       601       602       601       603       603       604       603       605
       603       606       606       607       606       629       629       630
       629       631       606       608       608       609       608       618
       618       623       623       624       623       625       623       626
       626       627       626       628       626       629       618       619
       619       620       619       621       619       622       608       610
       610       611       610       612       610       613       613       614
       613       615       613       616       616       617       616       618
       616       642       642       643       642       644       644       645
       644       646       644       647       642       648       648       649
       648       650       648       651       651       652       651       653
       651       654       654       655       654       656       654       657
       657       658       657       659       659       660       659       661
       659       662       657       663       663       664       663       665
       663       666       667       669       667       668       669       670
       667       713       713       714       713       715       713       710
       710       711       710       712       667       671       671       672
       671       673       671       674       674       705       705       710
       705       706       706       707       706       708       706       709
       674       675       675       676       675       677       677       678
       677       679       677       680       680       681       680       703
       703       704       703       705       680       682       682       683
       682       692       692       697       697       698       697       699
       697       700       700       701       700       702       700       703
       692       693       693       694       693       695       693       696
       682       684       684       685       684       686       684       687
       687       688       687       689       687       690       690       691
       690       692       690       716       716       717       716       718
       718       719       718       720       718       721       716       722
       722       723       722       724       722       725       725       726
       725       727       725       728       728       729       728       730
       728       731       731       732       731       733       733       734
       733       735       733       736       731       737       737       738
       737       739       737       740     16691     16692     16691     16693
     16691     16694     16691     16695     16695     16696     16695     16697
     16695     16698     16698     16699     16698     16700     16698     16704
     16706     16705     16704     16701     16701     16705     16701     16702
     16701     16703     16706     16707     16706     16708     16706     16709
     16709     16710     16709     16717     16709     16711     16717     16718
     16717     16719     16717     16720     16711     16712     16712     16714
     16712     16713     16714     16715     16714     16716     16714     16726
     16726     16727     16726     16728     16726     16729     16729     16730
     16729     16731     16729     16732     16732     16733     16732     16734
     16734     16735     16734     16736     16736     16737     16736     16738
     16736     16739     16739     16740     16739     16741     16741     16742
     16741     16743     16743     16744     16743     16745     16743     16746
     16746     16747     16746     16748     16748     16749     16748     16750
     16750     16751     16750     16752     16750     16753     16753     16754
     16753     16755     16755     16756     16755     16757     16757     16758
     16757     16759     16757     16760     16760     16761     16760     16762
     16760     16763     16763     16764     16763     16765     16763     16766
     16766     16767     16766     16768     16766     16769     16769     16770
     16769     16771     16769     16772     16720     16721     16721     16723
     16721     16722     16723     16724     16723     16725     16723     16773
     16773     16774     16773     16775     16773     16776     16776     16777
     16776     16778     16776     16779     16779     16780     16779     16781
     16779     16782     16782     16783     16782     16784     16782     16785
     16785     16786     16785     16787     16785     16788     16788     16789
     16788     16790     16788     16791     16791     16792     16791     16793
     16791     16794     16794     16795     16794     16796     16794     16797
     16797     16798     16797     16799     16797     16800     16800     16801
     16800     16802     16800     16803     16803     16804     16803     16805
     16803     16806     16806     16807     16806     16808     16806     16809
     16809     16810     16809     16811     16809     16812     16812     16813
     16812     16814     16812     16815     16815     16816     16815     16817
     16815     16818     16818     16819     16818     16820     16818     16821
       741       743       741       742       743       744       741       787
       787       788       787       789       787       784       784       785
       784       786       741       745       745       746       745       747
       745       748       748       779       779       784       779       780
       780       781       780       782       780       783       748       749
       749       750       749       751       751       752       751       753
       751       754       754       755       754       777       777       778
       777       779       754       756       756       757       756       766
       766       771       771       772       771       773       771       774
       774       775       774       776       774       777       766       767
       767       768       767       769       767       770       756       758
       758       759       758       760       758       761       761       762
       761       763       761       764       764       765       764       766
       764       790       790       791       790       792       792       793
       792       794       792       795       790       796       796       797
       796       798       796       799       799       800       799       801
       799       802       802       803       802       804       802       805
       805       806       805       807       807       808       807       809
       807       810       805       811       811       812       811       813
       811       814      8013      8014      8013      8015      8013      8016
      8013      8017      8021      8019      8019      8017      8019      8020
      8017      8018      8017      8022      8030      8029      8022      8023
      8022      8024      8022      8028      8028      8025      8025      8029
      8025      8026      8025      8027      8030      8031      8030      8032
      8030      8033      8033      8034      8033      8041      8033      8035
      8041      8042      8041      8043      8041      8044      8035      8036
      8036      8038      8036      8037      8038      8039      8038      8040
      8038      8050      8050      8051      8050      8052      8050      8053
      8053      8054      8053      8055      8053      8056      8056      8057
      8056      8058      8058      8059      8058      8060      8060      8061
      8060      8062      8060      8063      8063      8064      8063      8065
      8065      8066      8065      8067      8067      8068      8067      8069
      8067      8070      8070      8071      8070      8072      8072      8073
      8072      8074      8074      8075      8074      8076      8074      8077
      8077      8078      8077      8079      8079      8080      8079      8081
      8081      8082      8081      8083      8081      8084      8084      8085
      8084      8086      8084      8087      8087      8088      8087      8089
      8087      8090      8090      8091      8090      8092      8090      8093
      8093      8094      8093      8095      8093      8096      8044      8045
      8045      8047      8045      8046      8047      8048      8047      8049
      8047      8097      8097      8098      8097      8099      8097      8100
      8100      8101      8100      8102      8100      8103      8103      8104
      8103      8105      8103      8106      8106      8107      8106      8108
      8106      8109      8109      8110      8109      8111      8109      8112
      8112      8113      8112      8114      8112      8115      8115      8116
      8115      8117      8115      8118      8118      8119      8118      8120
      8118      8121      8121      8122      8121      8123      8121      8124
      8124      8125      8124      8126      8124      8127      8127      8128
      8127      8129      8127      8130      8130      8131      8130      8132
      8130      8133      8133      8134      8133      8135      8133      8136
      8136      8137      8136      8138      8136      8139      8139      8140
      8139      8141      8139      8142      8142      8143      8142      8144
      8142      8145     21717     21721     21717     21725     21717     21729
     21721     21722     21721     21723     21721     21724     21725     21726
     21725     21727     21725     21728     21729     21730     21729     21731
     21729     21732     21717     21718     21718     21719     21718     21720
     21718     21733     21733     21734     21733     21735     21733     21739
     21740     21741     21739     21736     21736     21740     21736     21737
     21736     21738     21741     21742     21741     21743     21741     21744
     21744     21745     21744     21752     21744     21746     21752     21753
     21752     21754     21752     21755     21746     21747     21747     21749
     21747     21748     21749     21750     21749     21751     21749     21761
     21761     21762     21761     21763     21761     21764     21764     21765
     21764     21766     21764     21767     21767     21768     21767     21769
     21767     21770     21770     21771     21770     21772     21770     21773
     21773     21774     21773     21775     21773     21776     21776     21777
     21776     21778     21776     21779     21779     21780     21779     21781
     21781     21782     21781     21783     21783     21784     21783     21785
     21783     21786     21786     21787     21786     21788     21786     21789
     21789     21790     21789     21791     21789     21792     21792     21793
     21792     21794     21792     21795     21795     21796     21795     21797
     21795     21798     21798     21799     21798     21800     21798     21801
     21801     21802     21801     21803     21801     21804     21804     21805
     21804     21806     21804     21807     21755     21756     21756     21758
     21756     21757     21758     21759     21758     21760     21758     21808
     21808     21809     21808     21810     21808     21811     21811     21812
     21811     21813     21811     21814     21814     21815     21814     21816
     21814     21817     21817     21818     21817     21819     21817     21820
     21820     21821     21820     21822     21820     21823     21823     21824
     21823     21825     21823     21826     21826     21827     21826     21828
     21826     21829     21829     21830     21829     21831     21829     21832
     21832     21833     21832     21834     21832     21835     21835     21836
     21835     21837     21835     21838     21838     21839     21838     21840
     21838     21841     21841     21842     21841     21843     21841     21844
     21844     21845     21844     21846     21844     21847     21847     21848
     21847     21849     21847     21850      8146      8147      8146      8148
      8146      8149      8146      8150      8154      8152      8152      8150
      8152      8153      8150      8151      8150      8155      8163      8162
      8155      8156      8155      8157      8155      8161      8161      8158
      8158      8162      8158      8159      8158      8160      8163      8164
      8163      8165      8163      8166      8166      8167      8166      8174
      8166      8168      8174      8175      8174      8176      8174      8177
      8168      8169      8169      8171      8169      8170      8171      8172
      8171      8173      8171      8183      8183      8184      8183      8185
      8183      8186      8186      8187      8186      8188      8186      8189
      8189      8190      8189      8191      8191      8192      8191      8193
      8193      8194      8193      8195      8193      8196      8196      8197
      8196      8198      8198      8199      8198      8200      8200      8201
      8200      8202      8200      8203      8203      8204      8203      8205
      8205      8206      8205      8207      8207      8208      8207      8209
      8207      8210      8210      8211      8210      8212      8212      8213
      8212      8214      8214      8215      8214      8216      8214      8217
      8217      8218      8217      8219      8217      8220      8220      8221
      8220      8222      8220      8223      8223      8224      8223      8225
      8223      8226      8226      8227      8226      8228      8226      8229
      8177      8178      8178      8180      8178      8179      8180      8181
      8180      8182      8180      8230      8230      8231      8230      8232
      8230      8233      8233      8234      8233      8235      8233      8236
      8236      8237      8236      8238      8236      8239      8239      8240
      8239      8241      8239      8242      8242      8243      8242      8244
      8242      8245      8245      8246      8245      8247      8245      8248
      8248      8249      8248      8250      8248      8251      8251      8252
      8251      8253      8251      8254      8254      8255      8254      8256
      8254      8257      8257      8258      8257      8259      8257      8260
      8260      8261      8260      8262      8260      8263      8263      8264
      8263      8265      8263      8266      8266      8267      8266      8268
      8266      8269      8269      8270      8269      8271      8269      8272
      8272      8273      8272      8274      8272      8275      8275      8276
      8275      8277      8275      8278     11919     11920     11919     11921
     11919     11922     11919     11916     11916     11917     11916     11918
     11916     11913     11913     11914     11913     11915     11913     11910
     11910     11911     11910     11912     11910     11907     11907     11908
     11907     11909     11907     11904     11904     11905     11904     11906
     11904     11901     11901     11902     11901     11903     11901     11898
     11898     11899     11898     11900     11898     11895     11895     11896
     11895     11897     11895     11892     11892     11893     11892     11894
     11892     11889     11889     11890     11889     11891     11889     11886
     11886     11887     11886     11888     11886     11883     11883     11884
     11883     11885     11883     11881     11881     11882     11879     11880
     11879     11875     11875     11876     11875     11877     11877     11878
     11875     11873     11873     11874     11873     11868     11868     11869
     11868     11870     11868     11866     11866     11863     11867     11863
     11864     11863     11865     11863     11867     11860     11860     11861
     11860     11862     11860     11857     11857     11858     11857     11859
     11857     11844     11844     11853     11844     11849     11844     11845
     11853     11854     11853     11855     11853     11856     11849     11850
     11849     11851     11849     11852     11845     11846     11845     11847
     11845     11848     11873     11871     11871     11872     11871     11923
     11923     11925     11925     11926     11925     11927     11925     11928
     11928     11929     11928     11930     11928     11931     11931     11932
     11931     11933     11931     11934     11934     11935     11934     11936
     11934     11937     11937     11938     11937     11939     11937     11940
     11940     11941     11940     11942     11940     11943     11943     11944
     11943     11945     11943     11946     11946     11947     11948     11949
     11948     11950     11950     11951     11950     11952     11950     11953
     11953     11954     11953     11955     11953     11956     11956     11957
     11956     11958     11956     11959     11959     11960     11959     11961
     11959     11962     11962     11963     11962     11964     11962     11965
     11965     11966     11965     11967     11965     11968     11968     11969
     11968     11970     11968     11971     11971     11972     11971     11973
     11971     11974     11879     11881     11946     11948     11923     11924
       815       817       815       816       817       818       815       861
       861       862       861       863       861       858       858       859
       858       860       815       819       819       820       819       821
       819       822       822       853       853       858       853       854
       854       855       854       856       854       857       822       823
       823       824       823       825       825       826       825       827
       825       828       828       829       828       851       851       852
       851       853       828       830       830       831       830       840
       840       845       845       846       845       847       845       848
       848       849       848       850       848       851       840       841
       841       842       841       843       841       844       830       832
       832       833       832       834       832       835       835       836
       835       837       835       838       838       839       838       840
       838       864       864       865       864       866       866       867
       866       868       866       869       864       870       870       871
       870       872       870       873       873       874       873       875
       873       876       876       877       876       878       876       879
       879       880       879       881       881       882       881       883
       881       884       879       885       885       886       885       887
       885       888       889       891       889       890       891       892
       889       935       935       936       935       937       935       932
       932       933       932       934       889       893       893       894
       893       895       893       896       896       927       927       932
       927       928       928       929       928       930       928       931
       896       897       897       898       897       899       899       900
       899       901       899       902       902       903       902       925
       925       926       925       927       902       904       904       905
       904       914       914       919       919       920       919       921
       919       922       922       923       922       924       922       925
       914       915       915       916       915       917       915       918
       904       906       906       907       906       908       906       909
       909       910       909       911       909       912       912       913
       912       914       912       938       938       939       938       940
       940       941       940       942       940       943       938       944
       944       945       944       946       944       947       947       948
       947       949       947       950       950       951       950       952
       950       953       953       954       953       955       955       956
       955       957       955       958       953       959       959       960
       959       961       959       962       963       965       963       964
       965       966       963      1009      1009      1010      1009      1011
      1009      1006      1006      1007      1006      1008       963       967
       967       968       967       969       967       970       970      1001
      1001      1006      1001      1002      1002      1003      1002      1004
      1002      1005       970       971       971       972       971       973
       973       974       973       975       973       976       976       977
       976       999       999      1000       999      1001       976       978
       978       979       978       988       988       993       993       994
       993       995       993       996       996       997       996       998
       996       999       988       989       989       990       989       991
       989       992       978       980       980       981       980       982
       980       983       983       984       983       985       983       986
       986       987       986       988       986      1012      1012      1013
      1012      1014      1014      1015      1014      1016      1014      1017
      1012      1018      1018      1019      1018      1020      1018      1021
      1021      1022      1021      1023      1021      1024      1024      1025
      1024      1026      1024      1027      1027      1028      1027      1029
      1029      1030      1029      1031      1029      1032      1027      1033
      1033      1034      1033      1035      1033      1036     21851     21855
     21851     21859     21851     21863     21855     21856     21855     21857
     21855     21858     21859     21860     21859     21861     21859     21862
     21863     21864     21863     21865     21863     21866     21851     21852
     21852     21853     21852     21854     21852     21867     21867     21868
     21867     21869     21867     21873     21874     21875     21873     21870
     21870     21874     21870     21871     21870     21872     21875     21876
     21875     21877     21875     21878     21878     21879     21878     21886
     21878     21880     21886     21887     21886     21888     21886     21889
     21880     21881     21881     21883     21881     21882     21883     21884
     21883     21885     21883     21895     21895     21896     21895     21897
     21895     21898     21898     21899     21898     21900     21898     21901
     21901     21902     21901     21903     21901     21904     21904     21905
     21904     21906     21904     21907     21907     21908     21907     21909
     21907     21910     21910     21911     21910     21912     21910     21913
     21913     21914     21913     21915     21915     21916     21915     21917
     21917     21918     21917     21919     21917     21920     21920     21921
     21920     21922     21920     21923     21923     21924     21923     21925
     21923     21926     21926     21927     21926     21928     21926     21929
     21929     21930     21929     21931     21929     21932     21932     21933
     21932     21934     21932     21935     21935     21936     21935     21937
     21935     21938     21938     21939     21938     21940     21938     21941
     21889     21890     21890     21892     21890     21891     21892     21893
     21892     21894     21892     21942     21942     21943     21942     21944
     21942     21945     21945     21946     21945     21947     21945     21948
     21948     21949     21948     21950     21948     21951     21951     21952
     21951     21953     21951     21954     21954     21955     21954     21956
     21954     21957     21957     21958     21957     21959     21957     21960
     21960     21961     21960     21962     21960     21963     21963     21964
     21963     21965     21963     21966     21966     21967     21966     21968
     21966     21969     21969     21970     21969     21971     21969     21972
     21972     21973     21972     21974     21972     21975     21975     21976
     21975     21977     21975     21978     21978     21979     21978     21980
     21978     21981     21981     21982     21981     21983     21981     21984
      1037      1039      1037      1038      1039      1040      1037      1083
      1083      1084      1083      1085      1083      1080      1080      1081
      1080      1082      1037      1041      1041      1042      1041      1043
      1041      1044      1044      1075      1075      1080      1075      1076
      1076      1077      1076      1078      1076      1079      1044      1045
      1045      1046      1045      1047      1047      1048      1047      1049
      1047      1050      1050      1051      1050      1073      1073      1074
      1073      1075      1050      1052      1052      1053      1052      1062
      1062      1067      1067      1068      1067      1069      1067      1070
      1070      1071      1070      1072      1070      1073      1062      1063
      1063      1064      1063      1065      1063      1066      1052      1054
      1054      1055      1054      1056      1054      1057      1057      1058
      1057      1059      1057      1060      1060      1061      1060      1062
      1060      1086      1086      1087      1086      1088      1088      1089
      1088      1090      1088      1091      1086      1092      1092      1093
      1092      1094      1092      1095      1095      1096      1095      1097
      1095      1098      1098      1099      1098      1100      1098      1101
      1101      1102      1101      1103      1103      1104      1103      1105
      1103      1106      1101      1107      1107      1108      1107      1109
      1107      1110     12050     12051     12050     12052     12050     12053
     12050     12047     12047     12048     12047     12049     12047     12044
     12044     12045     12044     12046     12044     12041     12041     12042
     12041     12043     12041     12038     12038     12039     12038     12040
     12038     12035     12035     12036     12035     12037     12035     12032
     12032     12033     12032     12034     12032     12029     12029     12030
     12029     12031     12029     12026     12026     12027     12026     12028
     12026     12023     12023     12024     12023     12025     12023     12020
     12020     12021     12020     12022     12020     12017     12017     12018
     12017     12019     12017     12014     12014     12015     12014     12016
     12014     12012     12012     12013     12010     12011     12010     12006
     12006     12007     12006     12008     12008     12009     12006     12004
     12004     12005     12004     11999     11999     12000     11999     12001
     11999     11997     11997     11994     11998     11994     11995     11994
     11996     11994     11998     11991     11991     11992     11991     11993
     11991     11988     11988     11989     11988     11990     11988     11975
     11975     11984     11975     11980     11975     11976     11984     11985
     11984     11986     11984     11987     11980     11981     11980     11982
     11980     11983     11976     11977     11976     11978     11976     11979
     12004     12002     12002     12003     12002     12054     12054     12056
     12056     12057     12056     12058     12056     12059     12059     12060
     12059     12061     12059     12062     12062     12063     12062     12064
     12062     12065     12065     12066     12065     12067     12065     12068
     12068     12069     12068     12070     12068     12071     12071     12072
     12071     12073     12071     12074     12074     12075     12074     12076
     12074     12077     12077     12078     12079     12080     12079     12081
     12081     12082     12081     12083     12081     12084     12084     12085
     12084     12086     12084     12087     12087     12088     12087     12089
     12087     12090     12090     12091     12090     12092     12090     12093
     12093     12094     12093     12095     12093     12096     12096     12097
     12096     12098     12096     12099     12099     12100     12099     12101
     12099     12102     12102     12103     12102     12104     12102     12105
     12010     12012     12077     12079     12054     12055      4425      4429
      4425      4433      4425      4437      4429      4430      4429      4431
      4429      4432      4433      4434      4433      4435      4433      4436
      4437      4438      4437      4439      4437      4440      4425      4426
      4426      4427      4426      4428      4426      4441      4441      4442
      4441      4443      4441      4447      4448      4449      4447      4444
      4444      4448      4444      4445      4444      4446      4449      4450
      4449      4451      4449      4452      4452      4453      4452      4460
      4452      4454      4460      4461      4460      4462      4460      4463
      4454      4455      4455      4457      4455      4456      4457      4458
      4457      4459      4457      4469      4469      4470      4469      4471
      4469      4472      4472      4473      4472      4474      4472      4475
      4475      4476      4475      4477      4477      4478      4477      4479
      4479      4480      4479      4481      4479      4482      4482      4483
      4482      4484      4484      4485      4484      4486      4486      4487
      4486      4488      4486      4489      4489      4490      4489      4491
      4491      4492      4491      4493      4493      4494      4493      4495
      4493      4496      4496      4497      4496      4498      4498      4499
      4498      4500      4500      4501      4500      4502      4500      4503
      4503      4504      4503      4505      4503      4506      4506      4507
      4506      4508      4506      4509      4509      4510      4509      4511
      4509      4512      4512      4513      4512      4514      4512      4515
      4463      4464      4464      4466      4464      4465      4466      4467
      4466      4468      4466      4516      4516      4517      4516      4518
      4516      4519      4519      4520      4519      4521      4519      4522
      4522      4523      4522      4524      4522      4525      4525      4526
      4525      4527      4525      4528      4528      4529      4528      4530
      4528      4531      4531      4532      4531      4533      4531      4534
      4534      4535      4534      4536      4534      4537      4537      4538
      4537      4539      4537      4540      4540      4541      4540      4542
      4540      4543      4543      4544      4543      4545      4543      4546
      4546      4547      4546      4548      4546      4549      4549      4550
      4549      4551      4549      4552      4552      4553      4552      4554
      4552      4555      4555      4556      4555      4557      4555      4558
      4558      4559      4558      4560      4558      4561      4561      4562
      4561      4563      4561      4564      1111      1113      1111      1112
      1113      1114      1111      1157      1157      1158      1157      1159
      1157      1154      1154      1155      1154      1156      1111      1115
      1115      1116      1115      1117      1115      1118      1118      1149
      1149      1154      1149      1150      1150      1151      1150      1152
      1150      1153      1118      1119      1119      1120      1119      1121
      1121      1122      1121      1123      1121      1124      1124      1125
      1124      1147      1147      1148      1147      1149      1124      1126
      1126      1127      1126      1136      1136      1141      1141      1142
      1141      1143      1141      1144      1144      1145      1144      1146
      1144      1147      1136      1137      1137      1138      1137      1139
      1137      1140      1126      1128      1128      1129      1128      1130
      1128      1131      1131      1132      1131      1133      1131      1134
      1134      1135      1134      1136      1134      1160      1160      1161
      1160      1162      1162      1163      1162      1164      1162      1165
      1160      1166      1166      1167      1166      1168      1166      1169
      1169      1170      1169      1171      1169      1172      1172      1173
      1172      1174      1172      1175      1175      1176      1175      1177
      1177      1178      1177      1179      1177      1180      1175      1181
      1181      1182      1181      1183      1181      1184      1185      1187
      1185      1186      1187      1188      1185      1231      1231      1232
      1231      1233      1231      1228      1228      1229      1228      1230
      1185      1189      1189      1190      1189      1191      1189      1192
      1192      1223      1223      1228      1223      1224      1224      1225
      1224      1226      1224      1227      1192      1193      1193      1194
      1193      1195      1195      1196      1195      1197      1195      1198
      1198      1199      1198      1221      1221      1222      1221      1223
      1198      1200      1200      1201      1200      1210      1210      1215
      1215      1216      1215      1217      1215      1218      1218      1219
      1218      1220      1218      1221      1210      1211      1211      1212
      1211      1213      1211      1214      1200      1202      1202      1203
      1202      1204      1202      1205      1205      1206      1205      1207
      1205      1208      1208      1209      1208      1210      1208      1234
      1234      1235      1234      1236      1236      1237      1236      1238
      1236      1239      1234      1240      1240      1241      1240      1242
      1240      1243      1243      1244      1243      1245      1243      1246
      1246      1247      1246      1248      1246      1249      1249      1250
      1249      1251      1251      1252      1251      1253      1251      1254
      1249      1255      1255      1256      1255      1257      1255      1258
      1259      1261      1259      1260      1261      1262      1259      1305
      1305      1306      1305      1307      1305      1302      1302      1303
      1302      1304      1259      1263      1263      1264      1263      1265
      1263      1266      1266      1297      1297      1302      1297      1298
      1298      1299      1298      1300      1298      1301      1266      1267
      1267      1268      1267      1269      1269      1270      1269      1271
      1269      1272      1272      1273      1272      1295      1295      1296
      1295      1297      1272      1274      1274      1275      1274      1284
      1284      1289      1289      1290      1289      1291      1289      1292
      1292      1293      1292      1294      1292      1295      1284      1285
      1285      1286      1285      1287      1285      1288      1274      1276
      1276      1277      1276      1278      1276      1279      1279      1280
      1279      1281      1279      1282      1282      1283      1282      1284
      1282      1308      1308      1309      1308      1310      1310      1311
      1310      1312      1310      1313      1308      1314      1314      1315
      1314      1316      1314      1317      1317      1318      1317      1319
      1317      1320      1320      1321      1320      1322      1320      1323
      1323      1324      1323      1325      1325      1326      1325      1327
      1325      1328      1323      1329      1329      1330      1329      1331
      1329      1332      1333      1335      1333      1334      1335      1336
      1333      1379      1379      1380      1379      1381      1379      1376
      1376      1377      1376      1378      1333      1337      1337      1338
      1337      1339      1337      1340      1340      1371      1371      1376
      1371      1372      1372      1373      1372      1374      1372      1375
      1340      1341      1341      1342      1341      1343      1343      1344
      1343      1345      1343      1346      1346      1347      1346      1369
      1369      1370      1369      1371      1346      1348      1348      1349
      1348      1358      1358      1363      1363      1364      1363      1365
      1363      1366      1366      1367      1366      1368      1366      1369
      1358      1359      1359      1360      1359      1361      1359      1362
      1348      1350      1350      1351      1350      1352      1350      1353
      1353      1354      1353      1355      1353      1356      1356      1357
      1356      1358      1356      1382      1382      1383      1382      1384
      1384      1385      1384      1386      1384      1387      1382      1388
      1388      1389      1388      1390      1388      1391      1391      1392
      1391      1393      1391      1394      1394      1395      1394      1396
      1394      1397      1397      1398      1397      1399      1399      1400
      1399      1401      1399      1402      1397      1403      1403      1404
      1403      1405      1403      1406     12181     12182     12181     12183
     12181     12184     12181     12178     12178     12179     12178     12180
     12178     12175     12175     12176     12175     12177     12175     12172
     12172     12173     12172     12174     12172     12169     12169     12170
     12169     12171     12169     12166     12166     12167     12166     12168
     12166     12163     12163     12164     12163     12165     12163     12160
     12160     12161     12160     12162     12160     12157     12157     12158
     12157     12159     12157     12154     12154     12155     12154     12156
     12154     12151     12151     12152     12151     12153     12151     12148
     12148     12149     12148     12150     12148     12145     12145     12146
     12145     12147     12145     12143     12143     12144     12141     12142
     12141     12137     12137     12138     12137     12139     12139     12140
     12137     12135     12135     12136     12135     12130     12130     12131
     12130     12132     12130     12128     12128     12125     12129     12125
     12126     12125     12127     12125     12129     12122     12122     12123
     12122     12124     12122     12119     12119     12120     12119     12121
     12119     12106     12106     12115     12106     12111     12106     12107
     12115     12116     12115     12117     12115     12118     12111     12112
     12111     12113     12111     12114     12107     12108     12107     12109
     12107     12110     12135     12133     12133     12134     12133     12185
     12185     12187     12187     12188     12187     12189     12187     12190
     12190     12191     12190     12192     12190     12193     12193     12194
     12193     12195     12193     12196     12196     12197     12196     12198
     12196     12199     12199     12200     12199     12201     12199     12202
     12202     12203     12202     12204     12202     12205     12205     12206
     12205     12207     12205     12208     12208     12209     12210     12211
     12210     12212     12212     12213     12212     12214     12212     12215
     12215     12216     12215     12217     12215     12218     12218     12219
     12218     12220     12218     12221     12221     12222     12221     12223
     12221     12224     12224     12225     12224     12226     12224     12227
     12227     12228     12227     12229     12227     12230     12230     12231
     12230     12232     12230     12233     12233     12234     12233     12235
     12233     12236     12141     12143     12208     12210     12185     12186
      1407      1409      1407      1408      1409      1410      1407      1453
      1453      1454      1453      1455      1453      1450      1450      1451
      1450      1452      1407      1411      1411      1412      1411      1413
      1411      1414      1414      1445      1445      1450      1445      1446
      1446      1447      1446      1448      1446      1449      1414      1415
      1415      1416      1415      1417      1417      1418      1417      1419
      1417      1420      1420      1421      1420      1443      1443      1444
      1443      1445      1420      1422      1422      1423      1422      1432
      1432      1437      1437      1438      1437      1439      1437      1440
      1440      1441      1440      1442      1440      1443      1432      1433
      1433      1434      1433      1435      1433      1436      1422      1424
      1424      1425      1424      1426      1424      1427      1427      1428
      1427      1429      1427      1430      1430      1431      1430      1432
      1430      1456      1456      1457      1456      1458      1458      1459
      1458      1460      1458      1461      1456      1462      1462      1463
      1462      1464      1462      1465      1465      1466      1465      1467
      1465      1468      1468      1469      1468      1470      1468      1471
      1471      1472      1471      1473      1473      1474      1473      1475
      1473      1476      1471      1477      1477      1478      1477      1479
      1477      1480      1481      1483      1481      1482      1483      1484
      1481      1527      1527      1528      1527      1529      1527      1524
      1524      1525      1524      1526      1481      1485      1485      1486
      1485      1487      1485      1488      1488      1519      1519      1524
      1519      1520      1520      1521      1520      1522      1520      1523
      1488      1489      1489      1490      1489      1491      1491      1492
      1491      1493      1491      1494      1494      1495      1494      1517
      1517      1518      1517      1519      1494      1496      1496      1497
      1496      1506      1506      1511      1511      1512      1511      1513
      1511      1514      1514      1515      1514      1516      1514      1517
      1506      1507      1507      1508      1507      1509      1507      1510
      1496      1498      1498      1499      1498      1500      1498      1501
      1501      1502      1501      1503      1501      1504      1504      1505
      1504      1506      1504      1530      1530      1531      1530      1532
      1532      1533      1532      1534      1532      1535      1530      1536
      1536      1537      1536      1538      1536      1539      1539      1540
      1539      1541      1539      1542      1542      1543      1542      1544
      1542      1545      1545      1546      1545      1547      1547      1548
      1547      1549      1547      1550      1545      1551      1551      1552
      1551      1553      1551      1554     12312     12313     12312     12314
     12312     12315     12312     12309     12309     12310     12309     12311
     12309     12306     12306     12307     12306     12308     12306     12303
     12303     12304     12303     12305     12303     12300     12300     12301
     12300     12302     12300     12297     12297     12298     12297     12299
     12297     12294     12294     12295     12294     12296     12294     12291
     12291     12292     12291     12293     12291     12288     12288     12289
     12288     12290     12288     12285     12285     12286     12285     12287
     12285     12282     12282     12283     12282     12284     12282     12279
     12279     12280     12279     12281     12279     12276     12276     12277
     12276     12278     12276     12274     12274     12275     12272     12273
     12272     12268     12268     12269     12268     12270     12270     12271
     12268     12266     12266     12267     12266     12261     12261     12262
     12261     12263     12261     12259     12259     12256     12260     12256
     12257     12256     12258     12256     12260     12253     12253     12254
     12253     12255     12253     12250     12250     12251     12250     12252
     12250     12237     12237     12246     12237     12242     12237     12238
     12246     12247     12246     12248     12246     12249     12242     12243
     12242     12244     12242     12245     12238     12239     12238     12240
     12238     12241     12266     12264     12264     12265     12264     12316
     12316     12318     12318     12319     12318     12320     12318     12321
     12321     12322     12321     12323     12321     12324     12324     12325
     12324     12326     12324     12327     12327     12328     12327     12329
     12327     12330     12330     12331     12330     12332     12330     12333
     12333     12334     12333     12335     12333     12336     12336     12337
     12336     12338     12336     12339     12339     12340     12341     12342
     12341     12343     12343     12344     12343     12345     12343     12346
     12346     12347     12346     12348     12346     12349     12349     12350
     12349     12351     12349     12352     12352     12353     12352     12354
     12352     12355     12355     12356     12355     12357     12355     12358
     12358     12359     12358     12360     12358     12361     12361     12362
     12361     12363     12361     12364     12364     12365     12364     12366
     12364     12367     12272     12274     12339     12341     12316     12317
      1555      1557      1555      1556      1557      1558      1555      1601
      1601      1602      1601      1603      1601      1598      1598      1599
      1598      1600      1555      1559      1559      1560      1559      1561
      1559      1562      1562      1593      1593      1598      1593      1594
      1594      1595      1594      1596      1594      1597      1562      1563
      1563      1564      1563      1565      1565      1566      1565      1567
      1565      1568      1568      1569      1568      1591      1591      1592
      1591      1593      1568      1570      1570      1571      1570      1580
      1580      1585      1585      1586      1585      1587      1585      1588
      1588      1589      1588      1590      1588      1591      1580      1581
      1581      1582      1581      1583      1581      1584      1570      1572
      1572      1573      1572      1574      1572      1575      1575      1576
      1575      1577      1575      1578      1578      1579      1578      1580
      1578      1604      1604      1605      1604      1606      1606      1607
      1606      1608      1606      1609      1604      1610      1610      1611
      1610      1612      1610      1613      1613      1614      1613      1615
      1613      1616      1616      1617      1616      1618      1616      1619
      1619      1620      1619      1621      1621      1622      1621      1623
      1621      1624      1619      1625      1625      1626      1625      1627
      1625      1628     12443     12444     12443     12445     12443     12446
     12443     12440     12440     12441     12440     12442     12440     12437
     12437     12438     12437     12439     12437     12434     12434     12435
     12434     12436     12434     12431     12431     12432     12431     12433
     12431     12428     12428     12429     12428     12430     12428     12425
     12425     12426     12425     12427     12425     12422     12422     12423
     12422     12424     12422     12419     12419     12420     12419     12421
     12419     12416     12416     12417     12416     12418     12416     12413
     12413     12414     12413     12415     12413     12410     12410     12411
     12410     12412     12410     12407     12407     12408     12407     12409
     12407     12405     12405     12406     12403     12404     12403     12399
     12399     12400     12399     12401     12401     12402     12399     12397
     12397     12398     12397     12392     12392     12393     12392     12394
     12392     12390     12390     12387     12391     12387     12388     12387
     12389     12387     12391     12384     12384     12385     12384     12386
     12384     12381     12381     12382     12381     12383     12381     12368
     12368     12377     12368     12373     12368     12369     12377     12378
     12377     12379     12377     12380     12373     12374     12373     12375
     12373     12376     12369     12370     12369     12371     12369     12372
     12397     12395     12395     12396     12395     12447     12447     12449
     12449     12450     12449     12451     12449     12452     12452     12453
     12452     12454     12452     12455     12455     12456     12455     12457
     12455     12458     12458     12459     12458     12460     12458     12461
     12461     12462     12461     12463     12461     12464     12464     12465
     12464     12466     12464     12467     12467     12468     12467     12469
     12467     12470     12470     12471     12472     12473     12472     12474
     12474     12475     12474     12476     12474     12477     12477     12478
     12477     12479     12477     12480     12480     12481     12480     12482
     12480     12483     12483     12484     12483     12485     12483     12486
     12486     12487     12486     12488     12486     12489     12489     12490
     12489     12491     12489     12492     12492     12493     12492     12494
     12492     12495     12495     12496     12495     12497     12495     12498
     12403     12405     12470     12472     12447     12448      1629      1631
      1629      1630      1631      1632      1629      1675      1675      1676
      1675      1677      1675      1672      1672      1673      1672      1674
      1629      1633      1633      1634      1633      1635      1633      1636
      1636      1667      1667      1672      1667      1668      1668      1669
      1668      1670      1668      1671      1636      1637      1637      1638
      1637      1639      1639      1640      1639      1641      1639      1642
      1642      1643      1642      1665      1665      1666      1665      1667
      1642      1644      1644      1645      1644      1654      1654      1659
      1659      1660      1659      1661      1659      1662      1662      1663
      1662      1664      1662      1665      1654      1655      1655      1656
      1655      1657      1655      1658      1644      1646      1646      1647
      1646      1648      1646      1649      1649      1650      1649      1651
      1649      1652      1652      1653      1652      1654      1652      1678
      1678      1679      1678      1680      1680      1681      1680      1682
      1680      1683      1678      1684      1684      1685      1684      1686
      1684      1687      1687      1688      1687      1689      1687      1690
      1690      1691      1690      1692      1690      1693      1693      1694
      1693      1695      1695      1696      1695      1697      1695      1698
      1693      1699      1699      1700      1699      1701      1699      1702
      4565      4569      4565      4573      4565      4577      4569      4570
      4569      4571      4569      4572      4573      4574      4573      4575
      4573      4576      4577      4578      4577      4579      4577      4580
      4565      4566      4566      4567      4566      4568      4566      4581
      4581      4582      4581      4583      4581      4587      4588      4589
      4587      4584      4584      4588      4584      4585      4584      4586
      4589      4590      4589      4591      4589      4592      4592      4593
      4592      4600      4592      4594      4600      4601      4600      4602
      4600      4603      4594      4595      4595      4597      4595      4596
      4597      4598      4597      4599      4597      4609      4609      4610
      4609      4611      4609      4612      4612      4613      4612      4614
      4612      4615      4615      4616      4615      4617      4617      4618
      4617      4619      4619      4620      4619      4621      4619      4622
      4622      4623      4622      4624      4624      4625      4624      4626
      4626      4627      4626      4628      4626      4629      4629      4630
      4629      4631      4631      4632      4631      4633      4633      4634
      4633      4635      4633      4636      4636      4637      4636      4638
      4638      4639      4638      4640      4640      4641      4640      4642
      4640      4643      4643      4644      4643      4645      4643      4646
      4646      4647      4646      4648      4646      4649      4649      4650
      4649      4651      4649      4652      4652      4653      4652      4654
      4652      4655      4603      4604      4604      4606      4604      4605
      4606      4607      4606      4608      4606      4656      4656      4657
      4656      4658      4656      4659      4659      4660      4659      4661
      4659      4662      4662      4663      4662      4664      4662      4665
      4665      4666      4665      4667      4665      4668      4668      4669
      4668      4670      4668      4671      4671      4672      4671      4673
      4671      4674      4674      4675      4674      4676      4674      4677
      4677      4678      4677      4679      4677      4680      4680      4681
      4680      4682      4680      4683      4683      4684      4683      4685
      4683      4686      4686      4687      4686      4688      4686      4689
      4689      4690      4689      4691      4689      4692      4692      4693
      4692      4694      4692      4695      4695      4696      4695      4697
      4695      4698      4698      4699      4698      4700      4698      4701
      4701      4702      4701      4703      4701      4704     20228     20229
     20228     20230     20228     20231     20228     20232     20232     20233
     20232     20234     20232     20235     20235     20236     20235     20237
     20235     20241     20243     20242     20241     20238     20238     20242
     20238     20239     20238     20240     20243     20244     20243     20245
     20243     20246     20246     20247     20246     20254     20246     20248
     20254     20255     20254     20256     20254     20257     20248     20249
     20249     20251     20249     20250     20251     20252     20251     20253
     20251     20263     20263     20264     20263     20265     20263     20266
     20266     20267     20266     20268     20266     20269     20269     20270
     20269     20271     20269     20272     20272     20273     20272     20274
     20272     20275     20275     20276     20275     20277     20275     20278
     20278     20279     20278     20280     20278     20281     20281     20282
     20281     20283     20283     20284     20283     20285     20285     20286
     20285     20287     20285     20288     20288     20289     20288     20290
     20288     20291     20291     20292     20291     20293     20291     20294
     20294     20295     20294     20296     20294     20297     20297     20298
     20297     20299     20297     20300     20300     20301     20300     20302
     20300     20303     20303     20304     20303     20305     20303     20306
     20306     20307     20306     20308     20306     20309     20257     20258
     20258     20260     20258     20259     20260     20261     20260     20262
     20260     20310     20310     20311     20310     20312     20310     20313
     20313     20314     20313     20315     20313     20316     20316     20317
     20316     20318     20316     20319     20319     20320     20319     20321
     20319     20322     20322     20323     20322     20324     20322     20325
     20325     20326     20325     20327     20325     20328     20328     20329
     20328     20330     20328     20331     20331     20332     20331     20333
     20331     20334     20334     20335     20334     20336     20334     20337
     20337     20338     20337     20339     20337     20340     20340     20341
     20340     20342     20340     20343     20343     20344     20343     20345
     20343     20346     20346     20347     20346     20348     20346     20349
     20349     20350     20349     20351     20349     20352     20352     20353
     20352     20354     20352     20355     20355     20356     20355     20357
     20355     20358     16822     16823     16822     16824     16822     16825
     16822     16826     16826     16827     16826     16828     16826     16829
     16829     16830     16829     16831     16829     16835     16837     16836
     16835     16832     16832     16836     16832     16833     16832     16834
     16837     16838     16837     16839     16837     16840     16840     16841
     16840     16848     16840     16842     16848     16849     16848     16850
     16848     16851     16842     16843     16843     16845     16843     16844
     16845     16846     16845     16847     16845     16857     16857     16858
     16857     16859     16857     16860     16860     16861     16860     16862
     16860     16863     16863     16864     16863     16865     16865     16866
     16865     16867     16867     16868     16867     16869     16867     16870
     16870     16871     16870     16872     16872     16873     16872     16874
     16874     16875     16874     16876     16874     16877     16877     16878
     16877     16879     16879     16880     16879     16881     16881     16882
     16881     16883     16881     16884     16884     16885     16884     16886
     16886     16887     16886     16888     16888     16889     16888     16890
     16888     16891     16891     16892     16891     16893     16891     16894
     16894     16895     16894     16896     16894     16897     16897     16898
     16897     16899     16897     16900     16900     16901     16900     16902
     16900     16903     16851     16852     16852     16854     16852     16853
     16854     16855     16854     16856     16854     16904     16904     16905
     16904     16906     16904     16907     16907     16908     16907     16909
     16907     16910     16910     16911     16910     16912     16910     16913
     16913     16914     16913     16915     16913     16916     16916     16917
     16916     16918     16916     16919     16919     16920     16919     16921
     16919     16922     16922     16923     16922     16924     16922     16925
     16925     16926     16925     16927     16925     16928     16928     16929
     16928     16930     16928     16931     16931     16932     16931     16933
     16931     16934     16934     16935     16934     16936     16934     16937
     16937     16938     16937     16939     16937     16940     16940     16941
     16940     16942     16940     16943     16943     16944     16943     16945
     16943     16946     16946     16947     16946     16948     16946     16949
     16949     16950     16949     16951     16949     16952      6239      6240
      6239      6244      6239      6248      6240      6241      6240      6242
      6240      6243      6244      6245      6244      6246      6244      6247
      6248      6249      6248      6250      6248      6251      6239      6252
      6252      6253      6252      6254      6252      6255      6255      6256
      6255      6257      6255      6261      6262      6263      6261      6258
      6258      6262      6258      6259      6258      6260      6263      6264
      6263      6265      6263      6266      6266      6267      6266      6274
      6266      6268      6274      6275      6274      6276      6274      6277
      6268      6269      6269      6271      6269      6270      6271      6272
      6271      6273      6271      6283      6283      6284      6283      6285
      6283      6286      6286      6287      6286      6288      6286      6289
      6289      6290      6289      6291      6289      6292      6292      6293
      6292      6294      6292      6295      6295      6296      6295      6297
      6295      6298      6298      6299      6298      6300      6298      6301
      6301      6302      6301      6303      6303      6304      6303      6305
      6305      6306      6305      6307      6305      6308      6308      6309
      6308      6310      6310      6311      6310      6312      6312      6313
      6312      6314      6312      6315      6315      6316      6315      6317
      6315      6318      6318      6319      6318      6320      6318      6321
      6321      6322      6321      6323      6321      6324      6324      6325
      6324      6326      6324      6327      6277      6278      6278      6280
      6278      6279      6280      6281      6280      6282      6280      6328
      6328      6329      6328      6330      6328      6331      6331      6332
      6331      6333      6331      6334      6334      6335      6334      6336
      6334      6337      6337      6338      6337      6339      6337      6340
      6340      6341      6340      6342      6340      6343      6343      6344
      6343      6345      6343      6346      6346      6347      6346      6348
      6346      6349      6349      6350      6349      6351      6349      6352
      6352      6353      6352      6354      6352      6355      6355      6356
      6355      6357      6355      6358      6358      6359      6358      6360
      6358      6361      6361      6362      6361      6363      6361      6364
      6364      6365      6364      6366      6364      6367      6367      6368
      6367      6369      6367      6370      6370      6371      6370      6372
      6370      6373      6373      6374      6373      6375      6373      6376
      6377      6378      6377      6382      6377      6386      6378      6379
      6378      6380      6378      6381      6382      6383      6382      6384
      6382      6385      6386      6387      6386      6388      6386      6389
      6377      6390      6390      6391      6390      6392      6390      6393
      6393      6394      6393      6395      6393      6399      6400      6401
      6399      6396      6396      6400      6396      6397      6396      6398
      6401      6402      6401      6403      6401      6404      6404      6405
      6404      6412      6404      6406      6412      6413      6412      6414
      6412      6415      6406      6407      6407      6409      6407      6408
      6409      6410      6409      6411      6409      6421      6421      6422
      6421      6423      6421      6424      6424      6425      6424      6426
      6424      6427      6427      6428      6427      6429      6427      6430
      6430      6431      6430      6432      6430      6433      6433      6434
      6433      6435      6433      6436      6436      6437      6436      6438
      6436      6439      6439      6440      6439      6441      6441      6442
      6441      6443      6443      6444      6443      6445      6443      6446
      6446      6447      6446      6448      6448      6449      6448      6450
      6450      6451      6450      6452      6450      6453      6453      6454
      6453      6455      6453      6456      6456      6457      6456      6458
      6456      6459      6459      6460      6459      6461      6459      6462
      6462      6463      6462      6464      6462      6465      6415      6416
      6416      6418      6416      6417      6418      6419      6418      6420
      6418      6466      6466      6467      6466      6468      6466      6469
      6469      6470      6469      6471      6469      6472      6472      6473
      6472      6474      6472      6475      6475      6476      6475      6477
      6475      6478      6478      6479      6478      6480      6478      6481
      6481      6482      6481      6483      6481      6484      6484      6485
      6484      6486      6484      6487      6487      6488      6487      6489
      6487      6490      6490      6491      6490      6492      6490      6493
      6493      6494      6493      6495      6493      6496      6496      6497
      6496      6498      6496      6499      6499      6500      6499      6501
      6499      6502      6502      6503      6502      6504      6502      6505
      6505      6506      6505      6507      6505      6508      6508      6509
      6508      6510      6508      6511      6511      6512      6511      6513
      6511      6514     12574     12575     12574     12576     12574     12577
     12574     12571     12571     12572     12571     12573     12571     12568
     12568     12569     12568     12570     12568     12565     12565     12566
     12565     12567     12565     12562     12562     12563     12562     12564
     12562     12559     12559     12560     12559     12561     12559     12556
     12556     12557     12556     12558     12556     12553     12553     12554
     12553     12555     12553     12550     12550     12551     12550     12552
     12550     12547     12547     12548     12547     12549     12547     12544
     12544     12545     12544     12546     12544     12541     12541     12542
     12541     12543     12541     12538     12538     12539     12538     12540
     12538     12536     12536     12537     12534     12535     12534     12530
     12530     12531     12530     12532     12532     12533     12530     12528
     12528     12529     12528     12523     12523     12524     12523     12525
     12523     12521     12521     12518     12522     12518     12519     12518
     12520     12518     12522     12515     12515     12516     12515     12517
     12515     12512     12512     12513     12512     12514     12512     12499
     12499     12508     12499     12504     12499     12500     12508     12509
     12508     12510     12508     12511     12504     12505     12504     12506
     12504     12507     12500     12501     12500     12502     12500     12503
     12528     12526     12526     12527     12526     12578     12578     12580
     12580     12581     12580     12582     12580     12583     12583     12584
     12583     12585     12583     12586     12586     12587     12586     12588
     12586     12589     12589     12590     12589     12591     12589     12592
     12592     12593     12592     12594     12592     12595     12595     12596
     12595     12597     12595     12598     12598     12599     12598     12600
     12598     12601     12601     12602     12603     12604     12603     12605
     12605     12606     12605     12607     12605     12608     12608     12609
     12608     12610     12608     12611     12611     12612     12611     12613
     12611     12614     12614     12615     12614     12616     12614     12617
     12617     12618     12617     12619     12617     12620     12620     12621
     12620     12622     12620     12623     12623     12624     12623     12625
     12623     12626     12626     12627     12626     12628     12626     12629
     12534     12536     12601     12603     12578     12579      1703      1705
      1703      1704      1705      1706      1703      1749      1749      1750
      1749      1751      1749      1746      1746      1747      1746      1748
      1703      1707      1707      1708      1707      1709      1707      1710
      1710      1741      1741      1746      1741      1742      1742      1743
      1742      1744      1742      1745      1710      1711      1711      1712
      1711      1713      1713      1714      1713      1715      1713      1716
      1716      1717      1716      1739      1739      1740      1739      1741
      1716      1718      1718      1719      1718      1728      1728      1733
      1733      1734      1733      1735      1733      1736      1736      1737
      1736      1738      1736      1739      1728      1729      1729      1730
      1729      1731      1729      1732      1718      1720      1720      1721
      1720      1722      1720      1723      1723      1724      1723      1725
      1723      1726      1726      1727      1726      1728      1726      1752
      1752      1753      1752      1754      1754      1755      1754      1756
      1754      1757      1752      1758      1758      1759      1758      1760
      1758      1761      1761      1762      1761      1763      1761      1764
      1764      1765      1764      1766      1764      1767      1767      1768
      1767      1769      1769      1770      1769      1771      1769      1772
      1767      1773      1773      1774      1773      1775      1773      1776
      4705      4709      4705      4713      4705      4717      4709      4710
      4709      4711      4709      4712      4713      4714      4713      4715
      4713      4716      4717      4718      4717      4719      4717      4720
      4705      4706      4706      4707      4706      4708      4706      4721
      4721      4722      4721      4723      4721      4727      4728      4729
      4727      4724      4724      4728      4724      4725      4724      4726
      4729      4730      4729      4731      4729      4732      4732      4733
      4732      4740      4732      4734      4740      4741      4740      4742
      4740      4743      4734      4735      4735      4737      4735      4736
      4737      4738      4737      4739      4737      4749      4749      4750
      4749      4751      4749      4752      4752      4753      4752      4754
      4752      4755      4755      4756      4755      4757      4757      4758
      4757      4759      4759      4760      4759      4761      4759      4762
      4762      4763      4762      4764      4764      4765      4764      4766
      4766      4767      4766      4768      4766      4769      4769      4770
      4769      4771      4771      4772      4771      4773      4773      4774
      4773      4775      4773      4776      4776      4777      4776      4778
      4778      4779      4778      4780      4780      4781      4780      4782
      4780      4783      4783      4784      4783      4785      4783      4786
      4786      4787      4786      4788      4786      4789      4789      4790
      4789      4791      4789      4792      4792      4793      4792      4794
      4792      4795      4743      4744      4744      4746      4744      4745
      4746      4747      4746      4748      4746      4796      4796      4797
      4796      4798      4796      4799      4799      4800      4799      4801
      4799      4802      4802      4803      4802      4804      4802      4805
      4805      4806      4805      4807      4805      4808      4808      4809
      4808      4810      4808      4811      4811      4812      4811      4813
      4811      4814      4814      4815      4814      4816      4814      4817
      4817      4818      4817      4819      4817      4820      4820      4821
      4820      4822      4820      4823      4823      4824      4823      4825
      4823      4826      4826      4827      4826      4828      4826      4829
      4829      4830      4829      4831      4829      4832      4832      4833
      4832      4834      4832      4835      4835      4836      4835      4837
      4835      4838      4838      4839      4838      4840      4838      4841
      4841      4842      4841      4843      4841      4844     12705     12706
     12705     12707     12705     12708     12705     12702     12702     12703
     12702     12704     12702     12699     12699     12700     12699     12701
     12699     12696     12696     12697     12696     12698     12696     12693
     12693     12694     12693     12695     12693     12690     12690     12691
     12690     12692     12690     12687     12687     12688     12687     12689
     12687     12684     12684     12685     12684     12686     12684     12681
     12681     12682     12681     12683     12681     12678     12678     12679
     12678     12680     12678     12675     12675     12676     12675     12677
     12675     12672     12672     12673     12672     12674     12672     12669
     12669     12670     12669     12671     12669     12667     12667     12668
     12665     12666     12665     12661     12661     12662     12661     12663
     12663     12664     12661     12659     12659     12660     12659     12654
     12654     12655     12654     12656     12654     12652     12652     12649
     12653     12649     12650     12649     12651     12649     12653     12646
     12646     12647     12646     12648     12646     12643     12643     12644
     12643     12645     12643     12630     12630     12639     12630     12635
     12630     12631     12639     12640     12639     12641     12639     12642
     12635     12636     12635     12637     12635     12638     12631     12632
     12631     12633     12631     12634     12659     12657     12657     12658
     12657     12709     12709     12711     12711     12712     12711     12713
     12711     12714     12714     12715     12714     12716     12714     12717
     12717     12718     12717     12719     12717     12720     12720     12721
     12720     12722     12720     12723     12723     12724     12723     12725
     12723     12726     12726     12727     12726     12728     12726     12729
     12729     12730     12729     12731     12729     12732     12732     12733
     12734     12735     12734     12736     12736     12737     12736     12738
     12736     12739     12739     12740     12739     12741     12739     12742
     12742     12743     12742     12744     12742     12745     12745     12746
     12745     12747     12745     12748     12748     12749     12748     12750
     12748     12751     12751     12752     12751     12753     12751     12754
     12754     12755     12754     12756     12754     12757     12757     12758
     12757     12759     12757     12760     12665     12667     12732     12734
     12709     12710      8279      8280      8279      8281      8279      8282
      8279      8283      8287      8285      8285      8283      8285      8286
      8283      8284      8283      8288      8296      8295      8288      8289
      8288      8290      8288      8294      8294      8291      8291      8295
      8291      8292      8291      8293      8296      8297      8296      8298
      8296      8299      8299      8300      8299      8307      8299      8301
      8307      8308      8307      8309      8307      8310      8301      8302
      8302      8304      8302      8303      8304      8305      8304      8306
      8304      8316      8316      8317      8316      8318      8316      8319
      8319      8320      8319      8321      8319      8322      8322      8323
      8322      8324      8324      8325      8324      8326      8326      8327
      8326      8328      8326      8329      8329      8330      8329      8331
      8331      8332      8331      8333      8333      8334      8333      8335
      8333      8336      8336      8337      8336      8338      8338      8339
      8338      8340      8340      8341      8340      8342      8340      8343
      8343      8344      8343      8345      8345      8346      8345      8347
      8347      8348      8347      8349      8347      8350      8350      8351
      8350      8352      8350      8353      8353      8354      8353      8355
      8353      8356      8356      8357      8356      8358      8356      8359
      8359      8360      8359      8361      8359      8362      8310      8311
      8311      8313      8311      8312      8313      8314      8313      8315
      8313      8363      8363      8364      8363      8365      8363      8366
      8366      8367      8366      8368      8366      8369      8369      8370
      8369      8371      8369      8372      8372      8373      8372      8374
      8372      8375      8375      8376      8375      8377      8375      8378
      8378      8379      8378      8380      8378      8381      8381      8382
      8381      8383      8381      8384      8384      8385      8384      8386
      8384      8387      8387      8388      8387      8389      8387      8390
      8390      8391      8390      8392      8390      8393      8393      8394
      8393      8395      8393      8396      8396      8397      8396      8398
      8396      8399      8399      8400      8399      8401      8399      8402
      8402      8403      8402      8404      8402      8405      8405      8406
      8405      8407      8405      8408      8408      8409      8408      8410
      8408      8411      8412      8413      8412      8414      8412      8415
      8412      8416      8420      8418      8418      8416      8418      8419
      8416      8417      8416      8421      8429      8428      8421      8422
      8421      8423      8421      8427      8427      8424      8424      8428
      8424      8425      8424      8426      8429      8430      8429      8431
      8429      8432      8432      8433      8432      8440      8432      8434
      8440      8441      8440      8442      8440      8443      8434      8435
      8435      8437      8435      8436      8437      8438      8437      8439
      8437      8449      8449      8450      8449      8451      8449      8452
      8452      8453      8452      8454      8452      8455      8455      8456
      8455      8457      8457      8458      8457      8459      8459      8460
      8459      8461      8459      8462      8462      8463      8462      8464
      8464      8465      8464      8466      8466      8467      8466      8468
      8466      8469      8469      8470      8469      8471      8471      8472
      8471      8473      8473      8474      8473      8475      8473      8476
      8476      8477      8476      8478      8478      8479      8478      8480
      8480      8481      8480      8482      8480      8483      8483      8484
      8483      8485      8483      8486      8486      8487      8486      8488
      8486      8489      8489      8490      8489      8491      8489      8492
      8492      8493      8492      8494      8492      8495      8443      8444
      8444      8446      8444      8445      8446      8447      8446      8448
      8446      8496      8496      8497      8496      8498      8496      8499
      8499      8500      8499      8501      8499      8502      8502      8503
      8502      8504      8502      8505      8505      8506      8505      8507
      8505      8508      8508      8509      8508      8510      8508      8511
      8511      8512      8511      8513      8511      8514      8514      8515
      8514      8516      8514      8517      8517      8518      8517      8519
      8517      8520      8520      8521      8520      8522      8520      8523
      8523      8524      8523      8525      8523      8526      8526      8527
      8526      8528      8526      8529      8529      8530      8529      8531
      8529      8532      8532      8533      8532      8534      8532      8535
      8535      8536      8535      8537      8535      8538      8538      8539
      8538      8540      8538      8541      8541      8542      8541      8543
      8541      8544      1777      1779      1777      1778      1779      1780
      1777      1823      1823      1824      1823      1825      1823      1820
      1820      1821      1820      1822      1777      1781      1781      1782
      1781      1783      1781      1784      1784      1815      1815      1820
      1815      1816      1816      1817      1816      1818      1816      1819
      1784      1785      1785      1786      1785      1787      1787      1788
      1787      1789      1787      1790      1790      1791      1790      1813
      1813      1814      1813      1815      1790      1792      1792      1793
      1792      1802      1802      1807      1807      1808      1807      1809
      1807      1810      1810      1811      1810      1812      1810      1813
      1802      1803      1803      1804      1803      1805      1803      1806
      1792      1794      1794      1795      1794      1796      1794      1797
      1797      1798      1797      1799      1797      1800      1800      1801
      1800      1802      1800      1826      1826      1827      1826      1828
      1828      1829      1828      1830      1828      1831      1826      1832
      1832      1833      1832      1834      1832      1835      1835      1836
      1835      1837      1835      1838      1838      1839      1838      1840
      1838      1841      1841      1842      1841      1843      1843      1844
      1843      1845      1843      1846      1841      1847      1847      1848
      1847      1849      1847      1850      1851      1853      1851      1852
      1853      1854      1851      1897      1897      1898      1897      1899
      1897      1894      1894      1895      1894      1896      1851      1855
      1855      1856      1855      1857      1855      1858      1858      1889
      1889      1894      1889      1890      1890      1891      1890      1892
      1890      1893      1858      1859      1859      1860      1859      1861
      1861      1862      1861      1863      1861      1864      1864      1865
      1864      1887      1887      1888      1887      1889      1864      1866
      1866      1867      1866      1876      1876      1881      1881      1882
      1881      1883      1881      1884      1884      1885      1884      1886
      1884      1887      1876      1877      1877      1878      1877      1879
      1877      1880      1866      1868      1868      1869      1868      1870
      1868      1871      1871      1872      1871      1873      1871      1874
      1874      1875      1874      1876      1874      1900      1900      1901
      1900      1902      1902      1903      1902      1904      1902      1905
      1900      1906      1906      1907      1906      1908      1906      1909
      1909      1910      1909      1911      1909      1912      1912      1913
      1912      1914      1912      1915      1915      1916      1915      1917
      1917      1918      1917      1919      1917      1920      1915      1921
      1921      1922      1921      1923      1921      1924     12836     12837
     12836     12838     12836     12839     12836     12833     12833     12834
     12833     12835     12833     12830     12830     12831     12830     12832
     12830     12827     12827     12828     12827     12829     12827     12824
     12824     12825     12824     12826     12824     12821     12821     12822
     12821     12823     12821     12818     12818     12819     12818     12820
     12818     12815     12815     12816     12815     12817     12815     12812
     12812     12813     12812     12814     12812     12809     12809     12810
     12809     12811     12809     12806     12806     12807     12806     12808
     12806     12803     12803     12804     12803     12805     12803     12800
     12800     12801     12800     12802     12800     12798     12798     12799
     12796     12797     12796     12792     12792     12793     12792     12794
     12794     12795     12792     12790     12790     12791     12790     12785
     12785     12786     12785     12787     12785     12783     12783     12780
     12784     12780     12781     12780     12782     12780     12784     12777
     12777     12778     12777     12779     12777     12774     12774     12775
     12774     12776     12774     12761     12761     12770     12761     12766
     12761     12762     12770     12771     12770     12772     12770     12773
     12766     12767     12766     12768     12766     12769     12762     12763
     12762     12764     12762     12765     12790     12788     12788     12789
     12788     12840     12840     12842     12842     12843     12842     12844
     12842     12845     12845     12846     12845     12847     12845     12848
     12848     12849     12848     12850     12848     12851     12851     12852
     12851     12853     12851     12854     12854     12855     12854     12856
     12854     12857     12857     12858     12857     12859     12857     12860
     12860     12861     12860     12862     12860     12863     12863     12864
     12865     12866     12865     12867     12867     12868     12867     12869
     12867     12870     12870     12871     12870     12872     12870     12873
     12873     12874     12873     12875     12873     12876     12876     12877
     12876     12878     12876     12879     12879     12880     12879     12881
     12879     12882     12882     12883     12882     12884     12882     12885
     12885     12886     12885     12887     12885     12888     12888     12889
     12888     12890     12888     12891     12796     12798     12863     12865
     12840     12841     21308     21309     21308     21304     21308     21288
     21308     21313     21288     21289     21288     21290     21290     21291
     21288     21292     21292     21293     21292     21294     21294     21295
     21292     21296     21296     21297     21296     21298     21298     21299
     21296     21300     21300     21301     21300     21304     21304     21305
     21304     21306     21306     21307     21300     21302     21302     21303
     21313     21310     21310     21314     21310     21311     21310     21312
     21314     21315     21315     21316     21315     21317     21315     21318
     21318     21319     21318     21326     21318     21320     21326     21327
     21326     21328     21326     21329     21320     21321     21321     21323
     21321     21322     21323     21324     21323     21325     21323     21335
     21335     21336     21335     21337     21335     21338     21338     21339
     21338     21340     21338     21341     21341     21342     21341     21343
     21343     21344     21343     21345     21345     21346     21345     21347
     21345     21348     21348     21349     21348     21350     21350     21351
     21350     21352     21352     21353     21352     21354     21352     21355
     21355     21356     21355     21357     21357     21358     21357     21359
     21359     21360     21359     21361     21359     21362     21362     21363
     21362     21364     21364     21365     21364     21366     21366     21367
     21366     21368     21366     21369     21369     21370     21369     21371
     21369     21372     21372     21373     21372     21374     21372     21375
     21375     21376     21375     21377     21375     21378     21378     21379
     21378     21380     21378     21381     21329     21330     21330     21332
     21330     21331     21332     21333     21332     21334     21332     21382
     21382     21383     21382     21384     21382     21385     21385     21386
     21385     21387     21385     21388     21388     21389     21388     21390
     21388     21391     21391     21392     21391     21393     21391     21394
     21394     21395     21394     21396     21394     21397     21397     21398
     21397     21399     21397     21400     21400     21401     21400     21402
     21400     21403     21403     21404     21403     21405     21403     21406
     21406     21407     21406     21408     21406     21409     21409     21410
     21409     21411     21409     21412     21412     21413     21412     21414
     21412     21415     21415     21416     21415     21417     21415     21418
     21418     21419     21418     21420     21418     21421     21421     21422
     21421     21423     21421     21424     21424     21425     21424     21426
     21424     21427     21427     21428     21427     21429     21427     21430
     16953     16954     16953     16955     16953     16956     16953     16957
     16957     16958     16957     16959     16957     16960     16960     16961
     16960     16962     16960     16966     16968     16967     16966     16963
     16963     16967     16963     16964     16963     16965     16968     16969
     16968     16970     16968     16971     16971     16972     16971     16979
     16971     16973     16979     16980     16979     16981     16979     16982
     16973     16974     16974     16976     16974     16975     16976     16977
     16976     16978     16976     16988     16988     16989     16988     16990
     16988     16991     16991     16992     16991     16993     16991     16994
     16994     16995     16994     16996     16996     16997     16996     16998
     16998     16999     16998     17000     16998     17001     17001     17002
     17001     17003     17003     17004     17003     17005     17005     17006
     17005     17007     17005     17008     17008     17009     17008     17010
     17010     17011     17010     17012     17012     17013     17012     17014
     17012     17015     17015     17016     17015     17017     17017     17018
     17017     17019     17019     17020     17019     17021     17019     17022
     17022     17023     17022     17024     17022     17025     17025     17026
     17025     17027     17025     17028     17028     17029     17028     17030
     17028     17031     17031     17032     17031     17033     17031     17034
     16982     16983     16983     16985     16983     16984     16985     16986
     16985     16987     16985     17035     17035     17036     17035     17037
     17035     17038     17038     17039     17038     17040     17038     17041
     17041     17042     17041     17043     17041     17044     17044     17045
     17044     17046     17044     17047     17047     17048     17047     17049
     17047     17050     17050     17051     17050     17052     17050     17053
     17053     17054     17053     17055     17053     17056     17056     17057
     17056     17058     17056     17059     17059     17060     17059     17061
     17059     17062     17062     17063     17062     17064     17062     17065
     17065     17066     17065     17067     17065     17068     17068     17069
     17068     17070     17068     17071     17071     17072     17071     17073
     17071     17074     17074     17075     17074     17076     17074     17077
     17077     17078     17077     17079     17077     17080     17080     17081
     17080     17082     17080     17083     17084     17085     17084     17086
     17084     17087     17084     17088     17088     17089     17088     17090
     17088     17091     17091     17092     17091     17093     17091     17097
     17099     17098     17097     17094     17094     17098     17094     17095
     17094     17096     17099     17100     17099     17101     17099     17102
     17102     17103     17102     17110     17102     17104     17110     17111
     17110     17112     17110     17113     17104     17105     17105     17107
     17105     17106     17107     17108     17107     17109     17107     17119
     17119     17120     17119     17121     17119     17122     17122     17123
     17122     17124     17122     17125     17125     17126     17125     17127
     17127     17128     17127     17129     17129     17130     17129     17131
     17129     17132     17132     17133     17132     17134     17134     17135
     17134     17136     17136     17137     17136     17138     17136     17139
     17139     17140     17139     17141     17141     17142     17141     17143
     17143     17144     17143     17145     17143     17146     17146     17147
     17146     17148     17148     17149     17148     17150     17150     17151
     17150     17152     17150     17153     17153     17154     17153     17155
     17153     17156     17156     17157     17156     17158     17156     17159
     17159     17160     17159     17161     17159     17162     17162     17163
     17162     17164     17162     17165     17113     17114     17114     17116
     17114     17115     17116     17117     17116     17118     17116     17166
     17166     17167     17166     17168     17166     17169     17169     17170
     17169     17171     17169     17172     17172     17173     17172     17174
     17172     17175     17175     17176     17175     17177     17175     17178
     17178     17179     17178     17180     17178     17181     17181     17182
     17181     17183     17181     17184     17184     17185     17184     17186
     17184     17187     17187     17188     17187     17189     17187     17190
     17190     17191     17190     17192     17190     17193     17193     17194
     17193     17195     17193     17196     17196     17197     17196     17198
     17196     17199     17199     17200     17199     17201     17199     17202
     17202     17203     17202     17204     17202     17205     17205     17206
     17205     17207     17205     17208     17208     17209     17208     17210
     17208     17211     17211     17212     17211     17213     17211     17214
      1925      1927      1925      1926      1927      1928      1925      1971
      1971      1972      1971      1973      1971      1968      1968      1969
      1968      1970      1925      1929      1929      1930      1929      1931
      1929      1932      1932      1963      1963      1968      1963      1964
      1964      1965      1964      1966      1964      1967      1932      1933
      1933      1934      1933      1935      1935      1936      1935      1937
      1935      1938      1938      1939      1938      1961      1961      1962
      1961      1963      1938      1940      1940      1941      1940      1950
      1950      1955      1955      1956      1955      1957      1955      1958
      1958      1959      1958      1960      1958      1961      1950      1951
      1951      1952      1951      1953      1951      1954      1940      1942
      1942      1943      1942      1944      1942      1945      1945      1946
      1945      1947      1945      1948      1948      1949      1948      1950
      1948      1974      1974      1975      1974      1976      1976      1977
      1976      1978      1976      1979      1974      1980      1980      1981
      1980      1982      1980      1983      1983      1984      1983      1985
      1983      1986      1986      1987      1986      1988      1986      1989
      1989      1990      1989      1991      1991      1992      1991      1993
      1991      1994      1989      1995      1995      1996      1995      1997
      1995      1998      4845      4849      4845      4853      4845      4857
      4849      4850      4849      4851      4849      4852      4853      4854
      4853      4855      4853      4856      4857      4858      4857      4859
      4857      4860      4845      4846      4846      4847      4846      4848
      4846      4861      4861      4862      4861      4863      4861      4867
      4868      4869      4867      4864      4864      4868      4864      4865
      4864      4866      4869      4870      4869      4871      4869      4872
      4872      4873      4872      4880      4872      4874      4880      4881
      4880      4882      4880      4883      4874      4875      4875      4877
      4875      4876      4877      4878      4877      4879      4877      4889
      4889      4890      4889      4891      4889      4892      4892      4893
      4892      4894      4892      4895      4895      4896      4895      4897
      4897      4898      4897      4899      4899      4900      4899      4901
      4899      4902      4902      4903      4902      4904      4904      4905
      4904      4906      4906      4907      4906      4908      4906      4909
      4909      4910      4909      4911      4911      4912      4911      4913
      4913      4914      4913      4915      4913      4916      4916      4917
      4916      4918      4918      4919      4918      4920      4920      4921
      4920      4922      4920      4923      4923      4924      4923      4925
      4923      4926      4926      4927      4926      4928      4926      4929
      4929      4930      4929      4931      4929      4932      4932      4933
      4932      4934      4932      4935      4883      4884      4884      4886
      4884      4885      4886      4887      4886      4888      4886      4936
      4936      4937      4936      4938      4936      4939      4939      4940
      4939      4941      4939      4942      4942      4943      4942      4944
      4942      4945      4945      4946      4945      4947      4945      4948
      4948      4949      4948      4950      4948      4951      4951      4952
      4951      4953      4951      4954      4954      4955      4954      4956
      4954      4957      4957      4958      4957      4959      4957      4960
      4960      4961      4960      4962      4960      4963      4963      4964
      4963      4965      4963      4966      4966      4967      4966      4968
      4966      4969      4969      4970      4969      4971      4969      4972
      4972      4973      4972      4974      4972      4975      4975      4976
      4975      4977      4975      4978      4978      4979      4978      4980
      4978      4981      4981      4982      4981      4983      4981      4984
     17215     17216     17215     17217     17215     17218     17215     17219
     17219     17220     17219     17221     17219     17222     17222     17223
     17222     17224     17222     17228     17230     17229     17228     17225
     17225     17229     17225     17226     17225     17227     17230     17231
     17230     17232     17230     17233     17233     17234     17233     17241
     17233     17235     17241     17242     17241     17243     17241     17244
     17235     17236     17236     17238     17236     17237     17238     17239
     17238     17240     17238     17250     17250     17251     17250     17252
     17250     17253     17253     17254     17253     17255     17253     17256
     17256     17257     17256     17258     17258     17259     17258     17260
     17260     17261     17260     17262     17260     17263     17263     17264
     17263     17265     17265     17266     17265     17267     17267     17268
     17267     17269     17267     17270     17270     17271     17270     17272
     17272     17273     17272     17274     17274     17275     17274     17276
     17274     17277     17277     17278     17277     17279     17279     17280
     17279     17281     17281     17282     17281     17283     17281     17284
     17284     17285     17284     17286     17284     17287     17287     17288
     17287     17289     17287     17290     17290     17291     17290     17292
     17290     17293     17293     17294     17293     17295     17293     17296
     17244     17245     17245     17247     17245     17246     17247     17248
     17247     17249     17247     17297     17297     17298     17297     17299
     17297     17300     17300     17301     17300     17302     17300     17303
     17303     17304     17303     17305     17303     17306     17306     17307
     17306     17308     17306     17309     17309     17310     17309     17311
     17309     17312     17312     17313     17312     17314     17312     17315
     17315     17316     17315     17317     17315     17318     17318     17319
     17318     17320     17318     17321     17321     17322     17321     17323
     17321     17324     17324     17325     17324     17326     17324     17327
     17327     17328     17327     17329     17327     17330     17330     17331
     17330     17332     17330     17333     17333     17334     17333     17335
     17333     17336     17336     17337     17336     17338     17336     17339
     17339     17340     17339     17341     17339     17342     17342     17343
     17342     17344     17342     17345     17346     17347     17346     17348
     17346     17349     17346     17350     17350     17351     17350     17352
     17350     17353     17353     17354     17353     17355     17353     17359
     17361     17360     17359     17356     17356     17360     17356     17357
     17356     17358     17361     17362     17361     17363     17361     17364
     17364     17365     17364     17372     17364     17366     17372     17373
     17372     17374     17372     17375     17366     17367     17367     17369
     17367     17368     17369     17370     17369     17371     17369     17381
     17381     17382     17381     17383     17381     17384     17384     17385
     17384     17386     17384     17387     17387     17388     17387     17389
     17389     17390     17389     17391     17391     17392     17391     17393
     17391     17394     17394     17395     17394     17396     17396     17397
     17396     17398     17398     17399     17398     17400     17398     17401
     17401     17402     17401     17403     17403     17404     17403     17405
     17405     17406     17405     17407     17405     17408     17408     17409
     17408     17410     17410     17411     17410     17412     17412     17413
     17412     17414     17412     17415     17415     17416     17415     17417
     17415     17418     17418     17419     17418     17420     17418     17421
     17421     17422     17421     17423     17421     17424     17424     17425
     17424     17426     17424     17427     17375     17376     17376     17378
     17376     17377     17378     17379     17378     17380     17378     17428
     17428     17429     17428     17430     17428     17431     17431     17432
     17431     17433     17431     17434     17434     17435     17434     17436
     17434     17437     17437     17438     17437     17439     17437     17440
     17440     17441     17440     17442     17440     17443     17443     17444
     17443     17445     17443     17446     17446     17447     17446     17448
     17446     17449     17449     17450     17449     17451     17449     17452
     17452     17453     17452     17454     17452     17455     17455     17456
     17455     17457     17455     17458     17458     17459     17458     17460
     17458     17461     17461     17462     17461     17463     17461     17464
     17464     17465     17464     17466     17464     17467     17467     17468
     17467     17469     17467     17470     17470     17471     17470     17472
     17470     17473     17473     17474     17473     17475     17473     17476
     17477     17478     17477     17479     17477     17480     17477     17481
     17481     17482     17481     17483     17481     17484     17484     17485
     17484     17486     17484     17490     17492     17491     17490     17487
     17487     17491     17487     17488     17487     17489     17492     17493
     17492     17494     17492     17495     17495     17496     17495     17503
     17495     17497     17503     17504     17503     17505     17503     17506
     17497     17498     17498     17500     17498     17499     17500     17501
     17500     17502     17500     17512     17512     17513     17512     17514
     17512     17515     17515     17516     17515     17517     17515     17518
     17518     17519     17518     17520     17520     17521     17520     17522
     17522     17523     17522     17524     17522     17525     17525     17526
     17525     17527     17527     17528     17527     17529     17529     17530
     17529     17531     17529     17532     17532     17533     17532     17534
     17534     17535     17534     17536     17536     17537     17536     17538
     17536     17539     17539     17540     17539     17541     17541     17542
     17541     17543     17543     17544     17543     17545     17543     17546
     17546     17547     17546     17548     17546     17549     17549     17550
     17549     17551     17549     17552     17552     17553     17552     17554
     17552     17555     17555     17556     17555     17557     17555     17558
     17506     17507     17507     17509     17507     17508     17509     17510
     17509     17511     17509     17559     17559     17560     17559     17561
     17559     17562     17562     17563     17562     17564     17562     17565
     17565     17566     17565     17567     17565     17568     17568     17569
     17568     17570     17568     17571     17571     17572     17571     17573
     17571     17574     17574     17575     17574     17576     17574     17577
     17577     17578     17577     17579     17577     17580     17580     17581
     17580     17582     17580     17583     17583     17584     17583     17585
     17583     17586     17586     17587     17586     17588     17586     17589
     17589     17590     17589     17591     17589     17592     17592     17593
     17592     17594     17592     17595     17595     17596     17595     17597
     17595     17598     17598     17599     17598     17600     17598     17601
     17601     17602     17601     17603     17601     17604     17604     17605
     17604     17606     17604     17607      8545      8546      8545      8547
      8545      8548      8545      8549      8553      8551      8551      8549
      8551      8552      8549      8550      8549      8554      8562      8561
      8554      8555      8554      8556      8554      8560      8560      8557
      8557      8561      8557      8558      8557      8559      8562      8563
      8562      8564      8562      8565      8565      8566      8565      8573
      8565      8567      8573      8574      8573      8575      8573      8576
      8567      8568      8568      8570      8568      8569      8570      8571
      8570      8572      8570      8582      8582      8583      8582      8584
      8582      8585      8585      8586      8585      8587      8585      8588
      8588      8589      8588      8590      8590      8591      8590      8592
      8592      8593      8592      8594      8592      8595      8595      8596
      8595      8597      8597      8598      8597      8599      8599      8600
      8599      8601      8599      8602      8602      8603      8602      8604
      8604      8605      8604      8606      8606      8607      8606      8608
      8606      8609      8609      8610      8609      8611      8611      8612
      8611      8613      8613      8614      8613      8615      8613      8616
      8616      8617      8616      8618      8616      8619      8619      8620
      8619      8621      8619      8622      8622      8623      8622      8624
      8622      8625      8625      8626      8625      8627      8625      8628
      8576      8577      8577      8579      8577      8578      8579      8580
      8579      8581      8579      8629      8629      8630      8629      8631
      8629      8632      8632      8633      8632      8634      8632      8635
      8635      8636      8635      8637      8635      8638      8638      8639
      8638      8640      8638      8641      8641      8642      8641      8643
      8641      8644      8644      8645      8644      8646      8644      8647
      8647      8648      8647      8649      8647      8650      8650      8651
      8650      8652      8650      8653      8653      8654      8653      8655
      8653      8656      8656      8657      8656      8658      8656      8659
      8659      8660      8659      8661      8659      8662      8662      8663
      8662      8664      8662      8665      8665      8666      8665      8667
      8665      8668      8668      8669      8668      8670      8668      8671
      8671      8672      8671      8673      8671      8674      8674      8675
      8674      8676      8674      8677      1999      2001      1999      2000
      2001      2002      1999      2045      2045      2046      2045      2047
      2045      2042      2042      2043      2042      2044      1999      2003
      2003      2004      2003      2005      2003      2006      2006      2037
      2037      2042      2037      2038      2038      2039      2038      2040
      2038      2041      2006      2007      2007      2008      2007      2009
      2009      2010      2009      2011      2009      2012      2012      2013
      2012      2035      2035      2036      2035      2037      2012      2014
      2014      2015      2014      2024      2024      2029      2029      2030
      2029      2031      2029      2032      2032      2033      2032      2034
      2032      2035      2024      2025      2025      2026      2025      2027
      2025      2028      2014      2016      2016      2017      2016      2018
      2016      2019      2019      2020      2019      2021      2019      2022
      2022      2023      2022      2024      2022      2048      2048      2049
      2048      2050      2050      2051      2050      2052      2050      2053
      2048      2054      2054      2055      2054      2056      2054      2057
      2057      2058      2057      2059      2057      2060      2060      2061
      2060      2062      2060      2063      2063      2064      2063      2065
      2065      2066      2065      2067      2065      2068      2063      2069
      2069      2070      2069      2071      2069      2072     17608     17609
     17608     17610     17608     17611     17608     17612     17612     17613
     17612     17614     17612     17615     17615     17616     17615     17617
     17615     17621     17623     17622     17621     17618     17618     17622
     17618     17619     17618     17620     17623     17624     17623     17625
     17623     17626     17626     17627     17626     17634     17626     17628
     17634     17635     17634     17636     17634     17637     17628     17629
     17629     17631     17629     17630     17631     17632     17631     17633
     17631     17643     17643     17644     17643     17645     17643     17646
     17646     17647     17646     17648     17646     17649     17649     17650
     17649     17651     17651     17652     17651     17653     17653     17654
     17653     17655     17653     17656     17656     17657     17656     17658
     17658     17659     17658     17660     17660     17661     17660     17662
     17660     17663     17663     17664     17663     17665     17665     17666
     17665     17667     17667     17668     17667     17669     17667     17670
     17670     17671     17670     17672     17672     17673     17672     17674
     17674     17675     17674     17676     17674     17677     17677     17678
     17677     17679     17677     17680     17680     17681     17680     17682
     17680     17683     17683     17684     17683     17685     17683     17686
     17686     17687     17686     17688     17686     17689     17637     17638
     17638     17640     17638     17639     17640     17641     17640     17642
     17640     17690     17690     17691     17690     17692     17690     17693
     17693     17694     17693     17695     17693     17696     17696     17697
     17696     17698     17696     17699     17699     17700     17699     17701
     17699     17702     17702     17703     17702     17704     17702     17705
     17705     17706     17705     17707     17705     17708     17708     17709
     17708     17710     17708     17711     17711     17712     17711     17713
     17711     17714     17714     17715     17714     17716     17714     17717
     17717     17718     17717     17719     17717     17720     17720     17721
     17720     17722     17720     17723     17723     17724     17723     17725
     17723     17726     17726     17727     17726     17728     17726     17729
     17729     17730     17729     17731     17729     17732     17732     17733
     17732     17734     17732     17735     17735     17736     17735     17737
     17735     17738      8678      8679      8678      8680      8678      8681
      8678      8682      8686      8684      8684      8682      8684      8685
      8682      8683      8682      8687      8695      8694      8687      8688
      8687      8689      8687      8693      8693      8690      8690      8694
      8690      8691      8690      8692      8695      8696      8695      8697
      8695      8698      8698      8699      8698      8706      8698      8700
      8706      8707      8706      8708      8706      8709      8700      8701
      8701      8703      8701      8702      8703      8704      8703      8705
      8703      8715      8715      8716      8715      8717      8715      8718
      8718      8719      8718      8720      8718      8721      8721      8722
      8721      8723      8723      8724      8723      8725      8725      8726
      8725      8727      8725      8728      8728      8729      8728      8730
      8730      8731      8730      8732      8732      8733      8732      8734
      8732      8735      8735      8736      8735      8737      8737      8738
      8737      8739      8739      8740      8739      8741      8739      8742
      8742      8743      8742      8744      8744      8745      8744      8746
      8746      8747      8746      8748      8746      8749      8749      8750
      8749      8751      8749      8752      8752      8753      8752      8754
      8752      8755      8755      8756      8755      8757      8755      8758
      8758      8759      8758      8760      8758      8761      8709      8710
      8710      8712      8710      8711      8712      8713      8712      8714
      8712      8762      8762      8763      8762      8764      8762      8765
      8765      8766      8765      8767      8765      8768      8768      8769
      8768      8770      8768      8771      8771      8772      8771      8773
      8771      8774      8774      8775      8774      8776      8774      8777
      8777      8778      8777      8779      8777      8780      8780      8781
      8780      8782      8780      8783      8783      8784      8783      8785
      8783      8786      8786      8787      8786      8788      8786      8789
      8789      8790      8789      8791      8789      8792      8792      8793
      8792      8794      8792      8795      8795      8796      8795      8797
      8795      8798      8798      8799      8798      8800      8798      8801
      8801      8802      8801      8803      8801      8804      8804      8805
      8804      8806      8804      8807      8807      8808      8807      8809
      8807      8810     12967     12968     12967     12969     12967     12970
     12967     12964     12964     12965     12964     12966     12964     12961
     12961     12962     12961     12963     12961     12958     12958     12959
     12958     12960     12958     12955     12955     12956     12955     12957
     12955     12952     12952     12953     12952     12954     12952     12949
     12949     12950     12949     12951     12949     12946     12946     12947
     12946     12948     12946     12943     12943     12944     12943     12945
     12943     12940     12940     12941     12940     12942     12940     12937
     12937     12938     12937     12939     12937     12934     12934     12935
     12934     12936     12934     12931     12931     12932     12931     12933
     12931     12929     12929     12930     12927     12928     12927     12923
     12923     12924     12923     12925     12925     12926     12923     12921
     12921     12922     12921     12916     12916     12917     12916     12918
     12916     12914     12914     12911     12915     12911     12912     12911
     12913     12911     12915     12908     12908     12909     12908     12910
     12908     12905     12905     12906     12905     12907     12905     12892
     12892     12901     12892     12897     12892     12893     12901     12902
     12901     12903     12901     12904     12897     12898     12897     12899
     12897     12900     12893     12894     12893     12895     12893     12896
     12921     12919     12919     12920     12919     12971     12971     12973
     12973     12974     12973     12975     12973     12976     12976     12977
     12976     12978     12976     12979     12979     12980     12979     12981
     12979     12982     12982     12983     12982     12984     12982     12985
     12985     12986     12985     12987     12985     12988     12988     12989
     12988     12990     12988     12991     12991     12992     12991     12993
     12991     12994     12994     12995     12996     12997     12996     12998
     12998     12999     12998     13000     12998     13001     13001     13002
     13001     13003     13001     13004     13004     13005     13004     13006
     13004     13007     13007     13008     13007     13009     13007     13010
     13010     13011     13010     13012     13010     13013     13013     13014
     13013     13015     13013     13016     13016     13017     13016     13018
     13016     13019     13019     13020     13019     13021     13019     13022
     12927     12929     12994     12996     12971     12972      6515      6516
      6515      6520      6515      6524      6516      6517      6516      6518
      6516      6519      6520      6521      6520      6522      6520      6523
      6524      6525      6524      6526      6524      6527      6515      6528
      6528      6529      6528      6530      6528      6531      6531      6532
      6531      6533      6531      6537      6538      6539      6537      6534
      6534      6538      6534      6535      6534      6536      6539      6540
      6539      6541      6539      6542      6542      6543      6542      6550
      6542      6544      6550      6551      6550      6552      6550      6553
      6544      6545      6545      6547      6545      6546      6547      6548
      6547      6549      6547      6559      6559      6560      6559      6561
      6559      6562      6562      6563      6562      6564      6562      6565
      6565      6566      6565      6567      6565      6568      6568      6569
      6568      6570      6568      6571      6571      6572      6571      6573
      6571      6574      6574      6575      6574      6576      6574      6577
      6577      6578      6577      6579      6579      6580      6579      6581
      6581      6582      6581      6583      6581      6584      6584      6585
      6584      6586      6586      6587      6586      6588      6588      6589
      6588      6590      6588      6591      6591      6592      6591      6593
      6591      6594      6594      6595      6594      6596      6594      6597
      6597      6598      6597      6599      6597      6600      6600      6601
      6600      6602      6600      6603      6553      6554      6554      6556
      6554      6555      6556      6557      6556      6558      6556      6604
      6604      6605      6604      6606      6604      6607      6607      6608
      6607      6609      6607      6610      6610      6611      6610      6612
      6610      6613      6613      6614      6613      6615      6613      6616
      6616      6617      6616      6618      6616      6619      6619      6620
      6619      6621      6619      6622      6622      6623      6622      6624
      6622      6625      6625      6626      6625      6627      6625      6628
      6628      6629      6628      6630      6628      6631      6631      6632
      6631      6633      6631      6634      6634      6635      6634      6636
      6634      6637      6637      6638      6637      6639      6637      6640
      6640      6641      6640      6642      6640      6643      6643      6644
      6643      6645      6643      6646      6646      6647      6646      6648
      6646      6649      6649      6650      6649      6651      6649      6652
      8811      8812      8811      8813      8811      8814      8811      8815
      8819      8817      8817      8815      8817      8818      8815      8816
      8815      8820      8828      8827      8820      8821      8820      8822
      8820      8826      8826      8823      8823      8827      8823      8824
      8823      8825      8828      8829      8828      8830      8828      8831
      8831      8832      8831      8839      8831      8833      8839      8840
      8839      8841      8839      8842      8833      8834      8834      8836
      8834      8835      8836      8837      8836      8838      8836      8848
      8848      8849      8848      8850      8848      8851      8851      8852
      8851      8853      8851      8854      8854      8855      8854      8856
      8856      8857      8856      8858      8858      8859      8858      8860
      8858      8861      8861      8862      8861      8863      8863      8864
      8863      8865      8865      8866      8865      8867      8865      8868
      8868      8869      8868      8870      8870      8871      8870      8872
      8872      8873      8872      8874      8872      8875      8875      8876
      8875      8877      8877      8878      8877      8879      8879      8880
      8879      8881      8879      8882      8882      8883      8882      8884
      8882      8885      8885      8886      8885      8887      8885      8888
      8888      8889      8888      8890      8888      8891      8891      8892
      8891      8893      8891      8894      8842      8843      8843      8845
      8843      8844      8845      8846      8845      8847      8845      8895
      8895      8896      8895      8897      8895      8898      8898      8899
      8898      8900      8898      8901      8901      8902      8901      8903
      8901      8904      8904      8905      8904      8906      8904      8907
      8907      8908      8907      8909      8907      8910      8910      8911
      8910      8912      8910      8913      8913      8914      8913      8915
      8913      8916      8916      8917      8916      8918      8916      8919
      8919      8920      8919      8921      8919      8922      8922      8923
      8922      8924      8922      8925      8925      8926      8925      8927
      8925      8928      8928      8929      8928      8930      8928      8931
      8931      8932      8931      8933      8931      8934      8934      8935
      8934      8936      8934      8937      8937      8938      8937      8939
      8937      8940      8940      8941      8940      8942      8940      8943
     20359     20360     20359     20361     20359     20362     20359     20363
     20363     20364     20363     20365     20363     20366     20366     20367
     20366     20368     20366     20372     20374     20373     20372     20369
     20369     20373     20369     20370     20369     20371     20374     20375
     20374     20376     20374     20377     20377     20378     20377     20385
     20377     20379     20385     20386     20385     20387     20385     20388
     20379     20380     20380     20382     20380     20381     20382     20383
     20382     20384     20382     20394     20394     20395     20394     20396
     20394     20397     20397     20398     20397     20399     20397     20400
     20400     20401     20400     20402     20400     20403     20403     20404
     20403     20405     20403     20406     20406     20407     20406     20408
     20406     20409     20409     20410     20409     20411     20409     20412
     20412     20413     20412     20414     20414     20415     20414     20416
     20416     20417     20416     20418     20416     20419     20419     20420
     20419     20421     20419     20422     20422     20423     20422     20424
     20422     20425     20425     20426     20425     20427     20425     20428
     20428     20429     20428     20430     20428     20431     20431     20432
     20431     20433     20431     20434     20434     20435     20434     20436
     20434     20437     20437     20438     20437     20439     20437     20440
     20388     20389     20389     20391     20389     20390     20391     20392
     20391     20393     20391     20441     20441     20442     20441     20443
     20441     20444     20444     20445     20444     20446     20444     20447
     20447     20448     20447     20449     20447     20450     20450     20451
     20450     20452     20450     20453     20453     20454     20453     20455
     20453     20456     20456     20457     20456     20458     20456     20459
     20459     20460     20459     20461     20459     20462     20462     20463
     20462     20464     20462     20465     20465     20466     20465     20467
     20465     20468     20468     20469     20468     20470     20468     20471
     20471     20472     20471     20473     20471     20474     20474     20475
     20474     20476     20474     20477     20477     20478     20477     20479
     20477     20480     20480     20481     20480     20482     20480     20483
     20483     20484     20483     20485     20483     20486     20486     20487
     20486     20488     20486     20489      4985      4989      4985      4993
      4985      4997      4989      4990      4989      4991      4989      4992
      4993      4994      4993      4995      4993      4996      4997      4998
      4997      4999      4997      5000      4985      4986      4986      4987
      4986      4988      4986      5001      5001      5002      5001      5003
      5001      5007      5008      5009      5007      5004      5004      5008
      5004      5005      5004      5006      5009      5010      5009      5011
      5009      5012      5012      5013      5012      5020      5012      5014
      5020      5021      5020      5022      5020      5023      5014      5015
      5015      5017      5015      5016      5017      5018      5017      5019
      5017      5029      5029      5030      5029      5031      5029      5032
      5032      5033      5032      5034      5032      5035      5035      5036
      5035      5037      5037      5038      5037      5039      5039      5040
      5039      5041      5039      5042      5042      5043      5042      5044
      5044      5045      5044      5046      5046      5047      5046      5048
      5046      5049      5049      5050      5049      5051      5051      5052
      5051      5053      5053      5054      5053      5055      5053      5056
      5056      5057      5056      5058      5058      5059      5058      5060
      5060      5061      5060      5062      5060      5063      5063      5064
      5063      5065      5063      5066      5066      5067      5066      5068
      5066      5069      5069      5070      5069      5071      5069      5072
      5072      5073      5072      5074      5072      5075      5023      5024
      5024      5026      5024      5025      5026      5027      5026      5028
      5026      5076      5076      5077      5076      5078      5076      5079
      5079      5080      5079      5081      5079      5082      5082      5083
      5082      5084      5082      5085      5085      5086      5085      5087
      5085      5088      5088      5089      5088      5090      5088      5091
      5091      5092      5091      5093      5091      5094      5094      5095
      5094      5096      5094      5097      5097      5098      5097      5099
      5097      5100      5100      5101      5100      5102      5100      5103
      5103      5104      5103      5105      5103      5106      5106      5107
      5106      5108      5106      5109      5109      5110      5109      5111
      5109      5112      5112      5113      5112      5114      5112      5115
      5115      5116      5115      5117      5115      5118      5118      5119
      5118      5120      5118      5121      5121      5122      5121      5123
      5121      5124     17739     17740     17739     17741     17739     17742
     17739     17743     17743     17744     17743     17745     17743     17746
     17746     17747     17746     17748     17746     17752     17754     17753
     17752     17749     17749     17753     17749     17750     17749     17751
     17754     17755     17754     17756     17754     17757     17757     17758
     17757     17765     17757     17759     17765     17766     17765     17767
     17765     17768     17759     17760     17760     17762     17760     17761
     17762     17763     17762     17764     17762     17774     17774     17775
     17774     17776     17774     17777     17777     17778     17777     17779
     17777     17780     17780     17781     17780     17782     17782     17783
     17782     17784     17784     17785     17784     17786     17784     17787
     17787     17788     17787     17789     17789     17790     17789     17791
     17791     17792     17791     17793     17791     17794     17794     17795
     17794     17796     17796     17797     17796     17798     17798     17799
     17798     17800     17798     17801     17801     17802     17801     17803
     17803     17804     17803     17805     17805     17806     17805     17807
     17805     17808     17808     17809     17808     17810     17808     17811
     17811     17812     17811     17813     17811     17814     17814     17815
     17814     17816     17814     17817     17817     17818     17817     17819
     17817     17820     17768     17769     17769     17771     17769     17770
     17771     17772     17771     17773     17771     17821     17821     17822
     17821     17823     17821     17824     17824     17825     17824     17826
     17824     17827     17827     17828     17827     17829     17827     17830
     17830     17831     17830     17832     17830     17833     17833     17834
     17833     17835     17833     17836     17836     17837     17836     17838
     17836     17839     17839     17840     17839     17841     17839     17842
     17842     17843     17842     17844     17842     17845     17845     17846
     17845     17847     17845     17848     17848     17849     17848     17850
     17848     17851     17851     17852     17851     17853     17851     17854
     17854     17855     17854     17856     17854     17857     17857     17858
     17857     17859     17857     17860     17860     17861     17860     17862
     17860     17863     17863     17864     17863     17865     17863     17866
     17866     17867     17866     17868     17866     17869     13098     13099
     13098     13100     13098     13101     13098     13095     13095     13096
     13095     13097     13095     13092     13092     13093     13092     13094
     13092     13089     13089     13090     13089     13091     13089     13086
     13086     13087     13086     13088     13086     13083     13083     13084
     13083     13085     13083     13080     13080     13081     13080     13082
     13080     13077     13077     13078     13077     13079     13077     13074
     13074     13075     13074     13076     13074     13071     13071     13072
     13071     13073     13071     13068     13068     13069     13068     13070
     13068     13065     13065     13066     13065     13067     13065     13062
     13062     13063     13062     13064     13062     13060     13060     13061
     13058     13059     13058     13054     13054     13055     13054     13056
     13056     13057     13054     13052     13052     13053     13052     13047
     13047     13048     13047     13049     13047     13045     13045     13042
     13046     13042     13043     13042     13044     13042     13046     13039
     13039     13040     13039     13041     13039     13036     13036     13037
     13036     13038     13036     13023     13023     13032     13023     13028
     13023     13024     13032     13033     13032     13034     13032     13035
     13028     13029     13028     13030     13028     13031     13024     13025
     13024     13026     13024     13027     13052     13050     13050     13051
     13050     13102     13102     13104     13104     13105     13104     13106
     13104     13107     13107     13108     13107     13109     13107     13110
     13110     13111     13110     13112     13110     13113     13113     13114
     13113     13115     13113     13116     13116     13117     13116     13118
     13116     13119     13119     13120     13119     13121     13119     13122
     13122     13123     13122     13124     13122     13125     13125     13126
     13127     13128     13127     13129     13129     13130     13129     13131
     13129     13132     13132     13133     13132     13134     13132     13135
     13135     13136     13135     13137     13135     13138     13138     13139
     13138     13140     13138     13141     13141     13142     13141     13143
     13141     13144     13144     13145     13144     13146     13144     13147
     13147     13148     13147     13149     13147     13150     13150     13151
     13150     13152     13150     13153     13058     13060     13125     13127
     13102     13103      8944      8945      8944      8946      8944      8947
      8944      8948      8952      8950      8950      8948      8950      8951
      8948      8949      8948      8953      8961      8960      8953      8954
      8953      8955      8953      8959      8959      8956      8956      8960
      8956      8957      8956      8958      8961      8962      8961      8963
      8961      8964      8964      8965      8964      8972      8964      8966
      8972      8973      8972      8974      8972      8975      8966      8967
      8967      8969      8967      8968      8969      8970      8969      8971
      8969      8981      8981      8982      8981      8983      8981      8984
      8984      8985      8984      8986      8984      8987      8987      8988
      8987      8989      8989      8990      8989      8991      8991      8992
      8991      8993      8991      8994      8994      8995      8994      8996
      8996      8997      8996      8998      8998      8999      8998      9000
      8998      9001      9001      9002      9001      9003      9003      9004
      9003      9005      9005      9006      9005      9007      9005      9008
      9008      9009      9008      9010      9010      9011      9010      9012
      9012      9013      9012      9014      9012      9015      9015      9016
      9015      9017      9015      9018      9018      9019      9018      9020
      9018      9021      9021      9022      9021      9023      9021      9024
      9024      9025      9024      9026      9024      9027      8975      8976
      8976      8978      8976      8977      8978      8979      8978      8980
      8978      9028      9028      9029      9028      9030      9028      9031
      9031      9032      9031      9033      9031      9034      9034      9035
      9034      9036      9034      9037      9037      9038      9037      9039
      9037      9040      9040      9041      9040      9042      9040      9043
      9043      9044      9043      9045      9043      9046      9046      9047
      9046      9048      9046      9049      9049      9050      9049      9051
      9049      9052      9052      9053      9052      9054      9052      9055
      9055      9056      9055      9057      9055      9058      9058      9059
      9058      9060      9058      9061      9061      9062      9061      9063
      9061      9064      9064      9065      9064      9066      9064      9067
      9067      9068      9067      9069      9067      9070      9070      9071
      9070      9072      9070      9073      9073      9074      9073      9075
      9073      9076     21985     21989     21985     21993     21985     21997
     21989     21990     21989     21991     21989     21992     21993     21994
     21993     21995     21993     21996     21997     21998     21997     21999
     21997     22000     21985     21986     21986     21987     21986     21988
     21986     22001     22001     22002     22001     22003     22001     22007
     22008     22009     22007     22004     22004     22008     22004     22005
     22004     22006     22009     22010     22009     22011     22009     22012
     22012     22013     22012     22020     22012     22014     22020     22021
     22020     22022     22020     22023     22014     22015     22015     22017
     22015     22016     22017     22018     22017     22019     22017     22029
     22029     22030     22029     22031     22029     22032     22032     22033
     22032     22034     22032     22035     22035     22036     22035     22037
     22035     22038     22038     22039     22038     22040     22038     22041
     22041     22042     22041     22043     22041     22044     22044     22045
     22044     22046     22044     22047     22047     22048     22047     22049
     22049     22050     22049     22051     22051     22052     22051     22053
     22051     22054     22054     22055     22054     22056     22054     22057
     22057     22058     22057     22059     22057     22060     22060     22061
     22060     22062     22060     22063     22063     22064     22063     22065
     22063     22066     22066     22067     22066     22068     22066     22069
     22069     22070     22069     22071     22069     22072     22072     22073
     22072     22074     22072     22075     22023     22024     22024     22026
     22024     22025     22026     22027     22026     22028     22026     22076
     22076     22077     22076     22078     22076     22079     22079     22080
     22079     22081     22079     22082     22082     22083     22082     22084
     22082     22085     22085     22086     22085     22087     22085     22088
     22088     22089     22088     22090     22088     22091     22091     22092
     22091     22093     22091     22094     22094     22095     22094     22096
     22094     22097     22097     22098     22097     22099     22097     22100
     22100     22101     22100     22102     22100     22103     22103     22104
     22103     22105     22103     22106     22106     22107     22106     22108
     22106     22109     22109     22110     22109     22111     22109     22112
     22112     22113     22112     22114     22112     22115     22115     22116
     22115     22117     22115     22118     17870     17871     17870     17872
     17870     17873     17870     17874     17874     17875     17874     17876
     17874     17877     17877     17878     17877     17879     17877     17883
     17885     17884     17883     17880     17880     17884     17880     17881
     17880     17882     17885     17886     17885     17887     17885     17888
     17888     17889     17888     17896     17888     17890     17896     17897
     17896     17898     17896     17899     17890     17891     17891     17893
     17891     17892     17893     17894     17893     17895     17893     17905
     17905     17906     17905     17907     17905     17908     17908     17909
     17908     17910     17908     17911     17911     17912     17911     17913
     17913     17914     17913     17915     17915     17916     17915     17917
     17915     17918     17918     17919     17918     17920     17920     17921
     17920     17922     17922     17923     17922     17924     17922     17925
     17925     17926     17925     17927     17927     17928     17927     17929
     17929     17930     17929     17931     17929     17932     17932     17933
     17932     17934     17934     17935     17934     17936     17936     17937
     17936     17938     17936     17939     17939     17940     17939     17941
     17939     17942     17942     17943     17942     17944     17942     17945
     17945     17946     17945     17947     17945     17948     17948     17949
     17948     17950     17948     17951     17899     17900     17900     17902
     17900     17901     17902     17903     17902     17904     17902     17952
     17952     17953     17952     17954     17952     17955     17955     17956
     17955     17957     17955     17958     17958     17959     17958     17960
     17958     17961     17961     17962     17961     17963     17961     17964
     17964     17965     17964     17966     17964     17967     17967     17968
     17967     17969     17967     17970     17970     17971     17970     17972
     17970     17973     17973     17974     17973     17975     17973     17976
     17976     17977     17976     17978     17976     17979     17979     17980
     17979     17981     17979     17982     17982     17983     17982     17984
     17982     17985     17985     17986     17985     17987     17985     17988
     17988     17989     17988     17990     17988     17991     17991     17992
     17991     17993     17991     17994     17994     17995     17994     17996
     17994     17997     17997     17998     17997     17999     17997     18000
      9077      9078      9077      9079      9077      9080      9077      9081
      9085      9083      9083      9081      9083      9084      9081      9082
      9081      9086      9094      9093      9086      9087      9086      9088
      9086      9092      9092      9089      9089      9093      9089      9090
      9089      9091      9094      9095      9094      9096      9094      9097
      9097      9098      9097      9105      9097      9099      9105      9106
      9105      9107      9105      9108      9099      9100      9100      9102
      9100      9101      9102      9103      9102      9104      9102      9114
      9114      9115      9114      9116      9114      9117      9117      9118
      9117      9119      9117      9120      9120      9121      9120      9122
      9122      9123      9122      9124      9124      9125      9124      9126
      9124      9127      9127      9128      9127      9129      9129      9130
      9129      9131      9131      9132      9131      9133      9131      9134
      9134      9135      9134      9136      9136      9137      9136      9138
      9138      9139      9138      9140      9138      9141      9141      9142
      9141      9143      9143      9144      9143      9145      9145      9146
      9145      9147      9145      9148      9148      9149      9148      9150
      9148      9151      9151      9152      9151      9153      9151      9154
      9154      9155      9154      9156      9154      9157      9157      9158
      9157      9159      9157      9160      9108      9109      9109      9111
      9109      9110      9111      9112      9111      9113      9111      9161
      9161      9162      9161      9163      9161      9164      9164      9165
      9164      9166      9164      9167      9167      9168      9167      9169
      9167      9170      9170      9171      9170      9172      9170      9173
      9173      9174      9173      9175      9173      9176      9176      9177
      9176      9178      9176      9179      9179      9180      9179      9181
      9179      9182      9182      9183      9182      9184      9182      9185
      9185      9186      9185      9187      9185      9188      9188      9189
      9188      9190      9188      9191      9191      9192      9191      9193
      9191      9194      9194      9195      9194      9196      9194      9197
      9197      9198      9197      9199      9197      9200      9200      9201
      9200      9202      9200      9203      9203      9204      9203      9205
      9203      9206      9206      9207      9206      9208      9206      9209
      2073      2075      2073      2074      2075      2076      2073      2119
      2119      2120      2119      2121      2119      2116      2116      2117
      2116      2118      2073      2077      2077      2078      2077      2079
      2077      2080      2080      2111      2111      2116      2111      2112
      2112      2113      2112      2114      2112      2115      2080      2081
      2081      2082      2081      2083      2083      2084      2083      2085
      2083      2086      2086      2087      2086      2109      2109      2110
      2109      2111      2086      2088      2088      2089      2088      2098
      2098      2103      2103      2104      2103      2105      2103      2106
      2106      2107      2106      2108      2106      2109      2098      2099
      2099      2100      2099      2101      2099      2102      2088      2090
      2090      2091      2090      2092      2090      2093      2093      2094
      2093      2095      2093      2096      2096      2097      2096      2098
      2096      2122      2122      2123      2122      2124      2124      2125
      2124      2126      2124      2127      2122      2128      2128      2129
      2128      2130      2128      2131      2131      2132      2131      2133
      2131      2134      2134      2135      2134      2136      2134      2137
      2137      2138      2137      2139      2139      2140      2139      2141
      2139      2142      2137      2143      2143      2144      2143      2145
      2143      2146      2147      2149      2147      2148      2149      2150
      2147      2193      2193      2194      2193      2195      2193      2190
      2190      2191      2190      2192      2147      2151      2151      2152
      2151      2153      2151      2154      2154      2185      2185      2190
      2185      2186      2186      2187      2186      2188      2186      2189
      2154      2155      2155      2156      2155      2157      2157      2158
      2157      2159      2157      2160      2160      2161      2160      2183
      2183      2184      2183      2185      2160      2162      2162      2163
      2162      2172      2172      2177      2177      2178      2177      2179
      2177      2180      2180      2181      2180      2182      2180      2183
      2172      2173      2173      2174      2173      2175      2173      2176
      2162      2164      2164      2165      2164      2166      2164      2167
      2167      2168      2167      2169      2167      2170      2170      2171
      2170      2172      2170      2196      2196      2197      2196      2198
      2198      2199      2198      2200      2198      2201      2196      2202
      2202      2203      2202      2204      2202      2205      2205      2206
      2205      2207      2205      2208      2208      2209      2208      2210
      2208      2211      2211      2212      2211      2213      2213      2214
      2213      2215      2213      2216      2211      2217      2217      2218
      2217      2219      2217      2220      9210      9211      9210      9212
      9210      9213      9210      9214      9218      9216      9216      9214
      9216      9217      9214      9215      9214      9219      9227      9226
      9219      9220      9219      9221      9219      9225      9225      9222
      9222      9226      9222      9223      9222      9224      9227      9228
      9227      9229      9227      9230      9230      9231      9230      9238
      9230      9232      9238      9239      9238      9240      9238      9241
      9232      9233      9233      9235      9233      9234      9235      9236
      9235      9237      9235      9247      9247      9248      9247      9249
      9247      9250      9250      9251      9250      9252      9250      9253
      9253      9254      9253      9255      9255      9256      9255      9257
      9257      9258      9257      9259      9257      9260      9260      9261
      9260      9262      9262      9263      9262      9264      9264      9265
      9264      9266      9264      9267      9267      9268      9267      9269
      9269      9270      9269      9271      9271      9272      9271      9273
      9271      9274      9274      9275      9274      9276      9276      9277
      9276      9278      9278      9279      9278      9280      9278      9281
      9281      9282      9281      9283      9281      9284      9284      9285
      9284      9286      9284      9287      9287      9288      9287      9289
      9287      9290      9290      9291      9290      9292      9290      9293
      9241      9242      9242      9244      9242      9243      9244      9245
      9244      9246      9244      9294      9294      9295      9294      9296
      9294      9297      9297      9298      9297      9299      9297      9300
      9300      9301      9300      9302      9300      9303      9303      9304
      9303      9305      9303      9306      9306      9307      9306      9308
      9306      9309      9309      9310      9309      9311      9309      9312
      9312      9313      9312      9314      9312      9315      9315      9316
      9315      9317      9315      9318      9318      9319      9318      9320
      9318      9321      9321      9322      9321      9323      9321      9324
      9324      9325      9324      9326      9324      9327      9327      9328
      9327      9329      9327      9330      9330      9331      9330      9332
      9330      9333      9333      9334      9333      9335      9333      9336
      9336      9337      9336      9338      9336      9339      9339      9340
      9339      9341      9339      9342     18001     18002     18001     18003
     18001     18004     18001     18005     18005     18006     18005     18007
     18005     18008     18008     18009     18008     18010     18008     18014
     18016     18015     18014     18011     18011     18015     18011     18012
     18011     18013     18016     18017     18016     18018     18016     18019
     18019     18020     18019     18027     18019     18021     18027     18028
     18027     18029     18027     18030     18021     18022     18022     18024
     18022     18023     18024     18025     18024     18026     18024     18036
     18036     18037     18036     18038     18036     18039     18039     18040
     18039     18041     18039     18042     18042     18043     18042     18044
     18044     18045     18044     18046     18046     18047     18046     18048
     18046     18049     18049     18050     18049     18051     18051     18052
     18051     18053     18053     18054     18053     18055     18053     18056
     18056     18057     18056     18058     18058     18059     18058     18060
     18060     18061     18060     18062     18060     18063     18063     18064
     18063     18065     18065     18066     18065     18067     18067     18068
     18067     18069     18067     18070     18070     18071     18070     18072
     18070     18073     18073     18074     18073     18075     18073     18076
     18076     18077     18076     18078     18076     18079     18079     18080
     18079     18081     18079     18082     18030     18031     18031     18033
     18031     18032     18033     18034     18033     18035     18033     18083
     18083     18084     18083     18085     18083     18086     18086     18087
     18086     18088     18086     18089     18089     18090     18089     18091
     18089     18092     18092     18093     18092     18094     18092     18095
     18095     18096     18095     18097     18095     18098     18098     18099
     18098     18100     18098     18101     18101     18102     18101     18103
     18101     18104     18104     18105     18104     18106     18104     18107
     18107     18108     18107     18109     18107     18110     18110     18111
     18110     18112     18110     18113     18113     18114     18113     18115
     18113     18116     18116     18117     18116     18118     18116     18119
     18119     18120     18119     18121     18119     18122     18122     18123
     18122     18124     18122     18125     18125     18126     18125     18127
     18125     18128     18128     18129     18128     18130     18128     18131
      2221      2223      2221      2222      2223      2224      2221      2267
      2267      2268      2267      2269      2267      2264      2264      2265
      2264      2266      2221      2225      2225      2226      2225      2227
      2225      2228      2228      2259      2259      2264      2259      2260
      2260      2261      2260      2262      2260      2263      2228      2229
      2229      2230      2229      2231      2231      2232      2231      2233
      2231      2234      2234      2235      2234      2257      2257      2258
      2257      2259      2234      2236      2236      2237      2236      2246
      2246      2251      2251      2252      2251      2253      2251      2254
      2254      2255      2254      2256      2254      2257      2246      2247
      2247      2248      2247      2249      2247      2250      2236      2238
      2238      2239      2238      2240      2238      2241      2241      2242
      2241      2243      2241      2244      2244      2245      2244      2246
      2244      2270      2270      2271      2270      2272      2272      2273
      2272      2274      2272      2275      2270      2276      2276      2277
      2276      2278      2276      2279      2279      2280      2279      2281
      2279      2282      2282      2283      2282      2284      2282      2285
      2285      2286      2285      2287      2287      2288      2287      2289
      2287      2290      2285      2291      2291      2292      2291      2293
      2291      2294      2295      2297      2295      2296      2297      2298
      2295      2341      2341      2342      2341      2343      2341      2338
      2338      2339      2338      2340      2295      2299      2299      2300
      2299      2301      2299      2302      2302      2333      2333      2338
      2333      2334      2334      2335      2334      2336      2334      2337
      2302      2303      2303      2304      2303      2305      2305      2306
      2305      2307      2305      2308      2308      2309      2308      2331
      2331      2332      2331      2333      2308      2310      2310      2311
      2310      2320      2320      2325      2325      2326      2325      2327
      2325      2328      2328      2329      2328      2330      2328      2331
      2320      2321      2321      2322      2321      2323      2321      2324
      2310      2312      2312      2313      2312      2314      2312      2315
      2315      2316      2315      2317      2315      2318      2318      2319
      2318      2320      2318      2344      2344      2345      2344      2346
      2346      2347      2346      2348      2346      2349      2344      2350
      2350      2351      2350      2352      2350      2353      2353      2354
      2353      2355      2353      2356      2356      2357      2356      2358
      2356      2359      2359      2360      2359      2361      2361      2362
      2361      2363      2361      2364      2359      2365      2365      2366
      2365      2367      2365      2368      2369      2371      2369      2370
      2371      2372      2369      2415      2415      2416      2415      2417
      2415      2412      2412      2413      2412      2414      2369      2373
      2373      2374      2373      2375      2373      2376      2376      2407
      2407      2412      2407      2408      2408      2409      2408      2410
      2408      2411      2376      2377      2377      2378      2377      2379
      2379      2380      2379      2381      2379      2382      2382      2383
      2382      2405      2405      2406      2405      2407      2382      2384
      2384      2385      2384      2394      2394      2399      2399      2400
      2399      2401      2399      2402      2402      2403      2402      2404
      2402      2405      2394      2395      2395      2396      2395      2397
      2395      2398      2384      2386      2386      2387      2386      2388
      2386      2389      2389      2390      2389      2391      2389      2392
      2392      2393      2392      2394      2392      2418      2418      2419
      2418      2420      2420      2421      2420      2422      2420      2423
      2418      2424      2424      2425      2424      2426      2424      2427
      2427      2428      2427      2429      2427      2430      2430      2431
      2430      2432      2430      2433      2433      2434      2433      2435
      2435      2436      2435      2437      2435      2438      2433      2439
      2439      2440      2439      2441      2439      2442      2443      2445
      2443      2444      2445      2446      2443      2489      2489      2490
      2489      2491      2489      2486      2486      2487      2486      2488
      2443      2447      2447      2448      2447      2449      2447      2450
      2450      2481      2481      2486      2481      2482      2482      2483
      2482      2484      2482      2485      2450      2451      2451      2452
      2451      2453      2453      2454      2453      2455      2453      2456
      2456      2457      2456      2479      2479      2480      2479      2481
      2456      2458      2458      2459      2458      2468      2468      2473
      2473      2474      2473      2475      2473      2476      2476      2477
      2476      2478      2476      2479      2468      2469      2469      2470
      2469      2471      2469      2472      2458      2460      2460      2461
      2460      2462      2460      2463      2463      2464      2463      2465
      2463      2466      2466      2467      2466      2468      2466      2492
      2492      2493      2492      2494      2494      2495      2494      2496
      2494      2497      2492      2498      2498      2499      2498      2500
      2498      2501      2501      2502      2501      2503      2501      2504
      2504      2505      2504      2506      2504      2507      2507      2508
      2507      2509      2509      2510      2509      2511      2509      2512
      2507      2513      2513      2514      2513      2515      2513      2516
     18132     18133     18132     18134     18132     18135     18132     18136
     18136     18137     18136     18138     18136     18139     18139     18140
     18139     18141     18139     18145     18147     18146     18145     18142
     18142     18146     18142     18143     18142     18144     18147     18148
     18147     18149     18147     18150     18150     18151     18150     18158
     18150     18152     18158     18159     18158     18160     18158     18161
     18152     18153     18153     18155     18153     18154     18155     18156
     18155     18157     18155     18167     18167     18168     18167     18169
     18167     18170     18170     18171     18170     18172     18170     18173
     18173     18174     18173     18175     18175     18176     18175     18177
     18177     18178     18177     18179     18177     18180     18180     18181
     18180     18182     18182     18183     18182     18184     18184     18185
     18184     18186     18184     18187     18187     18188     18187     18189
     18189     18190     18189     18191     18191     18192     18191     18193
     18191     18194     18194     18195     18194     18196     18196     18197
     18196     18198     18198     18199     18198     18200     18198     18201
     18201     18202     18201     18203     18201     18204     18204     18205
     18204     18206     18204     18207     18207     18208     18207     18209
     18207     18210     18210     18211     18210     18212     18210     18213
     18161     18162     18162     18164     18162     18163     18164     18165
     18164     18166     18164     18214     18214     18215     18214     18216
     18214     18217     18217     18218     18217     18219     18217     18220
     18220     18221     18220     18222     18220     18223     18223     18224
     18223     18225     18223     18226     18226     18227     18226     18228
     18226     18229     18229     18230     18229     18231     18229     18232
     18232     18233     18232     18234     18232     18235     18235     18236
     18235     18237     18235     18238     18238     18239     18238     18240
     18238     18241     18241     18242     18241     18243     18241     18244
     18244     18245     18244     18246     18244     18247     18247     18248
     18247     18249     18247     18250     18250     18251     18250     18252
     18250     18253     18253     18254     18253     18255     18253     18256
     18256     18257     18256     18258     18256     18259     18259     18260
     18259     18261     18259     18262     13229     13230     13229     13231
     13229     13232     13229     13226     13226     13227     13226     13228
     13226     13223     13223     13224     13223     13225     13223     13220
     13220     13221     13220     13222     13220     13217     13217     13218
     13217     13219     13217     13214     13214     13215     13214     13216
     13214     13211     13211     13212     13211     13213     13211     13208
     13208     13209     13208     13210     13208     13205     13205     13206
     13205     13207     13205     13202     13202     13203     13202     13204
     13202     13199     13199     13200     13199     13201     13199     13196
     13196     13197     13196     13198     13196     13193     13193     13194
     13193     13195     13193     13191     13191     13192     13189     13190
     13189     13185     13185     13186     13185     13187     13187     13188
     13185     13183     13183     13184     13183     13178     13178     13179
     13178     13180     13178     13176     13176     13173     13177     13173
     13174     13173     13175     13173     13177     13170     13170     13171
     13170     13172     13170     13167     13167     13168     13167     13169
     13167     13154     13154     13163     13154     13159     13154     13155
     13163     13164     13163     13165     13163     13166     13159     13160
     13159     13161     13159     13162     13155     13156     13155     13157
     13155     13158     13183     13181     13181     13182     13181     13233
     13233     13235     13235     13236     13235     13237     13235     13238
     13238     13239     13238     13240     13238     13241     13241     13242
     13241     13243     13241     13244     13244     13245     13244     13246
     13244     13247     13247     13248     13247     13249     13247     13250
     13250     13251     13250     13252     13250     13253     13253     13254
     13253     13255     13253     13256     13256     13257     13258     13259
     13258     13260     13260     13261     13260     13262     13260     13263
     13263     13264     13263     13265     13263     13266     13266     13267
     13266     13268     13266     13269     13269     13270     13269     13271
     13269     13272     13272     13273     13272     13274     13272     13275
     13275     13276     13275     13277     13275     13278     13278     13279
     13278     13280     13278     13281     13281     13282     13281     13283
     13281     13284     13189     13191     13256     13258     13233     13234
     13360     13361     13360     13362     13360     13363     13360     13357
     13357     13358     13357     13359     13357     13354     13354     13355
     13354     13356     13354     13351     13351     13352     13351     13353
     13351     13348     13348     13349     13348     13350     13348     13345
     13345     13346     13345     13347     13345     13342     13342     13343
     13342     13344     13342     13339     13339     13340     13339     13341
     13339     13336     13336     13337     13336     13338     13336     13333
     13333     13334     13333     13335     13333     13330     13330     13331
     13330     13332     13330     13327     13327     13328     13327     13329
     13327     13324     13324     13325     13324     13326     13324     13322
     13322     13323     13320     13321     13320     13316     13316     13317
     13316     13318     13318     13319     13316     13314     13314     13315
     13314     13309     13309     13310     13309     13311     13309     13307
     13307     13304     13308     13304     13305     13304     13306     13304
     13308     13301     13301     13302     13301     13303     13301     13298
     13298     13299     13298     13300     13298     13285     13285     13294
     13285     13290     13285     13286     13294     13295     13294     13296
     13294     13297     13290     13291     13290     13292     13290     13293
     13286     13287     13286     13288     13286     13289     13314     13312
     13312     13313     13312     13364     13364     13366     13366     13367
     13366     13368     13366     13369     13369     13370     13369     13371
     13369     13372     13372     13373     13372     13374     13372     13375
     13375     13376     13375     13377     13375     13378     13378     13379
     13378     13380     13378     13381     13381     13382     13381     13383
     13381     13384     13384     13385     13384     13386     13384     13387
     13387     13388     13389     13390     13389     13391     13391     13392
     13391     13393     13391     13394     13394     13395     13394     13396
     13394     13397     13397     13398     13397     13399     13397     13400
     13400     13401     13400     13402     13400     13403     13403     13404
     13403     13405     13403     13406     13406     13407     13406     13408
     13406     13409     13409     13410     13409     13411     13409     13412
     13412     13413     13412     13414     13412     13415     13320     13322
     13387     13389     13364     13365     13491     13492     13491     13493
     13491     13494     13491     13488     13488     13489     13488     13490
     13488     13485     13485     13486     13485     13487     13485     13482
     13482     13483     13482     13484     13482     13479     13479     13480
     13479     13481     13479     13476     13476     13477     13476     13478
     13476     13473     13473     13474     13473     13475     13473     13470
     13470     13471     13470     13472     13470     13467     13467     13468
     13467     13469     13467     13464     13464     13465     13464     13466
     13464     13461     13461     13462     13461     13463     13461     13458
     13458     13459     13458     13460     13458     13455     13455     13456
     13455     13457     13455     13453     13453     13454     13451     13452
     13451     13447     13447     13448     13447     13449     13449     13450
     13447     13445     13445     13446     13445     13440     13440     13441
     13440     13442     13440     13438     13438     13435     13439     13435
     13436     13435     13437     13435     13439     13432     13432     13433
     13432     13434     13432     13429     13429     13430     13429     13431
     13429     13416     13416     13425     13416     13421     13416     13417
     13425     13426     13425     13427     13425     13428     13421     13422
     13421     13423     13421     13424     13417     13418     13417     13419
     13417     13420     13445     13443     13443     13444     13443     13495
     13495     13497     13497     13498     13497     13499     13497     13500
     13500     13501     13500     13502     13500     13503     13503     13504
     13503     13505     13503     13506     13506     13507     13506     13508
     13506     13509     13509     13510     13509     13511     13509     13512
     13512     13513     13512     13514     13512     13515     13515     13516
     13515     13517     13515     13518     13518     13519     13520     13521
     13520     13522     13522     13523     13522     13524     13522     13525
     13525     13526     13525     13527     13525     13528     13528     13529
     13528     13530     13528     13531     13531     13532     13531     13533
     13531     13534     13534     13535     13534     13536     13534     13537
     13537     13538     13537     13539     13537     13540     13540     13541
     13540     13542     13540     13543     13543     13544     13543     13545
     13543     13546     13451     13453     13518     13520     13495     13496
      2517      2519      2517      2518      2519      2520      2517      2563
      2563      2564      2563      2565      2563      2560      2560      2561
      2560      2562      2517      2521      2521      2522      2521      2523
      2521      2524      2524      2555      2555      2560      2555      2556
      2556      2557      2556      2558      2556      2559      2524      2525
      2525      2526      2525      2527      2527      2528      2527      2529
      2527      2530      2530      2531      2530      2553      2553      2554
      2553      2555      2530      2532      2532      2533      2532      2542
      2542      2547      2547      2548      2547      2549      2547      2550
      2550      2551      2550      2552      2550      2553      2542      2543
      2543      2544      2543      2545      2543      2546      2532      2534
      2534      2535      2534      2536      2534      2537      2537      2538
      2537      2539      2537      2540      2540      2541      2540      2542
      2540      2566      2566      2567      2566      2568      2568      2569
      2568      2570      2568      2571      2566      2572      2572      2573
      2572      2574      2572      2575      2575      2576      2575      2577
      2575      2578      2578      2579      2578      2580      2578      2581
      2581      2582      2581      2583      2583      2584      2583      2585
      2583      2586      2581      2587      2587      2588      2587      2589
      2587      2590     13622     13623     13622     13624     13622     13625
     13622     13619     13619     13620     13619     13621     13619     13616
     13616     13617     13616     13618     13616     13613     13613     13614
     13613     13615     13613     13610     13610     13611     13610     13612
     13610     13607     13607     13608     13607     13609     13607     13604
     13604     13605     13604     13606     13604     13601     13601     13602
     13601     13603     13601     13598     13598     13599     13598     13600
     13598     13595     13595     13596     13595     13597     13595     13592
     13592     13593     13592     13594     13592     13589     13589     13590
     13589     13591     13589     13586     13586     13587     13586     13588
     13586     13584     13584     13585     13582     13583     13582     13578
     13578     13579     13578     13580     13580     13581     13578     13576
     13576     13577     13576     13571     13571     13572     13571     13573
     13571     13569     13569     13566     13570     13566     13567     13566
     13568     13566     13570     13563     13563     13564     13563     13565
     13563     13560     13560     13561     13560     13562     13560     13547
     13547     13556     13547     13552     13547     13548     13556     13557
     13556     13558     13556     13559     13552     13553     13552     13554
     13552     13555     13548     13549     13548     13550     13548     13551
     13576     13574     13574     13575     13574     13626     13626     13628
     13628     13629     13628     13630     13628     13631     13631     13632
     13631     13633     13631     13634     13634     13635     13634     13636
     13634     13637     13637     13638     13637     13639     13637     13640
     13640     13641     13640     13642     13640     13643     13643     13644
     13643     13645     13643     13646     13646     13647     13646     13648
     13646     13649     13649     13650     13651     13652     13651     13653
     13653     13654     13653     13655     13653     13656     13656     13657
     13656     13658     13656     13659     13659     13660     13659     13661
     13659     13662     13662     13663     13662     13664     13662     13665
     13665     13666     13665     13667     13665     13668     13668     13669
     13668     13670     13668     13671     13671     13672     13671     13673
     13671     13674     13674     13675     13674     13676     13674     13677
     13582     13584     13649     13651     13626     13627     13753     13754
     13753     13755     13753     13756     13753     13750     13750     13751
     13750     13752     13750     13747     13747     13748     13747     13749
     13747     13744     13744     13745     13744     13746     13744     13741
     13741     13742     13741     13743     13741     13738     13738     13739
     13738     13740     13738     13735     13735     13736     13735     13737
     13735     13732     13732     13733     13732     13734     13732     13729
     13729     13730     13729     13731     13729     13726     13726     13727
     13726     13728     13726     13723     13723     13724     13723     13725
     13723     13720     13720     13721     13720     13722     13720     13717
     13717     13718     13717     13719     13717     13715     13715     13716
     13713     13714     13713     13709     13709     13710     13709     13711
     13711     13712     13709     13707     13707     13708     13707     13702
     13702     13703     13702     13704     13702     13700     13700     13697
     13701     13697     13698     13697     13699     13697     13701     13694
     13694     13695     13694     13696     13694     13691     13691     13692
     13691     13693     13691     13678     13678     13687     13678     13683
     13678     13679     13687     13688     13687     13689     13687     13690
     13683     13684     13683     13685     13683     13686     13679     13680
     13679     13681     13679     13682     13707     13705     13705     13706
     13705     13757     13757     13759     13759     13760     13759     13761
     13759     13762     13762     13763     13762     13764     13762     13765
     13765     13766     13765     13767     13765     13768     13768     13769
     13768     13770     13768     13771     13771     13772     13771     13773
     13771     13774     13774     13775     13774     13776     13774     13777
     13777     13778     13777     13779     13777     13780     13780     13781
     13782     13783     13782     13784     13784     13785     13784     13786
     13784     13787     13787     13788     13787     13789     13787     13790
     13790     13791     13790     13792     13790     13793     13793     13794
     13793     13795     13793     13796     13796     13797     13796     13798
     13796     13799     13799     13800     13799     13801     13799     13802
     13802     13803     13802     13804     13802     13805     13805     13806
     13805     13807     13805     13808     13713     13715     13780     13782
     13757     13758     13884     13885     13884     13886     13884     13887
     13884     13881     13881     13882     13881     13883     13881     13878
     13878     13879     13878     13880     13878     13875     13875     13876
     13875     13877     13875     13872     13872     13873     13872     13874
     13872     13869     13869     13870     13869     13871     13869     13866
     13866     13867     13866     13868     13866     13863     13863     13864
     13863     13865     13863     13860     13860     13861     13860     13862
     13860     13857     13857     13858     13857     13859     13857     13854
     13854     13855     13854     13856     13854     13851     13851     13852
     13851     13853     13851     13848     13848     13849     13848     13850
     13848     13846     13846     13847     13844     13845     13844     13840
     13840     13841     13840     13842     13842     13843     13840     13838
     13838     13839     13838     13833     13833     13834     13833     13835
     13833     13831     13831     13828     13832     13828     13829     13828
     13830     13828     13832     13825     13825     13826     13825     13827
     13825     13822     13822     13823     13822     13824     13822     13809
     13809     13818     13809     13814     13809     13810     13818     13819
     13818     13820     13818     13821     13814     13815     13814     13816
     13814     13817     13810     13811     13810     13812     13810     13813
     13838     13836     13836     13837     13836     13888     13888     13890
     13890     13891     13890     13892     13890     13893     13893     13894
     13893     13895     13893     13896     13896     13897     13896     13898
     13896     13899     13899     13900     13899     13901     13899     13902
     13902     13903     13902     13904     13902     13905     13905     13906
     13905     13907     13905     13908     13908     13909     13908     13910
     13908     13911     13911     13912     13913     13914     13913     13915
     13915     13916     13915     13917     13915     13918     13918     13919
     13918     13920     13918     13921     13921     13922     13921     13923
     13921     13924     13924     13925     13924     13926     13924     13927
     13927     13928     13927     13929     13927     13930     13930     13931
     13930     13932     13930     13933     13933     13934     13933     13935
     13933     13936     13936     13937     13936     13938     13936     13939
     13844     13846     13911     13913     13888     13889     14015     14016
     14015     14017     14015     14018     14015     14012     14012     14013
     14012     14014     14012     14009     14009     14010     14009     14011
     14009     14006     14006     14007     14006     14008     14006     14003
     14003     14004     14003     14005     14003     14000     14000     14001
     14000     14002     14000     13997     13997     13998     13997     13999
     13997     13994     13994     13995     13994     13996     13994     13991
     13991     13992     13991     13993     13991     13988     13988     13989
     13988     13990     13988     13985     13985     13986     13985     13987
     13985     13982     13982     13983     13982     13984     13982     13979
     13979     13980     13979     13981     13979     13977     13977     13978
     13975     13976     13975     13971     13971     13972     13971     13973
     13973     13974     13971     13969     13969     13970     13969     13964
     13964     13965     13964     13966     13964     13962     13962     13959
     13963     13959     13960     13959     13961     13959     13963     13956
     13956     13957     13956     13958     13956     13953     13953     13954
     13953     13955     13953     13940     13940     13949     13940     13945
     13940     13941     13949     13950     13949     13951     13949     13952
     13945     13946     13945     13947     13945     13948     13941     13942
     13941     13943     13941     13944     13969     13967     13967     13968
     13967     14019     14019     14021     14021     14022     14021     14023
     14021     14024     14024     14025     14024     14026     14024     14027
     14027     14028     14027     14029     14027     14030     14030     14031
     14030     14032     14030     14033     14033     14034     14033     14035
     14033     14036     14036     14037     14036     14038     14036     14039
     14039     14040     14039     14041     14039     14042     14042     14043
     14044     14045     14044     14046     14046     14047     14046     14048
     14046     14049     14049     14050     14049     14051     14049     14052
     14052     14053     14052     14054     14052     14055     14055     14056
     14055     14057     14055     14058     14058     14059     14058     14060
     14058     14061     14061     14062     14061     14063     14061     14064
     14064     14065     14064     14066     14064     14067     14067     14068
     14067     14069     14067     14070     13975     13977     14042     14044
     14019     14020      2591      2593      2591      2592      2593      2594
      2591      2637      2637      2638      2637      2639      2637      2634
      2634      2635      2634      2636      2591      2595      2595      2596
      2595      2597      2595      2598      2598      2629      2629      2634
      2629      2630      2630      2631      2630      2632      2630      2633
      2598      2599      2599      2600      2599      2601      2601      2602
      2601      2603      2601      2604      2604      2605      2604      2627
      2627      2628      2627      2629      2604      2606      2606      2607
      2606      2616      2616      2621      2621      2622      2621      2623
      2621      2624      2624      2625      2624      2626      2624      2627
      2616      2617      2617      2618      2617      2619      2617      2620
      2606      2608      2608      2609      2608      2610      2608      2611
      2611      2612      2611      2613      2611      2614      2614      2615
      2614      2616      2614      2640      2640      2641      2640      2642
      2642      2643      2642      2644      2642      2645      2640      2646
      2646      2647      2646      2648      2646      2649      2649      2650
      2649      2651      2649      2652      2652      2653      2652      2654
      2652      2655      2655      2656      2655      2657      2657      2658
      2657      2659      2657      2660      2655      2661      2661      2662
      2661      2663      2661      2664      2665      2667      2665      2666
      2667      2668      2665      2711      2711      2712      2711      2713
      2711      2708      2708      2709      2708      2710      2665      2669
      2669      2670      2669      2671      2669      2672      2672      2703
      2703      2708      2703      2704      2704      2705      2704      2706
      2704      2707      2672      2673      2673      2674      2673      2675
      2675      2676      2675      2677      2675      2678      2678      2679
      2678      2701      2701      2702      2701      2703      2678      2680
      2680      2681      2680      2690      2690      2695      2695      2696
      2695      2697      2695      2698      2698      2699      2698      2700
      2698      2701      2690      2691      2691      2692      2691      2693
      2691      2694      2680      2682      2682      2683      2682      2684
      2682      2685      2685      2686      2685      2687      2685      2688
      2688      2689      2688      2690      2688      2714      2714      2715
      2714      2716      2716      2717      2716      2718      2716      2719
      2714      2720      2720      2721      2720      2722      2720      2723
      2723      2724      2723      2725      2723      2726      2726      2727
      2726      2728      2726      2729      2729      2730      2729      2731
      2731      2732      2731      2733      2731      2734      2729      2735
      2735      2736      2735      2737      2735      2738     14146     14147
     14146     14148     14146     14149     14146     14143     14143     14144
     14143     14145     14143     14140     14140     14141     14140     14142
     14140     14137     14137     14138     14137     14139     14137     14134
     14134     14135     14134     14136     14134     14131     14131     14132
     14131     14133     14131     14128     14128     14129     14128     14130
     14128     14125     14125     14126     14125     14127     14125     14122
     14122     14123     14122     14124     14122     14119     14119     14120
     14119     14121     14119     14116     14116     14117     14116     14118
     14116     14113     14113     14114     14113     14115     14113     14110
     14110     14111     14110     14112     14110     14108     14108     14109
     14106     14107     14106     14102     14102     14103     14102     14104
     14104     14105     14102     14100     14100     14101     14100     14095
     14095     14096     14095     14097     14095     14093     14093     14090
     14094     14090     14091     14090     14092     14090     14094     14087
     14087     14088     14087     14089     14087     14084     14084     14085
     14084     14086     14084     14071     14071     14080     14071     14076
     14071     14072     14080     14081     14080     14082     14080     14083
     14076     14077     14076     14078     14076     14079     14072     14073
     14072     14074     14072     14075     14100     14098     14098     14099
     14098     14150     14150     14152     14152     14153     14152     14154
     14152     14155     14155     14156     14155     14157     14155     14158
     14158     14159     14158     14160     14158     14161     14161     14162
     14161     14163     14161     14164     14164     14165     14164     14166
     14164     14167     14167     14168     14167     14169     14167     14170
     14170     14171     14170     14172     14170     14173     14173     14174
     14175     14176     14175     14177     14177     14178     14177     14179
     14177     14180     14180     14181     14180     14182     14180     14183
     14183     14184     14183     14185     14183     14186     14186     14187
     14186     14188     14186     14189     14189     14190     14189     14191
     14189     14192     14192     14193     14192     14194     14192     14195
     14195     14196     14195     14197     14195     14198     14198     14199
     14198     14200     14198     14201     14106     14108     14173     14175
     14150     14151      2739      2741      2739      2740      2741      2742
      2739      2785      2785      2786      2785      2787      2785      2782
      2782      2783      2782      2784      2739      2743      2743      2744
      2743      2745      2743      2746      2746      2777      2777      2782
      2777      2778      2778      2779      2778      2780      2778      2781
      2746      2747      2747      2748      2747      2749      2749      2750
      2749      2751      2749      2752      2752      2753      2752      2775
      2775      2776      2775      2777      2752      2754      2754      2755
      2754      2764      2764      2769      2769      2770      2769      2771
      2769      2772      2772      2773      2772      2774      2772      2775
      2764      2765      2765      2766      2765      2767      2765      2768
      2754      2756      2756      2757      2756      2758      2756      2759
      2759      2760      2759      2761      2759      2762      2762      2763
      2762      2764      2762      2788      2788      2789      2788      2790
      2790      2791      2790      2792      2790      2793      2788      2794
      2794      2795      2794      2796      2794      2797      2797      2798
      2797      2799      2797      2800      2800      2801      2800      2802
      2800      2803      2803      2804      2803      2805      2805      2806
      2805      2807      2805      2808      2803      2809      2809      2810
      2809      2811      2809      2812      2813      2815      2813      2814
      2815      2816      2813      2859      2859      2860      2859      2861
      2859      2856      2856      2857      2856      2858      2813      2817
      2817      2818      2817      2819      2817      2820      2820      2851
      2851      2856      2851      2852      2852      2853      2852      2854
      2852      2855      2820      2821      2821      2822      2821      2823
      2823      2824      2823      2825      2823      2826      2826      2827
      2826      2849      2849      2850      2849      2851      2826      2828
      2828      2829      2828      2838      2838      2843      2843      2844
      2843      2845      2843      2846      2846      2847      2846      2848
      2846      2849      2838      2839      2839      2840      2839      2841
      2839      2842      2828      2830      2830      2831      2830      2832
      2830      2833      2833      2834      2833      2835      2833      2836
      2836      2837      2836      2838      2836      2862      2862      2863
      2862      2864      2864      2865      2864      2866      2864      2867
      2862      2868      2868      2869      2868      2870      2868      2871
      2871      2872      2871      2873      2871      2874      2874      2875
      2874      2876      2874      2877      2877      2878      2877      2879
      2879      2880      2879      2881      2879      2882      2877      2883
      2883      2884      2883      2885      2883      2886      2887      2889
      2887      2888      2889      2890      2887      2933      2933      2934
      2933      2935      2933      2930      2930      2931      2930      2932
      2887      2891      2891      2892      2891      2893      2891      2894
      2894      2925      2925      2930      2925      2926      2926      2927
      2926      2928      2926      2929      2894      2895      2895      2896
      2895      2897      2897      2898      2897      2899      2897      2900
      2900      2901      2900      2923      2923      2924      2923      2925
      2900      2902      2902      2903      2902      2912      2912      2917
      2917      2918      2917      2919      2917      2920      2920      2921
      2920      2922      2920      2923      2912      2913      2913      2914
      2913      2915      2913      2916      2902      2904      2904      2905
      2904      2906      2904      2907      2907      2908      2907      2909
      2907      2910      2910      2911      2910      2912      2910      2936
      2936      2937      2936      2938      2938      2939      2938      2940
      2938      2941      2936      2942      2942      2943      2942      2944
      2942      2945      2945      2946      2945      2947      2945      2948
      2948      2949      2948      2950      2948      2951      2951      2952
      2951      2953      2953      2954      2953      2955      2953      2956
      2951      2957      2957      2958      2957      2959      2957      2960
     18263     18264     18263     18265     18263     18266     18263     18267
     18267     18268     18267     18269     18267     18270     18270     18271
     18270     18272     18270     18276     18278     18277     18276     18273
     18273     18277     18273     18274     18273     18275     18278     18279
     18278     18280     18278     18281     18281     18282     18281     18289
     18281     18283     18289     18290     18289     18291     18289     18292
     18283     18284     18284     18286     18284     18285     18286     18287
     18286     18288     18286     18298     18298     18299     18298     18300
     18298     18301     18301     18302     18301     18303     18301     18304
     18304     18305     18304     18306     18306     18307     18306     18308
     18308     18309     18308     18310     18308     18311     18311     18312
     18311     18313     18313     18314     18313     18315     18315     18316
     18315     18317     18315     18318     18318     18319     18318     18320
     18320     18321     18320     18322     18322     18323     18322     18324
     18322     18325     18325     18326     18325     18327     18327     18328
     18327     18329     18329     18330     18329     18331     18329     18332
     18332     18333     18332     18334     18332     18335     18335     18336
     18335     18337     18335     18338     18338     18339     18338     18340
     18338     18341     18341     18342     18341     18343     18341     18344
     18292     18293     18293     18295     18293     18294     18295     18296
     18295     18297     18295     18345     18345     18346     18345     18347
     18345     18348     18348     18349     18348     18350     18348     18351
     18351     18352     18351     18353     18351     18354     18354     18355
     18354     18356     18354     18357     18357     18358     18357     18359
     18357     18360     18360     18361     18360     18362     18360     18363
     18363     18364     18363     18365     18363     18366     18366     18367
     18366     18368     18366     18369     18369     18370     18369     18371
     18369     18372     18372     18373     18372     18374     18372     18375
     18375     18376     18375     18377     18375     18378     18378     18379
     18378     18380     18378     18381     18381     18382     18381     18383
     18381     18384     18384     18385     18384     18386     18384     18387
     18387     18388     18387     18389     18387     18390     18390     18391
     18390     18392     18390     18393      2961      2963      2961      2962
      2963      2964      2961      3007      3007      3008      3007      3009
      3007      3004      3004      3005      3004      3006      2961      2965
      2965      2966      2965      2967      2965      2968      2968      2999
      2999      3004      2999      3000      3000      3001      3000      3002
      3000      3003      2968      2969      2969      2970      2969      2971
      2971      2972      2971      2973      2971      2974      2974      2975
      2974      2997      2997      2998      2997      2999      2974      2976
      2976      2977      2976      2986      2986      2991      2991      2992
      2991      2993      2991      2994      2994      2995      2994      2996
      2994      2997      2986      2987      2987      2988      2987      2989
      2987      2990      2976      2978      2978      2979      2978      2980
      2978      2981      2981      2982      2981      2983      2981      2984
      2984      2985      2984      2986      2984      3010      3010      3011
      3010      3012      3012      3013      3012      3014      3012      3015
      3010      3016      3016      3017      3016      3018      3016      3019
      3019      3020      3019      3021      3019      3022      3022      3023
      3022      3024      3022      3025      3025      3026      3025      3027
      3027      3028      3027      3029      3027      3030      3025      3031
      3031      3032      3031      3033      3031      3034      9343      9344
      9343      9345      9343      9346      9343      9347      9351      9349
      9349      9347      9349      9350      9347      9348      9347      9352
      9360      9359      9352      9353      9352      9354      9352      9358
      9358      9355      9355      9359      9355      9356      9355      9357
      9360      9361      9360      9362      9360      9363      9363      9364
      9363      9371      9363      9365      9371      9372      9371      9373
      9371      9374      9365      9366      9366      9368      9366      9367
      9368      9369      9368      9370      9368      9380      9380      9381
      9380      9382      9380      9383      9383      9384      9383      9385
      9383      9386      9386      9387      9386      9388      9388      9389
      9388      9390      9390      9391      9390      9392      9390      9393
      9393      9394      9393      9395      9395      9396      9395      9397
      9397      9398      9397      9399      9397      9400      9400      9401
      9400      9402      9402      9403      9402      9404      9404      9405
      9404      9406      9404      9407      9407      9408      9407      9409
      9409      9410      9409      9411      9411      9412      9411      9413
      9411      9414      9414      9415      9414      9416      9414      9417
      9417      9418      9417      9419      9417      9420      9420      9421
      9420      9422      9420      9423      9423      9424      9423      9425
      9423      9426      9374      9375      9375      9377      9375      9376
      9377      9378      9377      9379      9377      9427      9427      9428
      9427      9429      9427      9430      9430      9431      9430      9432
      9430      9433      9433      9434      9433      9435      9433      9436
      9436      9437      9436      9438      9436      9439      9439      9440
      9439      9441      9439      9442      9442      9443      9442      9444
      9442      9445      9445      9446      9445      9447      9445      9448
      9448      9449      9448      9450      9448      9451      9451      9452
      9451      9453      9451      9454      9454      9455      9454      9456
      9454      9457      9457      9458      9457      9459      9457      9460
      9460      9461      9460      9462      9460      9463      9463      9464
      9463      9465      9463      9466      9466      9467      9466      9468
      9466      9469      9469      9470      9469      9471      9469      9472
      9472      9473      9472      9474      9472      9475     14277     14278
     14277     14279     14277     14280     14277     14274     14274     14275
     14274     14276     14274     14271     14271     14272     14271     14273
     14271     14268     14268     14269     14268     14270     14268     14265
     14265     14266     14265     14267     14265     14262     14262     14263
     14262     14264     14262     14259     14259     14260     14259     14261
     14259     14256     14256     14257     14256     14258     14256     14253
     14253     14254     14253     14255     14253     14250     14250     14251
     14250     14252     14250     14247     14247     14248     14247     14249
     14247     14244     14244     14245     14244     14246     14244     14241
     14241     14242     14241     14243     14241     14239     14239     14240
     14237     14238     14237     14233     14233     14234     14233     14235
     14235     14236     14233     14231     14231     14232     14231     14226
     14226     14227     14226     14228     14226     14224     14224     14221
     14225     14221     14222     14221     14223     14221     14225     14218
     14218     14219     14218     14220     14218     14215     14215     14216
     14215     14217     14215     14202     14202     14211     14202     14207
     14202     14203     14211     14212     14211     14213     14211     14214
     14207     14208     14207     14209     14207     14210     14203     14204
     14203     14205     14203     14206     14231     14229     14229     14230
     14229     14281     14281     14283     14283     14284     14283     14285
     14283     14286     14286     14287     14286     14288     14286     14289
     14289     14290     14289     14291     14289     14292     14292     14293
     14292     14294     14292     14295     14295     14296     14295     14297
     14295     14298     14298     14299     14298     14300     14298     14301
     14301     14302     14301     14303     14301     14304     14304     14305
     14306     14307     14306     14308     14308     14309     14308     14310
     14308     14311     14311     14312     14311     14313     14311     14314
     14314     14315     14314     14316     14314     14317     14317     14318
     14317     14319     14317     14320     14320     14321     14320     14322
     14320     14323     14323     14324     14323     14325     14323     14326
     14326     14327     14326     14328     14326     14329     14329     14330
     14329     14331     14329     14332     14237     14239     14304     14306
     14281     14282     14408     14409     14408     14410     14408     14411
     14408     14405     14405     14406     14405     14407     14405     14402
     14402     14403     14402     14404     14402     14399     14399     14400
     14399     14401     14399     14396     14396     14397     14396     14398
     14396     14393     14393     14394     14393     14395     14393     14390
     14390     14391     14390     14392     14390     14387     14387     14388
     14387     14389     14387     14384     14384     14385     14384     14386
     14384     14381     14381     14382     14381     14383     14381     14378
     14378     14379     14378     14380     14378     14375     14375     14376
     14375     14377     14375     14372     14372     14373     14372     14374
     14372     14370     14370     14371     14368     14369     14368     14364
     14364     14365     14364     14366     14366     14367     14364     14362
     14362     14363     14362     14357     14357     14358     14357     14359
     14357     14355     14355     14352     14356     14352     14353     14352
     14354     14352     14356     14349     14349     14350     14349     14351
     14349     14346     14346     14347     14346     14348     14346     14333
     14333     14342     14333     14338     14333     14334     14342     14343
     14342     14344     14342     14345     14338     14339     14338     14340
     14338     14341     14334     14335     14334     14336     14334     14337
     14362     14360     14360     14361     14360     14412     14412     14414
     14414     14415     14414     14416     14414     14417     14417     14418
     14417     14419     14417     14420     14420     14421     14420     14422
     14420     14423     14423     14424     14423     14425     14423     14426
     14426     14427     14426     14428     14426     14429     14429     14430
     14429     14431     14429     14432     14432     14433     14432     14434
     14432     14435     14435     14436     14437     14438     14437     14439
     14439     14440     14439     14441     14439     14442     14442     14443
     14442     14444     14442     14445     14445     14446     14445     14447
     14445     14448     14448     14449     14448     14450     14448     14451
     14451     14452     14451     14453     14451     14454     14454     14455
     14454     14456     14454     14457     14457     14458     14457     14459
     14457     14460     14460     14461     14460     14462     14460     14463
     14368     14370     14435     14437     14412     14413      6653      6654
      6653      6658      6653      6662      6654      6655      6654      6656
      6654      6657      6658      6659      6658      6660      6658      6661
      6662      6663      6662      6664      6662      6665      6653      6666
      6666      6667      6666      6668      6666      6669      6669      6670
      6669      6671      6669      6675      6676      6677      6675      6672
      6672      6676      6672      6673      6672      6674      6677      6678
      6677      6679      6677      6680      6680      6681      6680      6688
      6680      6682      6688      6689      6688      6690      6688      6691
      6682      6683      6683      6685      6683      6684      6685      6686
      6685      6687      6685      6697      6697      6698      6697      6699
      6697      6700      6700      6701      6700      6702      6700      6703
      6703      6704      6703      6705      6703      6706      6706      6707
      6706      6708      6706      6709      6709      6710      6709      6711
      6709      6712      6712      6713      6712      6714      6712      6715
      6715      6716      6715      6717      6717      6718      6717      6719
      6719      6720      6719      6721      6719      6722      6722      6723
      6722      6724      6724      6725      6724      6726      6726      6727
      6726      6728      6726      6729      6729      6730      6729      6731
      6729      6732      6732      6733      6732      6734      6732      6735
      6735      6736      6735      6737      6735      6738      6738      6739
      6738      6740      6738      6741      6691      6692      6692      6694
      6692      6693      6694      6695      6694      6696      6694      6742
      6742      6743      6742      6744      6742      6745      6745      6746
      6745      6747      6745      6748      6748      6749      6748      6750
      6748      6751      6751      6752      6751      6753      6751      6754
      6754      6755      6754      6756      6754      6757      6757      6758
      6757      6759      6757      6760      6760      6761      6760      6762
      6760      6763      6763      6764      6763      6765      6763      6766
      6766      6767      6766      6768      6766      6769      6769      6770
      6769      6771      6769      6772      6772      6773      6772      6774
      6772      6775      6775      6776      6775      6777      6775      6778
      6778      6779      6778      6780      6778      6781      6781      6782
      6781      6783      6781      6784      6784      6785      6784      6786
      6784      6787      6787      6788      6787      6789      6787      6790
     14539     14540     14539     14541     14539     14542     14539     14536
     14536     14537     14536     14538     14536     14533     14533     14534
     14533     14535     14533     14530     14530     14531     14530     14532
     14530     14527     14527     14528     14527     14529     14527     14524
     14524     14525     14524     14526     14524     14521     14521     14522
     14521     14523     14521     14518     14518     14519     14518     14520
     14518     14515     14515     14516     14515     14517     14515     14512
     14512     14513     14512     14514     14512     14509     14509     14510
     14509     14511     14509     14506     14506     14507     14506     14508
     14506     14503     14503     14504     14503     14505     14503     14501
     14501     14502     14499     14500     14499     14495     14495     14496
     14495     14497     14497     14498     14495     14493     14493     14494
     14493     14488     14488     14489     14488     14490     14488     14486
     14486     14483     14487     14483     14484     14483     14485     14483
     14487     14480     14480     14481     14480     14482     14480     14477
     14477     14478     14477     14479     14477     14464     14464     14473
     14464     14469     14464     14465     14473     14474     14473     14475
     14473     14476     14469     14470     14469     14471     14469     14472
     14465     14466     14465     14467     14465     14468     14493     14491
     14491     14492     14491     14543     14543     14545     14545     14546
     14545     14547     14545     14548     14548     14549     14548     14550
     14548     14551     14551     14552     14551     14553     14551     14554
     14554     14555     14554     14556     14554     14557     14557     14558
     14557     14559     14557     14560     14560     14561     14560     14562
     14560     14563     14563     14564     14563     14565     14563     14566
     14566     14567     14568     14569     14568     14570     14570     14571
     14570     14572     14570     14573     14573     14574     14573     14575
     14573     14576     14576     14577     14576     14578     14576     14579
     14579     14580     14579     14581     14579     14582     14582     14583
     14582     14584     14582     14585     14585     14586     14585     14587
     14585     14588     14588     14589     14588     14590     14588     14591
     14591     14592     14591     14593     14591     14594     14499     14501
     14566     14568     14543     14544      5125      5129      5125      5133
      5125      5137      5129      5130      5129      5131      5129      5132
      5133      5134      5133      5135      5133      5136      5137      5138
      5137      5139      5137      5140      5125      5126      5126      5127
      5126      5128      5126      5141      5141      5142      5141      5143
      5141      5147      5148      5149      5147      5144      5144      5148
      5144      5145      5144      5146      5149      5150      5149      5151
      5149      5152      5152      5153      5152      5160      5152      5154
      5160      5161      5160      5162      5160      5163      5154      5155
      5155      5157      5155      5156      5157      5158      5157      5159
      5157      5169      5169      5170      5169      5171      5169      5172
      5172      5173      5172      5174      5172      5175      5175      5176
      5175      5177      5177      5178      5177      5179      5179      5180
      5179      5181      5179      5182      5182      5183      5182      5184
      5184      5185      5184      5186      5186      5187      5186      5188
      5186      5189      5189      5190      5189      5191      5191      5192
      5191      5193      5193      5194      5193      5195      5193      5196
      5196      5197      5196      5198      5198      5199      5198      5200
      5200      5201      5200      5202      5200      5203      5203      5204
      5203      5205      5203      5206      5206      5207      5206      5208
      5206      5209      5209      5210      5209      5211      5209      5212
      5212      5213      5212      5214      5212      5215      5163      5164
      5164      5166      5164      5165      5166      5167      5166      5168
      5166      5216      5216      5217      5216      5218      5216      5219
      5219      5220      5219      5221      5219      5222      5222      5223
      5222      5224      5222      5225      5225      5226      5225      5227
      5225      5228      5228      5229      5228      5230      5228      5231
      5231      5232      5231      5233      5231      5234      5234      5235
      5234      5236      5234      5237      5237      5238      5237      5239
      5237      5240      5240      5241      5240      5242      5240      5243
      5243      5244      5243      5245      5243      5246      5246      5247
      5246      5248      5246      5249      5249      5250      5249      5251
      5249      5252      5252      5253      5252      5254      5252      5255
      5255      5256      5255      5257      5255      5258      5258      5259
      5258      5260      5258      5261      5261      5262      5261      5263
      5261      5264      9476      9477      9476      9478      9476      9479
      9476      9480      9484      9482      9482      9480      9482      9483
      9480      9481      9480      9485      9493      9492      9485      9486
      9485      9487      9485      9491      9491      9488      9488      9492
      9488      9489      9488      9490      9493      9494      9493      9495
      9493      9496      9496      9497      9496      9504      9496      9498
      9504      9505      9504      9506      9504      9507      9498      9499
      9499      9501      9499      9500      9501      9502      9501      9503
      9501      9513      9513      9514      9513      9515      9513      9516
      9516      9517      9516      9518      9516      9519      9519      9520
      9519      9521      9521      9522      9521      9523      9523      9524
      9523      9525      9523      9526      9526      9527      9526      9528
      9528      9529      9528      9530      9530      9531      9530      9532
      9530      9533      9533      9534      9533      9535      9535      9536
      9535      9537      9537      9538      9537      9539      9537      9540
      9540      9541      9540      9542      9542      9543      9542      9544
      9544      9545      9544      9546      9544      9547      9547      9548
      9547      9549      9547      9550      9550      9551      9550      9552
      9550      9553      9553      9554      9553      9555      9553      9556
      9556      9557      9556      9558      9556      9559      9507      9508
      9508      9510      9508      9509      9510      9511      9510      9512
      9510      9560      9560      9561      9560      9562      9560      9563
      9563      9564      9563      9565      9563      9566      9566      9567
      9566      9568      9566      9569      9569      9570      9569      9571
      9569      9572      9572      9573      9572      9574      9572      9575
      9575      9576      9575      9577      9575      9578      9578      9579
      9578      9580      9578      9581      9581      9582      9581      9583
      9581      9584      9584      9585      9584      9586      9584      9587
      9587      9588      9587      9589      9587      9590      9590      9591
      9590      9592      9590      9593      9593      9594      9593      9595
      9593      9596      9596      9597      9596      9598      9596      9599
      9599      9600      9599      9601      9599      9602      9602      9603
      9602      9604      9602      9605      9605      9606      9605      9607
      9605      9608      3035      3037      3035      3036      3037      3038
      3035      3081      3081      3082      3081      3083      3081      3078
      3078      3079      3078      3080      3035      3039      3039      3040
      3039      3041      3039      3042      3042      3073      3073      3078
      3073      3074      3074      3075      3074      3076      3074      3077
      3042      3043      3043      3044      3043      3045      3045      3046
      3045      3047      3045      3048      3048      3049      3048      3071
      3071      3072      3071      3073      3048      3050      3050      3051
      3050      3060      3060      3065      3065      3066      3065      3067
      3065      3068      3068      3069      3068      3070      3068      3071
      3060      3061      3061      3062      3061      3063      3061      3064
      3050      3052      3052      3053      3052      3054      3052      3055
      3055      3056      3055      3057      3055      3058      3058      3059
      3058      3060      3058      3084      3084      3085      3084      3086
      3086      3087      3086      3088      3086      3089      3084      3090
      3090      3091      3090      3092      3090      3093      3093      3094
      3093      3095      3093      3096      3096      3097      3096      3098
      3096      3099      3099      3100      3099      3101      3101      3102
      3101      3103      3101      3104      3099      3105      3105      3106
      3105      3107      3105      3108     20490     20491     20490     20492
     20490     20493     20490     20494     20494     20495     20494     20496
     20494     20497     20497     20498     20497     20499     20497     20503
     20505     20504     20503     20500     20500     20504     20500     20501
     20500     20502     20505     20506     20505     20507     20505     20508
     20508     20509     20508     20516     20508     20510     20516     20517
     20516     20518     20516     20519     20510     20511     20511     20513
     20511     20512     20513     20514     20513     20515     20513     20525
     20525     20526     20525     20527     20525     20528     20528     20529
     20528     20530     20528     20531     20531     20532     20531     20533
     20531     20534     20534     20535     20534     20536     20534     20537
     20537     20538     20537     20539     20537     20540     20540     20541
     20540     20542     20540     20543     20543     20544     20543     20545
     20545     20546     20545     20547     20547     20548     20547     20549
     20547     20550     20550     20551     20550     20552     20550     20553
     20553     20554     20553     20555     20553     20556     20556     20557
     20556     20558     20556     20559     20559     20560     20559     20561
     20559     20562     20562     20563     20562     20564     20562     20565
     20565     20566     20565     20567     20565     20568     20568     20569
     20568     20570     20568     20571     20519     20520     20520     20522
     20520     20521     20522     20523     20522     20524     20522     20572
     20572     20573     20572     20574     20572     20575     20575     20576
     20575     20577     20575     20578     20578     20579     20578     20580
     20578     20581     20581     20582     20581     20583     20581     20584
     20584     20585     20584     20586     20584     20587     20587     20588
     20587     20589     20587     20590     20590     20591     20590     20592
     20590     20593     20593     20594     20593     20595     20593     20596
     20596     20597     20596     20598     20596     20599     20599     20600
     20599     20601     20599     20602     20602     20603     20602     20604
     20602     20605     20605     20606     20605     20607     20605     20608
     20608     20609     20608     20610     20608     20611     20611     20612
     20611     20613     20611     20614     20614     20615     20614     20616
     20614     20617     20617     20618     20617     20619     20617     20620
      3109      3111      3109      3110      3111      3112      3109      3155
      3155      3156      3155      3157      3155      3152      3152      3153
      3152      3154      3109      3113      3113      3114      3113      3115
      3113      3116      3116      3147      3147      3152      3147      3148
      3148      3149      3148      3150      3148      3151      3116      3117
      3117      3118      3117      3119      3119      3120      3119      3121
      3119      3122      3122      3123      3122      3145      3145      3146
      3145      3147      3122      3124      3124      3125      3124      3134
      3134      3139      3139      3140      3139      3141      3139      3142
      3142      3143      3142      3144      3142      3145      3134      3135
      3135      3136      3135      3137      3135      3138      3124      3126
      3126      3127      3126      3128      3126      3129      3129      3130
      3129      3131      3129      3132      3132      3133      3132      3134
      3132      3158      3158      3159      3158      3160      3160      3161
      3160      3162      3160      3163      3158      3164      3164      3165
      3164      3166      3164      3167      3167      3168      3167      3169
      3167      3170      3170      3171      3170      3172      3170      3173
      3173      3174      3173      3175      3175      3176      3175      3177
      3175      3178      3173      3179      3179      3180      3179      3181
      3179      3182      5265      5269      5265      5273      5265      5277
      5269      5270      5269      5271      5269      5272      5273      5274
      5273      5275      5273      5276      5277      5278      5277      5279
      5277      5280      5265      5266      5266      5267      5266      5268
      5266      5281      5281      5282      5281      5283      5281      5287
      5288      5289      5287      5284      5284      5288      5284      5285
      5284      5286      5289      5290      5289      5291      5289      5292
      5292      5293      5292      5300      5292      5294      5300      5301
      5300      5302      5300      5303      5294      5295      5295      5297
      5295      5296      5297      5298      5297      5299      5297      5309
      5309      5310      5309      5311      5309      5312      5312      5313
      5312      5314      5312      5315      5315      5316      5315      5317
      5317      5318      5317      5319      5319      5320      5319      5321
      5319      5322      5322      5323      5322      5324      5324      5325
      5324      5326      5326      5327      5326      5328      5326      5329
      5329      5330      5329      5331      5331      5332      5331      5333
      5333      5334      5333      5335      5333      5336      5336      5337
      5336      5338      5338      5339      5338      5340      5340      5341
      5340      5342      5340      5343      5343      5344      5343      5345
      5343      5346      5346      5347      5346      5348      5346      5349
      5349      5350      5349      5351      5349      5352      5352      5353
      5352      5354      5352      5355      5303      5304      5304      5306
      5304      5305      5306      5307      5306      5308      5306      5356
      5356      5357      5356      5358      5356      5359      5359      5360
      5359      5361      5359      5362      5362      5363      5362      5364
      5362      5365      5365      5366      5365      5367      5365      5368
      5368      5369      5368      5370      5368      5371      5371      5372
      5371      5373      5371      5374      5374      5375      5374      5376
      5374      5377      5377      5378      5377      5379      5377      5380
      5380      5381      5380      5382      5380      5383      5383      5384
      5383      5385      5383      5386      5386      5387      5386      5388
      5386      5389      5389      5390      5389      5391      5389      5392
      5392      5393      5392      5394      5392      5395      5395      5396
      5395      5397      5395      5398      5398      5399      5398      5400
      5398      5401      5401      5402      5401      5403      5401      5404
      9609      9610      9609      9611      9609      9612      9609      9613
      9617      9615      9615      9613      9615      9616      9613      9614
      9613      9618      9626      9625      9618      9619      9618      9620
      9618      9624      9624      9621      9621      9625      9621      9622
      9621      9623      9626      9627      9626      9628      9626      9629
      9629      9630      9629      9637      9629      9631      9637      9638
      9637      9639      9637      9640      9631      9632      9632      9634
      9632      9633      9634      9635      9634      9636      9634      9646
      9646      9647      9646      9648      9646      9649      9649      9650
      9649      9651      9649      9652      9652      9653      9652      9654
      9654      9655      9654      9656      9656      9657      9656      9658
      9656      9659      9659      9660      9659      9661      9661      9662
      9661      9663      9663      9664      9663      9665      9663      9666
      9666      9667      9666      9668      9668      9669      9668      9670
      9670      9671      9670      9672      9670      9673      9673      9674
      9673      9675      9675      9676      9675      9677      9677      9678
      9677      9679      9677      9680      9680      9681      9680      9682
      9680      9683      9683      9684      9683      9685      9683      9686
      9686      9687      9686      9688      9686      9689      9689      9690
      9689      9691      9689      9692      9640      9641      9641      9643
      9641      9642      9643      9644      9643      9645      9643      9693
      9693      9694      9693      9695      9693      9696      9696      9697
      9696      9698      9696      9699      9699      9700      9699      9701
      9699      9702      9702      9703      9702      9704      9702      9705
      9705      9706      9705      9707      9705      9708      9708      9709
      9708      9710      9708      9711      9711      9712      9711      9713
      9711      9714      9714      9715      9714      9716      9714      9717
      9717      9718      9717      9719      9717      9720      9720      9721
      9720      9722      9720      9723      9723      9724      9723      9725
      9723      9726      9726      9727      9726      9728      9726      9729
      9729      9730      9729      9731      9729      9732      9732      9733
      9732      9734      9732      9735      9735      9736      9735      9737
      9735      9738      9738      9739      9738      9740      9738      9741
      6791      6792      6791      6796      6791      6800      6792      6793
      6792      6794      6792      6795      6796      6797      6796      6798
      6796      6799      6800      6801      6800      6802      6800      6803
      6791      6804      6804      6805      6804      6806      6804      6807
      6807      6808      6807      6809      6807      6813      6814      6815
      6813      6810      6810      6814      6810      6811      6810      6812
      6815      6816      6815      6817      6815      6818      6818      6819
      6818      6826      6818      6820      6826      6827      6826      6828
      6826      6829      6820      6821      6821      6823      6821      6822
      6823      6824      6823      6825      6823      6835      6835      6836
      6835      6837      6835      6838      6838      6839      6838      6840
      6838      6841      6841      6842      6841      6843      6841      6844
      6844      6845      6844      6846      6844      6847      6847      6848
      6847      6849      6847      6850      6850      6851      6850      6852
      6850      6853      6853      6854      6853      6855      6855      6856
      6855      6857      6857      6858      6857      6859      6857      6860
      6860      6861      6860      6862      6862      6863      6862      6864
      6864      6865      6864      6866      6864      6867      6867      6868
      6867      6869      6867      6870      6870      6871      6870      6872
      6870      6873      6873      6874      6873      6875      6873      6876
      6876      6877      6876      6878      6876      6879      6829      6830
      6830      6832      6830      6831      6832      6833      6832      6834
      6832      6880      6880      6881      6880      6882      6880      6883
      6883      6884      6883      6885      6883      6886      6886      6887
      6886      6888      6886      6889      6889      6890      6889      6891
      6889      6892      6892      6893      6892      6894      6892      6895
      6895      6896      6895      6897      6895      6898      6898      6899
      6898      6900      6898      6901      6901      6902      6901      6903
      6901      6904      6904      6905      6904      6906      6904      6907
      6907      6908      6907      6909      6907      6910      6910      6911
      6910      6912      6910      6913      6913      6914      6913      6915
      6913      6916      6916      6917      6916      6918      6916      6919
      6919      6920      6919      6921      6919      6922      6922      6923
      6922      6924      6922      6925      6925      6926      6925      6927
      6925      6928      3183      3185      3183      3184      3185      3186
      3183      3229      3229      3230      3229      3231      3229      3226
      3226      3227      3226      3228      3183      3187      3187      3188
      3187      3189      3187      3190      3190      3221      3221      3226
      3221      3222      3222      3223      3222      3224      3222      3225
      3190      3191      3191      3192      3191      3193      3193      3194
      3193      3195      3193      3196      3196      3197      3196      3219
      3219      3220      3219      3221      3196      3198      3198      3199
      3198      3208      3208      3213      3213      3214      3213      3215
      3213      3216      3216      3217      3216      3218      3216      3219
      3208      3209      3209      3210      3209      3211      3209      3212
      3198      3200      3200      3201      3200      3202      3200      3203
      3203      3204      3203      3205      3203      3206      3206      3207
      3206      3208      3206      3232      3232      3233      3232      3234
      3234      3235      3234      3236      3234      3237      3232      3238
      3238      3239      3238      3240      3238      3241      3241      3242
      3241      3243      3241      3244      3244      3245      3244      3246
      3244      3247      3247      3248      3247      3249      3249      3250
      3249      3251      3249      3252      3247      3253      3253      3254
      3253      3255      3253      3256      5405      5409      5405      5413
      5405      5417      5409      5410      5409      5411      5409      5412
      5413      5414      5413      5415      5413      5416      5417      5418
      5417      5419      5417      5420      5405      5406      5406      5407
      5406      5408      5406      5421      5421      5422      5421      5423
      5421      5427      5428      5429      5427      5424      5424      5428
      5424      5425      5424      5426      5429      5430      5429      5431
      5429      5432      5432      5433      5432      5440      5432      5434
      5440      5441      5440      5442      5440      5443      5434      5435
      5435      5437      5435      5436      5437      5438      5437      5439
      5437      5449      5449      5450      5449      5451      5449      5452
      5452      5453      5452      5454      5452      5455      5455      5456
      5455      5457      5457      5458      5457      5459      5459      5460
      5459      5461      5459      5462      5462      5463      5462      5464
      5464      5465      5464      5466      5466      5467      5466      5468
      5466      5469      5469      5470      5469      5471      5471      5472
      5471      5473      5473      5474      5473      5475      5473      5476
      5476      5477      5476      5478      5478      5479      5478      5480
      5480      5481      5480      5482      5480      5483      5483      5484
      5483      5485      5483      5486      5486      5487      5486      5488
      5486      5489      5489      5490      5489      5491      5489      5492
      5492      5493      5492      5494      5492      5495      5443      5444
      5444      5446      5444      5445      5446      5447      5446      5448
      5446      5496      5496      5497      5496      5498      5496      5499
      5499      5500      5499      5501      5499      5502      5502      5503
      5502      5504      5502      5505      5505      5506      5505      5507
      5505      5508      5508      5509      5508      5510      5508      5511
      5511      5512      5511      5513      5511      5514      5514      5515
      5514      5516      5514      5517      5517      5518      5517      5519
      5517      5520      5520      5521      5520      5522      5520      5523
      5523      5524      5523      5525      5523      5526      5526      5527
      5526      5528      5526      5529      5529      5530      5529      5531
      5529      5532      5532      5533      5532      5534      5532      5535
      5535      5536      5535      5537      5535      5538      5538      5539
      5538      5540      5538      5541      5541      5542      5541      5543
      5541      5544     14670     14671     14670     14672     14670     14673
     14670     14667     14667     14668     14667     14669     14667     14664
     14664     14665     14664     14666     14664     14661     14661     14662
     14661     14663     14661     14658     14658     14659     14658     14660
     14658     14655     14655     14656     14655     14657     14655     14652
     14652     14653     14652     14654     14652     14649     14649     14650
     14649     14651     14649     14646     14646     14647     14646     14648
     14646     14643     14643     14644     14643     14645     14643     14640
     14640     14641     14640     14642     14640     14637     14637     14638
     14637     14639     14637     14634     14634     14635     14634     14636
     14634     14632     14632     14633     14630     14631     14630     14626
     14626     14627     14626     14628     14628     14629     14626     14624
     14624     14625     14624     14619     14619     14620     14619     14621
     14619     14617     14617     14614     14618     14614     14615     14614
     14616     14614     14618     14611     14611     14612     14611     14613
     14611     14608     14608     14609     14608     14610     14608     14595
     14595     14604     14595     14600     14595     14596     14604     14605
     14604     14606     14604     14607     14600     14601     14600     14602
     14600     14603     14596     14597     14596     14598     14596     14599
     14624     14622     14622     14623     14622     14674     14674     14676
     14676     14677     14676     14678     14676     14679     14679     14680
     14679     14681     14679     14682     14682     14683     14682     14684
     14682     14685     14685     14686     14685     14687     14685     14688
     14688     14689     14688     14690     14688     14691     14691     14692
     14691     14693     14691     14694     14694     14695     14694     14696
     14694     14697     14697     14698     14699     14700     14699     14701
     14701     14702     14701     14703     14701     14704     14704     14705
     14704     14706     14704     14707     14707     14708     14707     14709
     14707     14710     14710     14711     14710     14712     14710     14713
     14713     14714     14713     14715     14713     14716     14716     14717
     14716     14718     14716     14719     14719     14720     14719     14721
     14719     14722     14722     14723     14722     14724     14722     14725
     14630     14632     14697     14699     14674     14675      3257      3259
      3257      3258      3259      3260      3257      3303      3303      3304
      3303      3305      3303      3300      3300      3301      3300      3302
      3257      3261      3261      3262      3261      3263      3261      3264
      3264      3295      3295      3300      3295      3296      3296      3297
      3296      3298      3296      3299      3264      3265      3265      3266
      3265      3267      3267      3268      3267      3269      3267      3270
      3270      3271      3270      3293      3293      3294      3293      3295
      3270      3272      3272      3273      3272      3282      3282      3287
      3287      3288      3287      3289      3287      3290      3290      3291
      3290      3292      3290      3293      3282      3283      3283      3284
      3283      3285      3283      3286      3272      3274      3274      3275
      3274      3276      3274      3277      3277      3278      3277      3279
      3277      3280      3280      3281      3280      3282      3280      3306
      3306      3307      3306      3308      3308      3309      3308      3310
      3308      3311      3306      3312      3312      3313      3312      3314
      3312      3315      3315      3316      3315      3317      3315      3318
      3318      3319      3318      3320      3318      3321      3321      3322
      3321      3323      3323      3324      3323      3325      3323      3326
      3321      3327      3327      3328      3327      3329      3327      3330
     14801     14802     14801     14803     14801     14804     14801     14798
     14798     14799     14798     14800     14798     14795     14795     14796
     14795     14797     14795     14792     14792     14793     14792     14794
     14792     14789     14789     14790     14789     14791     14789     14786
     14786     14787     14786     14788     14786     14783     14783     14784
     14783     14785     14783     14780     14780     14781     14780     14782
     14780     14777     14777     14778     14777     14779     14777     14774
     14774     14775     14774     14776     14774     14771     14771     14772
     14771     14773     14771     14768     14768     14769     14768     14770
     14768     14765     14765     14766     14765     14767     14765     14763
     14763     14764     14761     14762     14761     14757     14757     14758
     14757     14759     14759     14760     14757     14755     14755     14756
     14755     14750     14750     14751     14750     14752     14750     14748
     14748     14745     14749     14745     14746     14745     14747     14745
     14749     14742     14742     14743     14742     14744     14742     14739
     14739     14740     14739     14741     14739     14726     14726     14735
     14726     14731     14726     14727     14735     14736     14735     14737
     14735     14738     14731     14732     14731     14733     14731     14734
     14727     14728     14727     14729     14727     14730     14755     14753
     14753     14754     14753     14805     14805     14807     14807     14808
     14807     14809     14807     14810     14810     14811     14810     14812
     14810     14813     14813     14814     14813     14815     14813     14816
     14816     14817     14816     14818     14816     14819     14819     14820
     14819     14821     14819     14822     14822     14823     14822     14824
     14822     14825     14825     14826     14825     14827     14825     14828
     14828     14829     14830     14831     14830     14832     14832     14833
     14832     14834     14832     14835     14835     14836     14835     14837
     14835     14838     14838     14839     14838     14840     14838     14841
     14841     14842     14841     14843     14841     14844     14844     14845
     14844     14846     14844     14847     14847     14848     14847     14849
     14847     14850     14850     14851     14850     14852     14850     14853
     14853     14854     14853     14855     14853     14856     14761     14763
     14828     14830     14805     14806     18394     18395     18394     18396
     18394     18397     18394     18398     18398     18399     18398     18400
     18398     18401     18401     18402     18401     18403     18401     18407
     18409     18408     18407     18404     18404     18408     18404     18405
     18404     18406     18409     18410     18409     18411     18409     18412
     18412     18413     18412     18420     18412     18414     18420     18421
     18420     18422     18420     18423     18414     18415     18415     18417
     18415     18416     18417     18418     18417     18419     18417     18429
     18429     18430     18429     18431     18429     18432     18432     18433
     18432     18434     18432     18435     18435     18436     18435     18437
     18437     18438     18437     18439     18439     18440     18439     18441
     18439     18442     18442     18443     18442     18444     18444     18445
     18444     18446     18446     18447     18446     18448     18446     18449
     18449     18450     18449     18451     18451     18452     18451     18453
     18453     18454     18453     18455     18453     18456     18456     18457
     18456     18458     18458     18459     18458     18460     18460     18461
     18460     18462     18460     18463     18463     18464     18463     18465
     18463     18466     18466     18467     18466     18468     18466     18469
     18469     18470     18469     18471     18469     18472     18472     18473
     18472     18474     18472     18475     18423     18424     18424     18426
     18424     18425     18426     18427     18426     18428     18426     18476
     18476     18477     18476     18478     18476     18479     18479     18480
     18479     18481     18479     18482     18482     18483     18482     18484
     18482     18485     18485     18486     18485     18487     18485     18488
     18488     18489     18488     18490     18488     18491     18491     18492
     18491     18493     18491     18494     18494     18495     18494     18496
     18494     18497     18497     18498     18497     18499     18497     18500
     18500     18501     18500     18502     18500     18503     18503     18504
     18503     18505     18503     18506     18506     18507     18506     18508
     18506     18509     18509     18510     18509     18511     18509     18512
     18512     18513     18512     18514     18512     18515     18515     18516
     18515     18517     18515     18518     18518     18519     18518     18520
     18518     18521     18521     18522     18521     18523     18521     18524
     14932     14933     14932     14934     14932     14935     14932     14929
     14929     14930     14929     14931     14929     14926     14926     14927
     14926     14928     14926     14923     14923     14924     14923     14925
     14923     14920     14920     14921     14920     14922     14920     14917
     14917     14918     14917     14919     14917     14914     14914     14915
     14914     14916     14914     14911     14911     14912     14911     14913
     14911     14908     14908     14909     14908     14910     14908     14905
     14905     14906     14905     14907     14905     14902     14902     14903
     14902     14904     14902     14899     14899     14900     14899     14901
     14899     14896     14896     14897     14896     14898     14896     14894
     14894     14895     14892     14893     14892     14888     14888     14889
     14888     14890     14890     14891     14888     14886     14886     14887
     14886     14881     14881     14882     14881     14883     14881     14879
     14879     14876     14880     14876     14877     14876     14878     14876
     14880     14873     14873     14874     14873     14875     14873     14870
     14870     14871     14870     14872     14870     14857     14857     14866
     14857     14862     14857     14858     14866     14867     14866     14868
     14866     14869     14862     14863     14862     14864     14862     14865
     14858     14859     14858     14860     14858     14861     14886     14884
     14884     14885     14884     14936     14936     14938     14938     14939
     14938     14940     14938     14941     14941     14942     14941     14943
     14941     14944     14944     14945     14944     14946     14944     14947
     14947     14948     14947     14949     14947     14950     14950     14951
     14950     14952     14950     14953     14953     14954     14953     14955
     14953     14956     14956     14957     14956     14958     14956     14959
     14959     14960     14961     14962     14961     14963     14963     14964
     14963     14965     14963     14966     14966     14967     14966     14968
     14966     14969     14969     14970     14969     14971     14969     14972
     14972     14973     14972     14974     14972     14975     14975     14976
     14975     14977     14975     14978     14978     14979     14978     14980
     14978     14981     14981     14982     14981     14983     14981     14984
     14984     14985     14984     14986     14984     14987     14892     14894
     14959     14961     14936     14937      3331      3333      3331      3332
      3333      3334      3331      3377      3377      3378      3377      3379
      3377      3374      3374      3375      3374      3376      3331      3335
      3335      3336      3335      3337      3335      3338      3338      3369
      3369      3374      3369      3370      3370      3371      3370      3372
      3370      3373      3338      3339      3339      3340      3339      3341
      3341      3342      3341      3343      3341      3344      3344      3345
      3344      3367      3367      3368      3367      3369      3344      3346
      3346      3347      3346      3356      3356      3361      3361      3362
      3361      3363      3361      3364      3364      3365      3364      3366
      3364      3367      3356      3357      3357      3358      3357      3359
      3357      3360      3346      3348      3348      3349      3348      3350
      3348      3351      3351      3352      3351      3353      3351      3354
      3354      3355      3354      3356      3354      3380      3380      3381
      3380      3382      3382      3383      3382      3384      3382      3385
      3380      3386      3386      3387      3386      3388      3386      3389
      3389      3390      3389      3391      3389      3392      3392      3393
      3392      3394      3392      3395      3395      3396      3395      3397
      3397      3398      3397      3399      3397      3400      3395      3401
      3401      3402      3401      3403      3401      3404     15063     15064
     15063     15065     15063     15066     15063     15060     15060     15061
     15060     15062     15060     15057     15057     15058     15057     15059
     15057     15054     15054     15055     15054     15056     15054     15051
     15051     15052     15051     15053     15051     15048     15048     15049
     15048     15050     15048     15045     15045     15046     15045     15047
     15045     15042     15042     15043     15042     15044     15042     15039
     15039     15040     15039     15041     15039     15036     15036     15037
     15036     15038     15036     15033     15033     15034     15033     15035
     15033     15030     15030     15031     15030     15032     15030     15027
     15027     15028     15027     15029     15027     15025     15025     15026
     15023     15024     15023     15019     15019     15020     15019     15021
     15021     15022     15019     15017     15017     15018     15017     15012
     15012     15013     15012     15014     15012     15010     15010     15007
     15011     15007     15008     15007     15009     15007     15011     15004
     15004     15005     15004     15006     15004     15001     15001     15002
     15001     15003     15001     14988     14988     14997     14988     14993
     14988     14989     14997     14998     14997     14999     14997     15000
     14993     14994     14993     14995     14993     14996     14989     14990
     14989     14991     14989     14992     15017     15015     15015     15016
     15015     15067     15067     15069     15069     15070     15069     15071
     15069     15072     15072     15073     15072     15074     15072     15075
     15075     15076     15075     15077     15075     15078     15078     15079
     15078     15080     15078     15081     15081     15082     15081     15083
     15081     15084     15084     15085     15084     15086     15084     15087
     15087     15088     15087     15089     15087     15090     15090     15091
     15092     15093     15092     15094     15094     15095     15094     15096
     15094     15097     15097     15098     15097     15099     15097     15100
     15100     15101     15100     15102     15100     15103     15103     15104
     15103     15105     15103     15106     15106     15107     15106     15108
     15106     15109     15109     15110     15109     15111     15109     15112
     15112     15113     15112     15114     15112     15115     15115     15116
     15115     15117     15115     15118     15023     15025     15090     15092
     15067     15068      9742      9743      9742      9744      9742      9745
      9742      9746      9750      9748      9748      9746      9748      9749
      9746      9747      9746      9751      9759      9758      9751      9752
      9751      9753      9751      9757      9757      9754      9754      9758
      9754      9755      9754      9756      9759      9760      9759      9761
      9759      9762      9762      9763      9762      9770      9762      9764
      9770      9771      9770      9772      9770      9773      9764      9765
      9765      9767      9765      9766      9767      9768      9767      9769
      9767      9779      9779      9780      9779      9781      9779      9782
      9782      9783      9782      9784      9782      9785      9785      9786
      9785      9787      9787      9788      9787      9789      9789      9790
      9789      9791      9789      9792      9792      9793      9792      9794
      9794      9795      9794      9796      9796      9797      9796      9798
      9796      9799      9799      9800      9799      9801      9801      9802
      9801      9803      9803      9804      9803      9805      9803      9806
      9806      9807      9806      9808      9808      9809      9808      9810
      9810      9811      9810      9812      9810      9813      9813      9814
      9813      9815      9813      9816      9816      9817      9816      9818
      9816      9819      9819      9820      9819      9821      9819      9822
      9822      9823      9822      9824      9822      9825      9773      9774
      9774      9776      9774      9775      9776      9777      9776      9778
      9776      9826      9826      9827      9826      9828      9826      9829
      9829      9830      9829      9831      9829      9832      9832      9833
      9832      9834      9832      9835      9835      9836      9835      9837
      9835      9838      9838      9839      9838      9840      9838      9841
      9841      9842      9841      9843      9841      9844      9844      9845
      9844      9846      9844      9847      9847      9848      9847      9849
      9847      9850      9850      9851      9850      9852      9850      9853
      9853      9854      9853      9855      9853      9856      9856      9857
      9856      9858      9856      9859      9859      9860      9859      9861
      9859      9862      9862      9863      9862      9864      9862      9865
      9865      9866      9865      9867      9865      9868      9868      9869
      9868      9870      9868      9871      9871      9872      9871      9873
      9871      9874     18525     18526     18525     18527     18525     18528
     18525     18529     18529     18530     18529     18531     18529     18532
     18532     18533     18532     18534     18532     18538     18540     18539
     18538     18535     18535     18539     18535     18536     18535     18537
     18540     18541     18540     18542     18540     18543     18543     18544
     18543     18551     18543     18545     18551     18552     18551     18553
     18551     18554     18545     18546     18546     18548     18546     18547
     18548     18549     18548     18550     18548     18560     18560     18561
     18560     18562     18560     18563     18563     18564     18563     18565
     18563     18566     18566     18567     18566     18568     18568     18569
     18568     18570     18570     18571     18570     18572     18570     18573
     18573     18574     18573     18575     18575     18576     18575     18577
     18577     18578     18577     18579     18577     18580     18580     18581
     18580     18582     18582     18583     18582     18584     18584     18585
     18584     18586     18584     18587     18587     18588     18587     18589
     18589     18590     18589     18591     18591     18592     18591     18593
     18591     18594     18594     18595     18594     18596     18594     18597
     18597     18598     18597     18599     18597     18600     18600     18601
     18600     18602     18600     18603     18603     18604     18603     18605
     18603     18606     18554     18555     18555     18557     18555     18556
     18557     18558     18557     18559     18557     18607     18607     18608
     18607     18609     18607     18610     18610     18611     18610     18612
     18610     18613     18613     18614     18613     18615     18613     18616
     18616     18617     18616     18618     18616     18619     18619     18620
     18619     18621     18619     18622     18622     18623     18622     18624
     18622     18625     18625     18626     18625     18627     18625     18628
     18628     18629     18628     18630     18628     18631     18631     18632
     18631     18633     18631     18634     18634     18635     18634     18636
     18634     18637     18637     18638     18637     18639     18637     18640
     18640     18641     18640     18642     18640     18643     18643     18644
     18643     18645     18643     18646     18646     18647     18646     18648
     18646     18649     18649     18650     18649     18651     18649     18652
     18652     18653     18652     18654     18652     18655     22119     22123
     22119     22127     22119     22131     22123     22124     22123     22125
     22123     22126     22127     22128     22127     22129     22127     22130
     22131     22132     22131     22133     22131     22134     22119     22120
     22120     22121     22120     22122     22120     22135     22135     22136
     22135     22137     22135     22141     22142     22143     22141     22138
     22138     22142     22138     22139     22138     22140     22143     22144
     22143     22145     22143     22146     22146     22147     22146     22154
     22146     22148     22154     22155     22154     22156     22154     22157
     22148     22149     22149     22151     22149     22150     22151     22152
     22151     22153     22151     22163     22163     22164     22163     22165
     22163     22166     22166     22167     22166     22168     22166     22169
     22169     22170     22169     22171     22169     22172     22172     22173
     22172     22174     22172     22175     22175     22176     22175     22177
     22175     22178     22178     22179     22178     22180     22178     22181
     22181     22182     22181     22183     22183     22184     22183     22185
     22185     22186     22185     22187     22185     22188     22188     22189
     22188     22190     22188     22191     22191     22192     22191     22193
     22191     22194     22194     22195     22194     22196     22194     22197
     22197     22198     22197     22199     22197     22200     22200     22201
     22200     22202     22200     22203     22203     22204     22203     22205
     22203     22206     22206     22207     22206     22208     22206     22209
     22157     22158     22158     22160     22158     22159     22160     22161
     22160     22162     22160     22210     22210     22211     22210     22212
     22210     22213     22213     22214     22213     22215     22213     22216
     22216     22217     22216     22218     22216     22219     22219     22220
     22219     22221     22219     22222     22222     22223     22222     22224
     22222     22225     22225     22226     22225     22227     22225     22228
     22228     22229     22228     22230     22228     22231     22231     22232
     22231     22233     22231     22234     22234     22235     22234     22236
     22234     22237     22237     22238     22237     22239     22237     22240
     22240     22241     22240     22242     22240     22243     22243     22244
     22243     22245     22243     22246     22246     22247     22246     22248
     22246     22249     22249     22250     22249     22251     22249     22252
     20621     20622     20621     20623     20621     20624     20621     20625
     20625     20626     20625     20627     20625     20628     20628     20629
     20628     20630     20628     20634     20636     20635     20634     20631
     20631     20635     20631     20632     20631     20633     20636     20637
     20636     20638     20636     20639     20639     20640     20639     20647
     20639     20641     20647     20648     20647     20649     20647     20650
     20641     20642     20642     20644     20642     20643     20644     20645
     20644     20646     20644     20656     20656     20657     20656     20658
     20656     20659     20659     20660     20659     20661     20659     20662
     20662     20663     20662     20664     20662     20665     20665     20666
     20665     20667     20665     20668     20668     20669     20668     20670
     20668     20671     20671     20672     20671     20673     20671     20674
     20674     20675     20674     20676     20676     20677     20676     20678
     20678     20679     20678     20680     20678     20681     20681     20682
     20681     20683     20681     20684     20684     20685     20684     20686
     20684     20687     20687     20688     20687     20689     20687     20690
     20690     20691     20690     20692     20690     20693     20693     20694
     20693     20695     20693     20696     20696     20697     20696     20698
     20696     20699     20699     20700     20699     20701     20699     20702
     20650     20651     20651     20653     20651     20652     20653     20654
     20653     20655     20653     20703     20703     20704     20703     20705
     20703     20706     20706     20707     20706     20708     20706     20709
     20709     20710     20709     20711     20709     20712     20712     20713
     20712     20714     20712     20715     20715     20716     20715     20717
     20715     20718     20718     20719     20718     20720     20718     20721
     20721     20722     20721     20723     20721     20724     20724     20725
     20724     20726     20724     20727     20727     20728     20727     20729
     20727     20730     20730     20731     20730     20732     20730     20733
     20733     20734     20733     20735     20733     20736     20736     20737
     20736     20738     20736     20739     20739     20740     20739     20741
     20739     20742     20742     20743     20742     20744     20742     20745
     20745     20746     20745     20747     20745     20748     20748     20749
     20748     20750     20748     20751      3405      3407      3405      3406
      3407      3408      3405      3451      3451      3452      3451      3453
      3451      3448      3448      3449      3448      3450      3405      3409
      3409      3410      3409      3411      3409      3412      3412      3443
      3443      3448      3443      3444      3444      3445      3444      3446
      3444      3447      3412      3413      3413      3414      3413      3415
      3415      3416      3415      3417      3415      3418      3418      3419
      3418      3441      3441      3442      3441      3443      3418      3420
      3420      3421      3420      3430      3430      3435      3435      3436
      3435      3437      3435      3438      3438      3439      3438      3440
      3438      3441      3430      3431      3431      3432      3431      3433
      3431      3434      3420      3422      3422      3423      3422      3424
      3422      3425      3425      3426      3425      3427      3425      3428
      3428      3429      3428      3430      3428      3454      3454      3455
      3454      3456      3456      3457      3456      3458      3456      3459
      3454      3460      3460      3461      3460      3462      3460      3463
      3463      3464      3463      3465      3463      3466      3466      3467
      3466      3468      3466      3469      3469      3470      3469      3471
      3471      3472      3471      3473      3471      3474      3469      3475
      3475      3476      3475      3477      3475      3478      6929      6930
      6929      6934      6929      6938      6930      6931      6930      6932
      6930      6933      6934      6935      6934      6936      6934      6937
      6938      6939      6938      6940      6938      6941      6929      6942
      6942      6943      6942      6944      6942      6945      6945      6946
      6945      6947      6945      6951      6952      6953      6951      6948
      6948      6952      6948      6949      6948      6950      6953      6954
      6953      6955      6953      6956      6956      6957      6956      6964
      6956      6958      6964      6965      6964      6966      6964      6967
      6958      6959      6959      6961      6959      6960      6961      6962
      6961      6963      6961      6973      6973      6974      6973      6975
      6973      6976      6976      6977      6976      6978      6976      6979
      6979      6980      6979      6981      6979      6982      6982      6983
      6982      6984      6982      6985      6985      6986      6985      6987
      6985      6988      6988      6989      6988      6990      6988      6991
      6991      6992      6991      6993      6993      6994      6993      6995
      6995      6996      6995      6997      6995      6998      6998      6999
      6998      7000      7000      7001      7000      7002      7002      7003
      7002      7004      7002      7005      7005      7006      7005      7007
      7005      7008      7008      7009      7008      7010      7008      7011
      7011      7012      7011      7013      7011      7014      7014      7015
      7014      7016      7014      7017      6967      6968      6968      6970
      6968      6969      6970      6971      6970      6972      6970      7018
      7018      7019      7018      7020      7018      7021      7021      7022
      7021      7023      7021      7024      7024      7025      7024      7026
      7024      7027      7027      7028      7027      7029      7027      7030
      7030      7031      7030      7032      7030      7033      7033      7034
      7033      7035      7033      7036      7036      7037      7036      7038
      7036      7039      7039      7040      7039      7041      7039      7042
      7042      7043      7042      7044      7042      7045      7045      7046
      7045      7047      7045      7048      7048      7049      7048      7050
      7048      7051      7051      7052      7051      7053      7051      7054
      7054      7055      7054      7056      7054      7057      7057      7058
      7057      7059      7057      7060      7060      7061      7060      7062
      7060      7063      7063      7064      7063      7065      7063      7066
     20752     20753     20752     20754     20752     20755     20752     20756
     20756     20757     20756     20758     20756     20759     20759     20760
     20759     20761     20759     20765     20767     20766     20765     20762
     20762     20766     20762     20763     20762     20764     20767     20768
     20767     20769     20767     20770     20770     20771     20770     20778
     20770     20772     20778     20779     20778     20780     20778     20781
     20772     20773     20773     20775     20773     20774     20775     20776
     20775     20777     20775     20787     20787     20788     20787     20789
     20787     20790     20790     20791     20790     20792     20790     20793
     20793     20794     20793     20795     20793     20796     20796     20797
     20796     20798     20796     20799     20799     20800     20799     20801
     20799     20802     20802     20803     20802     20804     20802     20805
     20805     20806     20805     20807     20807     20808     20807     20809
     20809     20810     20809     20811     20809     20812     20812     20813
     20812     20814     20812     20815     20815     20816     20815     20817
     20815     20818     20818     20819     20818     20820     20818     20821
     20821     20822     20821     20823     20821     20824     20824     20825
     20824     20826     20824     20827     20827     20828     20827     20829
     20827     20830     20830     20831     20830     20832     20830     20833
     20781     20782     20782     20784     20782     20783     20784     20785
     20784     20786     20784     20834     20834     20835     20834     20836
     20834     20837     20837     20838     20837     20839     20837     20840
     20840     20841     20840     20842     20840     20843     20843     20844
     20843     20845     20843     20846     20846     20847     20846     20848
     20846     20849     20849     20850     20849     20851     20849     20852
     20852     20853     20852     20854     20852     20855     20855     20856
     20855     20857     20855     20858     20858     20859     20858     20860
     20858     20861     20861     20862     20861     20863     20861     20864
     20864     20865     20864     20866     20864     20867     20867     20868
     20867     20869     20867     20870     20870     20871     20870     20872
     20870     20873     20873     20874     20873     20875     20873     20876
     20876     20877     20876     20878     20876     20879     20879     20880
     20879     20881     20879     20882     21451     21452     21451     21447
     21451     21431     21451     21456     21431     21432     21431     21433
     21433     21434     21431     21435     21435     21436     21435     21437
     21437     21438     21435     21439     21439     21440     21439     21441
     21441     21442     21439     21443     21443     21444     21443     21447
     21447     21448     21447     21449     21449     21450     21443     21445
     21445     21446     21456     21453     21453     21457     21453     21454
     21453     21455     21457     21458     21458     21459     21458     21460
     21458     21461     21461     21462     21461     21469     21461     21463
     21469     21470     21469     21471     21469     21472     21463     21464
     21464     21466     21464     21465     21466     21467     21466     21468
     21466     21478     21478     21479     21478     21480     21478     21481
     21481     21482     21481     21483     21481     21484     21484     21485
     21484     21486     21486     21487     21486     21488     21488     21489
     21488     21490     21488     21491     21491     21492     21491     21493
     21493     21494     21493     21495     21495     21496     21495     21497
     21495     21498     21498     21499     21498     21500     21500     21501
     21500     21502     21502     21503     21502     21504     21502     21505
     21505     21506     21505     21507     21507     21508     21507     21509
     21509     21510     21509     21511     21509     21512     21512     21513
     21512     21514     21512     21515     21515     21516     21515     21517
     21515     21518     21518     21519     21518     21520     21518     21521
     21521     21522     21521     21523     21521     21524     21472     21473
     21473     21475     21473     21474     21475     21476     21475     21477
     21475     21525     21525     21526     21525     21527     21525     21528
     21528     21529     21528     21530     21528     21531     21531     21532
     21531     21533     21531     21534     21534     21535     21534     21536
     21534     21537     21537     21538     21537     21539     21537     21540
     21540     21541     21540     21542     21540     21543     21543     21544
     21543     21545     21543     21546     21546     21547     21546     21548
     21546     21549     21549     21550     21549     21551     21549     21552
     21552     21553     21552     21554     21552     21555     21555     21556
     21555     21557     21555     21558     21558     21559     21558     21560
     21558     21561     21561     21562     21561     21563     21561     21564
     21564     21565     21564     21566     21564     21567     21567     21568
     21567     21569     21567     21570     21570     21571     21570     21572
     21570     21573     21594     21595     21594     21590     21594     21574
     21594     21599     21574     21575     21574     21576     21576     21577
     21574     21578     21578     21579     21578     21580     21580     21581
     21578     21582     21582     21583     21582     21584     21584     21585
     21582     21586     21586     21587     21586     21590     21590     21591
     21590     21592     21592     21593     21586     21588     21588     21589
     21599     21596     21596     21600     21596     21597     21596     21598
     21600     21601     21601     21602     21601     21603     21601     21604
     21604     21605     21604     21612     21604     21606     21612     21613
     21612     21614     21612     21615     21606     21607     21607     21609
     21607     21608     21609     21610     21609     21611     21609     21621
     21621     21622     21621     21623     21621     21624     21624     21625
     21624     21626     21624     21627     21627     21628     21627     21629
     21629     21630     21629     21631     21631     21632     21631     21633
     21631     21634     21634     21635     21634     21636     21636     21637
     21636     21638     21638     21639     21638     21640     21638     21641
     21641     21642     21641     21643     21643     21644     21643     21645
     21645     21646     21645     21647     21645     21648     21648     21649
     21648     21650     21650     21651     21650     21652     21652     21653
     21652     21654     21652     21655     21655     21656     21655     21657
     21655     21658     21658     21659     21658     21660     21658     21661
     21661     21662     21661     21663     21661     21664     21664     21665
     21664     21666     21664     21667     21615     21616     21616     21618
     21616     21617     21618     21619     21618     21620     21618     21668
     21668     21669     21668     21670     21668     21671     21671     21672
     21671     21673     21671     21674     21674     21675     21674     21676
     21674     21677     21677     21678     21677     21679     21677     21680
     21680     21681     21680     21682     21680     21683     21683     21684
     21683     21685     21683     21686     21686     21687     21686     21688
     21686     21689     21689     21690     21689     21691     21689     21692
     21692     21693     21692     21694     21692     21695     21695     21696
     21695     21697     21695     21698     21698     21699     21698     21700
     21698     21701     21701     21702     21701     21703     21701     21704
     21704     21705     21704     21706     21704     21707     21707     21708
     21707     21709     21707     21710     21710     21711     21710     21712
     21710     21713     21713     21714     21713     21715     21713     21716
     20883     20884     20883     20885     20883     20886     20883     20887
     20887     20888     20887     20889     20887     20890     20890     20891
     20890     20892     20890     20896     20898     20897     20896     20893
     20893     20897     20893     20894     20893     20895     20898     20899
     20898     20900     20898     20901     20901     20902     20901     20909
     20901     20903     20909     20910     20909     20911     20909     20912
     20903     20904     20904     20906     20904     20905     20906     20907
     20906     20908     20906     20918     20918     20919     20918     20920
     20918     20921     20921     20922     20921     20923     20921     20924
     20924     20925     20924     20926     20924     20927     20927     20928
     20927     20929     20927     20930     20930     20931     20930     20932
     20930     20933     20933     20934     20933     20935     20933     20936
     20936     20937     20936     20938     20938     20939     20938     20940
     20940     20941     20940     20942     20940     20943     20943     20944
     20943     20945     20943     20946     20946     20947     20946     20948
     20946     20949     20949     20950     20949     20951     20949     20952
     20952     20953     20952     20954     20952     20955     20955     20956
     20955     20957     20955     20958     20958     20959     20958     20960
     20958     20961     20961     20962     20961     20963     20961     20964
     20912     20913     20913     20915     20913     20914     20915     20916
     20915     20917     20915     20965     20965     20966     20965     20967
     20965     20968     20968     20969     20968     20970     20968     20971
     20971     20972     20971     20973     20971     20974     20974     20975
     20974     20976     20974     20977     20977     20978     20977     20979
     20977     20980     20980     20981     20980     20982     20980     20983
     20983     20984     20983     20985     20983     20986     20986     20987
     20986     20988     20986     20989     20989     20990     20989     20991
     20989     20992     20992     20993     20992     20994     20992     20995
     20995     20996     20995     20997     20995     20998     20998     20999
     20998     21000     20998     21001     21001     21002     21001     21003
     21001     21004     21004     21005     21004     21006     21004     21007
     21007     21008     21007     21009     21007     21010     21010     21011
     21010     21012     21010     21013      5545      5549      5545      5553
      5545      5557      5549      5550      5549      5551      5549      5552
      5553      5554      5553      5555      5553      5556      5557      5558
      5557      5559      5557      5560      5545      5546      5546      5547
      5546      5548      5546      5561      5561      5562      5561      5563
      5561      5567      5568      5569      5567      5564      5564      5568
      5564      5565      5564      5566      5569      5570      5569      5571
      5569      5572      5572      5573      5572      5580      5572      5574
      5580      5581      5580      5582      5580      5583      5574      5575
      5575      5577      5575      5576      5577      5578      5577      5579
      5577      5589      5589      5590      5589      5591      5589      5592
      5592      5593      5592      5594      5592      5595      5595      5596
      5595      5597      5597      5598      5597      5599      5599      5600
      5599      5601      5599      5602      5602      5603      5602      5604
      5604      5605      5604      5606      5606      5607      5606      5608
      5606      5609      5609      5610      5609      5611      5611      5612
      5611      5613      5613      5614      5613      5615      5613      5616
      5616      5617      5616      5618      5618      5619      5618      5620
      5620      5621      5620      5622      5620      5623      5623      5624
      5623      5625      5623      5626      5626      5627      5626      5628
      5626      5629      5629      5630      5629      5631      5629      5632
      5632      5633      5632      5634      5632      5635      5583      5584
      5584      5586      5584      5585      5586      5587      5586      5588
      5586      5636      5636      5637      5636      5638      5636      5639
      5639      5640      5639      5641      5639      5642      5642      5643
      5642      5644      5642      5645      5645      5646      5645      5647
      5645      5648      5648      5649      5648      5650      5648      5651
      5651      5652      5651      5653      5651      5654      5654      5655
      5654      5656      5654      5657      5657      5658      5657      5659
      5657      5660      5660      5661      5660      5662      5660      5663
      5663      5664      5663      5665      5663      5666      5666      5667
      5666      5668      5666      5669      5669      5670      5669      5671
      5669      5672      5672      5673      5672      5674      5672      5675
      5675      5676      5675      5677      5675      5678      5678      5679
      5678      5680      5678      5681      5681      5682      5681      5683
      5681      5684      3479      3481      3479      3480      3481      3482
      3479      3525      3525      3526      3525      3527      3525      3522
      3522      3523      3522      3524      3479      3483      3483      3484
      3483      3485      3483      3486      3486      3517      3517      3522
      3517      3518      3518      3519      3518      3520      3518      3521
      3486      3487      3487      3488      3487      3489      3489      3490
      3489      3491      3489      3492      3492      3493      3492      3515
      3515      3516      3515      3517      3492      3494      3494      3495
      3494      3504      3504      3509      3509      3510      3509      3511
      3509      3512      3512      3513      3512      3514      3512      3515
      3504      3505      3505      3506      3505      3507      3505      3508
      3494      3496      3496      3497      3496      3498      3496      3499
      3499      3500      3499      3501      3499      3502      3502      3503
      3502      3504      3502      3528      3528      3529      3528      3530
      3530      3531      3530      3532      3530      3533      3528      3534
      3534      3535      3534      3536      3534      3537      3537      3538
      3537      3539      3537      3540      3540      3541      3540      3542
      3540      3543      3543      3544      3543      3545      3545      3546
      3545      3547      3545      3548      3543      3549      3549      3550
      3549      3551      3549      3552     18656     18657     18656     18658
     18656     18659     18656     18660     18660     18661     18660     18662
     18660     18663     18663     18664     18663     18665     18663     18669
     18671     18670     18669     18666     18666     18670     18666     18667
     18666     18668     18671     18672     18671     18673     18671     18674
     18674     18675     18674     18682     18674     18676     18682     18683
     18682     18684     18682     18685     18676     18677     18677     18679
     18677     18678     18679     18680     18679     18681     18679     18691
     18691     18692     18691     18693     18691     18694     18694     18695
     18694     18696     18694     18697     18697     18698     18697     18699
     18699     18700     18699     18701     18701     18702     18701     18703
     18701     18704     18704     18705     18704     18706     18706     18707
     18706     18708     18708     18709     18708     18710     18708     18711
     18711     18712     18711     18713     18713     18714     18713     18715
     18715     18716     18715     18717     18715     18718     18718     18719
     18718     18720     18720     18721     18720     18722     18722     18723
     18722     18724     18722     18725     18725     18726     18725     18727
     18725     18728     18728     18729     18728     18730     18728     18731
     18731     18732     18731     18733     18731     18734     18734     18735
     18734     18736     18734     18737     18685     18686     18686     18688
     18686     18687     18688     18689     18688     18690     18688     18738
     18738     18739     18738     18740     18738     18741     18741     18742
     18741     18743     18741     18744     18744     18745     18744     18746
     18744     18747     18747     18748     18747     18749     18747     18750
     18750     18751     18750     18752     18750     18753     18753     18754
     18753     18755     18753     18756     18756     18757     18756     18758
     18756     18759     18759     18760     18759     18761     18759     18762
     18762     18763     18762     18764     18762     18765     18765     18766
     18765     18767     18765     18768     18768     18769     18768     18770
     18768     18771     18771     18772     18771     18773     18771     18774
     18774     18775     18774     18776     18774     18777     18777     18778
     18777     18779     18777     18780     18780     18781     18780     18782
     18780     18783     18783     18784     18783     18785     18783     18786
     15194     15195     15194     15196     15194     15197     15194     15191
     15191     15192     15191     15193     15191     15188     15188     15189
     15188     15190     15188     15185     15185     15186     15185     15187
     15185     15182     15182     15183     15182     15184     15182     15179
     15179     15180     15179     15181     15179     15176     15176     15177
     15176     15178     15176     15173     15173     15174     15173     15175
     15173     15170     15170     15171     15170     15172     15170     15167
     15167     15168     15167     15169     15167     15164     15164     15165
     15164     15166     15164     15161     15161     15162     15161     15163
     15161     15158     15158     15159     15158     15160     15158     15156
     15156     15157     15154     15155     15154     15150     15150     15151
     15150     15152     15152     15153     15150     15148     15148     15149
     15148     15143     15143     15144     15143     15145     15143     15141
     15141     15138     15142     15138     15139     15138     15140     15138
     15142     15135     15135     15136     15135     15137     15135     15132
     15132     15133     15132     15134     15132     15119     15119     15128
     15119     15124     15119     15120     15128     15129     15128     15130
     15128     15131     15124     15125     15124     15126     15124     15127
     15120     15121     15120     15122     15120     15123     15148     15146
     15146     15147     15146     15198     15198     15200     15200     15201
     15200     15202     15200     15203     15203     15204     15203     15205
     15203     15206     15206     15207     15206     15208     15206     15209
     15209     15210     15209     15211     15209     15212     15212     15213
     15212     15214     15212     15215     15215     15216     15215     15217
     15215     15218     15218     15219     15218     15220     15218     15221
     15221     15222     15223     15224     15223     15225     15225     15226
     15225     15227     15225     15228     15228     15229     15228     15230
     15228     15231     15231     15232     15231     15233     15231     15234
     15234     15235     15234     15236     15234     15237     15237     15238
     15237     15239     15237     15240     15240     15241     15240     15242
     15240     15243     15243     15244     15243     15245     15243     15246
     15246     15247     15246     15248     15246     15249     15154     15156
     15221     15223     15198     15199      3553      3555      3553      3554
      3555      3556      3553      3599      3599      3600      3599      3601
      3599      3596      3596      3597      3596      3598      3553      3557
      3557      3558      3557      3559      3557      3560      3560      3591
      3591      3596      3591      3592      3592      3593      3592      3594
      3592      3595      3560      3561      3561      3562      3561      3563
      3563      3564      3563      3565      3563      3566      3566      3567
      3566      3589      3589      3590      3589      3591      3566      3568
      3568      3569      3568      3578      3578      3583      3583      3584
      3583      3585      3583      3586      3586      3587      3586      3588
      3586      3589      3578      3579      3579      3580      3579      3581
      3579      3582      3568      3570      3570      3571      3570      3572
      3570      3573      3573      3574      3573      3575      3573      3576
      3576      3577      3576      3578      3576      3602      3602      3603
      3602      3604      3604      3605      3604      3606      3604      3607
      3602      3608      3608      3609      3608      3610      3608      3611
      3611      3612      3611      3613      3611      3614      3614      3615
      3614      3616      3614      3617      3617      3618      3617      3619
      3619      3620      3619      3621      3619      3622      3617      3623
      3623      3624      3623      3625      3623      3626     18787     18788
     18787     18789     18787     18790     18787     18791     18791     18792
     18791     18793     18791     18794     18794     18795     18794     18796
     18794     18800     18802     18801     18800     18797     18797     18801
     18797     18798     18797     18799     18802     18803     18802     18804
     18802     18805     18805     18806     18805     18813     18805     18807
     18813     18814     18813     18815     18813     18816     18807     18808
     18808     18810     18808     18809     18810     18811     18810     18812
     18810     18822     18822     18823     18822     18824     18822     18825
     18825     18826     18825     18827     18825     18828     18828     18829
     18828     18830     18830     18831     18830     18832     18832     18833
     18832     18834     18832     18835     18835     18836     18835     18837
     18837     18838     18837     18839     18839     18840     18839     18841
     18839     18842     18842     18843     18842     18844     18844     18845
     18844     18846     18846     18847     18846     18848     18846     18849
     18849     18850     18849     18851     18851     18852     18851     18853
     18853     18854     18853     18855     18853     18856     18856     18857
     18856     18858     18856     18859     18859     18860     18859     18861
     18859     18862     18862     18863     18862     18864     18862     18865
     18865     18866     18865     18867     18865     18868     18816     18817
     18817     18819     18817     18818     18819     18820     18819     18821
     18819     18869     18869     18870     18869     18871     18869     18872
     18872     18873     18872     18874     18872     18875     18875     18876
     18875     18877     18875     18878     18878     18879     18878     18880
     18878     18881     18881     18882     18881     18883     18881     18884
     18884     18885     18884     18886     18884     18887     18887     18888
     18887     18889     18887     18890     18890     18891     18890     18892
     18890     18893     18893     18894     18893     18895     18893     18896
     18896     18897     18896     18898     18896     18899     18899     18900
     18899     18901     18899     18902     18902     18903     18902     18904
     18902     18905     18905     18906     18905     18907     18905     18908
     18908     18909     18908     18910     18908     18911     18911     18912
     18911     18913     18911     18914     18914     18915     18914     18916
     18914     18917     21014     21015     21014     21016     21014     21017
     21014     21018     21018     21019     21018     21020     21018     21021
     21021     21022     21021     21023     21021     21027     21029     21028
     21027     21024     21024     21028     21024     21025     21024     21026
     21029     21030     21029     21031     21029     21032     21032     21033
     21032     21040     21032     21034     21040     21041     21040     21042
     21040     21043     21034     21035     21035     21037     21035     21036
     21037     21038     21037     21039     21037     21049     21049     21050
     21049     21051     21049     21052     21052     21053     21052     21054
     21052     21055     21055     21056     21055     21057     21055     21058
     21058     21059     21058     21060     21058     21061     21061     21062
     21061     21063     21061     21064     21064     21065     21064     21066
     21064     21067     21067     21068     21067     21069     21069     21070
     21069     21071     21071     21072     21071     21073     21071     21074
     21074     21075     21074     21076     21074     21077     21077     21078
     21077     21079     21077     21080     21080     21081     21080     21082
     21080     21083     21083     21084     21083     21085     21083     21086
     21086     21087     21086     21088     21086     21089     21089     21090
     21089     21091     21089     21092     21092     21093     21092     21094
     21092     21095     21043     21044     21044     21046     21044     21045
     21046     21047     21046     21048     21046     21096     21096     21097
     21096     21098     21096     21099     21099     21100     21099     21101
     21099     21102     21102     21103     21102     21104     21102     21105
     21105     21106     21105     21107     21105     21108     21108     21109
     21108     21110     21108     21111     21111     21112     21111     21113
     21111     21114     21114     21115     21114     21116     21114     21117
     21117     21118     21117     21119     21117     21120     21120     21121
     21120     21122     21120     21123     21123     21124     21123     21125
     21123     21126     21126     21127     21126     21128     21126     21129
     21129     21130     21129     21131     21129     21132     21132     21133
     21132     21134     21132     21135     21135     21136     21135     21137
     21135     21138     21138     21139     21138     21140     21138     21141
     21141     21142     21141     21143     21141     21144      7067      7068
      7067      7072      7067      7076      7068      7069      7068      7070
      7068      7071      7072      7073      7072      7074      7072      7075
      7076      7077      7076      7078      7076      7079      7067      7080
      7080      7081      7080      7082      7080      7083      7083      7084
      7083      7085      7083      7089      7090      7091      7089      7086
      7086      7090      7086      7087      7086      7088      7091      7092
      7091      7093      7091      7094      7094      7095      7094      7102
      7094      7096      7102      7103      7102      7104      7102      7105
      7096      7097      7097      7099      7097      7098      7099      7100
      7099      7101      7099      7111      7111      7112      7111      7113
      7111      7114      7114      7115      7114      7116      7114      7117
      7117      7118      7117      7119      7117      7120      7120      7121
      7120      7122      7120      7123      7123      7124      7123      7125
      7123      7126      7126      7127      7126      7128      7126      7129
      7129      7130      7129      7131      7131      7132      7131      7133
      7133      7134      7133      7135      7133      7136      7136      7137
      7136      7138      7138      7139      7138      7140      7140      7141
      7140      7142      7140      7143      7143      7144      7143      7145
      7143      7146      7146      7147      7146      7148      7146      7149
      7149      7150      7149      7151      7149      7152      7152      7153
      7152      7154      7152      7155      7105      7106      7106      7108
      7106      7107      7108      7109      7108      7110      7108      7156
      7156      7157      7156      7158      7156      7159      7159      7160
      7159      7161      7159      7162      7162      7163      7162      7164
      7162      7165      7165      7166      7165      7167      7165      7168
      7168      7169      7168      7170      7168      7171      7171      7172
      7171      7173      7171      7174      7174      7175      7174      7176
      7174      7177      7177      7178      7177      7179      7177      7180
      7180      7181      7180      7182      7180      7183      7183      7184
      7183      7185      7183      7186      7186      7187      7186      7188
      7186      7189      7189      7190      7189      7191      7189      7192
      7192      7193      7192      7194      7192      7195      7195      7196
      7195      7197      7195      7198      7198      7199      7198      7200
      7198      7201      7201      7202      7201      7203      7201      7204
      5685      5689      5685      5693      5685      5697      5689      5690
      5689      5691      5689      5692      5693      5694      5693      5695
      5693      5696      5697      5698      5697      5699      5697      5700
      5685      5686      5686      5687      5686      5688      5686      5701
      5701      5702      5701      5703      5701      5707      5708      5709
      5707      5704      5704      5708      5704      5705      5704      5706
      5709      5710      5709      5711      5709      5712      5712      5713
      5712      5720      5712      5714      5720      5721      5720      5722
      5720      5723      5714      5715      5715      5717      5715      5716
      5717      5718      5717      5719      5717      5729      5729      5730
      5729      5731      5729      5732      5732      5733      5732      5734
      5732      5735      5735      5736      5735      5737      5737      5738
      5737      5739      5739      5740      5739      5741      5739      5742
      5742      5743      5742      5744      5744      5745      5744      5746
      5746      5747      5746      5748      5746      5749      5749      5750
      5749      5751      5751      5752      5751      5753      5753      5754
      5753      5755      5753      5756      5756      5757      5756      5758
      5758      5759      5758      5760      5760      5761      5760      5762
      5760      5763      5763      5764      5763      5765      5763      5766
      5766      5767      5766      5768      5766      5769      5769      5770
      5769      5771      5769      5772      5772      5773      5772      5774
      5772      5775      5723      5724      5724      5726      5724      5725
      5726      5727      5726      5728      5726      5776      5776      5777
      5776      5778      5776      5779      5779      5780      5779      5781
      5779      5782      5782      5783      5782      5784      5782      5785
      5785      5786      5785      5787      5785      5788      5788      5789
      5788      5790      5788      5791      5791      5792      5791      5793
      5791      5794      5794      5795      5794      5796      5794      5797
      5797      5798      5797      5799      5797      5800      5800      5801
      5800      5802      5800      5803      5803      5804      5803      5805
      5803      5806      5806      5807      5806      5808      5806      5809
      5809      5810      5809      5811      5809      5812      5812      5813
      5812      5814      5812      5815      5815      5816      5815      5817
      5815      5818      5818      5819      5818      5820      5818      5821
      5821      5822      5821      5823      5821      5824      7205      7206
      7205      7210      7205      7214      7206      7207      7206      7208
      7206      7209      7210      7211      7210      7212      7210      7213
      7214      7215      7214      7216      7214      7217      7205      7218
      7218      7219      7218      7220      7218      7221      7221      7222
      7221      7223      7221      7227      7228      7229      7227      7224
      7224      7228      7224      7225      7224      7226      7229      7230
      7229      7231      7229      7232      7232      7233      7232      7240
      7232      7234      7240      7241      7240      7242      7240      7243
      7234      7235      7235      7237      7235      7236      7237      7238
      7237      7239      7237      7249      7249      7250      7249      7251
      7249      7252      7252      7253      7252      7254      7252      7255
      7255      7256      7255      7257      7255      7258      7258      7259
      7258      7260      7258      7261      7261      7262      7261      7263
      7261      7264      7264      7265      7264      7266      7264      7267
      7267      7268      7267      7269      7269      7270      7269      7271
      7271      7272      7271      7273      7271      7274      7274      7275
      7274      7276      7276      7277      7276      7278      7278      7279
      7278      7280      7278      7281      7281      7282      7281      7283
      7281      7284      7284      7285      7284      7286      7284      7287
      7287      7288      7287      7289      7287      7290      7290      7291
      7290      7292      7290      7293      7243      7244      7244      7246
      7244      7245      7246      7247      7246      7248      7246      7294
      7294      7295      7294      7296      7294      7297      7297      7298
      7297      7299      7297      7300      7300      7301      7300      7302
      7300      7303      7303      7304      7303      7305      7303      7306
      7306      7307      7306      7308      7306      7309      7309      7310
      7309      7311      7309      7312      7312      7313      7312      7314
      7312      7315      7315      7316      7315      7317      7315      7318
      7318      7319      7318      7320      7318      7321      7321      7322
      7321      7323      7321      7324      7324      7325      7324      7326
      7324      7327      7327      7328      7327      7329      7327      7330
      7330      7331      7330      7332      7330      7333      7333      7334
      7333      7335      7333      7336      7336      7337      7336      7338
      7336      7339      7339      7340      7339      7341      7339      7342
      3627      3629      3627      3628      3629      3630      3627      3673
      3673      3674      3673      3675      3673      3670      3670      3671
      3670      3672      3627      3631      3631      3632      3631      3633
      3631      3634      3634      3665      3665      3670      3665      3666
      3666      3667      3666      3668      3666      3669      3634      3635
      3635      3636      3635      3637      3637      3638      3637      3639
      3637      3640      3640      3641      3640      3663      3663      3664
      3663      3665      3640      3642      3642      3643      3642      3652
      3652      3657      3657      3658      3657      3659      3657      3660
      3660      3661      3660      3662      3660      3663      3652      3653
      3653      3654      3653      3655      3653      3656      3642      3644
      3644      3645      3644      3646      3644      3647      3647      3648
      3647      3649      3647      3650      3650      3651      3650      3652
      3650      3676      3676      3677      3676      3678      3678      3679
      3678      3680      3678      3681      3676      3682      3682      3683
      3682      3684      3682      3685      3685      3686      3685      3687
      3685      3688      3688      3689      3688      3690      3688      3691
      3691      3692      3691      3693      3693      3694      3693      3695
      3693      3696      3691      3697      3697      3698      3697      3699
      3697      3700      3701      3703      3701      3702      3703      3704
      3701      3747      3747      3748      3747      3749      3747      3744
      3744      3745      3744      3746      3701      3705      3705      3706
      3705      3707      3705      3708      3708      3739      3739      3744
      3739      3740      3740      3741      3740      3742      3740      3743
      3708      3709      3709      3710      3709      3711      3711      3712
      3711      3713      3711      3714      3714      3715      3714      3737
      3737      3738      3737      3739      3714      3716      3716      3717
      3716      3726      3726      3731      3731      3732      3731      3733
      3731      3734      3734      3735      3734      3736      3734      3737
      3726      3727      3727      3728      3727      3729      3727      3730
      3716      3718      3718      3719      3718      3720      3718      3721
      3721      3722      3721      3723      3721      3724      3724      3725
      3724      3726      3724      3750      3750      3751      3750      3752
      3752      3753      3752      3754      3752      3755      3750      3756
      3756      3757      3756      3758      3756      3759      3759      3760
      3759      3761      3759      3762      3762      3763      3762      3764
      3762      3765      3765      3766      3765      3767      3767      3768
      3767      3769      3767      3770      3765      3771      3771      3772
      3771      3773      3771      3774     18918     18919     18918     18920
     18918     18921     18918     18922     18922     18923     18922     18924
     18922     18925     18925     18926     18925     18927     18925     18931
     18933     18932     18931     18928     18928     18932     18928     18929
     18928     18930     18933     18934     18933     18935     18933     18936
     18936     18937     18936     18944     18936     18938     18944     18945
     18944     18946     18944     18947     18938     18939     18939     18941
     18939     18940     18941     18942     18941     18943     18941     18953
     18953     18954     18953     18955     18953     18956     18956     18957
     18956     18958     18956     18959     18959     18960     18959     18961
     18961     18962     18961     18963     18963     18964     18963     18965
     18963     18966     18966     18967     18966     18968     18968     18969
     18968     18970     18970     18971     18970     18972     18970     18973
     18973     18974     18973     18975     18975     18976     18975     18977
     18977     18978     18977     18979     18977     18980     18980     18981
     18980     18982     18982     18983     18982     18984     18984     18985
     18984     18986     18984     18987     18987     18988     18987     18989
     18987     18990     18990     18991     18990     18992     18990     18993
     18993     18994     18993     18995     18993     18996     18996     18997
     18996     18998     18996     18999     18947     18948     18948     18950
     18948     18949     18950     18951     18950     18952     18950     19000
     19000     19001     19000     19002     19000     19003     19003     19004
     19003     19005     19003     19006     19006     19007     19006     19008
     19006     19009     19009     19010     19009     19011     19009     19012
     19012     19013     19012     19014     19012     19015     19015     19016
     19015     19017     19015     19018     19018     19019     19018     19020
     19018     19021     19021     19022     19021     19023     19021     19024
     19024     19025     19024     19026     19024     19027     19027     19028
     19027     19029     19027     19030     19030     19031     19030     19032
     19030     19033     19033     19034     19033     19035     19033     19036
     19036     19037     19036     19038     19036     19039     19039     19040
     19039     19041     19039     19042     19042     19043     19042     19044
     19042     19045     19045     19046     19045     19047     19045     19048
      3775      3777      3775      3776      3777      3778      3775      3821
      3821      3822      3821      3823      3821      3818      3818      3819
      3818      3820      3775      3779      3779      3780      3779      3781
      3779      3782      3782      3813      3813      3818      3813      3814
      3814      3815      3814      3816      3814      3817      3782      3783
      3783      3784      3783      3785      3785      3786      3785      3787
      3785      3788      3788      3789      3788      3811      3811      3812
      3811      3813      3788      3790      3790      3791      3790      3800
      3800      3805      3805      3806      3805      3807      3805      3808
      3808      3809      3808      3810      3808      3811      3800      3801
      3801      3802      3801      3803      3801      3804      3790      3792
      3792      3793      3792      3794      3792      3795      3795      3796
      3795      3797      3795      3798      3798      3799      3798      3800
      3798      3824      3824      3825      3824      3826      3826      3827
      3826      3828      3826      3829      3824      3830      3830      3831
      3830      3832      3830      3833      3833      3834      3833      3835
      3833      3836      3836      3837      3836      3838      3836      3839
      3839      3840      3839      3841      3841      3842      3841      3843
      3841      3844      3839      3845      3845      3846      3845      3847
      3845      3848     15325     15326     15325     15327     15325     15328
     15325     15322     15322     15323     15322     15324     15322     15319
     15319     15320     15319     15321     15319     15316     15316     15317
     15316     15318     15316     15313     15313     15314     15313     15315
     15313     15310     15310     15311     15310     15312     15310     15307
     15307     15308     15307     15309     15307     15304     15304     15305
     15304     15306     15304     15301     15301     15302     15301     15303
     15301     15298     15298     15299     15298     15300     15298     15295
     15295     15296     15295     15297     15295     15292     15292     15293
     15292     15294     15292     15289     15289     15290     15289     15291
     15289     15287     15287     15288     15285     15286     15285     15281
     15281     15282     15281     15283     15283     15284     15281     15279
     15279     15280     15279     15274     15274     15275     15274     15276
     15274     15272     15272     15269     15273     15269     15270     15269
     15271     15269     15273     15266     15266     15267     15266     15268
     15266     15263     15263     15264     15263     15265     15263     15250
     15250     15259     15250     15255     15250     15251     15259     15260
     15259     15261     15259     15262     15255     15256     15255     15257
     15255     15258     15251     15252     15251     15253     15251     15254
     15279     15277     15277     15278     15277     15329     15329     15331
     15331     15332     15331     15333     15331     15334     15334     15335
     15334     15336     15334     15337     15337     15338     15337     15339
     15337     15340     15340     15341     15340     15342     15340     15343
     15343     15344     15343     15345     15343     15346     15346     15347
     15346     15348     15346     15349     15349     15350     15349     15351
     15349     15352     15352     15353     15354     15355     15354     15356
     15356     15357     15356     15358     15356     15359     15359     15360
     15359     15361     15359     15362     15362     15363     15362     15364
     15362     15365     15365     15366     15365     15367     15365     15368
     15368     15369     15368     15370     15368     15371     15371     15372
     15371     15373     15371     15374     15374     15375     15374     15376
     15374     15377     15377     15378     15377     15379     15377     15380
     15285     15287     15352     15354     15329     15330     15456     15457
     15456     15458     15456     15459     15456     15453     15453     15454
     15453     15455     15453     15450     15450     15451     15450     15452
     15450     15447     15447     15448     15447     15449     15447     15444
     15444     15445     15444     15446     15444     15441     15441     15442
     15441     15443     15441     15438     15438     15439     15438     15440
     15438     15435     15435     15436     15435     15437     15435     15432
     15432     15433     15432     15434     15432     15429     15429     15430
     15429     15431     15429     15426     15426     15427     15426     15428
     15426     15423     15423     15424     15423     15425     15423     15420
     15420     15421     15420     15422     15420     15418     15418     15419
     15416     15417     15416     15412     15412     15413     15412     15414
     15414     15415     15412     15410     15410     15411     15410     15405
     15405     15406     15405     15407     15405     15403     15403     15400
     15404     15400     15401     15400     15402     15400     15404     15397
     15397     15398     15397     15399     15397     15394     15394     15395
     15394     15396     15394     15381     15381     15390     15381     15386
     15381     15382     15390     15391     15390     15392     15390     15393
     15386     15387     15386     15388     15386     15389     15382     15383
     15382     15384     15382     15385     15410     15408     15408     15409
     15408     15460     15460     15462     15462     15463     15462     15464
     15462     15465     15465     15466     15465     15467     15465     15468
     15468     15469     15468     15470     15468     15471     15471     15472
     15471     15473     15471     15474     15474     15475     15474     15476
     15474     15477     15477     15478     15477     15479     15477     15480
     15480     15481     15480     15482     15480     15483     15483     15484
     15485     15486     15485     15487     15487     15488     15487     15489
     15487     15490     15490     15491     15490     15492     15490     15493
     15493     15494     15493     15495     15493     15496     15496     15497
     15496     15498     15496     15499     15499     15500     15499     15501
     15499     15502     15502     15503     15502     15504     15502     15505
     15505     15506     15505     15507     15505     15508     15508     15509
     15508     15510     15508     15511     15416     15418     15483     15485
     15460     15461      3849      3851      3849      3850      3851      3852
      3849      3895      3895      3896      3895      3897      3895      3892
      3892      3893      3892      3894      3849      3853      3853      3854
      3853      3855      3853      3856      3856      3887      3887      3892
      3887      3888      3888      3889      3888      3890      3888      3891
      3856      3857      3857      3858      3857      3859      3859      3860
      3859      3861      3859      3862      3862      3863      3862      3885
      3885      3886      3885      3887      3862      3864      3864      3865
      3864      3874      3874      3879      3879      3880      3879      3881
      3879      3882      3882      3883      3882      3884      3882      3885
      3874      3875      3875      3876      3875      3877      3875      3878
      3864      3866      3866      3867      3866      3868      3866      3869
      3869      3870      3869      3871      3869      3872      3872      3873
      3872      3874      3872      3898      3898      3899      3898      3900
      3900      3901      3900      3902      3900      3903      3898      3904
      3904      3905      3904      3906      3904      3907      3907      3908
      3907      3909      3907      3910      3910      3911      3910      3912
      3910      3913      3913      3914      3913      3915      3915      3916
      3915      3917      3915      3918      3913      3919      3919      3920
      3919      3921      3919      3922      3923      3925      3923      3924
      3925      3926      3923      3969      3969      3970      3969      3971
      3969      3966      3966      3967      3966      3968      3923      3927
      3927      3928      3927      3929      3927      3930      3930      3961
      3961      3966      3961      3962      3962      3963      3962      3964
      3962      3965      3930      3931      3931      3932      3931      3933
      3933      3934      3933      3935      3933      3936      3936      3937
      3936      3959      3959      3960      3959      3961      3936      3938
      3938      3939      3938      3948      3948      3953      3953      3954
      3953      3955      3953      3956      3956      3957      3956      3958
      3956      3959      3948      3949      3949      3950      3949      3951
      3949      3952      3938      3940      3940      3941      3940      3942
      3940      3943      3943      3944      3943      3945      3943      3946
      3946      3947      3946      3948      3946      3972      3972      3973
      3972      3974      3974      3975      3974      3976      3974      3977
      3972      3978      3978      3979      3978      3980      3978      3981
      3981      3982      3981      3983      3981      3984      3984      3985
      3984      3986      3984      3987      3987      3988      3987      3989
      3989      3990      3989      3991      3989      3992      3987      3993
      3993      3994      3993      3995      3993      3996     19049     19050
     19049     19051     19049     19052     19049     19053     19053     19054
     19053     19055     19053     19056     19056     19057     19056     19058
     19056     19062     19064     19063     19062     19059     19059     19063
     19059     19060     19059     19061     19064     19065     19064     19066
     19064     19067     19067     19068     19067     19075     19067     19069
     19075     19076     19075     19077     19075     19078     19069     19070
     19070     19072     19070     19071     19072     19073     19072     19074
     19072     19084     19084     19085     19084     19086     19084     19087
     19087     19088     19087     19089     19087     19090     19090     19091
     19090     19092     19092     19093     19092     19094     19094     19095
     19094     19096     19094     19097     19097     19098     19097     19099
     19099     19100     19099     19101     19101     19102     19101     19103
     19101     19104     19104     19105     19104     19106     19106     19107
     19106     19108     19108     19109     19108     19110     19108     19111
     19111     19112     19111     19113     19113     19114     19113     19115
     19115     19116     19115     19117     19115     19118     19118     19119
     19118     19120     19118     19121     19121     19122     19121     19123
     19121     19124     19124     19125     19124     19126     19124     19127
     19127     19128     19127     19129     19127     19130     19078     19079
     19079     19081     19079     19080     19081     19082     19081     19083
     19081     19131     19131     19132     19131     19133     19131     19134
     19134     19135     19134     19136     19134     19137     19137     19138
     19137     19139     19137     19140     19140     19141     19140     19142
     19140     19143     19143     19144     19143     19145     19143     19146
     19146     19147     19146     19148     19146     19149     19149     19150
     19149     19151     19149     19152     19152     19153     19152     19154
     19152     19155     19155     19156     19155     19157     19155     19158
     19158     19159     19158     19160     19158     19161     19161     19162
     19161     19163     19161     19164     19164     19165     19164     19166
     19164     19167     19167     19168     19167     19169     19167     19170
     19170     19171     19170     19172     19170     19173     19173     19174
     19173     19175     19173     19176     19176     19177     19176     19178
     19176     19179      7343      7344      7343      7348      7343      7352
      7344      7345      7344      7346      7344      7347      7348      7349
      7348      7350      7348      7351      7352      7353      7352      7354
      7352      7355      7343      7356      7356      7357      7356      7358
      7356      7359      7359      7360      7359      7361      7359      7365
      7366      7367      7365      7362      7362      7366      7362      7363
      7362      7364      7367      7368      7367      7369      7367      7370
      7370      7371      7370      7378      7370      7372      7378      7379
      7378      7380      7378      7381      7372      7373      7373      7375
      7373      7374      7375      7376      7375      7377      7375      7387
      7387      7388      7387      7389      7387      7390      7390      7391
      7390      7392      7390      7393      7393      7394      7393      7395
      7393      7396      7396      7397      7396      7398      7396      7399
      7399      7400      7399      7401      7399      7402      7402      7403
      7402      7404      7402      7405      7405      7406      7405      7407
      7407      7408      7407      7409      7409      7410      7409      7411
      7409      7412      7412      7413      7412      7414      7414      7415
      7414      7416      7416      7417      7416      7418      7416      7419
      7419      7420      7419      7421      7419      7422      7422      7423
      7422      7424      7422      7425      7425      7426      7425      7427
      7425      7428      7428      7429      7428      7430      7428      7431
      7381      7382      7382      7384      7382      7383      7384      7385
      7384      7386      7384      7432      7432      7433      7432      7434
      7432      7435      7435      7436      7435      7437      7435      7438
      7438      7439      7438      7440      7438      7441      7441      7442
      7441      7443      7441      7444      7444      7445      7444      7446
      7444      7447      7447      7448      7447      7449      7447      7450
      7450      7451      7450      7452      7450      7453      7453      7454
      7453      7455      7453      7456      7456      7457      7456      7458
      7456      7459      7459      7460      7459      7461      7459      7462
      7462      7463      7462      7464      7462      7465      7465      7466
      7465      7467      7465      7468      7468      7469      7468      7470
      7468      7471      7471      7472      7471      7473      7471      7474
      7474      7475      7474      7476      7474      7477      7477      7478
      7477      7479      7477      7480     15587     15588     15587     15589
     15587     15590     15587     15584     15584     15585     15584     15586
     15584     15581     15581     15582     15581     15583     15581     15578
     15578     15579     15578     15580     15578     15575     15575     15576
     15575     15577     15575     15572     15572     15573     15572     15574
     15572     15569     15569     15570     15569     15571     15569     15566
     15566     15567     15566     15568     15566     15563     15563     15564
     15563     15565     15563     15560     15560     15561     15560     15562
     15560     15557     15557     15558     15557     15559     15557     15554
     15554     15555     15554     15556     15554     15551     15551     15552
     15551     15553     15551     15549     15549     15550     15547     15548
     15547     15543     15543     15544     15543     15545     15545     15546
     15543     15541     15541     15542     15541     15536     15536     15537
     15536     15538     15536     15534     15534     15531     15535     15531
     15532     15531     15533     15531     15535     15528     15528     15529
     15528     15530     15528     15525     15525     15526     15525     15527
     15525     15512     15512     15521     15512     15517     15512     15513
     15521     15522     15521     15523     15521     15524     15517     15518
     15517     15519     15517     15520     15513     15514     15513     15515
     15513     15516     15541     15539     15539     15540     15539     15591
     15591     15593     15593     15594     15593     15595     15593     15596
     15596     15597     15596     15598     15596     15599     15599     15600
     15599     15601     15599     15602     15602     15603     15602     15604
     15602     15605     15605     15606     15605     15607     15605     15608
     15608     15609     15608     15610     15608     15611     15611     15612
     15611     15613     15611     15614     15614     15615     15616     15617
     15616     15618     15618     15619     15618     15620     15618     15621
     15621     15622     15621     15623     15621     15624     15624     15625
     15624     15626     15624     15627     15627     15628     15627     15629
     15627     15630     15630     15631     15630     15632     15630     15633
     15633     15634     15633     15635     15633     15636     15636     15637
     15636     15638     15636     15639     15639     15640     15639     15641
     15639     15642     15547     15549     15614     15616     15591     15592
      3997      3999      3997      3998      3999      4000      3997      4043
      4043      4044      4043      4045      4043      4040      4040      4041
      4040      4042      3997      4001      4001      4002      4001      4003
      4001      4004      4004      4035      4035      4040      4035      4036
      4036      4037      4036      4038      4036      4039      4004      4005
      4005      4006      4005      4007      4007      4008      4007      4009
      4007      4010      4010      4011      4010      4033      4033      4034
      4033      4035      4010      4012      4012      4013      4012      4022
      4022      4027      4027      4028      4027      4029      4027      4030
      4030      4031      4030      4032      4030      4033      4022      4023
      4023      4024      4023      4025      4023      4026      4012      4014
      4014      4015      4014      4016      4014      4017      4017      4018
      4017      4019      4017      4020      4020      4021      4020      4022
      4020      4046      4046      4047      4046      4048      4048      4049
      4048      4050      4048      4051      4046      4052      4052      4053
      4052      4054      4052      4055      4055      4056      4055      4057
      4055      4058      4058      4059      4058      4060      4058      4061
      4061      4062      4061      4063      4063      4064      4063      4065
      4063      4066      4061      4067      4067      4068      4067      4069
      4067      4070      9875      9876      9875      9877      9875      9878
      9875      9879      9883      9881      9881      9879      9881      9882
      9879      9880      9879      9884      9892      9891      9884      9885
      9884      9886      9884      9890      9890      9887      9887      9891
      9887      9888      9887      9889      9892      9893      9892      9894
      9892      9895      9895      9896      9895      9903      9895      9897
      9903      9904      9903      9905      9903      9906      9897      9898
      9898      9900      9898      9899      9900      9901      9900      9902
      9900      9912      9912      9913      9912      9914      9912      9915
      9915      9916      9915      9917      9915      9918      9918      9919
      9918      9920      9920      9921      9920      9922      9922      9923
      9922      9924      9922      9925      9925      9926      9925      9927
      9927      9928      9927      9929      9929      9930      9929      9931
      9929      9932      9932      9933      9932      9934      9934      9935
      9934      9936      9936      9937      9936      9938      9936      9939
      9939      9940      9939      9941      9941      9942      9941      9943
      9943      9944      9943      9945      9943      9946      9946      9947
      9946      9948      9946      9949      9949      9950      9949      9951
      9949      9952      9952      9953      9952      9954      9952      9955
      9955      9956      9955      9957      9955      9958      9906      9907
      9907      9909      9907      9908      9909      9910      9909      9911
      9909      9959      9959      9960      9959      9961      9959      9962
      9962      9963      9962      9964      9962      9965      9965      9966
      9965      9967      9965      9968      9968      9969      9968      9970
      9968      9971      9971      9972      9971      9973      9971      9974
      9974      9975      9974      9976      9974      9977      9977      9978
      9977      9979      9977      9980      9980      9981      9980      9982
      9980      9983      9983      9984      9983      9985      9983      9986
      9986      9987      9986      9988      9986      9989      9989      9990
      9989      9991      9989      9992      9992      9993      9992      9994
      9992      9995      9995      9996      9995      9997      9995      9998
      9998      9999      9998     10000      9998     10001     10001     10002
     10001     10003     10001     10004     10004     10005     10004     10006
     10004     10007     10008     10009     10008     10010     10008     10011
     10008     10012     10016     10014     10014     10012     10014     10015
     10012     10013     10012     10017     10025     10024     10017     10018
     10017     10019     10017     10023     10023     10020     10020     10024
     10020     10021     10020     10022     10025     10026     10025     10027
     10025     10028     10028     10029     10028     10036     10028     10030
     10036     10037     10036     10038     10036     10039     10030     10031
     10031     10033     10031     10032     10033     10034     10033     10035
     10033     10045     10045     10046     10045     10047     10045     10048
     10048     10049     10048     10050     10048     10051     10051     10052
     10051     10053     10053     10054     10053     10055     10055     10056
     10055     10057     10055     10058     10058     10059     10058     10060
     10060     10061     10060     10062     10062     10063     10062     10064
     10062     10065     10065     10066     10065     10067     10067     10068
     10067     10069     10069     10070     10069     10071     10069     10072
     10072     10073     10072     10074     10074     10075     10074     10076
     10076     10077     10076     10078     10076     10079     10079     10080
     10079     10081     10079     10082     10082     10083     10082     10084
     10082     10085     10085     10086     10085     10087     10085     10088
     10088     10089     10088     10090     10088     10091     10039     10040
     10040     10042     10040     10041     10042     10043     10042     10044
     10042     10092     10092     10093     10092     10094     10092     10095
     10095     10096     10095     10097     10095     10098     10098     10099
     10098     10100     10098     10101     10101     10102     10101     10103
     10101     10104     10104     10105     10104     10106     10104     10107
     10107     10108     10107     10109     10107     10110     10110     10111
     10110     10112     10110     10113     10113     10114     10113     10115
     10113     10116     10116     10117     10116     10118     10116     10119
     10119     10120     10119     10121     10119     10122     10122     10123
     10122     10124     10122     10125     10125     10126     10125     10127
     10125     10128     10128     10129     10128     10130     10128     10131
     10131     10132     10131     10133     10131     10134     10134     10135
     10134     10136     10134     10137     10137     10138     10137     10139
     10137     10140     19180     19181     19180     19182     19180     19183
     19180     19184     19184     19185     19184     19186     19184     19187
     19187     19188     19187     19189     19187     19193     19195     19194
     19193     19190     19190     19194     19190     19191     19190     19192
     19195     19196     19195     19197     19195     19198     19198     19199
     19198     19206     19198     19200     19206     19207     19206     19208
     19206     19209     19200     19201     19201     19203     19201     19202
     19203     19204     19203     19205     19203     19215     19215     19216
     19215     19217     19215     19218     19218     19219     19218     19220
     19218     19221     19221     19222     19221     19223     19223     19224
     19223     19225     19225     19226     19225     19227     19225     19228
     19228     19229     19228     19230     19230     19231     19230     19232
     19232     19233     19232     19234     19232     19235     19235     19236
     19235     19237     19237     19238     19237     19239     19239     19240
     19239     19241     19239     19242     19242     19243     19242     19244
     19244     19245     19244     19246     19246     19247     19246     19248
     19246     19249     19249     19250     19249     19251     19249     19252
     19252     19253     19252     19254     19252     19255     19255     19256
     19255     19257     19255     19258     19258     19259     19258     19260
     19258     19261     19209     19210     19210     19212     19210     19211
     19212     19213     19212     19214     19212     19262     19262     19263
     19262     19264     19262     19265     19265     19266     19265     19267
     19265     19268     19268     19269     19268     19270     19268     19271
     19271     19272     19271     19273     19271     19274     19274     19275
     19274     19276     19274     19277     19277     19278     19277     19279
     19277     19280     19280     19281     19280     19282     19280     19283
     19283     19284     19283     19285     19283     19286     19286     19287
     19286     19288     19286     19289     19289     19290     19289     19291
     19289     19292     19292     19293     19292     19294     19292     19295
     19295     19296     19295     19297     19295     19298     19298     19299
     19298     19300     19298     19301     19301     19302     19301     19303
     19301     19304     19304     19305     19304     19306     19304     19307
     19307     19308     19307     19309     19307     19310     15718     15719
     15718     15720     15718     15721     15718     15715     15715     15716
     15715     15717     15715     15712     15712     15713     15712     15714
     15712     15709     15709     15710     15709     15711     15709     15706
     15706     15707     15706     15708     15706     15703     15703     15704
     15703     15705     15703     15700     15700     15701     15700     15702
     15700     15697     15697     15698     15697     15699     15697     15694
     15694     15695     15694     15696     15694     15691     15691     15692
     15691     15693     15691     15688     15688     15689     15688     15690
     15688     15685     15685     15686     15685     15687     15685     15682
     15682     15683     15682     15684     15682     15680     15680     15681
     15678     15679     15678     15674     15674     15675     15674     15676
     15676     15677     15674     15672     15672     15673     15672     15667
     15667     15668     15667     15669     15667     15665     15665     15662
     15666     15662     15663     15662     15664     15662     15666     15659
     15659     15660     15659     15661     15659     15656     15656     15657
     15656     15658     15656     15643     15643     15652     15643     15648
     15643     15644     15652     15653     15652     15654     15652     15655
     15648     15649     15648     15650     15648     15651     15644     15645
     15644     15646     15644     15647     15672     15670     15670     15671
     15670     15722     15722     15724     15724     15725     15724     15726
     15724     15727     15727     15728     15727     15729     15727     15730
     15730     15731     15730     15732     15730     15733     15733     15734
     15733     15735     15733     15736     15736     15737     15736     15738
     15736     15739     15739     15740     15739     15741     15739     15742
     15742     15743     15742     15744     15742     15745     15745     15746
     15747     15748     15747     15749     15749     15750     15749     15751
     15749     15752     15752     15753     15752     15754     15752     15755
     15755     15756     15755     15757     15755     15758     15758     15759
     15758     15760     15758     15761     15761     15762     15761     15763
     15761     15764     15764     15765     15764     15766     15764     15767
     15767     15768     15767     15769     15767     15770     15770     15771
     15770     15772     15770     15773     15678     15680     15745     15747
     15722     15723     15849     15850     15849     15851     15849     15852
     15849     15846     15846     15847     15846     15848     15846     15843
     15843     15844     15843     15845     15843     15840     15840     15841
     15840     15842     15840     15837     15837     15838     15837     15839
     15837     15834     15834     15835     15834     15836     15834     15831
     15831     15832     15831     15833     15831     15828     15828     15829
     15828     15830     15828     15825     15825     15826     15825     15827
     15825     15822     15822     15823     15822     15824     15822     15819
     15819     15820     15819     15821     15819     15816     15816     15817
     15816     15818     15816     15813     15813     15814     15813     15815
     15813     15811     15811     15812     15809     15810     15809     15805
     15805     15806     15805     15807     15807     15808     15805     15803
     15803     15804     15803     15798     15798     15799     15798     15800
     15798     15796     15796     15793     15797     15793     15794     15793
     15795     15793     15797     15790     15790     15791     15790     15792
     15790     15787     15787     15788     15787     15789     15787     15774
     15774     15783     15774     15779     15774     15775     15783     15784
     15783     15785     15783     15786     15779     15780     15779     15781
     15779     15782     15775     15776     15775     15777     15775     15778
     15803     15801     15801     15802     15801     15853     15853     15855
     15855     15856     15855     15857     15855     15858     15858     15859
     15858     15860     15858     15861     15861     15862     15861     15863
     15861     15864     15864     15865     15864     15866     15864     15867
     15867     15868     15867     15869     15867     15870     15870     15871
     15870     15872     15870     15873     15873     15874     15873     15875
     15873     15876     15876     15877     15878     15879     15878     15880
     15880     15881     15880     15882     15880     15883     15883     15884
     15883     15885     15883     15886     15886     15887     15886     15888
     15886     15889     15889     15890     15889     15891     15889     15892
     15892     15893     15892     15894     15892     15895     15895     15896
     15895     15897     15895     15898     15898     15899     15898     15900
     15898     15901     15901     15902     15901     15903     15901     15904
     15809     15811     15876     15878     15853     15854     19311     19312
     19311     19313     19311     19314     19311     19315     19315     19316
     19315     19317     19315     19318     19318     19319     19318     19320
     19318     19324     19326     19325     19324     19321     19321     19325
     19321     19322     19321     19323     19326     19327     19326     19328
     19326     19329     19329     19330     19329     19337     19329     19331
     19337     19338     19337     19339     19337     19340     19331     19332
     19332     19334     19332     19333     19334     19335     19334     19336
     19334     19346     19346     19347     19346     19348     19346     19349
     19349     19350     19349     19351     19349     19352     19352     19353
     19352     19354     19354     19355     19354     19356     19356     19357
     19356     19358     19356     19359     19359     19360     19359     19361
     19361     19362     19361     19363     19363     19364     19363     19365
     19363     19366     19366     19367     19366     19368     19368     19369
     19368     19370     19370     19371     19370     19372     19370     19373
     19373     19374     19373     19375     19375     19376     19375     19377
     19377     19378     19377     19379     19377     19380     19380     19381
     19380     19382     19380     19383     19383     19384     19383     19385
     19383     19386     19386     19387     19386     19388     19386     19389
     19389     19390     19389     19391     19389     19392     19340     19341
     19341     19343     19341     19342     19343     19344     19343     19345
     19343     19393     19393     19394     19393     19395     19393     19396
     19396     19397     19396     19398     19396     19399     19399     19400
     19399     19401     19399     19402     19402     19403     19402     19404
     19402     19405     19405     19406     19405     19407     19405     19408
     19408     19409     19408     19410     19408     19411     19411     19412
     19411     19413     19411     19414     19414     19415     19414     19416
     19414     19417     19417     19418     19417     19419     19417     19420
     19420     19421     19420     19422     19420     19423     19423     19424
     19423     19425     19423     19426     19426     19427     19426     19428
     19426     19429     19429     19430     19429     19431     19429     19432
     19432     19433     19432     19434     19432     19435     19435     19436
     19435     19437     19435     19438     19438     19439     19438     19440
     19438     19441     19442     19443     19442     19444     19442     19445
     19442     19446     19446     19447     19446     19448     19446     19449
     19449     19450     19449     19451     19449     19455     19457     19456
     19455     19452     19452     19456     19452     19453     19452     19454
     19457     19458     19457     19459     19457     19460     19460     19461
     19460     19468     19460     19462     19468     19469     19468     19470
     19468     19471     19462     19463     19463     19465     19463     19464
     19465     19466     19465     19467     19465     19477     19477     19478
     19477     19479     19477     19480     19480     19481     19480     19482
     19480     19483     19483     19484     19483     19485     19485     19486
     19485     19487     19487     19488     19487     19489     19487     19490
     19490     19491     19490     19492     19492     19493     19492     19494
     19494     19495     19494     19496     19494     19497     19497     19498
     19497     19499     19499     19500     19499     19501     19501     19502
     19501     19503     19501     19504     19504     19505     19504     19506
     19506     19507     19506     19508     19508     19509     19508     19510
     19508     19511     19511     19512     19511     19513     19511     19514
     19514     19515     19514     19516     19514     19517     19517     19518
     19517     19519     19517     19520     19520     19521     19520     19522
     19520     19523     19471     19472     19472     19474     19472     19473
     19474     19475     19474     19476     19474     19524     19524     19525
     19524     19526     19524     19527     19527     19528     19527     19529
     19527     19530     19530     19531     19530     19532     19530     19533
     19533     19534     19533     19535     19533     19536     19536     19537
     19536     19538     19536     19539     19539     19540     19539     19541
     19539     19542     19542     19543     19542     19544     19542     19545
     19545     19546     19545     19547     19545     19548     19548     19549
     19548     19550     19548     19551     19551     19552     19551     19553
     19551     19554     19554     19555     19554     19556     19554     19557
     19557     19558     19557     19559     19557     19560     19560     19561
     19560     19562     19560     19563     19563     19564     19563     19565
     19563     19566     19566     19567     19566     19568     19566     19569
     19569     19570     19569     19571     19569     19572      4071      4073
      4071      4072      4073      4074      4071      4117      4117      4118
      4117      4119      4117      4114      4114      4115      4114      4116
      4071      4075      4075      4076      4075      4077      4075      4078
      4078      4109      4109      4114      4109      4110      4110      4111
      4110      4112      4110      4113      4078      4079      4079      4080
      4079      4081      4081      4082      4081      4083      4081      4084
      4084      4085      4084      4107      4107      4108      4107      4109
      4084      4086      4086      4087      4086      4096      4096      4101
      4101      4102      4101      4103      4101      4104      4104      4105
      4104      4106      4104      4107      4096      4097      4097      4098
      4097      4099      4097      4100      4086      4088      4088      4089
      4088      4090      4088      4091      4091      4092      4091      4093
      4091      4094      4094      4095      4094      4096      4094      4120
      4120      4121      4120      4122      4122      4123      4122      4124
      4122      4125      4120      4126      4126      4127      4126      4128
      4126      4129      4129      4130      4129      4131      4129      4132
      4132      4133      4132      4134      4132      4135      4135      4136
      4135      4137      4137      4138      4137      4139      4137      4140
      4135      4141      4141      4142      4141      4143      4141      4144
     22383     22384     22383     22385     22384     22385     22386     22387
     22386     22388     22387     22388     22389     22390     22389     22391
     22390     22391     22392     22393     22392     22394     22393     22394
     22395     22396     22395     22397     22396     22397     22398     22399
     22398     22400     22399     22400     22401     22402     22401     22403
     22402     22403     22404     22405     22404     22406     22405     22406
     22407     22408     22407     22409     22408     22409     22410     22411
     22410     22412     22411     22412     22413     22414     22413     22415
     22414     22415     22416     22417     22416     22418     22417     22418
     22419     22420     22419     22421     22420     22421     22422     22423
     22422     22424     22423     22424     22425     22426     22425     22427
     22426     22427     22428     22429     22428     22430     22429     22430
     22431     22432     22431     22433     22432     22433     22434     22435
     22434     22436     22435     22436     22437     22438     22437     22439
     22438     22439     22440     22441     22440     22442     22441     22442
     22443     22444     22443     22445     22444     22445     22446     22447
     22446     22448     22447     22448     22449     22450     22449     22451
     22450     22451     22452     22453     22452     22454     22453     22454
     22455     22456     22455     22457     22456     22457     22458     22459
     22458     22460     22459     22460     22461     22462     22461     22463
     22462     22463     22464     22465     22464     22466     22465     22466
     22467     22468     22467     22469     22468     22469     22470     22471
     22470     22472     22471     22472     22473     22474     22473     22475
     22474     22475     22476     22477     22476     22478     22477     22478
     22479     22480     22479     22481     22480     22481     22482     22483
     22482     22484     22483     22484     22485     22486     22485     22487
     22486     22487     22488     22489     22488     22490     22489     22490
     22491     22492     22491     22493     22492     22493     22494     22495
     22494     22496     22495     22496     22497     22498     22497     22499
     22498     22499     22500     22501     22500     22502     22501     22502
     22503     22504     22503     22505     22504     22505     22506     22507
     22506     22508     22507     22508     22509     22510     22509     22511
     22510     22511     22512     22513     22512     22514     22513     22514
     22515     22516     22515     22517     22516     22517     22518     22519
     22518     22520     22519     22520     22521     22522     22521     22523
     22522     22523     22524     22525     22524     22526     22525     22526
     22527     22528     22527     22529     22528     22529     22530     22531
     22530     22532     22531     22532     22533     22534     22533     22535
     22534     22535     22536     22537     22536     22538     22537     22538
     22539     22540     22539     22541     22540     22541     22542     22543
     22542     22544     22543     22544     22545     22546     22545     22547
     22546     22547     22548     22549     22548     22550     22549     22550
     22551     22552     22551     22553     22552     22553     22554     22555
     22554     22556     22555     22556     22557     22558     22557     22559
     22558     22559     22560     22561     22560     22562     22561     22562
     22563     22564     22563     22565     22564     22565     22566     22567
     22566     22568     22567     22568     22569     22570     22569     22571
     22570     22571     22572     22573     22572     22574     22573     22574
     22575     22576     22575     22577     22576     22577     22578     22579
     22578     22580     22579     22580     22581     22582     22581     22583
     22582     22583     22584     22585     22584     22586     22585     22586
     22587     22588     22587     22589     22588     22589     22590     22591
     22590     22592     22591     22592     22593     22594     22593     22595
     22594     22595     22596     22597     22596     22598     22597     22598
     22599     22600     22599     22601     22600     22601     22602     22603
     22602     22604     22603     22604     22605     22606     22605     22607
     22606     22607     22608     22609     22608     22610     22609     22610
     22611     22612     22611     22613     22612     22613     22614     22615
     22614     22616     22615     22616     22617     22618     22617     22619
     22618     22619     22620     22621     22620     22622     22621     22622
     22623     22624     22623     22625     22624     22625     22626     22627
     22626     22628     22627     22628     22629     22630     22629     22631
     22630     22631     22632     22633     22632     22634     22633     22634
     22635     22636     22635     22637     22636     22637     22638     22639
     22638     22640     22639     22640     22641     22642     22641     22643
     22642     22643     22644     22645     22644     22646     22645     22646
     22647     22648     22647     22649     22648     22649     22650     22651
     22650     22652     22651     22652     22653     22654     22653     22655
     22654     22655     22656     22657     22656     22658     22657     22658
     22659     22660     22659     22661     22660     22661     22662     22663
     22662     22664     22663     22664     22665     22666     22665     22667
     22666     22667     22668     22669     22668     22670     22669     22670
     22671     22672     22671     22673     22672     22673     22674     22675
     22674     22676     22675     22676     22677     22678     22677     22679
     22678     22679     22680     22681     22680     22682     22681     22682
     22683     22684     22683     22685     22684     22685     22686     22687
     22686     22688     22687     22688     22689     22690     22689     22691
     22690     22691     22692     22693     22692     22694     22693     22694
     22695     22696     22695     22697     22696     22697     22698     22699
     22698     22700     22699     22700     22701     22702     22701     22703
     22702     22703     22704     22705     22704     22706     22705     22706
     22707     22708     22707     22709     22708     22709     22710     22711
     22710     22712     22711     22712     22713     22714     22713     22715
     22714     22715     22716     22717     22716     22718     22717     22718
     22719     22720     22719     22721     22720     22721     22722     22723
     22722     22724     22723     22724     22725     22726     22725     22727
     22726     22727     22728     22729     22728     22730     22729     22730
     22731     22732     22731     22733     22732     22733     22734     22735
     22734     22736     22735     22736     22737     22738     22737     22739
     22738     22739     22740     22741     22740     22742     22741     22742
     22743     22744     22743     22745     22744     22745     22746     22747
     22746     22748     22747     22748     22749     22750     22749     22751
     22750     22751     22752     22753     22752     22754     22753     22754
     22755     22756     22755     22757     22756     22757     22758     22759
     22758     22760     22759     22760     22761     22762     22761     22763
     22762     22763     22764     22765     22764     22766     22765     22766
     22767     22768     22767     22769     22768     22769     22770     22771
     22770     22772     22771     22772     22773     22774     22773     22775
     22774     22775     22776     22777     22776     22778     22777     22778
     22779     22780     22779     22781     22780     22781     22782     22783
     22782     22784     22783     22784     22785     22786     22785     22787
     22786     22787     22788     22789     22788     22790     22789     22790
     22791     22792     22791     22793     22792     22793     22794     22795
     22794     22796     22795     22796     22797     22798     22797     22799
     22798     22799     22800     22801     22800     22802     22801     22802
     22803     22804     22803     22805     22804     22805     22806     22807
     22806     22808     22807     22808     22809     22810     22809     22811
     22810     22811     22812     22813     22812     22814     22813     22814
     22815     22816     22815     22817     22816     22817     22818     22819
     22818     22820     22819     22820     22821     22822     22821     22823
     22822     22823     22824     22825     22824     22826     22825     22826
     22827     22828     22827     22829     22828     22829     22830     22831
     22830     22832     22831     22832     22833     22834     22833     22835
     22834     22835     22836     22837     22836     22838     22837     22838
     22839     22840     22839     22841     22840     22841     22842     22843
     22842     22844     22843     22844     22845     22846     22845     22847
     22846     22847     22848     22849     22848     22850     22849     22850
     22851     22852     22851     22853     22852     22853     22854     22855
     22854     22856     22855     22856     22857     22858     22857     22859
     22858     22859     22860     22861     22860     22862     22861     22862
     22863     22864     22863     22865     22864     22865     22866     22867
     22866     22868     22867     22868     22869     22870     22869     22871
     22870     22871     22872     22873     22872     22874     22873     22874
     22875     22876     22875     22877     22876     22877     22878     22879
     22878     22880     22879     22880     22881     22882     22881     22883
     22882     22883     22884     22885     22884     22886     22885     22886
     22887     22888     22887     22889     22888     22889     22890     22891
     22890     22892     22891     22892     22893     22894     22893     22895
     22894     22895     22896     22897     22896     22898     22897     22898
     22899     22900     22899     22901     22900     22901     22902     22903
     22902     22904     22903     22904     22905     22906     22905     22907
     22906     22907     22908     22909     22908     22910     22909     22910
     22911     22912     22911     22913     22912     22913     22914     22915
     22914     22916     22915     22916     22917     22918     22917     22919
     22918     22919     22920     22921     22920     22922     22921     22922
     22923     22924     22923     22925     22924     22925     22926     22927
     22926     22928     22927     22928     22929     22930     22929     22931
     22930     22931     22932     22933     22932     22934     22933     22934
     22935     22936     22935     22937     22936     22937     22938     22939
     22938     22940     22939     22940     22941     22942     22941     22943
     22942     22943     22944     22945     22944     22946     22945     22946
     22947     22948     22947     22949     22948     22949     22950     22951
     22950     22952     22951     22952     22953     22954     22953     22955
     22954     22955     22956     22957     22956     22958     22957     22958
     22959     22960     22959     22961     22960     22961     22962     22963
     22962     22964     22963     22964     22965     22966     22965     22967
     22966     22967     22968     22969     22968     22970     22969     22970
     22971     22972     22971     22973     22972     22973     22974     22975
     22974     22976     22975     22976     22977     22978     22977     22979
     22978     22979     22980     22981     22980     22982     22981     22982
     22983     22984     22983     22985     22984     22985     22986     22987
     22986     22988     22987     22988     22989     22990     22989     22991
     22990     22991     22992     22993     22992     22994     22993     22994
     22995     22996     22995     22997     22996     22997     22998     22999
     22998     23000     22999     23000     23001     23002     23001     23003
     23002     23003     23004     23005     23004     23006     23005     23006
     23007     23008     23007     23009     23008     23009     23010     23011
     23010     23012     23011     23012     23013     23014     23013     23015
     23014     23015     23016     23017     23016     23018     23017     23018
     23019     23020     23019     23021     23020     23021     23022     23023
     23022     23024     23023     23024     23025     23026     23025     23027
     23026     23027     23028     23029     23028     23030     23029     23030
     23031     23032     23031     23033     23032     23033     23034     23035
     23034     23036     23035     23036     23037     23038     23037     23039
     23038     23039     23040     23041     23040     23042     23041     23042
     23043     23044     23043     23045     23044     23045     23046     23047
     23046     23048     23047     23048     23049     23050     23049     23051
     23050     23051     23052     23053     23052     23054     23053     23054
     23055     23056     23055     23057     23056     23057     23058     23059
     23058     23060     23059     23060     23061     23062     23061     23063
     23062     23063     23064     23065     23064     23066     23065     23066
     23067     23068     23067     23069     23068     23069     23070     23071
     23070     23072     23071     23072     23073     23074     23073     23075
     23074     23075     23076     23077     23076     23078     23077     23078
     23079     23080     23079     23081     23080     23081     23082     23083
     23082     23084     23083     23084     23085     23086     23085     23087
     23086     23087     23088     23089     23088     23090     23089     23090
     23091     23092     23091     23093     23092     23093     23094     23095
     23094     23096     23095     23096     23097     23098     23097     23099
     23098     23099     23100     23101     23100     23102     23101     23102
     23103     23104     23103     23105     23104     23105     23106     23107
     23106     23108     23107     23108     23109     23110     23109     23111
     23110     23111     23112     23113     23112     23114     23113     23114
     23115     23116     23115     23117     23116     23117     23118     23119
     23118     23120     23119     23120     23121     23122     23121     23123
     23122     23123     23124     23125     23124     23126     23125     23126
     23127     23128     23127     23129     23128     23129     23130     23131
     23130     23132     23131     23132     23133     23134     23133     23135
     23134     23135     23136     23137     23136     23138     23137     23138
     23139     23140     23139     23141     23140     23141     23142     23143
     23142     23144     23143     23144     23145     23146     23145     23147
     23146     23147     23148     23149     23148     23150     23149     23150
     23151     23152     23151     23153     23152     23153     23154     23155
     23154     23156     23155     23156     23157     23158     23157     23159
     23158     23159     23160     23161     23160     23162     23161     23162
     23163     23164     23163     23165     23164     23165     23166     23167
     23166     23168     23167     23168     23169     23170     23169     23171
     23170     23171     23172     23173     23172     23174     23173     23174
     23175     23176     23175     23177     23176     23177     23178     23179
     23178     23180     23179     23180     23181     23182     23181     23183
     23182     23183     23184     23185     23184     23186     23185     23186
     23187     23188     23187     23189     23188     23189     23190     23191
     23190     23192     23191     23192     23193     23194     23193     23195
     23194     23195     23196     23197     23196     23198     23197     23198
     23199     23200     23199     23201     23200     23201     23202     23203
     23202     23204     23203     23204     23205     23206     23205     23207
     23206     23207     23208     23209     23208     23210     23209     23210
     23211     23212     23211     23213     23212     23213     23214     23215
     23214     23216     23215     23216     23217     23218     23217     23219
     23218     23219     23220     23221     23220     23222     23221     23222
     23223     23224     23223     23225     23224     23225     23226     23227
     23226     23228     23227     23228     23229     23230     23229     23231
     23230     23231     23232     23233     23232     23234     23233     23234
     23235     23236     23235     23237     23236     23237     23238     23239
     23238     23240     23239     23240     23241     23242     23241     23243
     23242     23243     23244     23245     23244     23246     23245     23246
     23247     23248     23247     23249     23248     23249     23250     23251
     23250     23252     23251     23252     23253     23254     23253     23255
     23254     23255     23256     23257     23256     23258     23257     23258
     23259     23260     23259     23261     23260     23261     23262     23263
     23262     23264     23263     23264     23265     23266     23265     23267
     23266     23267     23268     23269     23268     23270     23269     23270
     23271     23272     23271     23273     23272     23273     23274     23275
     23274     23276     23275     23276     23277     23278     23277     23279
     23278     23279     23280     23281     23280     23282     23281     23282
     23283     23284     23283     23285     23284     23285     23286     23287
     23286     23288     23287     23288     23289     23290     23289     23291
     23290     23291     23292     23293     23292     23294     23293     23294
     23295     23296     23295     23297     23296     23297     23298     23299
     23298     23300     23299     23300     23301     23302     23301     23303
     23302     23303     23304     23305     23304     23306     23305     23306
     23307     23308     23307     23309     23308     23309     23310     23311
     23310     23312     23311     23312     23313     23314     23313     23315
     23314     23315     23316     23317     23316     23318     23317     23318
     23319     23320     23319     23321     23320     23321     23322     23323
     23322     23324     23323     23324     23325     23326     23325     23327
     23326     23327     23328     23329     23328     23330     23329     23330
     23331     23332     23331     23333     23332     23333     23334     23335
     23334     23336     23335     23336     23337     23338     23337     23339
     23338     23339     23340     23341     23340     23342     23341     23342
     23343     23344     23343     23345     23344     23345     23346     23347
     23346     23348     23347     23348     23349     23350     23349     23351
     23350     23351     23352     23353     23352     23354     23353     23354
     23355     23356     23355     23357     23356     23357     23358     23359
     23358     23360     23359     23360     23361     23362     23361     23363
     23362     23363     23364     23365     23364     23366     23365     23366
     23367     23368     23367     23369     23368     23369     23370     23371
     23370     23372     23371     23372     23373     23374     23373     23375
     23374     23375     23376     23377     23376     23378     23377     23378
     23379     23380     23379     23381     23380     23381     23382     23383
     23382     23384     23383     23384     23385     23386     23385     23387
     23386     23387     23388     23389     23388     23390     23389     23390
     23391     23392     23391     23393     23392     23393     23394     23395
     23394     23396     23395     23396     23397     23398     23397     23399
     23398     23399     23400     23401     23400     23402     23401     23402
     23403     23404     23403     23405     23404     23405     23406     23407
     23406     23408     23407     23408     23409     23410     23409     23411
     23410     23411     23412     23413     23412     23414     23413     23414
     23415     23416     23415     23417     23416     23417     23418     23419
     23418     23420     23419     23420     23421     23422     23421     23423
     23422     23423     23424     23425     23424     23426     23425     23426
     23427     23428     23427     23429     23428     23429     23430     23431
     23430     23432     23431     23432     23433     23434     23433     23435
     23434     23435     23436     23437     23436     23438     23437     23438
     23439     23440     23439     23441     23440     23441     23442     23443
     23442     23444     23443     23444     23445     23446     23445     23447
     23446     23447     23448     23449     23448     23450     23449     23450
     23451     23452     23451     23453     23452     23453     23454     23455
     23454     23456     23455     23456     23457     23458     23457     23459
     23458     23459     23460     23461     23460     23462     23461     23462
     23463     23464     23463     23465     23464     23465     23466     23467
     23466     23468     23467     23468     23469     23470     23469     23471
     23470     23471     23472     23473     23472     23474     23473     23474
     23475     23476     23475     23477     23476     23477     23478     23479
     23478     23480     23479     23480     23481     23482     23481     23483
     23482     23483     23484     23485     23484     23486     23485     23486
     23487     23488     23487     23489     23488     23489     23490     23491
     23490     23492     23491     23492     23493     23494     23493     23495
     23494     23495     23496     23497     23496     23498     23497     23498
     23499     23500     23499     23501     23500     23501     23502     23503
     23502     23504     23503     23504     23505     23506     23505     23507
     23506     23507     23508     23509     23508     23510     23509     23510
     23511     23512     23511     23513     23512     23513     23514     23515
     23514     23516     23515     23516     23517     23518     23517     23519
     23518     23519     23520     23521     23520     23522     23521     23522
     23523     23524     23523     23525     23524     23525     23526     23527
     23526     23528     23527     23528     23529     23530     23529     23531
     23530     23531     23532     23533     23532     23534     23533     23534
     23535     23536     23535     23537     23536     23537     23538     23539
     23538     23540     23539     23540     23541     23542     23541     23543
     23542     23543     23544     23545     23544     23546     23545     23546
     23547     23548     23547     23549     23548     23549     23550     23551
     23550     23552     23551     23552     23553     23554     23553     23555
     23554     23555     23556     23557     23556     23558     23557     23558
     23559     23560     23559     23561     23560     23561     23562     23563
     23562     23564     23563     23564     23565     23566     23565     23567
     23566     23567     23568     23569     23568     23570     23569     23570
     23571     23572     23571     23573     23572     23573     23574     23575
     23574     23576     23575     23576     23577     23578     23577     23579
     23578     23579     23580     23581     23580     23582     23581     23582
     23583     23584     23583     23585     23584     23585     23586     23587
     23586     23588     23587     23588     23589     23590     23589     23591
     23590     23591     23592     23593     23592     23594     23593     23594
     23595     23596     23595     23597     23596     23597     23598     23599
     23598     23600     23599     23600     23601     23602     23601     23603
     23602     23603     23604     23605     23604     23606     23605     23606
     23607     23608     23607     23609     23608     23609     23610     23611
     23610     23612     23611     23612     23613     23614     23613     23615
     23614     23615     23616     23617     23616     23618     23617     23618
     23619     23620     23619     23621     23620     23621     23622     23623
     23622     23624     23623     23624     23625     23626     23625     23627
     23626     23627     23628     23629     23628     23630     23629     23630
     23631     23632     23631     23633     23632     23633     23634     23635
     23634     23636     23635     23636     23637     23638     23637     23639
     23638     23639     23640     23641     23640     23642     23641     23642
     23643     23644     23643     23645     23644     23645     23646     23647
     23646     23648     23647     23648     23649     23650     23649     23651
     23650     23651     23652     23653     23652     23654     23653     23654
     23655     23656     23655     23657     23656     23657     23658     23659
     23658     23660     23659     23660     23661     23662     23661     23663
     23662     23663     23664     23665     23664     23666     23665     23666
     23667     23668     23667     23669     23668     23669     23670     23671
     23670     23672     23671     23672     23673     23674     23673     23675
     23674     23675     23676     23677     23676     23678     23677     23678
     23679     23680     23679     23681     23680     23681     23682     23683
     23682     23684     23683     23684     23685     23686     23685     23687
     23686     23687     23688     23689     23688     23690     23689     23690
     23691     23692     23691     23693     23692     23693     23694     23695
     23694     23696     23695     23696     23697     23698     23697     23699
     23698     23699     23700     23701     23700     23702     23701     23702
     23703     23704     23703     23705     23704     23705     23706     23707
     23706     23708     23707     23708     23709     23710     23709     23711
     23710     23711     23712     23713     23712     23714     23713     23714
     23715     23716     23715     23717     23716     23717     23718     23719
     23718     23720     23719     23720     23721     23722     23721     23723
     23722     23723     23724     23725     23724     23726     23725     23726
     23727     23728     23727     23729     23728     23729     23730     23731
     23730     23732     23731     23732     23733     23734     23733     23735
     23734     23735     23736     23737     23736     23738     23737     23738
     23739     23740     23739     23741     23740     23741     23742     23743
     23742     23744     23743     23744     23745     23746     23745     23747
     23746     23747     23748     23749     23748     23750     23749     23750
     23751     23752     23751     23753     23752     23753     23754     23755
     23754     23756     23755     23756     23757     23758     23757     23759
     23758     23759     23760     23761     23760     23762     23761     23762
     23763     23764     23763     23765     23764     23765     23766     23767
     23766     23768     23767     23768     23769     23770     23769     23771
     23770     23771     23772     23773     23772     23774     23773     23774
     23775     23776     23775     23777     23776     23777     23778     23779
     23778     23780     23779     23780     23781     23782     23781     23783
     23782     23783     23784     23785     23784     23786     23785     23786
     23787     23788     23787     23789     23788     23789     23790     23791
     23790     23792     23791     23792     23793     23794     23793     23795
     23794     23795     23796     23797     23796     23798     23797     23798
     23799     23800     23799     23801     23800     23801     23802     23803
     23802     23804     23803     23804     23805     23806     23805     23807
     23806     23807     23808     23809     23808     23810     23809     23810
     23811     23812     23811     23813     23812     23813     23814     23815
     23814     23816     23815     23816     23817     23818     23817     23819
     23818     23819     23820     23821     23820     23822     23821     23822
     23823     23824     23823     23825     23824     23825     23826     23827
     23826     23828     23827     23828     23829     23830     23829     23831
     23830     23831     23832     23833     23832     23834     23833     23834
     23835     23836     23835     23837     23836     23837     23838     23839
     23838     23840     23839     23840     23841     23842     23841     23843
     23842     23843     23844     23845     23844     23846     23845     23846
     23847     23848     23847     23849     23848     23849     23850     23851
     23850     23852     23851     23852     23853     23854     23853     23855
     23854     23855     23856     23857     23856     23858     23857     23858
     23859     23860     23859     23861     23860     23861     23862     23863
     23862     23864     23863     23864     23865     23866     23865     23867
     23866     23867     23868     23869     23868     23870     23869     23870
     23871     23872     23871     23873     23872     23873     23874     23875
     23874     23876     23875     23876     23877     23878     23877     23879
     23878     23879     23880     23881     23880     23882     23881     23882
     23883     23884     23883     23885     23884     23885     23886     23887
     23886     23888     23887     23888     23889     23890     23889     23891
     23890     23891     23892     23893     23892     23894     23893     23894
     23895     23896     23895     23897     23896     23897     23898     23899
     23898     23900     23899     23900     23901     23902     23901     23903
     23902     23903     23904     23905     23904     23906     23905     23906
     23907     23908     23907     23909     23908     23909     23910     23911
     23910     23912     23911     23912     23913     23914     23913     23915
     23914     23915     23916     23917     23916     23918     23917     23918
     23919     23920     23919     23921     23920     23921     23922     23923
     23922     23924     23923     23924     23925     23926     23925     23927
     23926     23927     23928     23929     23928     23930     23929     23930
     23931     23932     23931     23933     23932     23933     23934     23935
     23934     23936     23935     23936     23937     23938     23937     23939
     23938     23939     23940     23941     23940     23942     23941     23942
     23943     23944     23943     23945     23944     23945     23946     23947
     23946     23948     23947     23948     23949     23950     23949     23951
     23950     23951     23952     23953     23952     23954     23953     23954
     23955     23956     23955     23957     23956     23957     23958     23959
     23958     23960     23959     23960     23961     23962     23961     23963
     23962     23963     23964     23965     23964     23966     23965     23966
     23967     23968     23967     23969     23968     23969     23970     23971
     23970     23972     23971     23972     23973     23974     23973     23975
     23974     23975     23976     23977     23976     23978     23977     23978
     23979     23980     23979     23981     23980     23981     23982     23983
     23982     23984     23983     23984     23985     23986     23985     23987
     23986     23987     23988     23989     23988     23990     23989     23990
     23991     23992     23991     23993     23992     23993     23994     23995
     23994     23996     23995     23996     23997     23998     23997     23999
     23998     23999     24000     24001     24000     24002     24001     24002
     24003     24004     24003     24005     24004     24005     24006     24007
     24006     24008     24007     24008     24009     24010     24009     24011
     24010     24011     24012     24013     24012     24014     24013     24014
     24015     24016     24015     24017     24016     24017     24018     24019
     24018     24020     24019     24020     24021     24022     24021     24023
     24022     24023     24024     24025     24024     24026     24025     24026
     24027     24028     24027     24029     24028     24029     24030     24031
     24030     24032     24031     24032     24033     24034     24033     24035
     24034     24035     24036     24037     24036     24038     24037     24038
     24039     24040     24039     24041     24040     24041     24042     24043
     24042     24044     24043     24044     24045     24046     24045     24047
     24046     24047     24048     24049     24048     24050     24049     24050
     24051     24052     24051     24053     24052     24053     24054     24055
     24054     24056     24055     24056     24057     24058     24057     24059
     24058     24059     24060     24061     24060     24062     24061     24062
     24063     24064     24063     24065     24064     24065     24066     24067
     24066     24068     24067     24068     24069     24070     24069     24071
     24070     24071     24072     24073     24072     24074     24073     24074
     24075     24076     24075     24077     24076     24077     24078     24079
     24078     24080     24079     24080     24081     24082     24081     24083
     24082     24083     24084     24085     24084     24086     24085     24086
     24087     24088     24087     24089     24088     24089     24090     24091
     24090     24092     24091     24092     24093     24094     24093     24095
     24094     24095     24096     24097     24096     24098     24097     24098
     24099     24100     24099     24101     24100     24101     24102     24103
     24102     24104     24103     24104     24105     24106     24105     24107
     24106     24107     24108     24109     24108     24110     24109     24110
     24111     24112     24111     24113     24112     24113     24114     24115
     24114     24116     24115     24116     24117     24118     24117     24119
     24118     24119     24120     24121     24120     24122     24121     24122
     24123     24124     24123     24125     24124     24125     24126     24127
     24126     24128     24127     24128     24129     24130     24129     24131
     24130     24131     24132     24133     24132     24134     24133     24134
     24135     24136     24135     24137     24136     24137     24138     24139
     24138     24140     24139     24140     24141     24142     24141     24143
     24142     24143     24144     24145     24144     24146     24145     24146
     24147     24148     24147     24149     24148     24149     24150     24151
     24150     24152     24151     24152     24153     24154     24153     24155
     24154     24155     24156     24157     24156     24158     24157     24158
     24159     24160     24159     24161     24160     24161     24162     24163
     24162     24164     24163     24164     24165     24166     24165     24167
     24166     24167     24168     24169     24168     24170     24169     24170
     24171     24172     24171     24173     24172     24173     24174     24175
     24174     24176     24175     24176     24177     24178     24177     24179
     24178     24179     24180     24181     24180     24182     24181     24182
     24183     24184     24183     24185     24184     24185     24186     24187
     24186     24188     24187     24188     24189     24190     24189     24191
     24190     24191     24192     24193     24192     24194     24193     24194
     24195     24196     24195     24197     24196     24197     24198     24199
     24198     24200     24199     24200     24201     24202     24201     24203
     24202     24203     24204     24205     24204     24206     24205     24206
     24207     24208     24207     24209     24208     24209     24210     24211
     24210     24212     24211     24212     24213     24214     24213     24215
     24214     24215     24216     24217     24216     24218     24217     24218
     24219     24220     24219     24221     24220     24221     24222     24223
     24222     24224     24223     24224     24225     24226     24225     24227
     24226     24227     24228     24229     24228     24230     24229     24230
     24231     24232     24231     24233     24232     24233     24234     24235
     24234     24236     24235     24236     24237     24238     24237     24239
     24238     24239     24240     24241     24240     24242     24241     24242
     24243     24244     24243     24245     24244     24245     24246     24247
     24246     24248     24247     24248     24249     24250     24249     24251
     24250     24251     24252     24253     24252     24254     24253     24254
     24255     24256     24255     24257     24256     24257     24258     24259
     24258     24260     24259     24260     24261     24262     24261     24263
     24262     24263     24264     24265     24264     24266     24265     24266
     24267     24268     24267     24269     24268     24269     24270     24271
     24270     24272     24271     24272     24273     24274     24273     24275
     24274     24275     24276     24277     24276     24278     24277     24278
     24279     24280     24279     24281     24280     24281     24282     24283
     24282     24284     24283     24284     24285     24286     24285     24287
     24286     24287     24288     24289     24288     24290     24289     24290
     24291     24292     24291     24293     24292     24293     24294     24295
     24294     24296     24295     24296     24297     24298     24297     24299
     24298     24299     24300     24301     24300     24302     24301     24302
     24303     24304     24303     24305     24304     24305     24306     24307
     24306     24308     24307     24308     24309     24310     24309     24311
     24310     24311     24312     24313     24312     24314     24313     24314
     24315     24316     24315     24317     24316     24317     24318     24319
     24318     24320     24319     24320     24321     24322     24321     24323
     24322     24323     24324     24325     24324     24326     24325     24326
     24327     24328     24327     24329     24328     24329     24330     24331
     24330     24332     24331     24332     24333     24334     24333     24335
     24334     24335     24336     24337     24336     24338     24337     24338
     24339     24340     24339     24341     24340     24341     24342     24343
     24342     24344     24343     24344     24345     24346     24345     24347
     24346     24347     24348     24349     24348     24350     24349     24350
     24351     24352     24351     24353     24352     24353     24354     24355
     24354     24356     24355     24356     24357     24358     24357     24359
     24358     24359     24360     24361     24360     24362     24361     24362
     24363     24364     24363     24365     24364     24365     24366     24367
     24366     24368     24367     24368     24369     24370     24369     24371
     24370     24371     24372     24373     24372     24374     24373     24374
     24375     24376     24375     24377     24376     24377     24378     24379
     24378     24380     24379     24380     24381     24382     24381     24383
     24382     24383     24384     24385     24384     24386     24385     24386
     24387     24388     24387     24389     24388     24389     24390     24391
     24390     24392     24391     24392     24393     24394     24393     24395
     24394     24395     24396     24397     24396     24398     24397     24398
     24399     24400     24399     24401     24400     24401     24402     24403
     24402     24404     24403     24404     24405     24406     24405     24407
     24406     24407     24408     24409     24408     24410     24409     24410
     24411     24412     24411     24413     24412     24413     24414     24415
     24414     24416     24415     24416     24417     24418     24417     24419
     24418     24419     24420     24421     24420     24422     24421     24422
     24423     24424     24423     24425     24424     24425     24426     24427
     24426     24428     24427     24428     24429     24430     24429     24431
     24430     24431     24432     24433     24432     24434     24433     24434
     24435     24436     24435     24437     24436     24437     24438     24439
     24438     24440     24439     24440     24441     24442     24441     24443
     24442     24443     24444     24445     24444     24446     24445     24446
     24447     24448     24447     24449     24448     24449     24450     24451
     24450     24452     24451     24452     24453     24454     24453     24455
     24454     24455     24456     24457     24456     24458     24457     24458
     24459     24460     24459     24461     24460     24461     24462     24463
     24462     24464     24463     24464     24465     24466     24465     24467
     24466     24467     24468     24469     24468     24470     24469     24470
     24471     24472     24471     24473     24472     24473     24474     24475
     24474     24476     24475     24476     24477     24478     24477     24479
     24478     24479     24480     24481     24480     24482     24481     24482
     24483     24484     24483     24485     24484     24485     24486     24487
     24486     24488     24487     24488     24489     24490     24489     24491
     24490     24491     24492     24493     24492     24494     24493     24494
     24495     24496     24495     24497     24496     24497     24498     24499
     24498     24500     24499     24500     24501     24502     24501     24503
     24502     24503     24504     24505     24504     24506     24505     24506
     24507     24508     24507     24509     24508     24509     24510     24511
     24510     24512     24511     24512     24513     24514     24513     24515
     24514     24515     24516     24517     24516     24518     24517     24518
     24519     24520     24519     24521     24520     24521     24522     24523
     24522     24524     24523     24524     24525     24526     24525     24527
     24526     24527     24528     24529     24528     24530     24529     24530
     24531     24532     24531     24533     24532     24533     24534     24535
     24534     24536     24535     24536     24537     24538     24537     24539
     24538     24539     24540     24541     24540     24542     24541     24542
     24543     24544     24543     24545     24544     24545     24546     24547
     24546     24548     24547     24548     24549     24550     24549     24551
     24550     24551     24552     24553     24552     24554     24553     24554
     24555     24556     24555     24557     24556     24557     24558     24559
     24558     24560     24559     24560     24561     24562     24561     24563
     24562     24563     24564     24565     24564     24566     24565     24566
     24567     24568     24567     24569     24568     24569     24570     24571
     24570     24572     24571     24572     24573     24574     24573     24575
     24574     24575     24576     24577     24576     24578     24577     24578
     24579     24580     24579     24581     24580     24581     24582     24583
     24582     24584     24583     24584     24585     24586     24585     24587
     24586     24587     24588     24589     24588     24590     24589     24590
     24591     24592     24591     24593     24592     24593     24594     24595
     24594     24596     24595     24596     24597     24598     24597     24599
     24598     24599     24600     24601     24600     24602     24601     24602
     24603     24604     24603     24605     24604     24605     24606     24607
     24606     24608     24607     24608     24609     24610     24609     24611
     24610     24611     24612     24613     24612     24614     24613     24614
     24615     24616     24615     24617     24616     24617     24618     24619
     24618     24620     24619     24620     24621     24622     24621     24623
     24622     24623     24624     24625     24624     24626     24625     24626
     24627     24628     24627     24629     24628     24629     24630     24631
     24630     24632     24631     24632     24633     24634     24633     24635
     24634     24635     24636     24637     24636     24638     24637     24638
     24639     24640     24639     24641     24640     24641     24642     24643
     24642     24644     24643     24644     24645     24646     24645     24647
     24646     24647     24648     24649     24648     24650     24649     24650
     24651     24652     24651     24653     24652     24653     24654     24655
     24654     24656     24655     24656     24657     24658     24657     24659
     24658     24659     24660     24661     24660     24662     24661     24662
     24663     24664     24663     24665     24664     24665     24666     24667
     24666     24668     24667     24668     24669     24670     24669     24671
     24670     24671     24672     24673     24672     24674     24673     24674
     24675     24676     24675     24677     24676     24677     24678     24679
     24678     24680     24679     24680     24681     24682     24681     24683
     24682     24683     24684     24685     24684     24686     24685     24686
     24687     24688     24687     24689     24688     24689     24690     24691
     24690     24692     24691     24692     24693     24694     24693     24695
     24694     24695     24696     24697     24696     24698     24697     24698
     24699     24700     24699     24701     24700     24701     24702     24703
     24702     24704     24703     24704     24705     24706     24705     24707
     24706     24707     24708     24709     24708     24710     24709     24710
     24711     24712     24711     24713     24712     24713     24714     24715
     24714     24716     24715     24716     24717     24718     24717     24719
     24718     24719     24720     24721     24720     24722     24721     24722
     24723     24724     24723     24725     24724     24725     24726     24727
     24726     24728     24727     24728     24729     24730     24729     24731
     24730     24731     24732     24733     24732     24734     24733     24734
     24735     24736     24735     24737     24736     24737     24738     24739
     24738     24740     24739     24740     24741     24742     24741     24743
     24742     24743     24744     24745     24744     24746     24745     24746
     24747     24748     24747     24749     24748     24749     24750     24751
     24750     24752     24751     24752     24753     24754     24753     24755
     24754     24755     24756     24757     24756     24758     24757     24758
     24759     24760     24759     24761     24760     24761     24762     24763
     24762     24764     24763     24764     24765     24766     24765     24767
     24766     24767     24768     24769     24768     24770     24769     24770
     24771     24772     24771     24773     24772     24773     24774     24775
     24774     24776     24775     24776     24777     24778     24777     24779
     24778     24779     24780     24781     24780     24782     24781     24782
     24783     24784     24783     24785     24784     24785     24786     24787
     24786     24788     24787     24788     24789     24790     24789     24791
     24790     24791     24792     24793     24792     24794     24793     24794
     24795     24796     24795     24797     24796     24797     24798     24799
     24798     24800     24799     24800     24801     24802     24801     24803
     24802     24803     24804     24805     24804     24806     24805     24806
     24807     24808     24807     24809     24808     24809     24810     24811
     24810     24812     24811     24812     24813     24814     24813     24815
     24814     24815     24816     24817     24816     24818     24817     24818
     24819     24820     24819     24821     24820     24821     24822     24823
     24822     24824     24823     24824     24825     24826     24825     24827
     24826     24827     24828     24829     24828     24830     24829     24830
     24831     24832     24831     24833     24832     24833     24834     24835
     24834     24836     24835     24836     24837     24838     24837     24839
     24838     24839     24840     24841     24840     24842     24841     24842
     24843     24844     24843     24845     24844     24845     24846     24847
     24846     24848     24847     24848     24849     24850     24849     24851
     24850     24851     24852     24853     24852     24854     24853     24854
     24855     24856     24855     24857     24856     24857     24858     24859
     24858     24860     24859     24860     24861     24862     24861     24863
     24862     24863     24864     24865     24864     24866     24865     24866
     24867     24868     24867     24869     24868     24869     24870     24871
     24870     24872     24871     24872     24873     24874     24873     24875
     24874     24875     24876     24877     24876     24878     24877     24878
     24879     24880     24879     24881     24880     24881     24882     24883
     24882     24884     24883     24884     24885     24886     24885     24887
     24886     24887     24888     24889     24888     24890     24889     24890
     24891     24892     24891     24893     24892     24893     24894     24895
     24894     24896     24895     24896     24897     24898     24897     24899
     24898     24899     24900     24901     24900     24902     24901     24902
     24903     24904     24903     24905     24904     24905     24906     24907
     24906     24908     24907     24908     24909     24910     24909     24911
     24910     24911     24912     24913     24912     24914     24913     24914
     24915     24916     24915     24917     24916     24917     24918     24919
     24918     24920     24919     24920     24921     24922     24921     24923
     24922     24923     24924     24925     24924     24926     24925     24926
     24927     24928     24927     24929     24928     24929     24930     24931
     24930     24932     24931     24932     24933     24934     24933     24935
     24934     24935     24936     24937     24936     24938     24937     24938
     24939     24940     24939     24941     24940     24941     24942     24943
     24942     24944     24943     24944     24945     24946     24945     24947
     24946     24947     24948     24949     24948     24950     24949     24950
     24951     24952     24951     24953     24952     24953     24954     24955
     24954     24956     24955     24956     24957     24958     24957     24959
     24958     24959     24960     24961     24960     24962     24961     24962
     24963     24964     24963     24965     24964     24965     24966     24967
     24966     24968     24967     24968     24969     24970     24969     24971
     24970     24971     24972     24973     24972     24974     24973     24974
     24975     24976     24975     24977     24976     24977     24978     24979
     24978     24980     24979     24980     24981     24982     24981     24983
     24982     24983     24984     24985     24984     24986     24985     24986
     24987     24988     24987     24989     24988     24989     24990     24991
     24990     24992     24991     24992     24993     24994     24993     24995
     24994     24995     24996     24997     24996     24998     24997     24998
     24999     25000     24999     25001     25000     25001     25002     25003
     25002     25004     25003     25004     25005     25006     25005     25007
     25006     25007     25008     25009     25008     25010     25009     25010
     25011     25012     25011     25013     25012     25013     25014     25015
     25014     25016     25015     25016     25017     25018     25017     25019
     25018     25019     25020     25021     25020     25022     25021     25022
     25023     25024     25023     25025     25024     25025     25026     25027
     25026     25028     25027     25028     25029     25030     25029     25031
     25030     25031     25032     25033     25032     25034     25033     25034
     25035     25036     25035     25037     25036     25037     25038     25039
     25038     25040     25039     25040     25041     25042     25041     25043
     25042     25043     25044     25045     25044     25046     25045     25046
     25047     25048     25047     25049     25048     25049     25050     25051
     25050     25052     25051     25052     25053     25054     25053     25055
     25054     25055     25056     25057     25056     25058     25057     25058
     25059     25060     25059     25061     25060     25061     25062     25063
     25062     25064     25063     25064     25065     25066     25065     25067
     25066     25067     25068     25069     25068     25070     25069     25070
     25071     25072     25071     25073     25072     25073     25074     25075
     25074     25076     25075     25076     25077     25078     25077     25079
     25078     25079     25080     25081     25080     25082     25081     25082
     25083     25084     25083     25085     25084     25085     25086     25087
     25086     25088     25087     25088     25089     25090     25089     25091
     25090     25091     25092     25093     25092     25094     25093     25094
     25095     25096     25095     25097     25096     25097     25098     25099
     25098     25100     25099     25100     25101     25102     25101     25103
     25102     25103     25104     25105     25104     25106     25105     25106
     25107     25108     25107     25109     25108     25109     25110     25111
     25110     25112     25111     25112     25113     25114     25113     25115
     25114     25115     25116     25117     25116     25118     25117     25118
     25119     25120     25119     25121     25120     25121     25122     25123
     25122     25124     25123     25124     25125     25126     25125     25127
     25126     25127     25128     25129     25128     25130     25129     25130
     25131     25132     25131     25133     25132     25133     25134     25135
     25134     25136     25135     25136     25137     25138     25137     25139
     25138     25139     25140     25141     25140     25142     25141     25142
     25143     25144     25143     25145     25144     25145     25146     25147
     25146     25148     25147     25148     25149     25150     25149     25151
     25150     25151     25152     25153     25152     25154     25153     25154
     25155     25156     25155     25157     25156     25157     25158     25159
     25158     25160     25159     25160     25161     25162     25161     25163
     25162     25163     25164     25165     25164     25166     25165     25166
     25167     25168     25167     25169     25168     25169     25170     25171
     25170     25172     25171     25172     25173     25174     25173     25175
     25174     25175     25176     25177     25176     25178     25177     25178
     25179     25180     25179     25181     25180     25181     25182     25183
     25182     25184     25183     25184     25185     25186     25185     25187
     25186     25187     25188     25189     25188     25190     25189     25190
     25191     25192     25191     25193     25192     25193     25194     25195
     25194     25196     25195     25196     25197     25198     25197     25199
     25198     25199     25200     25201     25200     25202     25201     25202
     25203     25204     25203     25205     25204     25205     25206     25207
     25206     25208     25207     25208     25209     25210     25209     25211
     25210     25211     25212     25213     25212     25214     25213     25214
     25215     25216     25215     25217     25216     25217     25218     25219
     25218     25220     25219     25220     25221     25222     25221     25223
     25222     25223     25224     25225     25224     25226     25225     25226
     25227     25228     25227     25229     25228     25229     25230     25231
     25230     25232     25231     25232     25233     25234     25233     25235
     25234     25235     25236     25237     25236     25238     25237     25238
     25239     25240     25239     25241     25240     25241     25242     25243
     25242     25244     25243     25244     25245     25246     25245     25247
     25246     25247     25248     25249     25248     25250     25249     25250
     25251     25252     25251     25253     25252     25253     25254     25255
     25254     25256     25255     25256     25257     25258     25257     25259
     25258     25259     25260     25261     25260     25262     25261     25262
     25263     25264     25263     25265     25264     25265     25266     25267
     25266     25268     25267     25268     25269     25270     25269     25271
     25270     25271     25272     25273     25272     25274     25273     25274
     25275     25276     25275     25277     25276     25277     25278     25279
     25278     25280     25279     25280     25281     25282     25281     25283
     25282     25283     25284     25285     25284     25286     25285     25286
     25287     25288     25287     25289     25288     25289     25290     25291
     25290     25292     25291     25292     25293     25294     25293     25295
     25294     25295     25296     25297     25296     25298     25297     25298
     25299     25300     25299     25301     25300     25301     25302     25303
     25302     25304     25303     25304     25305     25306     25305     25307
     25306     25307     25308     25309     25308     25310     25309     25310
     25311     25312     25311     25313     25312     25313     25314     25315
     25314     25316     25315     25316     25317     25318     25317     25319
     25318     25319     25320     25321     25320     25322     25321     25322
     25323     25324     25323     25325     25324     25325     25326     25327
     25326     25328     25327     25328     25329     25330     25329     25331
     25330     25331     25332     25333     25332     25334     25333     25334
     25335     25336     25335     25337     25336     25337     25338     25339
     25338     25340     25339     25340     25341     25342     25341     25343
     25342     25343     25344     25345     25344     25346     25345     25346
     25347     25348     25347     25349     25348     25349     25350     25351
     25350     25352     25351     25352     25353     25354     25353     25355
     25354     25355     25356     25357     25356     25358     25357     25358
     25359     25360     25359     25361     25360     25361     25362     25363
     25362     25364     25363     25364     25365     25366     25365     25367
     25366     25367     25368     25369     25368     25370     25369     25370
     25371     25372     25371     25373     25372     25373     25374     25375
     25374     25376     25375     25376     25377     25378     25377     25379
     25378     25379     25380     25381     25380     25382     25381     25382
     25383     25384     25383     25385     25384     25385     25386     25387
     25386     25388     25387     25388     25389     25390     25389     25391
     25390     25391     25392     25393     25392     25394     25393     25394
     25395     25396     25395     25397     25396     25397     25398     25399
     25398     25400     25399     25400     25401     25402     25401     25403
     25402     25403     25404     25405     25404     25406     25405     25406
     25407     25408     25407     25409     25408     25409     25410     25411
     25410     25412     25411     25412     25413     25414     25413     25415
     25414     25415     25416     25417     25416     25418     25417     25418
     25419     25420     25419     25421     25420     25421     25422     25423
     25422     25424     25423     25424     25425     25426     25425     25427
     25426     25427     25428     25429     25428     25430     25429     25430
     25431     25432     25431     25433     25432     25433     25434     25435
     25434     25436     25435     25436     25437     25438     25437     25439
     25438     25439     25440     25441     25440     25442     25441     25442
     25443     25444     25443     25445     25444     25445     25446     25447
     25446     25448     25447     25448     25449     25450     25449     25451
     25450     25451     25452     25453     25452     25454     25453     25454
     25455     25456     25455     25457     25456     25457     25458     25459
     25458     25460     25459     25460     25461     25462     25461     25463
     25462     25463     25464     25465     25464     25466     25465     25466
     25467     25468     25467     25469     25468     25469     25470     25471
     25470     25472     25471     25472     25473     25474     25473     25475
     25474     25475     25476     25477     25476     25478     25477     25478
     25479     25480     25479     25481     25480     25481     25482     25483
     25482     25484     25483     25484     25485     25486     25485     25487
     25486     25487     25488     25489     25488     25490     25489     25490
     25491     25492     25491     25493     25492     25493     25494     25495
     25494     25496     25495     25496     25497     25498     25497     25499
     25498     25499     25500     25501     25500     25502     25501     25502
     25503     25504     25503     25505     25504     25505     25506     25507
     25506     25508     25507     25508     25509     25510     25509     25511
     25510     25511     25512     25513     25512     25514     25513     25514
     25515     25516     25515     25517     25516     25517     25518     25519
     25518     25520     25519     25520     25521     25522     25521     25523
     25522     25523     25524     25525     25524     25526     25525     25526
     25527     25528     25527     25529     25528     25529     25530     25531
     25530     25532     25531     25532     25533     25534     25533     25535
     25534     25535     25536     25537     25536     25538     25537     25538
     25539     25540     25539     25541     25540     25541     25542     25543
     25542     25544     25543     25544     25545     25546     25545     25547
     25546     25547     25548     25549     25548     25550     25549     25550
     25551     25552     25551     25553     25552     25553     25554     25555
     25554     25556     25555     25556     25557     25558     25557     25559
     25558     25559     25560     25561     25560     25562     25561     25562
     25563     25564     25563     25565     25564     25565     25566     25567
     25566     25568     25567     25568     25569     25570     25569     25571
     25570     25571     25572     25573     25572     25574     25573     25574
     25575     25576     25575     25577     25576     25577     25578     25579
     25578     25580     25579     25580     25581     25582     25581     25583
     25582     25583     25584     25585     25584     25586     25585     25586
     25587     25588     25587     25589     25588     25589     25590     25591
     25590     25592     25591     25592     25593     25594     25593     25595
     25594     25595     25596     25597     25596     25598     25597     25598
     25599     25600     25599     25601     25600     25601     25602     25603
     25602     25604     25603     25604     25605     25606     25605     25607
     25606     25607     25608     25609     25608     25610     25609     25610
     25611     25612     25611     25613     25612     25613     25614     25615
     25614     25616     25615     25616     25617     25618     25617     25619
     25618     25619     25620     25621     25620     25622     25621     25622
     25623     25624     25623     25625     25624     25625     25626     25627
     25626     25628     25627     25628     25629     25630     25629     25631
     25630     25631     25632     25633     25632     25634     25633     25634
     25635     25636     25635     25637     25636     25637     25638     25639
     25638     25640     25639     25640     25641     25642     25641     25643
     25642     25643     25644     25645     25644     25646     25645     25646
     25647     25648     25647     25649     25648     25649     25650     25651
     25650     25652     25651     25652     25653     25654     25653     25655
     25654     25655     25656     25657     25656     25658     25657     25658
     25659     25660     25659     25661     25660     25661     25662     25663
     25662     25664     25663     25664     25665     25666     25665     25667
     25666     25667     25668     25669     25668     25670     25669     25670
     25671     25672     25671     25673     25672     25673     25674     25675
     25674     25676     25675     25676     25677     25678     25677     25679
     25678     25679     25680     25681     25680     25682     25681     25682
     25683     25684     25683     25685     25684     25685     25686     25687
     25686     25688     25687     25688     25689     25690     25689     25691
     25690     25691     25692     25693     25692     25694     25693     25694
     25695     25696     25695     25697     25696     25697     25698     25699
     25698     25700     25699     25700     25701     25702     25701     25703
     25702     25703     25704     25705     25704     25706     25705     25706
     25707     25708     25707     25709     25708     25709     25710     25711
     25710     25712     25711     25712     25713     25714     25713     25715
     25714     25715     25716     25717     25716     25718     25717     25718
     25719     25720     25719     25721     25720     25721     25722     25723
     25722     25724     25723     25724     25725     25726     25725     25727
     25726     25727     25728     25729     25728     25730     25729     25730
     25731     25732     25731     25733     25732     25733     25734     25735
     25734     25736     25735     25736     25737     25738     25737     25739
     25738     25739     25740     25741     25740     25742     25741     25742
     25743     25744     25743     25745     25744     25745     25746     25747
     25746     25748     25747     25748     25749     25750     25749     25751
     25750     25751     25752     25753     25752     25754     25753     25754
     25755     25756     25755     25757     25756     25757     25758     25759
     25758     25760     25759     25760     25761     25762     25761     25763
     25762     25763     25764     25765     25764     25766     25765     25766
     25767     25768     25767     25769     25768     25769     25770     25771
     25770     25772     25771     25772     25773     25774     25773     25775
     25774     25775     25776     25777     25776     25778     25777     25778
     25779     25780     25779     25781     25780     25781     25782     25783
     25782     25784     25783     25784     25785     25786     25785     25787
     25786     25787     25788     25789     25788     25790     25789     25790
     25791     25792     25791     25793     25792     25793     25794     25795
     25794     25796     25795     25796     25797     25798     25797     25799
     25798     25799     25800     25801     25800     25802     25801     25802
     25803     25804     25803     25805     25804     25805     25806     25807
     25806     25808     25807     25808     25809     25810     25809     25811
     25810     25811     25812     25813     25812     25814     25813     25814
     25815     25816     25815     25817     25816     25817     25818     25819
     25818     25820     25819     25820     25821     25822     25821     25823
     25822     25823     25824     25825     25824     25826     25825     25826
     25827     25828     25827     25829     25828     25829     25830     25831
     25830     25832     25831     25832     25833     25834     25833     25835
     25834     25835     25836     25837     25836     25838     25837     25838
     25839     25840     25839     25841     25840     25841     25842     25843
     25842     25844     25843     25844     25845     25846     25845     25847
     25846     25847     25848     25849     25848     25850     25849     25850
     25851     25852     25851     25853     25852     25853     25854     25855
     25854     25856     25855     25856     25857     25858     25857     25859
     25858     25859     25860     25861     25860     25862     25861     25862
     25863     25864     25863     25865     25864     25865     25866     25867
     25866     25868     25867     25868     25869     25870     25869     25871
     25870     25871     25872     25873     25872     25874     25873     25874
     25875     25876     25875     25877     25876     25877     25878     25879
     25878     25880     25879     25880     25881     25882     25881     25883
     25882     25883     25884     25885     25884     25886     25885     25886
     25887     25888     25887     25889     25888     25889     25890     25891
     25890     25892     25891     25892     25893     25894     25893     25895
     25894     25895     25896     25897     25896     25898     25897     25898
     25899     25900     25899     25901     25900     25901     25902     25903
     25902     25904     25903     25904     25905     25906     25905     25907
     25906     25907     25908     25909     25908     25910     25909     25910
     25911     25912     25911     25913     25912     25913     25914     25915
     25914     25916     25915     25916     25917     25918     25917     25919
     25918     25919     25920     25921     25920     25922     25921     25922
     25923     25924     25923     25925     25924     25925     25926     25927
     25926     25928     25927     25928     25929     25930     25929     25931
     25930     25931     25932     25933     25932     25934     25933     25934
     25935     25936     25935     25937     25936     25937     25938     25939
     25938     25940     25939     25940     25941     25942     25941     25943
     25942     25943     25944     25945     25944     25946     25945     25946
     25947     25948     25947     25949     25948     25949     25950     25951
     25950     25952     25951     25952     25953     25954     25953     25955
     25954     25955     25956     25957     25956     25958     25957     25958
     25959     25960     25959     25961     25960     25961     25962     25963
     25962     25964     25963     25964     25965     25966     25965     25967
     25966     25967     25968     25969     25968     25970     25969     25970
     25971     25972     25971     25973     25972     25973     25974     25975
     25974     25976     25975     25976     25977     25978     25977     25979
     25978     25979     25980     25981     25980     25982     25981     25982
     25983     25984     25983     25985     25984     25985     25986     25987
     25986     25988     25987     25988     25989     25990     25989     25991
     25990     25991     25992     25993     25992     25994     25993     25994
     25995     25996     25995     25997     25996     25997     25998     25999
     25998     26000     25999     26000     26001     26002     26001     26003
     26002     26003     26004     26005     26004     26006     26005     26006
     26007     26008     26007     26009     26008     26009     26010     26011
     26010     26012     26011     26012     26013     26014     26013     26015
     26014     26015     26016     26017     26016     26018     26017     26018
     26019     26020     26019     26021     26020     26021     26022     26023
     26022     26024     26023     26024     26025     26026     26025     26027
     26026     26027     26028     26029     26028     26030     26029     26030
     26031     26032     26031     26033     26032     26033     26034     26035
     26034     26036     26035     26036     26037     26038     26037     26039
     26038     26039     26040     26041     26040     26042     26041     26042
     26043     26044     26043     26045     26044     26045     26046     26047
     26046     26048     26047     26048     26049     26050     26049     26051
     26050     26051     26052     26053     26052     26054     26053     26054
     26055     26056     26055     26057     26056     26057     26058     26059
     26058     26060     26059     26060     26061     26062     26061     26063
     26062     26063     26064     26065     26064     26066     26065     26066
     26067     26068     26067     26069     26068     26069     26070     26071
     26070     26072     26071     26072     26073     26074     26073     26075
     26074     26075     26076     26077     26076     26078     26077     26078
     26079     26080     26079     26081     26080     26081     26082     26083
     26082     26084     26083     26084     26085     26086     26085     26087
     26086     26087     26088     26089     26088     26090     26089     26090
     26091     26092     26091     26093     26092     26093     26094     26095
     26094     26096     26095     26096     26097     26098     26097     26099
     26098     26099     26100     26101     26100     26102     26101     26102
     26103     26104     26103     26105     26104     26105     26106     26107
     26106     26108     26107     26108     26109     26110     26109     26111
     26110     26111     26112     26113     26112     26114     26113     26114
     26115     26116     26115     26117     26116     26117     26118     26119
     26118     26120     26119     26120     26121     26122     26121     26123
     26122     26123     26124     26125     26124     26126     26125     26126
     26127     26128     26127     26129     26128     26129     26130     26131
     26130     26132     26131     26132     26133     26134     26133     26135
     26134     26135     26136     26137     26136     26138     26137     26138
     26139     26140     26139     26141     26140     26141     26142     26143
     26142     26144     26143     26144     26145     26146     26145     26147
     26146     26147     26148     26149     26148     26150     26149     26150
     26151     26152     26151     26153     26152     26153     26154     26155
     26154     26156     26155     26156     26157     26158     26157     26159
     26158     26159     26160     26161     26160     26162     26161     26162
     26163     26164     26163     26165     26164     26165     26166     26167
     26166     26168     26167     26168     26169     26170     26169     26171
     26170     26171     26172     26173     26172     26174     26173     26174
     26175     26176     26175     26177     26176     26177     26178     26179
     26178     26180     26179     26180     26181     26182     26181     26183
     26182     26183     26184     26185     26184     26186     26185     26186
     26187     26188     26187     26189     26188     26189     26190     26191
     26190     26192     26191     26192     26193     26194     26193     26195
     26194     26195     26196     26197     26196     26198     26197     26198
     26199     26200     26199     26201     26200     26201     26202     26203
     26202     26204     26203     26204     26205     26206     26205     26207
     26206     26207     26208     26209     26208     26210     26209     26210
     26211     26212     26211     26213     26212     26213     26214     26215
     26214     26216     26215     26216     26217     26218     26217     26219
     26218     26219     26220     26221     26220     26222     26221     26222
     26223     26224     26223     26225     26224     26225     26226     26227
     26226     26228     26227     26228     26229     26230     26229     26231
     26230     26231     26232     26233     26232     26234     26233     26234
     26235     26236     26235     26237     26236     26237     26238     26239
     26238     26240     26239     26240     26241     26242     26241     26243
     26242     26243     26244     26245     26244     26246     26245     26246
     26247     26248     26247     26249     26248     26249     26250     26251
     26250     26252     26251     26252     26253     26254     26253     26255
     26254     26255     26256     26257     26256     26258     26257     26258
     26259     26260     26259     26261     26260     26261     26262     26263
     26262     26264     26263     26264     26265     26266     26265     26267
     26266     26267     26268     26269     26268     26270     26269     26270
     26271     26272     26271     26273     26272     26273     26274     26275
     26274     26276     26275     26276     26277     26278     26277     26279
     26278     26279     26280     26281     26280     26282     26281     26282
     26283     26284     26283     26285     26284     26285     26286     26287
     26286     26288     26287     26288     26289     26290     26289     26291
     26290     26291     26292     26293     26292     26294     26293     26294
     26295     26296     26295     26297     26296     26297     26298     26299
     26298     26300     26299     26300     26301     26302     26301     26303
     26302     26303     26304     26305     26304     26306     26305     26306
     26307     26308     26307     26309     26308     26309     26310     26311
     26310     26312     26311     26312     26313     26314     26313     26315
     26314     26315     26316     26317     26316     26318     26317     26318
     26319     26320     26319     26321     26320     26321     26322     26323
     26322     26324     26323     26324     26325     26326     26325     26327
     26326     26327     26328     26329     26328     26330     26329     26330
     26331     26332     26331     26333     26332     26333     26334     26335
     26334     26336     26335     26336     26337     26338     26337     26339
     26338     26339     26340     26341     26340     26342     26341     26342
     26343     26344     26343     26345     26344     26345     26346     26347
     26346     26348     26347     26348     26349     26350     26349     26351
     26350     26351     26352     26353     26352     26354     26353     26354
     26355     26356     26355     26357     26356     26357     26358     26359
     26358     26360     26359     26360     26361     26362     26361     26363
     26362     26363     26364     26365     26364     26366     26365     26366
     26367     26368     26367     26369     26368     26369     26370     26371
     26370     26372     26371     26372     26373     26374     26373     26375
     26374     26375     26376     26377     26376     26378     26377     26378
     26379     26380     26379     26381     26380     26381     26382     26383
     26382     26384     26383     26384     26385     26386     26385     26387
     26386     26387     26388     26389     26388     26390     26389     26390
     26391     26392     26391     26393     26392     26393     26394     26395
     26394     26396     26395     26396     26397     26398     26397     26399
     26398     26399     26400     26401     26400     26402     26401     26402
     26403     26404     26403     26405     26404     26405     26406     26407
     26406     26408     26407     26408     26409     26410     26409     26411
     26410     26411     26412     26413     26412     26414     26413     26414
     26415     26416     26415     26417     26416     26417     26418     26419
     26418     26420     26419     26420     26421     26422     26421     26423
     26422     26423     26424     26425     26424     26426     26425     26426
     26427     26428     26427     26429     26428     26429     26430     26431
     26430     26432     26431     26432     26433     26434     26433     26435
     26434     26435     26436     26437     26436     26438     26437     26438
     26439     26440     26439     26441     26440     26441     26442     26443
     26442     26444     26443     26444     26445     26446     26445     26447
     26446     26447     26448     26449     26448     26450     26449     26450
     26451     26452     26451     26453     26452     26453     26454     26455
     26454     26456     26455     26456     26457     26458     26457     26459
     26458     26459     26460     26461     26460     26462     26461     26462
     26463     26464     26463     26465     26464     26465     26466     26467
     26466     26468     26467     26468     26469     26470     26469     26471
     26470     26471     26472     26473     26472     26474     26473     26474
     26475     26476     26475     26477     26476     26477     26478     26479
     26478     26480     26479     26480     26481     26482     26481     26483
     26482     26483     26484     26485     26484     26486     26485     26486
     26487     26488     26487     26489     26488     26489     26490     26491
     26490     26492     26491     26492     26493     26494     26493     26495
     26494     26495     26496     26497     26496     26498     26497     26498
     26499     26500     26499     26501     26500     26501     26502     26503
     26502     26504     26503     26504     26505     26506     26505     26507
     26506     26507     26508     26509     26508     26510     26509     26510
     26511     26512     26511     26513     26512     26513     26514     26515
     26514     26516     26515     26516     26517     26518     26517     26519
     26518     26519     26520     26521     26520     26522     26521     26522
     26523     26524     26523     26525     26524     26525     26526     26527
     26526     26528     26527     26528     26529     26530     26529     26531
     26530     26531     26532     26533     26532     26534     26533     26534
     26535     26536     26535     26537     26536     26537     26538     26539
     26538     26540     26539     26540     26541     26542     26541     26543
     26542     26543     26544     26545     26544     26546     26545     26546
     26547     26548     26547     26549     26548     26549     26550     26551
     26550     26552     26551     26552     26553     26554     26553     26555
     26554     26555     26556     26557     26556     26558     26557     26558
     26559     26560     26559     26561     26560     26561     26562     26563
     26562     26564     26563     26564     26565     26566     26565     26567
     26566     26567     26568     26569     26568     26570     26569     26570
     26571     26572     26571     26573     26572     26573     26574     26575
     26574     26576     26575     26576     26577     26578     26577     26579
     26578     26579     26580     26581     26580     26582     26581     26582
     26583     26584     26583     26585     26584     26585     26586     26587
     26586     26588     26587     26588     26589     26590     26589     26591
     26590     26591     26592     26593     26592     26594     26593     26594
     26595     26596     26595     26597     26596     26597     26598     26599
     26598     26600     26599     26600     26601     26602     26601     26603
     26602     26603     26604     26605     26604     26606     26605     26606
     26607     26608     26607     26609     26608     26609     26610     26611
     26610     26612     26611     26612     26613     26614     26613     26615
     26614     26615     26616     26617     26616     26618     26617     26618
     26619     26620     26619     26621     26620     26621     26622     26623
     26622     26624     26623     26624     26625     26626     26625     26627
     26626     26627     26628     26629     26628     26630     26629     26630
     26631     26632     26631     26633     26632     26633     26634     26635
     26634     26636     26635     26636     26637     26638     26637     26639
     26638     26639     26640     26641     26640     26642     26641     26642
     26643     26644     26643     26645     26644     26645     26646     26647
     26646     26648     26647     26648     26649     26650     26649     26651
     26650     26651     26652     26653     26652     26654     26653     26654
     26655     26656     26655     26657     26656     26657     26658     26659
     26658     26660     26659     26660     26661     26662     26661     26663
     26662     26663     26664     26665     26664     26666     26665     26666
     26667     26668     26667     26669     26668     26669     26670     26671
     26670     26672     26671     26672     26673     26674     26673     26675
     26674     26675     26676     26677     26676     26678     26677     26678
     26679     26680     26679     26681     26680     26681     26682     26683
     26682     26684     26683     26684     26685     26686     26685     26687
     26686     26687     26688     26689     26688     26690     26689     26690
     26691     26692     26691     26693     26692     26693     26694     26695
     26694     26696     26695     26696     26697     26698     26697     26699
     26698     26699     26700     26701     26700     26702     26701     26702
     26703     26704     26703     26705     26704     26705     26706     26707
     26706     26708     26707     26708     26709     26710     26709     26711
     26710     26711     26712     26713     26712     26714     26713     26714
     26715     26716     26715     26717     26716     26717     26718     26719
     26718     26720     26719     26720     26721     26722     26721     26723
     26722     26723     26724     26725     26724     26726     26725     26726
     26727     26728     26727     26729     26728     26729     26730     26731
     26730     26732     26731     26732     26733     26734     26733     26735
     26734     26735     26736     26737     26736     26738     26737     26738
     26739     26740     26739     26741     26740     26741     26742     26743
     26742     26744     26743     26744     26745     26746     26745     26747
     26746     26747     26748     26749     26748     26750     26749     26750
     26751     26752     26751     26753     26752     26753     26754     26755
     26754     26756     26755     26756     26757     26758     26757     26759
     26758     26759     26760     26761     26760     26762     26761     26762
     26763     26764     26763     26765     26764     26765     26766     26767
     26766     26768     26767     26768     26769     26770     26769     26771
     26770     26771     26772     26773     26772     26774     26773     26774
     26775     26776     26775     26777     26776     26777     26778     26779
     26778     26780     26779     26780     26781     26782     26781     26783
     26782     26783     26784     26785     26784     26786     26785     26786
     26787     26788     26787     26789     26788     26789     26790     26791
     26790     26792     26791     26792     26793     26794     26793     26795
     26794     26795     26796     26797     26796     26798     26797     26798
     26799     26800     26799     26801     26800     26801     26802     26803
     26802     26804     26803     26804     26805     26806     26805     26807
     26806     26807     26808     26809     26808     26810     26809     26810
     26811     26812     26811     26813     26812     26813     26814     26815
     26814     26816     26815     26816     26817     26818     26817     26819
     26818     26819     26820     26821     26820     26822     26821     26822
     26823     26824     26823     26825     26824     26825     26826     26827
     26826     26828     26827     26828     26829     26830     26829     26831
     26830     26831     26832     26833     26832     26834     26833     26834
     26835     26836     26835     26837     26836     26837     26838     26839
     26838     26840     26839     26840     26841     26842     26841     26843
     26842     26843     26844     26845     26844     26846     26845     26846
     26847     26848     26847     26849     26848     26849     26850     26851
     26850     26852     26851     26852     26853     26854     26853     26855
     26854     26855     26856     26857     26856     26858     26857     26858
     26859     26860     26859     26861     26860     26861     26862     26863
     26862     26864     26863     26864     26865     26866     26865     26867
     26866     26867     26868     26869     26868     26870     26869     26870
     26871     26872     26871     26873     26872     26873     26874     26875
     26874     26876     26875     26876     26877     26878     26877     26879
     26878     26879     26880     26881     26880     26882     26881     26882
     26883     26884     26883     26885     26884     26885     26886     26887
     26886     26888     26887     26888     26889     26890     26889     26891
     26890     26891     26892     26893     26892     26894     26893     26894
     26895     26896     26895     26897     26896     26897     26898     26899
     26898     26900     26899     26900     26901     26902     26901     26903
     26902     26903     26904     26905     26904     26906     26905     26906
     26907     26908     26907     26909     26908     26909     26910     26911
     26910     26912     26911     26912     26913     26914     26913     26915
     26914     26915     26916     26917     26916     26918     26917     26918
     26919     26920     26919     26921     26920     26921     26922     26923
     26922     26924     26923     26924     26925     26926     26925     26927
     26926     26927     26928     26929     26928     26930     26929     26930
     26931     26932     26931     26933     26932     26933     26934     26935
     26934     26936     26935     26936     26937     26938     26937     26939
     26938     26939     26940     26941     26940     26942     26941     26942
     26943     26944     26943     26945     26944     26945     26946     26947
     26946     26948     26947     26948     26949     26950     26949     26951
     26950     26951     26952     26953     26952     26954     26953     26954
     26955     26956     26955     26957     26956     26957     26958     26959
     26958     26960     26959     26960     26961     26962     26961     26963
     26962     26963     26964     26965     26964     26966     26965     26966
     26967     26968     26967     26969     26968     26969     26970     26971
     26970     26972     26971     26972     26973     26974     26973     26975
     26974     26975     26976     26977     26976     26978     26977     26978
     26979     26980     26979     26981     26980     26981     26982     26983
     26982     26984     26983     26984     26985     26986     26985     26987
     26986     26987     26988     26989     26988     26990     26989     26990
     26991     26992     26991     26993     26992     26993     26994     26995
     26994     26996     26995     26996     26997     26998     26997     26999
     26998     26999     27000     27001     27000     27002     27001     27002
     27003     27004     27003     27005     27004     27005     27006     27007
     27006     27008     27007     27008     27009     27010     27009     27011
     27010     27011     27012     27013     27012     27014     27013     27014
     27015     27016     27015     27017     27016     27017     27018     27019
     27018     27020     27019     27020     27021     27022     27021     27023
     27022     27023     27024     27025     27024     27026     27025     27026
     27027     27028     27027     27029     27028     27029     27030     27031
     27030     27032     27031     27032     27033     27034     27033     27035
     27034     27035     27036     27037     27036     27038     27037     27038
     27039     27040     27039     27041     27040     27041     27042     27043
     27042     27044     27043     27044     27045     27046     27045     27047
     27046     27047     27048     27049     27048     27050     27049     27050
     27051     27052     27051     27053     27052     27053     27054     27055
     27054     27056     27055     27056     27057     27058     27057     27059
     27058     27059     27060     27061     27060     27062     27061     27062
     27063     27064     27063     27065     27064     27065     27066     27067
     27066     27068     27067     27068     27069     27070     27069     27071
     27070     27071     27072     27073     27072     27074     27073     27074
     27075     27076     27075     27077     27076     27077     27078     27079
     27078     27080     27079     27080     27081     27082     27081     27083
     27082     27083     27084     27085     27084     27086     27085     27086
     27087     27088     27087     27089     27088     27089     27090     27091
     27090     27092     27091     27092     27093     27094     27093     27095
     27094     27095     27096     27097     27096     27098     27097     27098
     27099     27100     27099     27101     27100     27101     27102     27103
     27102     27104     27103     27104     27105     27106     27105     27107
     27106     27107     27108     27109     27108     27110     27109     27110
     27111     27112     27111     27113     27112     27113     27114     27115
     27114     27116     27115     27116     27117     27118     27117     27119
     27118     27119     27120     27121     27120     27122     27121     27122
     27123     27124     27123     27125     27124     27125     27126     27127
     27126     27128     27127     27128     27129     27130     27129     27131
     27130     27131     27132     27133     27132     27134     27133     27134
     27135     27136     27135     27137     27136     27137     27138     27139
     27138     27140     27139     27140     27141     27142     27141     27143
     27142     27143     27144     27145     27144     27146     27145     27146
     27147     27148     27147     27149     27148     27149     27150     27151
     27150     27152     27151     27152     27153     27154     27153     27155
     27154     27155     27156     27157     27156     27158     27157     27158
     27159     27160     27159     27161     27160     27161     27162     27163
     27162     27164     27163     27164     27165     27166     27165     27167
     27166     27167     27168     27169     27168     27170     27169     27170
     27171     27172     27171     27173     27172     27173     27174     27175
     27174     27176     27175     27176     27177     27178     27177     27179
     27178     27179     27180     27181     27180     27182     27181     27182
     27183     27184     27183     27185     27184     27185     27186     27187
     27186     27188     27187     27188     27189     27190     27189     27191
     27190     27191     27192     27193     27192     27194     27193     27194
     27195     27196     27195     27197     27196     27197     27198     27199
     27198     27200     27199     27200     27201     27202     27201     27203
     27202     27203     27204     27205     27204     27206     27205     27206
     27207     27208     27207     27209     27208     27209     27210     27211
     27210     27212     27211     27212     27213     27214     27213     27215
     27214     27215     27216     27217     27216     27218     27217     27218
     27219     27220     27219     27221     27220     27221     27222     27223
     27222     27224     27223     27224     27225     27226     27225     27227
     27226     27227     27228     27229     27228     27230     27229     27230
     27231     27232     27231     27233     27232     27233     27234     27235
     27234     27236     27235     27236     27237     27238     27237     27239
     27238     27239     27240     27241     27240     27242     27241     27242
     27243     27244     27243     27245     27244     27245     27246     27247
     27246     27248     27247     27248     27249     27250     27249     27251
     27250     27251     27252     27253     27252     27254     27253     27254
     27255     27256     27255     27257     27256     27257     27258     27259
     27258     27260     27259     27260     27261     27262     27261     27263
     27262     27263     27264     27265     27264     27266     27265     27266
     27267     27268     27267     27269     27268     27269     27270     27271
     27270     27272     27271     27272     27273     27274     27273     27275
     27274     27275     27276     27277     27276     27278     27277     27278
     27279     27280     27279     27281     27280     27281     27282     27283
     27282     27284     27283     27284     27285     27286     27285     27287
     27286     27287     27288     27289     27288     27290     27289     27290
     27291     27292     27291     27293     27292     27293     27294     27295
     27294     27296     27295     27296     27297     27298     27297     27299
     27298     27299     27300     27301     27300     27302     27301     27302
     27303     27304     27303     27305     27304     27305     27306     27307
     27306     27308     27307     27308     27309     27310     27309     27311
     27310     27311     27312     27313     27312     27314     27313     27314
     27315     27316     27315     27317     27316     27317     27318     27319
     27318     27320     27319     27320     27321     27322     27321     27323
     27322     27323     27324     27325     27324     27326     27325     27326
     27327     27328     27327     27329     27328     27329     27330     27331
     27330     27332     27331     27332     27333     27334     27333     27335
     27334     27335     27336     27337     27336     27338     27337     27338
     27339     27340     27339     27341     27340     27341     27342     27343
     27342     27344     27343     27344     27345     27346     27345     27347
     27346     27347     27348     27349     27348     27350     27349     27350
     27351     27352     27351     27353     27352     27353     27354     27355
     27354     27356     27355     27356     27357     27358     27357     27359
     27358     27359     27360     27361     27360     27362     27361     27362
     27363     27364     27363     27365     27364     27365     27366     27367
     27366     27368     27367     27368     27369     27370     27369     27371
     27370     27371     27372     27373     27372     27374     27373     27374
     27375     27376     27375     27377     27376     27377     27378     27379
     27378     27380     27379     27380     27381     27382     27381     27383
     27382     27383     27384     27385     27384     27386     27385     27386
     27387     27388     27387     27389     27388     27389     27390     27391
     27390     27392     27391     27392     27393     27394     27393     27395
     27394     27395     27396     27397     27396     27398     27397     27398
     27399     27400     27399     27401     27400     27401     27402     27403
     27402     27404     27403     27404     27405     27406     27405     27407
     27406     27407     27408     27409     27408     27410     27409     27410
     27411     27412     27411     27413     27412     27413     27414     27415
     27414     27416     27415     27416     27417     27418     27417     27419
     27418     27419     27420     27421     27420     27422     27421     27422
     27423     27424     27423     27425     27424     27425     27426     27427
     27426     27428     27427     27428     27429     27430     27429     27431
     27430     27431     27432     27433     27432     27434     27433     27434
     27435     27436     27435     27437     27436     27437     27438     27439
     27438     27440     27439     27440     27441     27442     27441     27443
     27442     27443     27444     27445     27444     27446     27445     27446
     27447     27448     27447     27449     27448     27449     27450     27451
     27450     27452     27451     27452     27453     27454     27453     27455
     27454     27455     27456     27457     27456     27458     27457     27458
     27459     27460     27459     27461     27460     27461     27462     27463
     27462     27464     27463     27464     27465     27466     27465     27467
     27466     27467     27468     27469     27468     27470     27469     27470
     27471     27472     27471     27473     27472     27473     27474     27475
     27474     27476     27475     27476     27477     27478     27477     27479
     27478     27479     27480     27481     27480     27482     27481     27482
     27483     27484     27483     27485     27484     27485     27486     27487
     27486     27488     27487     27488     27489     27490     27489     27491
     27490     27491     27492     27493     27492     27494     27493     27494
     27495     27496     27495     27497     27496     27497     27498     27499
     27498     27500     27499     27500     27501     27502     27501     27503
     27502     27503     27504     27505     27504     27506     27505     27506
     27507     27508     27507     27509     27508     27509     27510     27511
     27510     27512     27511     27512     27513     27514     27513     27515
     27514     27515     27516     27517     27516     27518     27517     27518
     27519     27520     27519     27521     27520     27521     27522     27523
     27522     27524     27523     27524     27525     27526     27525     27527
     27526     27527     27528     27529     27528     27530     27529     27530
     27531     27532     27531     27533     27532     27533     27534     27535
     27534     27536     27535     27536     27537     27538     27537     27539
     27538     27539     27540     27541     27540     27542     27541     27542
     27543     27544     27543     27545     27544     27545     27546     27547
     27546     27548     27547     27548     27549     27550     27549     27551
     27550     27551     27552     27553     27552     27554     27553     27554
     27555     27556     27555     27557     27556     27557     27558     27559
     27558     27560     27559     27560     27561     27562     27561     27563
     27562     27563     27564     27565     27564     27566     27565     27566
     27567     27568     27567     27569     27568     27569     27570     27571
     27570     27572     27571     27572     27573     27574     27573     27575
     27574     27575     27576     27577     27576     27578     27577     27578
     27579     27580     27579     27581     27580     27581     27582     27583
     27582     27584     27583     27584     27585     27586     27585     27587
     27586     27587     27588     27589     27588     27590     27589     27590
     27591     27592     27591     27593     27592     27593     27594     27595
     27594     27596     27595     27596     27597     27598     27597     27599
     27598     27599     27600     27601     27600     27602     27601     27602
     27603     27604     27603     27605     27604     27605     27606     27607
     27606     27608     27607     27608     27609     27610     27609     27611
     27610     27611     27612     27613     27612     27614     27613     27614
     27615     27616     27615     27617     27616     27617     27618     27619
     27618     27620     27619     27620     27621     27622     27621     27623
     27622     27623     27624     27625     27624     27626     27625     27626
     27627     27628     27627     27629     27628     27629     27630     27631
     27630     27632     27631     27632     27633     27634     27633     27635
     27634     27635     27636     27637     27636     27638     27637     27638
     27639     27640     27639     27641     27640     27641     27642     27643
     27642     27644     27643     27644     27645     27646     27645     27647
     27646     27647     27648     27649     27648     27650     27649     27650
     27651     27652     27651     27653     27652     27653     27654     27655
     27654     27656     27655     27656     27657     27658     27657     27659
     27658     27659     27660     27661     27660     27662     27661     27662
     27663     27664     27663     27665     27664     27665     27666     27667
     27666     27668     27667     27668     27669     27670     27669     27671
     27670     27671     27672     27673     27672     27674     27673     27674
     27675     27676     27675     27677     27676     27677     27678     27679
     27678     27680     27679     27680     27681     27682     27681     27683
     27682     27683     27684     27685     27684     27686     27685     27686
     27687     27688     27687     27689     27688     27689     27690     27691
     27690     27692     27691     27692     27693     27694     27693     27695
     27694     27695     27696     27697     27696     27698     27697     27698
     27699     27700     27699     27701     27700     27701     27702     27703
     27702     27704     27703     27704     27705     27706     27705     27707
     27706     27707     27708     27709     27708     27710     27709     27710
     27711     27712     27711     27713     27712     27713     27714     27715
     27714     27716     27715     27716     27717     27718     27717     27719
     27718     27719     27720     27721     27720     27722     27721     27722
     27723     27724     27723     27725     27724     27725     27726     27727
     27726     27728     27727     27728     27729     27730     27729     27731
     27730     27731     27732     27733     27732     27734     27733     27734
     27735     27736     27735     27737     27736     27737     27738     27739
     27738     27740     27739     27740     27741     27742     27741     27743
     27742     27743     27744     27745     27744     27746     27745     27746
     27747     27748     27747     27749     27748     27749     27750     27751
     27750     27752     27751     27752     27753     27754     27753     27755
     27754     27755     27756     27757     27756     27758     27757     27758
     27759     27760     27759     27761     27760     27761     27762     27763
     27762     27764     27763     27764     27765     27766     27765     27767
     27766     27767     27768     27769     27768     27770     27769     27770
     27771     27772     27771     27773     27772     27773     27774     27775
     27774     27776     27775     27776     27777     27778     27777     27779
     27778     27779     27780     27781     27780     27782     27781     27782
     27783     27784     27783     27785     27784     27785     27786     27787
     27786     27788     27787     27788     27789     27790     27789     27791
     27790     27791     27792     27793     27792     27794     27793     27794
     27795     27796     27795     27797     27796     27797     27798     27799
     27798     27800     27799     27800     27801     27802     27801     27803
     27802     27803     27804     27805     27804     27806     27805     27806
     27807     27808     27807     27809     27808     27809     27810     27811
     27810     27812     27811     27812     27813     27814     27813     27815
     27814     27815     27816     27817     27816     27818     27817     27818
     27819     27820     27819     27821     27820     27821     27822     27823
     27822     27824     27823     27824     27825     27826     27825     27827
     27826     27827     27828     27829     27828     27830     27829     27830
     27831     27832     27831     27833     27832     27833     27834     27835
     27834     27836     27835     27836     27837     27838     27837     27839
     27838     27839     27840     27841     27840     27842     27841     27842
     27843     27844     27843     27845     27844     27845     27846     27847
     27846     27848     27847     27848     27849     27850     27849     27851
     27850     27851     27852     27853     27852     27854     27853     27854
     27855     27856     27855     27857     27856     27857     27858     27859
     27858     27860     27859     27860     27861     27862     27861     27863
     27862     27863     27864     27865     27864     27866     27865     27866
     27867     27868     27867     27869     27868     27869     27870     27871
     27870     27872     27871     27872     27873     27874     27873     27875
     27874     27875     27876     27877     27876     27878     27877     27878
     27879     27880     27879     27881     27880     27881     27882     27883
     27882     27884     27883     27884     27885     27886     27885     27887
     27886     27887     27888     27889     27888     27890     27889     27890
     27891     27892     27891     27893     27892     27893     27894     27895
     27894     27896     27895     27896     27897     27898     27897     27899
     27898     27899     27900     27901     27900     27902     27901     27902
     27903     27904     27903     27905     27904     27905     27906     27907
     27906     27908     27907     27908     27909     27910     27909     27911
     27910     27911     27912     27913     27912     27914     27913     27914
     27915     27916     27915     27917     27916     27917     27918     27919
     27918     27920     27919     27920     27921     27922     27921     27923
     27922     27923     27924     27925     27924     27926     27925     27926
     27927     27928     27927     27929     27928     27929     27930     27931
     27930     27932     27931     27932     27933     27934     27933     27935
     27934     27935     27936     27937     27936     27938     27937     27938
     27939     27940     27939     27941     27940     27941     27942     27943
     27942     27944     27943     27944     27945     27946     27945     27947
     27946     27947     27948     27949     27948     27950     27949     27950
     27951     27952     27951     27953     27952     27953     27954     27955
     27954     27956     27955     27956     27957     27958     27957     27959
     27958     27959     27960     27961     27960     27962     27961     27962
     27963     27964     27963     27965     27964     27965     27966     27967
     27966     27968     27967     27968     27969     27970     27969     27971
     27970     27971     27972     27973     27972     27974     27973     27974
     27975     27976     27975     27977     27976     27977     27978     27979
     27978     27980     27979     27980     27981     27982     27981     27983
     27982     27983     27984     27985     27984     27986     27985     27986
     27987     27988     27987     27989     27988     27989     27990     27991
     27990     27992     27991     27992     27993     27994     27993     27995
     27994     27995     27996     27997     27996     27998     27997     27998
     27999     28000     27999     28001     28000     28001     28002     28003
     28002     28004     28003     28004     28005     28006     28005     28007
     28006     28007     28008     28009     28008     28010     28009     28010
     28011     28012     28011     28013     28012     28013     28014     28015
     28014     28016     28015     28016     28017     28018     28017     28019
     28018     28019     28020     28021     28020     28022     28021     28022
     28023     28024     28023     28025     28024     28025     28026     28027
     28026     28028     28027     28028     28029     28030     28029     28031
     28030     28031     28032     28033     28032     28034     28033     28034
     28035     28036     28035     28037     28036     28037     28038     28039
     28038     28040     28039     28040     28041     28042     28041     28043
     28042     28043     28044     28045     28044     28046     28045     28046
     28047     28048     28047     28049     28048     28049     28050     28051
     28050     28052     28051     28052     28053     28054     28053     28055
     28054     28055     28056     28057     28056     28058     28057     28058
     28059     28060     28059     28061     28060     28061     28062     28063
     28062     28064     28063     28064     28065     28066     28065     28067
     28066     28067     28068     28069     28068     28070     28069     28070
     28071     28072     28071     28073     28072     28073     28074     28075
     28074     28076     28075     28076     28077     28078     28077     28079
     28078     28079     28080     28081     28080     28082     28081     28082
     28083     28084     28083     28085     28084     28085     28086     28087
     28086     28088     28087     28088     28089     28090     28089     28091
     28090     28091     28092     28093     28092     28094     28093     28094
     28095     28096     28095     28097     28096     28097     28098     28099
     28098     28100     28099     28100     28101     28102     28101     28103
     28102     28103     28104     28105     28104     28106     28105     28106
     28107     28108     28107     28109     28108     28109     28110     28111
     28110     28112     28111     28112     28113     28114     28113     28115
     28114     28115     28116     28117     28116     28118     28117     28118
     28119     28120     28119     28121     28120     28121     28122     28123
     28122     28124     28123     28124     28125     28126     28125     28127
     28126     28127     28128     28129     28128     28130     28129     28130
     28131     28132     28131     28133     28132     28133     28134     28135
     28134     28136     28135     28136     28137     28138     28137     28139
     28138     28139     28140     28141     28140     28142     28141     28142
     28143     28144     28143     28145     28144     28145     28146     28147
     28146     28148     28147     28148     28149     28150     28149     28151
     28150     28151     28152     28153     28152     28154     28153     28154
     28155     28156     28155     28157     28156     28157     28158     28159
     28158     28160     28159     28160     28161     28162     28161     28163
     28162     28163     28164     28165     28164     28166     28165     28166
     28167     28168     28167     28169     28168     28169     28170     28171
     28170     28172     28171     28172     28173     28174     28173     28175
     28174     28175     28176     28177     28176     28178     28177     28178
     28179     28180     28179     28181     28180     28181     28182     28183
     28182     28184     28183     28184     28185     28186     28185     28187
     28186     28187     28188     28189     28188     28190     28189     28190
     28191     28192     28191     28193     28192     28193     28194     28195
     28194     28196     28195     28196     28197     28198     28197     28199
     28198     28199     28200     28201     28200     28202     28201     28202
     28203     28204     28203     28205     28204     28205     28206     28207
     28206     28208     28207     28208     28209     28210     28209     28211
     28210     28211     28212     28213     28212     28214     28213     28214
     28215     28216     28215     28217     28216     28217     28218     28219
     28218     28220     28219     28220     28221     28222     28221     28223
     28222     28223     28224     28225     28224     28226     28225     28226
     28227     28228     28227     28229     28228     28229     28230     28231
     28230     28232     28231     28232     28233     28234     28233     28235
     28234     28235     28236     28237     28236     28238     28237     28238
     28239     28240     28239     28241     28240     28241     28242     28243
     28242     28244     28243     28244     28245     28246     28245     28247
     28246     28247     28248     28249     28248     28250     28249     28250
     28251     28252     28251     28253     28252     28253     28254     28255
     28254     28256     28255     28256     28257     28258     28257     28259
     28258     28259     28260     28261     28260     28262     28261     28262
     28263     28264     28263     28265     28264     28265     28266     28267
     28266     28268     28267     28268     28269     28270     28269     28271
     28270     28271     28272     28273     28272     28274     28273     28274
     28275     28276     28275     28277     28276     28277     28278     28279
     28278     28280     28279     28280     28281     28282     28281     28283
     28282     28283     28284     28285     28284     28286     28285     28286
     28287     28288     28287     28289     28288     28289     28290     28291
     28290     28292     28291     28292     28293     28294     28293     28295
     28294     28295     28296     28297     28296     28298     28297     28298
     28299     28300     28299     28301     28300     28301     28302     28303
     28302     28304     28303     28304     28305     28306     28305     28307
     28306     28307     28308     28309     28308     28310     28309     28310
     28311     28312     28311     28313     28312     28313     28314     28315
     28314     28316     28315     28316     28317     28318     28317     28319
     28318     28319     28320     28321     28320     28322     28321     28322
     28323     28324     28323     28325     28324     28325     28326     28327
     28326     28328     28327     28328     28329     28330     28329     28331
     28330     28331     28332     28333     28332     28334     28333     28334
     28335     28336     28335     28337     28336     28337     28338     28339
     28338     28340     28339     28340     28341     28342     28341     28343
     28342     28343     28344     28345     28344     28346     28345     28346
     28347     28348     28347     28349     28348     28349     28350     28351
     28350     28352     28351     28352     28353     28354     28353     28355
     28354     28355     28356     28357     28356     28358     28357     28358
     28359     28360     28359     28361     28360     28361     28362     28363
     28362     28364     28363     28364     28365     28366     28365     28367
     28366     28367     28368     28369     28368     28370     28369     28370
     28371     28372     28371     28373     28372     28373     28374     28375
     28374     28376     28375     28376     28377     28378     28377     28379
     28378     28379     28380     28381     28380     28382     28381     28382
     28383     28384     28383     28385     28384     28385     28386     28387
     28386     28388     28387     28388     28389     28390     28389     28391
     28390     28391     28392     28393     28392     28394     28393     28394
     28395     28396     28395     28397     28396     28397     28398     28399
     28398     28400     28399     28400     28401     28402     28401     28403
     28402     28403     28404     28405     28404     28406     28405     28406
     28407     28408     28407     28409     28408     28409     28410     28411
     28410     28412     28411     28412     28413     28414     28413     28415
     28414     28415     28416     28417     28416     28418     28417     28418
     28419     28420     28419     28421     28420     28421     28422     28423
     28422     28424     28423     28424     28425     28426     28425     28427
     28426     28427     28428     28429     28428     28430     28429     28430
     28431     28432     28431     28433     28432     28433     28434     28435
     28434     28436     28435     28436     28437     28438     28437     28439
     28438     28439     28440     28441     28440     28442     28441     28442
     28443     28444     28443     28445     28444     28445     28446     28447
     28446     28448     28447     28448     28449     28450     28449     28451
     28450     28451     28452     28453     28452     28454     28453     28454
     28455     28456     28455     28457     28456     28457     28458     28459
     28458     28460     28459     28460     28461     28462     28461     28463
     28462     28463     28464     28465     28464     28466     28465     28466
     28467     28468     28467     28469     28468     28469     28470     28471
     28470     28472     28471     28472     28473     28474     28473     28475
     28474     28475     28476     28477     28476     28478     28477     28478
     28479     28480     28479     28481     28480     28481     28482     28483
     28482     28484     28483     28484     28485     28486     28485     28487
     28486     28487     28488     28489     28488     28490     28489     28490
     28491     28492     28491     28493     28492     28493     28494     28495
     28494     28496     28495     28496     28497     28498     28497     28499
     28498     28499     28500     28501     28500     28502     28501     28502
     28503     28504     28503     28505     28504     28505     28506     28507
     28506     28508     28507     28508     28509     28510     28509     28511
     28510     28511     28512     28513     28512     28514     28513     28514
     28515     28516     28515     28517     28516     28517     28518     28519
     28518     28520     28519     28520     28521     28522     28521     28523
     28522     28523     28524     28525     28524     28526     28525     28526
     28527     28528     28527     28529     28528     28529     28530     28531
     28530     28532     28531     28532     28533     28534     28533     28535
     28534     28535     28536     28537     28536     28538     28537     28538
     28539     28540     28539     28541     28540     28541     28542     28543
     28542     28544     28543     28544     28545     28546     28545     28547
     28546     28547     28548     28549     28548     28550     28549     28550
     28551     28552     28551     28553     28552     28553     28554     28555
     28554     28556     28555     28556     28557     28558     28557     28559
     28558     28559     28560     28561     28560     28562     28561     28562
     28563     28564     28563     28565     28564     28565     28566     28567
     28566     28568     28567     28568     28569     28570     28569     28571
     28570     28571     28572     28573     28572     28574     28573     28574
     28575     28576     28575     28577     28576     28577     28578     28579
     28578     28580     28579     28580     28581     28582     28581     28583
     28582     28583     28584     28585     28584     28586     28585     28586
     28587     28588     28587     28589     28588     28589     28590     28591
     28590     28592     28591     28592     28593     28594     28593     28595
     28594     28595     28596     28597     28596     28598     28597     28598
     28599     28600     28599     28601     28600     28601     28602     28603
     28602     28604     28603     28604     28605     28606     28605     28607
     28606     28607     28608     28609     28608     28610     28609     28610
     28611     28612     28611     28613     28612     28613     28614     28615
     28614     28616     28615     28616     28617     28618     28617     28619
     28618     28619     28620     28621     28620     28622     28621     28622
     28623     28624     28623     28625     28624     28625     28626     28627
     28626     28628     28627     28628     28629     28630     28629     28631
     28630     28631     28632     28633     28632     28634     28633     28634
     28635     28636     28635     28637     28636     28637     28638     28639
     28638     28640     28639     28640     28641     28642     28641     28643
     28642     28643     28644     28645     28644     28646     28645     28646
     28647     28648     28647     28649     28648     28649     28650     28651
     28650     28652     28651     28652     28653     28654     28653     28655
     28654     28655     28656     28657     28656     28658     28657     28658
     28659     28660     28659     28661     28660     28661     28662     28663
     28662     28664     28663     28664     28665     28666     28665     28667
     28666     28667     28668     28669     28668     28670     28669     28670
     28671     28672     28671     28673     28672     28673     28674     28675
     28674     28676     28675     28676     28677     28678     28677     28679
     28678     28679     28680     28681     28680     28682     28681     28682
     28683     28684     28683     28685     28684     28685     28686     28687
     28686     28688     28687     28688     28689     28690     28689     28691
     28690     28691     28692     28693     28692     28694     28693     28694
     28695     28696     28695     28697     28696     28697     28698     28699
     28698     28700     28699     28700     28701     28702     28701     28703
     28702     28703     28704     28705     28704     28706     28705     28706
     28707     28708     28707     28709     28708     28709     28710     28711
     28710     28712     28711     28712     28713     28714     28713     28715
     28714     28715     28716     28717     28716     28718     28717     28718
     28719     28720     28719     28721     28720     28721     28722     28723
     28722     28724     28723     28724     28725     28726     28725     28727
     28726     28727     28728     28729     28728     28730     28729     28730
     28731     28732     28731     28733     28732     28733     28734     28735
     28734     28736     28735     28736     28737     28738     28737     28739
     28738     28739     28740     28741     28740     28742     28741     28742
     28743     28744     28743     28745     28744     28745     28746     28747
     28746     28748     28747     28748     28749     28750     28749     28751
     28750     28751     28752     28753     28752     28754     28753     28754
     28755     28756     28755     28757     28756     28757     28758     28759
     28758     28760     28759     28760     28761     28762     28761     28763
     28762     28763     28764     28765     28764     28766     28765     28766
     28767     28768     28767     28769     28768     28769     28770     28771
     28770     28772     28771     28772     28773     28774     28773     28775
     28774     28775     28776     28777     28776     28778     28777     28778
     28779     28780     28779     28781     28780     28781     28782     28783
     28782     28784     28783     28784     28785     28786     28785     28787
     28786     28787     28788     28789     28788     28790     28789     28790
     28791     28792     28791     28793     28792     28793     28794     28795
     28794     28796     28795     28796     28797     28798     28797     28799
     28798     28799     28800     28801     28800     28802     28801     28802
     28803     28804     28803     28805     28804     28805     28806     28807
     28806     28808     28807     28808     28809     28810     28809     28811
     28810     28811     28812     28813     28812     28814     28813     28814
     28815     28816     28815     28817     28816     28817     28818     28819
     28818     28820     28819     28820     28821     28822     28821     28823
     28822     28823     28824     28825     28824     28826     28825     28826
     28827     28828     28827     28829     28828     28829     28830     28831
     28830     28832     28831     28832     28833     28834     28833     28835
     28834     28835     28836     28837     28836     28838     28837     28838
     28839     28840     28839     28841     28840     28841     28842     28843
     28842     28844     28843     28844     28845     28846     28845     28847
     28846     28847     28848     28849     28848     28850     28849     28850
     28851     28852     28851     28853     28852     28853     28854     28855
     28854     28856     28855     28856     28857     28858     28857     28859
     28858     28859     28860     28861     28860     28862     28861     28862
     28863     28864     28863     28865     28864     28865     28866     28867
     28866     28868     28867     28868     28869     28870     28869     28871
     28870     28871     28872     28873     28872     28874     28873     28874
     28875     28876     28875     28877     28876     28877     28878     28879
     28878     28880     28879     28880     28881     28882     28881     28883
     28882     28883     28884     28885     28884     28886     28885     28886
     28887     28888     28887     28889     28888     28889     28890     28891
     28890     28892     28891     28892     28893     28894     28893     28895
     28894     28895     28896     28897     28896     28898     28897     28898
     28899     28900     28899     28901     28900     28901     28902     28903
     28902     28904     28903     28904     28905     28906     28905     28907
     28906     28907     28908     28909     28908     28910     28909     28910
     28911     28912     28911     28913     28912     28913     28914     28915
     28914     28916     28915     28916     28917     28918     28917     28919
     28918     28919     28920     28921     28920     28922     28921     28922
     28923     28924     28923     28925     28924     28925     28926     28927
     28926     28928     28927     28928     28929     28930     28929     28931
     28930     28931     28932     28933     28932     28934     28933     28934
     28935     28936     28935     28937     28936     28937     28938     28939
     28938     28940     28939     28940     28941     28942     28941     28943
     28942     28943     28944     28945     28944     28946     28945     28946
     28947     28948     28947     28949     28948     28949     28950     28951
     28950     28952     28951     28952     28953     28954     28953     28955
     28954     28955     28956     28957     28956     28958     28957     28958
     28959     28960     28959     28961     28960     28961     28962     28963
     28962     28964     28963     28964     28965     28966     28965     28967
     28966     28967     28968     28969     28968     28970     28969     28970
     28971     28972     28971     28973     28972     28973     28974     28975
     28974     28976     28975     28976     28977     28978     28977     28979
     28978     28979     28980     28981     28980     28982     28981     28982
     28983     28984     28983     28985     28984     28985     28986     28987
     28986     28988     28987     28988     28989     28990     28989     28991
     28990     28991     28992     28993     28992     28994     28993     28994
     28995     28996     28995     28997     28996     28997     28998     28999
     28998     29000     28999     29000     29001     29002     29001     29003
     29002     29003     29004     29005     29004     29006     29005     29006
     29007     29008     29007     29009     29008     29009     29010     29011
     29010     29012     29011     29012     29013     29014     29013     29015
     29014     29015     29016     29017     29016     29018     29017     29018
     29019     29020     29019     29021     29020     29021     29022     29023
     29022     29024     29023     29024     29025     29026     29025     29027
     29026     29027     29028     29029     29028     29030     29029     29030
     29031     29032     29031     29033     29032     29033     29034     29035
     29034     29036     29035     29036     29037     29038     29037     29039
     29038     29039     29040     29041     29040     29042     29041     29042
     29043     29044     29043     29045     29044     29045     29046     29047
     29046     29048     29047     29048     29049     29050     29049     29051
     29050     29051     29052     29053     29052     29054     29053     29054
     29055     29056     29055     29057     29056     29057     29058     29059
     29058     29060     29059     29060     29061     29062     29061     29063
     29062     29063     29064     29065     29064     29066     29065     29066
     29067     29068     29067     29069     29068     29069     29070     29071
     29070     29072     29071     29072     29073     29074     29073     29075
     29074     29075     29076     29077     29076     29078     29077     29078
     29079     29080     29079     29081     29080     29081     29082     29083
     29082     29084     29083     29084     29085     29086     29085     29087
     29086     29087     29088     29089     29088     29090     29089     29090
     29091     29092     29091     29093     29092     29093     29094     29095
     29094     29096     29095     29096     29097     29098     29097     29099
     29098     29099     29100     29101     29100     29102     29101     29102
     29103     29104     29103     29105     29104     29105     29106     29107
     29106     29108     29107     29108     29109     29110     29109     29111
     29110     29111     29112     29113     29112     29114     29113     29114
     29115     29116     29115     29117     29116     29117     29118     29119
     29118     29120     29119     29120     29121     29122     29121     29123
     29122     29123     29124     29125     29124     29126     29125     29126
     29127     29128     29127     29129     29128     29129     29130     29131
     29130     29132     29131     29132     29133     29134     29133     29135
     29134     29135     29136     29137     29136     29138     29137     29138
     29139     29140     29139     29141     29140     29141     29142     29143
     29142     29144     29143     29144     29145     29146     29145     29147
     29146     29147     29148     29149     29148     29150     29149     29150
     29151     29152     29151     29153     29152     29153     29154     29155
     29154     29156     29155     29156     29157     29158     29157     29159
     29158     29159     29160     29161     29160     29162     29161     29162
     29163     29164     29163     29165     29164     29165     29166     29167
     29166     29168     29167     29168     29169     29170     29169     29171
     29170     29171     29172     29173     29172     29174     29173     29174
     29175     29176     29175     29177     29176     29177     29178     29179
     29178     29180     29179     29180     29181     29182     29181     29183
     29182     29183     29184     29185     29184     29186     29185     29186
     29187     29188     29187     29189     29188     29189     29190     29191
     29190     29192     29191     29192     29193     29194     29193     29195
     29194     29195     29196     29197     29196     29198     29197     29198
     29199     29200     29199     29201     29200     29201     29202     29203
     29202     29204     29203     29204     29205     29206     29205     29207
     29206     29207     29208     29209     29208     29210     29209     29210
     29211     29212     29211     29213     29212     29213     29214     29215
     29214     29216     29215     29216     29217     29218     29217     29219
     29218     29219     29220     29221     29220     29222     29221     29222
     29223     29224     29223     29225     29224     29225     29226     29227
     29226     29228     29227     29228     29229     29230     29229     29231
     29230     29231     29232     29233     29232     29234     29233     29234
     29235     29236     29235     29237     29236     29237     29238     29239
     29238     29240     29239     29240     29241     29242     29241     29243
     29242     29243     29244     29245     29244     29246     29245     29246
     29247     29248     29247     29249     29248     29249     29250     29251
     29250     29252     29251     29252     29253     29254     29253     29255
     29254     29255     29256     29257     29256     29258     29257     29258
     29259     29260     29259     29261     29260     29261     29262     29263
     29262     29264     29263     29264     29265     29266     29265     29267
     29266     29267     29268     29269     29268     29270     29269     29270
     29271     29272     29271     29273     29272     29273     29274     29275
     29274     29276     29275     29276     29277     29278     29277     29279
     29278     29279     29280     29281     29280     29282     29281     29282
     29283     29284     29283     29285     29284     29285     29286     29287
     29286     29288     29287     29288     29289     29290     29289     29291
     29290     29291     29292     29293     29292     29294     29293     29294
     29295     29296     29295     29297     29296     29297     29298     29299
     29298     29300     29299     29300     29301     29302     29301     29303
     29302     29303     29304     29305     29304     29306     29305     29306
     29307     29308     29307     29309     29308     29309     29310     29311
     29310     29312     29311     29312     29313     29314     29313     29315
     29314     29315     29316     29317     29316     29318     29317     29318
     29319     29320     29319     29321     29320     29321     29322     29323
     29322     29324     29323     29324     29325     29326     29325     29327
     29326     29327     29328     29329     29328     29330     29329     29330
     29331     29332     29331     29333     29332     29333     29334     29335
     29334     29336     29335     29336     29337     29338     29337     29339
     29338     29339     29340     29341     29340     29342     29341     29342
     29343     29344     29343     29345     29344     29345     29346     29347
     29346     29348     29347     29348     29349     29350     29349     29351
     29350     29351     29352     29353     29352     29354     29353     29354
     29355     29356     29355     29357     29356     29357     29358     29359
     29358     29360     29359     29360     29361     29362     29361     29363
     29362     29363     29364     29365     29364     29366     29365     29366
     29367     29368     29367     29369     29368     29369     29370     29371
     29370     29372     29371     29372     29373     29374     29373     29375
     29374     29375     29376     29377     29376     29378     29377     29378
     29379     29380     29379     29381     29380     29381     29382     29383
     29382     29384     29383     29384     29385     29386     29385     29387
     29386     29387     29388     29389     29388     29390     29389     29390
     29391     29392     29391     29393     29392     29393     29394     29395
     29394     29396     29395     29396     29397     29398     29397     29399
     29398     29399     29400     29401     29400     29402     29401     29402
     29403     29404     29403     29405     29404     29405     29406     29407
     29406     29408     29407     29408     29409     29410     29409     29411
     29410     29411     29412     29413     29412     29414     29413     29414
     29415     29416     29415     29417     29416     29417     29418     29419
     29418     29420     29419     29420     29421     29422     29421     29423
     29422     29423     29424     29425     29424     29426     29425     29426
     29427     29428     29427     29429     29428     29429     29430     29431
     29430     29432     29431     29432     29433     29434     29433     29435
     29434     29435     29436     29437     29436     29438     29437     29438
     29439     29440     29439     29441     29440     29441     29442     29443
     29442     29444     29443     29444     29445     29446     29445     29447
     29446     29447     29448     29449     29448     29450     29449     29450
     29451     29452     29451     29453     29452     29453     29454     29455
     29454     29456     29455     29456     29457     29458     29457     29459
     29458     29459     29460     29461     29460     29462     29461     29462
     29463     29464     29463     29465     29464     29465     29466     29467
     29466     29468     29467     29468     29469     29470     29469     29471
     29470     29471     29472     29473     29472     29474     29473     29474
     29475     29476     29475     29477     29476     29477     29478     29479
     29478     29480     29479     29480     29481     29482     29481     29483
     29482     29483     29484     29485     29484     29486     29485     29486
     29487     29488     29487     29489     29488     29489     29490     29491
     29490     29492     29491     29492     29493     29494     29493     29495
     29494     29495     29496     29497     29496     29498     29497     29498
     29499     29500     29499     29501     29500     29501     29502     29503
     29502     29504     29503     29504     29505     29506     29505     29507
     29506     29507     29508     29509     29508     29510     29509     29510
     29511     29512     29511     29513     29512     29513     29514     29515
     29514     29516     29515     29516     29517     29518     29517     29519
     29518     29519     29520     29521     29520     29522     29521     29522
     29523     29524     29523     29525     29524     29525     29526     29527
     29526     29528     29527     29528     29529     29530     29529     29531
     29530     29531     29532     29533     29532     29534     29533     29534
     29535     29536     29535     29537     29536     29537     29538     29539
     29538     29540     29539     29540     29541     29542     29541     29543
     29542     29543     29544     29545     29544     29546     29545     29546
     29547     29548     29547     29549     29548     29549     29550     29551
     29550     29552     29551     29552     29553     29554     29553     29555
     29554     29555     29556     29557     29556     29558     29557     29558
     29559     29560     29559     29561     29560     29561     29562     29563
     29562     29564     29563     29564     29565     29566     29565     29567
     29566     29567     29568     29569     29568     29570     29569     29570
     29571     29572     29571     29573     29572     29573     29574     29575
     29574     29576     29575     29576     29577     29578     29577     29579
     29578     29579     29580     29581     29580     29582     29581     29582
     29583     29584     29583     29585     29584     29585     29586     29587
     29586     29588     29587     29588     29589     29590     29589     29591
     29590     29591     29592     29593     29592     29594     29593     29594
     29595     29596     29595     29597     29596     29597     29598     29599
     29598     29600     29599     29600     29601     29602     29601     29603
     29602     29603     29604     29605     29604     29606     29605     29606
     29607     29608     29607     29609     29608     29609     29610     29611
     29610     29612     29611     29612     29613     29614     29613     29615
     29614     29615     29616     29617     29616     29618     29617     29618
     29619     29620     29619     29621     29620     29621     29622     29623
     29622     29624     29623     29624     29625     29626     29625     29627
     29626     29627     29628     29629     29628     29630     29629     29630
     29631     29632     29631     29633     29632     29633     29634     29635
     29634     29636     29635     29636     29637     29638     29637     29639
     29638     29639     29640     29641     29640     29642     29641     29642
     29643     29644     29643     29645     29644     29645     29646     29647
     29646     29648     29647     29648     29649     29650     29649     29651
     29650     29651     29652     29653     29652     29654     29653     29654
     29655     29656     29655     29657     29656     29657     29658     29659
     29658     29660     29659     29660     29661     29662     29661     29663
     29662     29663     29664     29665     29664     29666     29665     29666
     29667     29668     29667     29669     29668     29669     29670     29671
     29670     29672     29671     29672     29673     29674     29673     29675
     29674     29675     29676     29677     29676     29678     29677     29678
     29679     29680     29679     29681     29680     29681     29682     29683
     29682     29684     29683     29684     29685     29686     29685     29687
     29686     29687     29688     29689     29688     29690     29689     29690
     29691     29692     29691     29693     29692     29693     29694     29695
     29694     29696     29695     29696     29697     29698     29697     29699
     29698     29699     29700     29701     29700     29702     29701     29702
     29703     29704     29703     29705     29704     29705     29706     29707
     29706     29708     29707     29708     29709     29710     29709     29711
     29710     29711     29712     29713     29712     29714     29713     29714
     29715     29716     29715     29717     29716     29717     29718     29719
     29718     29720     29719     29720     29721     29722     29721     29723
     29722     29723     29724     29725     29724     29726     29725     29726
     29727     29728     29727     29729     29728     29729     29730     29731
     29730     29732     29731     29732     29733     29734     29733     29735
     29734     29735     29736     29737     29736     29738     29737     29738
     29739     29740     29739     29741     29740     29741     29742     29743
     29742     29744     29743     29744     29745     29746     29745     29747
     29746     29747     29748     29749     29748     29750     29749     29750
     29751     29752     29751     29753     29752     29753     29754     29755
     29754     29756     29755     29756     29757     29758     29757     29759
     29758     29759     29760     29761     29760     29762     29761     29762
     29763     29764     29763     29765     29764     29765     29766     29767
     29766     29768     29767     29768     29769     29770     29769     29771
     29770     29771     29772     29773     29772     29774     29773     29774
     29775     29776     29775     29777     29776     29777     29778     29779
     29778     29780     29779     29780     29781     29782     29781     29783
     29782     29783     29784     29785     29784     29786     29785     29786
     29787     29788     29787     29789     29788     29789     29790     29791
     29790     29792     29791     29792     29793     29794     29793     29795
     29794     29795     29796     29797     29796     29798     29797     29798
     29799     29800     29799     29801     29800     29801     29802     29803
     29802     29804     29803     29804     29805     29806     29805     29807
     29806     29807     29808     29809     29808     29810     29809     29810
     29811     29812     29811     29813     29812     29813     29814     29815
     29814     29816     29815     29816     29817     29818     29817     29819
     29818     29819     29820     29821     29820     29822     29821     29822
     29823     29824     29823     29825     29824     29825     29826     29827
     29826     29828     29827     29828     29829     29830     29829     29831
     29830     29831     29832     29833     29832     29834     29833     29834
     29835     29836     29835     29837     29836     29837     29838     29839
     29838     29840     29839     29840     29841     29842     29841     29843
     29842     29843     29844     29845     29844     29846     29845     29846
     29847     29848     29847     29849     29848     29849     29850     29851
     29850     29852     29851     29852     29853     29854     29853     29855
     29854     29855     29856     29857     29856     29858     29857     29858
     29859     29860     29859     29861     29860     29861     29862     29863
     29862     29864     29863     29864     29865     29866     29865     29867
     29866     29867     29868     29869     29868     29870     29869     29870
     29871     29872     29871     29873     29872     29873     29874     29875
     29874     29876     29875     29876     29877     29878     29877     29879
     29878     29879     29880     29881     29880     29882     29881     29882
     29883     29884     29883     29885     29884     29885     29886     29887
     29886     29888     29887     29888     29889     29890     29889     29891
     29890     29891     29892     29893     29892     29894     29893     29894
     29895     29896     29895     29897     29896     29897     29898     29899
     29898     29900     29899     29900     29901     29902     29901     29903
     29902     29903     29904     29905     29904     29906     29905     29906
     29907     29908     29907     29909     29908     29909     29910     29911
     29910     29912     29911     29912     29913     29914     29913     29915
     29914     29915     29916     29917     29916     29918     29917     29918
     29919     29920     29919     29921     29920     29921     29922     29923
     29922     29924     29923     29924     29925     29926     29925     29927
     29926     29927     29928     29929     29928     29930     29929     29930
     29931     29932     29931     29933     29932     29933     29934     29935
     29934     29936     29935     29936     29937     29938     29937     29939
     29938     29939     29940     29941     29940     29942     29941     29942
     29943     29944     29943     29945     29944     29945     29946     29947
     29946     29948     29947     29948     29949     29950     29949     29951
     29950     29951     29952     29953     29952     29954     29953     29954
     29955     29956     29955     29957     29956     29957     29958     29959
     29958     29960     29959     29960     29961     29962     29961     29963
     29962     29963     29964     29965     29964     29966     29965     29966
     29967     29968     29967     29969     29968     29969     29970     29971
     29970     29972     29971     29972     29973     29974     29973     29975
     29974     29975     29976     29977     29976     29978     29977     29978
     29979     29980     29979     29981     29980     29981     29982     29983
     29982     29984     29983     29984     29985     29986     29985     29987
     29986     29987     29988     29989     29988     29990     29989     29990
     29991     29992     29991     29993     29992     29993     29994     29995
     29994     29996     29995     29996     29997     29998     29997     29999
     29998     29999     30000     30001     30000     30002     30001     30002
     30003     30004     30003     30005     30004     30005     30006     30007
     30006     30008     30007     30008     30009     30010     30009     30011
     30010     30011     30012     30013     30012     30014     30013     30014
     30015     30016     30015     30017     30016     30017     30018     30019
     30018     30020     30019     30020     30021     30022     30021     30023
     30022     30023     30024     30025     30024     30026     30025     30026
     30027     30028     30027     30029     30028     30029     30030     30031
     30030     30032     30031     30032     30033     30034     30033     30035
     30034     30035     30036     30037     30036     30038     30037     30038
     30039     30040     30039     30041     30040     30041     30042     30043
     30042     30044     30043     30044     30045     30046     30045     30047
     30046     30047     30048     30049     30048     30050     30049     30050
     30051     30052     30051     30053     30052     30053     30054     30055
     30054     30056     30055     30056     30057     30058     30057     30059
     30058     30059     30060     30061     30060     30062     30061     30062
     30063     30064     30063     30065     30064     30065     30066     30067
     30066     30068     30067     30068     30069     30070     30069     30071
     30070     30071     30072     30073     30072     30074     30073     30074
     30075     30076     30075     30077     30076     30077     30078     30079
     30078     30080     30079     30080     30081     30082     30081     30083
     30082     30083     30084     30085     30084     30086     30085     30086
     30087     30088     30087     30089     30088     30089     30090     30091
     30090     30092     30091     30092     30093     30094     30093     30095
     30094     30095     30096     30097     30096     30098     30097     30098
     30099     30100     30099     30101     30100     30101     30102     30103
     30102     30104     30103     30104     30105     30106     30105     30107
     30106     30107     30108     30109     30108     30110     30109     30110
     30111     30112     30111     30113     30112     30113     30114     30115
     30114     30116     30115     30116     30117     30118     30117     30119
     30118     30119     30120     30121     30120     30122     30121     30122
     30123     30124     30123     30125     30124     30125     30126     30127
     30126     30128     30127     30128     30129     30130     30129     30131
     30130     30131     30132     30133     30132     30134     30133     30134
     30135     30136     30135     30137     30136     30137     30138     30139
     30138     30140     30139     30140     30141     30142     30141     30143
     30142     30143     30144     30145     30144     30146     30145     30146
     30147     30148     30147     30149     30148     30149     30150     30151
     30150     30152     30151     30152     30153     30154     30153     30155
     30154     30155     30156     30157     30156     30158     30157     30158
     30159     30160     30159     30161     30160     30161     30162     30163
     30162     30164     30163     30164     30165     30166     30165     30167
     30166     30167     30168     30169     30168     30170     30169     30170
     30171     30172     30171     30173     30172     30173     30174     30175
     30174     30176     30175     30176     30177     30178     30177     30179
     30178     30179     30180     30181     30180     30182     30181     30182
     30183     30184     30183     30185     30184     30185     30186     30187
     30186     30188     30187     30188     30189     30190     30189     30191
     30190     30191     30192     30193     30192     30194     30193     30194
     30195     30196     30195     30197     30196     30197     30198     30199
     30198     30200     30199     30200     30201     30202     30201     30203
     30202     30203     30204     30205     30204     30206     30205     30206
     30207     30208     30207     30209     30208     30209     30210     30211
     30210     30212     30211     30212     30213     30214     30213     30215
     30214     30215     30216     30217     30216     30218     30217     30218
     30219     30220     30219     30221     30220     30221     30222     30223
     30222     30224     30223     30224     30225     30226     30225     30227
     30226     30227     30228     30229     30228     30230     30229     30230
     30231     30232     30231     30233     30232     30233     30234     30235
     30234     30236     30235     30236     30237     30238     30237     30239
     30238     30239     30240     30241     30240     30242     30241     30242
     30243     30244     30243     30245     30244     30245     30246     30247
     30246     30248     30247     30248     30249     30250     30249     30251
     30250     30251     30252     30253     30252     30254     30253     30254
     30255     30256     30255     30257     30256     30257     30258     30259
     30258     30260     30259     30260     30261     30262     30261     30263
     30262     30263     30264     30265     30264     30266     30265     30266
     30267     30268     30267     30269     30268     30269     30270     30271
     30270     30272     30271     30272     30273     30274     30273     30275
     30274     30275     30276     30277     30276     30278     30277     30278
     30279     30280     30279     30281     30280     30281     30282     30283
     30282     30284     30283     30284     30285     30286     30285     30287
     30286     30287     30288     30289     30288     30290     30289     30290
     30291     30292     30291     30293     30292     30293     30294     30295
     30294     30296     30295     30296     30297     30298     30297     30299
     30298     30299     30300     30301     30300     30302     30301     30302
     30303     30304     30303     30305     30304     30305     30306     30307
     30306     30308     30307     30308     30309     30310     30309     30311
     30310     30311     30312     30313     30312     30314     30313     30314
     30315     30316     30315     30317     30316     30317     30318     30319
     30318     30320     30319     30320     30321     30322     30321     30323
     30322     30323     30324     30325     30324     30326     30325     30326
     30327     30328     30327     30329     30328     30329     30330     30331
     30330     30332     30331     30332     30333     30334     30333     30335
     30334     30335     30336     30337     30336     30338     30337     30338
     30339     30340     30339     30341     30340     30341     30342     30343
     30342     30344     30343     30344     30345     30346     30345     30347
     30346     30347     30348     30349     30348     30350     30349     30350
     30351     30352     30351     30353     30352     30353     30354     30355
     30354     30356     30355     30356     30357     30358     30357     30359
     30358     30359     30360     30361     30360     30362     30361     30362
     30363     30364     30363     30365     30364     30365     30366     30367
     30366     30368     30367     30368     30369     30370     30369     30371
     30370     30371     30372     30373     30372     30374     30373     30374
     30375     30376     30375     30377     30376     30377     30378     30379
     30378     30380     30379     30380     30381     30382     30381     30383
     30382     30383     30384     30385     30384     30386     30385     30386
     30387     30388     30387     30389     30388     30389     30390     30391
     30390     30392     30391     30392     30393     30394     30393     30395
     30394     30395     30396     30397     30396     30398     30397     30398
     30399     30400     30399     30401     30400     30401     30402     30403
     30402     30404     30403     30404     30405     30406     30405     30407
     30406     30407     30408     30409     30408     30410     30409     30410
     30411     30412     30411     30413     30412     30413     30414     30415
     30414     30416     30415     30416     30417     30418     30417     30419
     30418     30419     30420     30421     30420     30422     30421     30422
     30423     30424     30423     30425     30424     30425     30426     30427
     30426     30428     30427     30428     30429     30430     30429     30431
     30430     30431     30432     30433     30432     30434     30433     30434
     30435     30436     30435     30437     30436     30437     30438     30439
     30438     30440     30439     30440     30441     30442     30441     30443
     30442     30443     30444     30445     30444     30446     30445     30446
     30447     30448     30447     30449     30448     30449     30450     30451
     30450     30452     30451     30452     30453     30454     30453     30455
     30454     30455     30456     30457     30456     30458     30457     30458
     30459     30460     30459     30461     30460     30461     30462     30463
     30462     30464     30463     30464     30465     30466     30465     30467
     30466     30467     30468     30469     30468     30470     30469     30470
     30471     30472     30471     30473     30472     30473     30474     30475
     30474     30476     30475     30476     30477     30478     30477     30479
     30478     30479     30480     30481     30480     30482     30481     30482
     30483     30484     30483     30485     30484     30485     30486     30487
     30486     30488     30487     30488     30489     30490     30489     30491
     30490     30491     30492     30493     30492     30494     30493     30494
     30495     30496     30495     30497     30496     30497     30498     30499
     30498     30500     30499     30500     30501     30502     30501     30503
     30502     30503     30504     30505     30504     30506     30505     30506
     30507     30508     30507     30509     30508     30509     30510     30511
     30510     30512     30511     30512     30513     30514     30513     30515
     30514     30515     30516     30517     30516     30518     30517     30518
     30519     30520     30519     30521     30520     30521     30522     30523
     30522     30524     30523     30524     30525     30526     30525     30527
     30526     30527     30528     30529     30528     30530     30529     30530
     30531     30532     30531     30533     30532     30533     30534     30535
     30534     30536     30535     30536     30537     30538     30537     30539
     30538     30539     30540     30541     30540     30542     30541     30542
     30543     30544     30543     30545     30544     30545     30546     30547
     30546     30548     30547     30548     30549     30550     30549     30551
     30550     30551     30552     30553     30552     30554     30553     30554
     30555     30556     30555     30557     30556     30557     30558     30559
     30558     30560     30559     30560     30561     30562     30561     30563
     30562     30563     30564     30565     30564     30566     30565     30566
     30567     30568     30567     30569     30568     30569     30570     30571
     30570     30572     30571     30572     30573     30574     30573     30575
     30574     30575     30576     30577     30576     30578     30577     30578
     30579     30580     30579     30581     30580     30581     30582     30583
     30582     30584     30583     30584     30585     30586     30585     30587
     30586     30587     30588     30589     30588     30590     30589     30590
     30591     30592     30591     30593     30592     30593     30594     30595
     30594     30596     30595     30596     30597     30598     30597     30599
     30598     30599     30600     30601     30600     30602     30601     30602
     30603     30604     30603     30605     30604     30605     30606     30607
     30606     30608     30607     30608     30609     30610     30609     30611
     30610     30611     30612     30613     30612     30614     30613     30614
     30615     30616     30615     30617     30616     30617     30618     30619
     30618     30620     30619     30620     30621     30622     30621     30623
     30622     30623     30624     30625     30624     30626     30625     30626
     30627     30628     30627     30629     30628     30629     30630     30631
     30630     30632     30631     30632     30633     30634     30633     30635
     30634     30635     30636     30637     30636     30638     30637     30638
     30639     30640     30639     30641     30640     30641     30642     30643
     30642     30644     30643     30644     30645     30646     30645     30647
     30646     30647     30648     30649     30648     30650     30649     30650
     30651     30652     30651     30653     30652     30653     30654     30655
     30654     30656     30655     30656     30657     30658     30657     30659
     30658     30659     30660     30661     30660     30662     30661     30662
     30663     30664     30663     30665     30664     30665     30666     30667
     30666     30668     30667     30668     30669     30670     30669     30671
     30670     30671     30672     30673     30672     30674     30673     30674
     30675     30676     30675     30677     30676     30677     30678     30679
     30678     30680     30679     30680     30681     30682     30681     30683
     30682     30683     30684     30685     30684     30686     30685     30686
     30687     30688     30687     30689     30688     30689     30690     30691
     30690     30692     30691     30692     30693     30694     30693     30695
     30694     30695     30696     30697     30696     30698     30697     30698
     30699     30700     30699     30701     30700     30701     30702     30703
     30702     30704     30703     30704     30705     30706     30705     30707
     30706     30707     30708     30709     30708     30710     30709     30710
     30711     30712     30711     30713     30712     30713     30714     30715
     30714     30716     30715     30716     30717     30718     30717     30719
     30718     30719     30720     30721     30720     30722     30721     30722
     30723     30724     30723     30725     30724     30725     30726     30727
     30726     30728     30727     30728     30729     30730     30729     30731
     30730     30731     30732     30733     30732     30734     30733     30734
     30735     30736     30735     30737     30736     30737     30738     30739
     30738     30740     30739     30740     30741     30742     30741     30743
     30742     30743     30744     30745     30744     30746     30745     30746
     30747     30748     30747     30749     30748     30749     30750     30751
     30750     30752     30751     30752     30753     30754     30753     30755
     30754     30755     30756     30757     30756     30758     30757     30758
     30759     30760     30759     30761     30760     30761     30762     30763
     30762     30764     30763     30764     30765     30766     30765     30767
     30766     30767     30768     30769     30768     30770     30769     30770
     30771     30772     30771     30773     30772     30773     30774     30775
     30774     30776     30775     30776     30777     30778     30777     30779
     30778     30779     30780     30781     30780     30782     30781     30782
     30783     30784     30783     30785     30784     30785     30786     30787
     30786     30788     30787     30788     30789     30790     30789     30791
     30790     30791     30792     30793     30792     30794     30793     30794
     30795     30796     30795     30797     30796     30797     30798     30799
     30798     30800     30799     30800     30801     30802     30801     30803
     30802     30803     30804     30805     30804     30806     30805     30806
     30807     30808     30807     30809     30808     30809     30810     30811
     30810     30812     30811     30812     30813     30814     30813     30815
     30814     30815     30816     30817     30816     30818     30817     30818
     30819     30820     30819     30821     30820     30821     30822     30823
     30822     30824     30823     30824     30825     30826     30825     30827
     30826     30827     30828     30829     30828     30830     30829     30830
     30831     30832     30831     30833     30832     30833     30834     30835
     30834     30836     30835     30836     30837     30838     30837     30839
     30838     30839     30840     30841     30840     30842     30841     30842
     30843     30844     30843     30845     30844     30845     30846     30847
     30846     30848     30847     30848     30849     30850     30849     30851
     30850     30851     30852     30853     30852     30854     30853     30854
     30855     30856     30855     30857     30856     30857     30858     30859
     30858     30860     30859     30860     30861     30862     30861     30863
     30862     30863     30864     30865     30864     30866     30865     30866
     30867     30868     30867     30869     30868     30869     30870     30871
     30870     30872     30871     30872     30873     30874     30873     30875
     30874     30875     30876     30877     30876     30878     30877     30878
     30879     30880     30879     30881     30880     30881     30882     30883
     30882     30884     30883     30884     30885     30886     30885     30887
     30886     30887     30888     30889     30888     30890     30889     30890
     30891     30892     30891     30893     30892     30893     30894     30895
     30894     30896     30895     30896     30897     30898     30897     30899
     30898     30899     30900     30901     30900     30902     30901     30902
     30903     30904     30903     30905     30904     30905     30906     30907
     30906     30908     30907     30908     30909     30910     30909     30911
     30910     30911     30912     30913     30912     30914     30913     30914
     30915     30916     30915     30917     30916     30917     30918     30919
     30918     30920     30919     30920     30921     30922     30921     30923
     30922     30923     30924     30925     30924     30926     30925     30926
     30927     30928     30927     30929     30928     30929     30930     30931
     30930     30932     30931     30932     30933     30934     30933     30935
     30934     30935     30936     30937     30936     30938     30937     30938
     30939     30940     30939     30941     30940     30941     30942     30943
     30942     30944     30943     30944     30945     30946     30945     30947
     30946     30947     30948     30949     30948     30950     30949     30950
     30951     30952     30951     30953     30952     30953     30954     30955
     30954     30956     30955     30956     30957     30958     30957     30959
     30958     30959     30960     30961     30960     30962     30961     30962
     30963     30964     30963     30965     30964     30965     30966     30967
     30966     30968     30967     30968     30969     30970     30969     30971
     30970     30971     30972     30973     30972     30974     30973     30974
     30975     30976     30975     30977     30976     30977     30978     30979
     30978     30980     30979     30980     30981     30982     30981     30983
     30982     30983     30984     30985     30984     30986     30985     30986
     30987     30988     30987     30989     30988     30989     30990     30991
     30990     30992     30991     30992     30993     30994     30993     30995
     30994     30995     30996     30997     30996     30998     30997     30998
     30999     31000     30999     31001     31000     31001     31002     31003
     31002     31004     31003     31004     31005     31006     31005     31007
     31006     31007     31008     31009     31008     31010     31009     31010
     31011     31012     31011     31013     31012     31013     31014     31015
     31014     31016     31015     31016     31017     31018     31017     31019
     31018     31019     31020     31021     31020     31022     31021     31022
     31023     31024     31023     31025     31024     31025     31026     31027
     31026     31028     31027     31028     31029     31030     31029     31031
     31030     31031     31032     31033     31032     31034     31033     31034
     31035     31036     31035     31037     31036     31037     31038     31039
     31038     31040     31039     31040     31041     31042     31041     31043
     31042     31043     31044     31045     31044     31046     31045     31046
     31047     31048     31047     31049     31048     31049     31050     31051
     31050     31052     31051     31052     31053     31054     31053     31055
     31054     31055     31056     31057     31056     31058     31057     31058
     31059     31060     31059     31061     31060     31061     31062     31063
     31062     31064     31063     31064     31065     31066     31065     31067
     31066     31067     31068     31069     31068     31070     31069     31070
     31071     31072     31071     31073     31072     31073     31074     31075
     31074     31076     31075     31076     31077     31078     31077     31079
     31078     31079     31080     31081     31080     31082     31081     31082
     31083     31084     31083     31085     31084     31085     31086     31087
     31086     31088     31087     31088     31089     31090     31089     31091
     31090     31091     31092     31093     31092     31094     31093     31094
     31095     31096     31095     31097     31096     31097     31098     31099
     31098     31100     31099     31100     31101     31102     31101     31103
     31102     31103     31104     31105     31104     31106     31105     31106
     31107     31108     31107     31109     31108     31109     31110     31111
     31110     31112     31111     31112     31113     31114     31113     31115
     31114     31115     31116     31117     31116     31118     31117     31118
     31119     31120     31119     31121     31120     31121     31122     31123
     31122     31124     31123     31124     31125     31126     31125     31127
     31126     31127     31128     31129     31128     31130     31129     31130
     31131     31132     31131     31133     31132     31133     31134     31135
     31134     31136     31135     31136     31137     31138     31137     31139
     31138     31139     31140     31141     31140     31142     31141     31142
     31143     31144     31143     31145     31144     31145     31146     31147
     31146     31148     31147     31148     31149     31150     31149     31151
     31150     31151     31152     31153     31152     31154     31153     31154
     31155     31156     31155     31157     31156     31157     31158     31159
     31158     31160     31159     31160     31161     31162     31161     31163
     31162     31163     31164     31165     31164     31166     31165     31166
     31167     31168     31167     31169     31168     31169     31170     31171
     31170     31172     31171     31172     31173     31174     31173     31175
     31174     31175     31176     31177     31176     31178     31177     31178
     31179     31180     31179     31181     31180     31181     31182     31183
     31182     31184     31183     31184     31185     31186     31185     31187
     31186     31187     31188     31189     31188     31190     31189     31190
     31191     31192     31191     31193     31192     31193     31194     31195
     31194     31196     31195     31196     31197     31198     31197     31199
     31198     31199     31200     31201     31200     31202     31201     31202
     31203     31204     31203     31205     31204     31205     31206     31207
     31206     31208     31207     31208     31209     31210     31209     31211
     31210     31211     31212     31213     31212     31214     31213     31214
     31215     31216     31215     31217     31216     31217     31218     31219
     31218     31220     31219     31220     31221     31222     31221     31223
     31222     31223     31224     31225     31224     31226     31225     31226
     31227     31228     31227     31229     31228     31229     31230     31231
     31230     31232     31231     31232     31233     31234     31233     31235
     31234     31235     31236     31237     31236     31238     31237     31238
     31239     31240     31239     31241     31240     31241     31242     31243
     31242     31244     31243     31244     31245     31246     31245     31247
     31246     31247     31248     31249     31248     31250     31249     31250
     31251     31252     31251     31253     31252     31253     31254     31255
     31254     31256     31255     31256     31257     31258     31257     31259
     31258     31259     31260     31261     31260     31262     31261     31262
     31263     31264     31263     31265     31264     31265     31266     31267
     31266     31268     31267     31268     31269     31270     31269     31271
     31270     31271     31272     31273     31272     31274     31273     31274
     31275     31276     31275     31277     31276     31277     31278     31279
     31278     31280     31279     31280     31281     31282     31281     31283
     31282     31283     31284     31285     31284     31286     31285     31286
     31287     31288     31287     31289     31288     31289     31290     31291
     31290     31292     31291     31292     31293     31294     31293     31295
     31294     31295     31296     31297     31296     31298     31297     31298
     31299     31300     31299     31301     31300     31301     31302     31303
     31302     31304     31303     31304     31305     31306     31305     31307
     31306     31307     31308     31309     31308     31310     31309     31310
     31311     31312     31311     31313     31312     31313     31314     31315
     31314     31316     31315     31316     31317     31318     31317     31319
     31318     31319     31320     31321     31320     31322     31321     31322
     31323     31324     31323     31325     31324     31325     31326     31327
     31326     31328     31327     31328     31329     31330     31329     31331
     31330     31331     31332     31333     31332     31334     31333     31334
     31335     31336     31335     31337     31336     31337     31338     31339
     31338     31340     31339     31340     31341     31342     31341     31343
     31342     31343     31344     31345     31344     31346     31345     31346
     31347     31348     31347     31349     31348     31349     31350     31351
     31350     31352     31351     31352     31353     31354     31353     31355
     31354     31355     31356     31357     31356     31358     31357     31358
     31359     31360     31359     31361     31360     31361     31362     31363
     31362     31364     31363     31364     31365     31366     31365     31367
     31366     31367     31368     31369     31368     31370     31369     31370
     31371     31372     31371     31373     31372     31373     31374     31375
     31374     31376     31375     31376     31377     31378     31377     31379
     31378     31379     31380     31381     31380     31382     31381     31382
     31383     31384     31383     31385     31384     31385     31386     31387
     31386     31388     31387     31388     31389     31390     31389     31391
     31390     31391     31392     31393     31392     31394     31393     31394
     31395     31396     31395     31397     31396     31397     31398     31399
     31398     31400     31399     31400     31401     31402     31401     31403
     31402     31403     31404     31405     31404     31406     31405     31406
     31407     31408     31407     31409     31408     31409     31410     31411
     31410     31412     31411     31412     31413     31414     31413     31415
     31414     31415     31416     31417     31416     31418     31417     31418
     31419     31420     31419     31421     31420     31421     31422     31423
     31422     31424     31423     31424     31425     31426     31425     31427
     31426     31427     31428     31429     31428     31430     31429     31430
     31431     31432     31431     31433     31432     31433     31434     31435
     31434     31436     31435     31436     31437     31438     31437     31439
     31438     31439     31440     31441     31440     31442     31441     31442
     31443     31444     31443     31445     31444     31445     31446     31447
     31446     31448     31447     31448     31449     31450     31449     31451
     31450     31451     31452     31453     31452     31454     31453     31454
     31455     31456     31455     31457     31456     31457     31458     31459
     31458     31460     31459     31460     31461     31462     31461     31463
     31462     31463     31464     31465     31464     31466     31465     31466
     31467     31468     31467     31469     31468     31469     31470     31471
     31470     31472     31471     31472     31473     31474     31473     31475
     31474     31475     31476     31477     31476     31478     31477     31478
     31479     31480     31479     31481     31480     31481     31482     31483
     31482     31484     31483     31484     31485     31486     31485     31487
     31486     31487     31488     31489     31488     31490     31489     31490
     31491     31492     31491     31493     31492     31493     31494     31495
     31494     31496     31495     31496     31497     31498     31497     31499
     31498     31499     31500     31501     31500     31502     31501     31502
     31503     31504     31503     31505     31504     31505     31506     31507
     31506     31508     31507     31508     31509     31510     31509     31511
     31510     31511     31512     31513     31512     31514     31513     31514
     31515     31516     31515     31517     31516     31517     31518     31519
     31518     31520     31519     31520     31521     31522     31521     31523
     31522     31523     31524     31525     31524     31526     31525     31526
     31527     31528     31527     31529     31528     31529     31530     31531
     31530     31532     31531     31532     31533     31534     31533     31535
     31534     31535     31536     31537     31536     31538     31537     31538
     31539     31540     31539     31541     31540     31541     31542     31543
     31542     31544     31543     31544     31545     31546     31545     31547
     31546     31547     31548     31549     31548     31550     31549     31550
     31551     31552     31551     31553     31552     31553     31554     31555
     31554     31556     31555     31556     31557     31558     31557     31559
     31558     31559     31560     31561     31560     31562     31561     31562
     31563     31564     31563     31565     31564     31565     31566     31567
     31566     31568     31567     31568     31569     31570     31569     31571
     31570     31571     31572     31573     31572     31574     31573     31574
     31575     31576     31575     31577     31576     31577     31578     31579
     31578     31580     31579     31580     31581     31582     31581     31583
     31582     31583     31584     31585     31584     31586     31585     31586
     31587     31588     31587     31589     31588     31589     31590     31591
     31590     31592     31591     31592     31593     31594     31593     31595
     31594     31595     31596     31597     31596     31598     31597     31598
     31599     31600     31599     31601     31600     31601     31602     31603
     31602     31604     31603     31604     31605     31606     31605     31607
     31606     31607     31608     31609     31608     31610     31609     31610
     31611     31612     31611     31613     31612     31613     31614     31615
     31614     31616     31615     31616     31617     31618     31617     31619
     31618     31619     31620     31621     31620     31622     31621     31622
     31623     31624     31623     31625     31624     31625     31626     31627
     31626     31628     31627     31628     31629     31630     31629     31631
     31630     31631     31632     31633     31632     31634     31633     31634
     31635     31636     31635     31637     31636     31637     31638     31639
     31638     31640     31639     31640     31641     31642     31641     31643
     31642     31643     31644     31645     31644     31646     31645     31646
     31647     31648     31647     31649     31648     31649     31650     31651
     31650     31652     31651     31652     31653     31654     31653     31655
     31654     31655     31656     31657     31656     31658     31657     31658
     31659     31660     31659     31661     31660     31661     31662     31663
     31662     31664     31663     31664     31665     31666     31665     31667
     31666     31667     31668     31669     31668     31670     31669     31670
     31671     31672     31671     31673     31672     31673     31674     31675
     31674     31676     31675     31676     31677     31678     31677     31679
     31678     31679     31680     31681     31680     31682     31681     31682
     31683     31684     31683     31685     31684     31685     31686     31687
     31686     31688     31687     31688     31689     31690     31689     31691
     31690     31691     31692     31693     31692     31694     31693     31694
     31695     31696     31695     31697     31696     31697     31698     31699
     31698     31700     31699     31700     31701     31702     31701     31703
     31702     31703     31704     31705     31704     31706     31705     31706
     31707     31708     31707     31709     31708     31709     31710     31711
     31710     31712     31711     31712     31713     31714     31713     31715
     31714     31715     31716     31717     31716     31718     31717     31718
     31719     31720     31719     31721     31720     31721     31722     31723
     31722     31724     31723     31724     31725     31726     31725     31727
     31726     31727     31728     31729     31728     31730     31729     31730
     31731     31732     31731     31733     31732     31733     31734     31735
     31734     31736     31735     31736     31737     31738     31737     31739
     31738     31739     31740     31741     31740     31742     31741     31742
     31743     31744     31743     31745     31744     31745     31746     31747
     31746     31748     31747     31748     31749     31750     31749     31751
     31750     31751     31752     31753     31752     31754     31753     31754
     31755     31756     31755     31757     31756     31757     31758     31759
     31758     31760     31759     31760     31761     31762     31761     31763
     31762     31763     31764     31765     31764     31766     31765     31766
     31767     31768     31767     31769     31768     31769     31770     31771
     31770     31772     31771     31772     31773     31774     31773     31775
     31774     31775     31776     31777     31776     31778     31777     31778
     31779     31780     31779     31781     31780     31781     31782     31783
     31782     31784     31783     31784     31785     31786     31785     31787
     31786     31787     31788     31789     31788     31790     31789     31790
     31791     31792     31791     31793     31792     31793     31794     31795
     31794     31796     31795     31796     31797     31798     31797     31799
     31798     31799     31800     31801     31800     31802     31801     31802
     31803     31804     31803     31805     31804     31805     31806     31807
     31806     31808     31807     31808     31809     31810     31809     31811
     31810     31811     31812     31813     31812     31814     31813     31814
     31815     31816     31815     31817     31816     31817     31818     31819
     31818     31820     31819     31820     31821     31822     31821     31823
     31822     31823     31824     31825     31824     31826     31825     31826
     31827     31828     31827     31829     31828     31829     31830     31831
     31830     31832     31831     31832     31833     31834     31833     31835
     31834     31835     31836     31837     31836     31838     31837     31838
     31839     31840     31839     31841     31840     31841     31842     31843
     31842     31844     31843     31844     31845     31846     31845     31847
     31846     31847     31848     31849     31848     31850     31849     31850
     31851     31852     31851     31853     31852     31853     31854     31855
     31854     31856     31855     31856     31857     31858     31857     31859
     31858     31859     31860     31861     31860     31862     31861     31862
     31863     31864     31863     31865     31864     31865     31866     31867
     31866     31868     31867     31868     31869     31870     31869     31871
     31870     31871     31872     31873     31872     31874     31873     31874
     31875     31876     31875     31877     31876     31877     31878     31879
     31878     31880     31879     31880     31881     31882     31881     31883
     31882     31883     31884     31885     31884     31886     31885     31886
     31887     31888     31887     31889     31888     31889     31890     31891
     31890     31892     31891     31892     31893     31894     31893     31895
     31894     31895     31896     31897     31896     31898     31897     31898
     31899     31900     31899     31901     31900     31901     31902     31903
     31902     31904     31903     31904     31905     31906     31905     31907
     31906     31907     31908     31909     31908     31910     31909     31910
     31911     31912     31911     31913     31912     31913     31914     31915
     31914     31916     31915     31916     31917     31918     31917     31919
     31918     31919     31920     31921     31920     31922     31921     31922
     31923     31924     31923     31925     31924     31925     31926     31927
     31926     31928     31927     31928     31929     31930     31929     31931
     31930     31931     31932     31933     31932     31934     31933     31934
     31935     31936     31935     31937     31936     31937     31938     31939
     31938     31940     31939     31940     31941     31942     31941     31943
     31942     31943     31944     31945     31944     31946     31945     31946
     31947     31948     31947     31949     31948     31949     31950     31951
     31950     31952     31951     31952     31953     31954     31953     31955
     31954     31955     31956     31957     31956     31958     31957     31958
     31959     31960     31959     31961     31960     31961     31962     31963
     31962     31964     31963     31964     31965     31966     31965     31967
     31966     31967     31968     31969     31968     31970     31969     31970
     31971     31972     31971     31973     31972     31973     31974     31975
     31974     31976     31975     31976     31977     31978     31977     31979
     31978     31979     31980     31981     31980     31982     31981     31982
     31983     31984     31983     31985     31984     31985     31986     31987
     31986     31988     31987     31988     31989     31990     31989     31991
     31990     31991     31992     31993     31992     31994     31993     31994
     31995     31996     31995     31997     31996     31997     31998     31999
     31998     32000     31999     32000     32001     32002     32001     32003
     32002     32003     32004     32005     32004     32006     32005     32006
     32007     32008     32007     32009     32008     32009     32010     32011
     32010     32012     32011     32012     32013     32014     32013     32015
     32014     32015     32016     32017     32016     32018     32017     32018
     32019     32020     32019     32021     32020     32021     32022     32023
     32022     32024     32023     32024     32025     32026     32025     32027
     32026     32027     32028     32029     32028     32030     32029     32030
     32031     32032     32031     32033     32032     32033     32034     32035
     32034     32036     32035     32036     32037     32038     32037     32039
     32038     32039     32040     32041     32040     32042     32041     32042
     32043     32044     32043     32045     32044     32045     32046     32047
     32046     32048     32047     32048     32049     32050     32049     32051
     32050     32051     32052     32053     32052     32054     32053     32054
     32055     32056     32055     32057     32056     32057     32058     32059
     32058     32060     32059     32060     32061     32062     32061     32063
     32062     32063     32064     32065     32064     32066     32065     32066
     32067     32068     32067     32069     32068     32069     32070     32071
     32070     32072     32071     32072     32073     32074     32073     32075
     32074     32075     32076     32077     32076     32078     32077     32078
     32079     32080     32079     32081     32080     32081     32082     32083
     32082     32084     32083     32084     32085     32086     32085     32087
     32086     32087     32088     32089     32088     32090     32089     32090
     32091     32092     32091     32093     32092     32093     32094     32095
     32094     32096     32095     32096     32097     32098     32097     32099
     32098     32099     32100     32101     32100     32102     32101     32102
     32103     32104     32103     32105     32104     32105     32106     32107
     32106     32108     32107     32108     32109     32110     32109     32111
     32110     32111     32112     32113     32112     32114     32113     32114
     32115     32116     32115     32117     32116     32117     32118     32119
     32118     32120     32119     32120     32121     32122     32121     32123
     32122     32123     32124     32125     32124     32126     32125     32126
     32127     32128     32127     32129     32128     32129     32130     32131
     32130     32132     32131     32132     32133     32134     32133     32135
     32134     32135     32136     32137     32136     32138     32137     32138
     32139     32140     32139     32141     32140     32141     32142     32143
     32142     32144     32143     32144     32145     32146     32145     32147
     32146     32147     32148     32149     32148     32150     32149     32150
     32151     32152     32151     32153     32152     32153     32154     32155
     32154     32156     32155     32156     32157     32158     32157     32159
     32158     32159     32160     32161     32160     32162     32161     32162
     32163     32164     32163     32165     32164     32165     32166     32167
     32166     32168     32167     32168     32169     32170     32169     32171
     32170     32171     32172     32173     32172     32174     32173     32174
     32175     32176     32175     32177     32176     32177     32178     32179
     32178     32180     32179     32180     32181     32182     32181     32183
     32182     32183     32184     32185     32184     32186     32185     32186
     32187     32188     32187     32189     32188     32189     32190     32191
     32190     32192     32191     32192     32193     32194     32193     32195
     32194     32195     32196     32197     32196     32198     32197     32198
     32199     32200     32199     32201     32200     32201     32202     32203
     32202     32204     32203     32204     32205     32206     32205     32207
     32206     32207     32208     32209     32208     32210     32209     32210
     32211     32212     32211     32213     32212     32213     32214     32215
     32214     32216     32215     32216     32217     32218     32217     32219
     32218     32219     32220     32221     32220     32222     32221     32222
     32223     32224     32223     32225     32224     32225     32226     32227
     32226     32228     32227     32228     32229     32230     32229     32231
     32230     32231     32232     32233     32232     32234     32233     32234
     32235     32236     32235     32237     32236     32237     32238     32239
     32238     32240     32239     32240     32241     32242     32241     32243
     32242     32243     32244     32245     32244     32246     32245     32246
     32247     32248     32247     32249     32248     32249     32250     32251
     32250     32252     32251     32252     32253     32254     32253     32255
     32254     32255     32256     32257     32256     32258     32257     32258
     32259     32260     32259     32261     32260     32261     32262     32263
     32262     32264     32263     32264     32265     32266     32265     32267
     32266     32267     32268     32269     32268     32270     32269     32270
     32271     32272     32271     32273     32272     32273     32274     32275
     32274     32276     32275     32276     32277     32278     32277     32279
     32278     32279     32280     32281     32280     32282     32281     32282
     32283     32284     32283     32285     32284     32285     32286     32287
     32286     32288     32287     32288     32289     32290     32289     32291
     32290     32291     32292     32293     32292     32294     32293     32294
     32295     32296     32295     32297     32296     32297     32298     32299
     32298     32300     32299     32300     32301     32302     32301     32303
     32302     32303     32304     32305     32304     32306     32305     32306
     32307     32308     32307     32309     32308     32309     32310     32311
     32310     32312     32311     32312     32313     32314     32313     32315
     32314     32315     32316     32317     32316     32318     32317     32318
     32319     32320     32319     32321     32320     32321     32322     32323
     32322     32324     32323     32324     32325     32326     32325     32327
     32326     32327     32328     32329     32328     32330     32329     32330
     32331     32332     32331     32333     32332     32333     32334     32335
     32334     32336     32335     32336     32337     32338     32337     32339
     32338     32339     32340     32341     32340     32342     32341     32342
     32343     32344     32343     32345     32344     32345     32346     32347
     32346     32348     32347     32348     32349     32350     32349     32351
     32350     32351     32352     32353     32352     32354     32353     32354
     32355     32356     32355     32357     32356     32357     32358     32359
     32358     32360     32359     32360     32361     32362     32361     32363
     32362     32363     32364     32365     32364     32366     32365     32366
     32367     32368     32367     32369     32368     32369     32370     32371
     32370     32372     32371     32372     32373     32374     32373     32375
     32374     32375     32376     32377     32376     32378     32377     32378
     32379     32380     32379     32381     32380     32381     32382     32383
     32382     32384     32383     32384     32385     32386     32385     32387
     32386     32387     32388     32389     32388     32390     32389     32390
     32391     32392     32391     32393     32392     32393     32394     32395
     32394     32396     32395     32396     32397     32398     32397     32399
     32398     32399     32400     32401     32400     32402     32401     32402
     32403     32404     32403     32405     32404     32405     32406     32407
     32406     32408     32407     32408     32409     32410     32409     32411
     32410     32411     32412     32413     32412     32414     32413     32414
     32415     32416     32415     32417     32416     32417     32418     32419
     32418     32420     32419     32420     32421     32422     32421     32423
     32422     32423     32424     32425     32424     32426     32425     32426
     32427     32428     32427     32429     32428     32429     32430     32431
     32430     32432     32431     32432     32433     32434     32433     32435
     32434     32435     32436     32437     32436     32438     32437     32438
     32439     32440     32439     32441     32440     32441     32442     32443
     32442     32444     32443     32444     32445     32446     32445     32447
     32446     32447     32448     32449     32448     32450     32449     32450
     32451     32452     32451     32453     32452     32453     32454     32455
     32454     32456     32455     32456     32457     32458     32457     32459
     32458     32459     32460     32461     32460     32462     32461     32462
     32463     32464     32463     32465     32464     32465     32466     32467
     32466     32468     32467     32468     32469     32470     32469     32471
     32470     32471     32472     32473     32472     32474     32473     32474
     32475     32476     32475     32477     32476     32477     32478     32479
     32478     32480     32479     32480     32481     32482     32481     32483
     32482     32483     32484     32485     32484     32486     32485     32486
     32487     32488     32487     32489     32488     32489     32490     32491
     32490     32492     32491     32492     32493     32494     32493     32495
     32494     32495     32496     32497     32496     32498     32497     32498
     32499     32500     32499     32501     32500     32501     32502     32503
     32502     32504     32503     32504     32505     32506     32505     32507
     32506     32507     32508     32509     32508     32510     32509     32510
     32511     32512     32511     32513     32512     32513     32514     32515
     32514     32516     32515     32516     32517     32518     32517     32519
     32518     32519     32520     32521     32520     32522     32521     32522
     32523     32524     32523     32525     32524     32525     32526     32527
     32526     32528     32527     32528     32529     32530     32529     32531
     32530     32531     32532     32533     32532     32534     32533     32534
     32535     32536     32535     32537     32536     32537     32538     32539
     32538     32540     32539     32540     32541     32542     32541     32543
     32542     32543     32544     32545     32544     32546     32545     32546
     32547     32548     32547     32549     32548     32549     32550     32551
     32550     32552     32551     32552     32553     32554     32553     32555
     32554     32555     32556     32557     32556     32558     32557     32558
     32559     32560     32559     32561     32560     32561     32562     32563
     32562     32564     32563     32564     32565     32566     32565     32567
     32566     32567     32568     32569     32568     32570     32569     32570
     32571     32572     32571     32573     32572     32573     32574     32575
     32574     32576     32575     32576     32577     32578     32577     32579
     32578     32579     32580     32581     32580     32582     32581     32582
     32583     32584     32583     32585     32584     32585     32586     32587
     32586     32588     32587     32588     32589     32590     32589     32591
     32590     32591     32592     32593     32592     32594     32593     32594
     32595     32596     32595     32597     32596     32597     32598     32599
     32598     32600     32599     32600     32601     32602     32601     32603
     32602     32603     32604     32605     32604     32606     32605     32606
     32607     32608     32607     32609     32608     32609     32610     32611
     32610     32612     32611     32612     32613     32614     32613     32615
     32614     32615     32616     32617     32616     32618     32617     32618
     32619     32620     32619     32621     32620     32621     32622     32623
     32622     32624     32623     32624     32625     32626     32625     32627
     32626     32627     32628     32629     32628     32630     32629     32630
     32631     32632     32631     32633     32632     32633     32634     32635
     32634     32636     32635     32636     32637     32638     32637     32639
     32638     32639     32640     32641     32640     32642     32641     32642
     32643     32644     32643     32645     32644     32645     32646     32647
     32646     32648     32647     32648     32649     32650     32649     32651
     32650     32651     32652     32653     32652     32654     32653     32654
     32655     32656     32655     32657     32656     32657     32658     32659
     32658     32660     32659     32660     32661     32662     32661     32663
     32662     32663     32664     32665     32664     32666     32665     32666
     32667     32668     32667     32669     32668     32669     32670     32671
     32670     32672     32671     32672     32673     32674     32673     32675
     32674     32675     32676     32677     32676     32678     32677     32678
     32679     32680     32679     32681     32680     32681     32682     32683
     32682     32684     32683     32684     32685     32686     32685     32687
     32686     32687     32688     32689     32688     32690     32689     32690
     32691     32692     32691     32693     32692     32693     32694     32695
     32694     32696     32695     32696     32697     32698     32697     32699
     32698     32699     32700     32701     32700     32702     32701     32702
     32703     32704     32703     32705     32704     32705     32706     32707
     32706     32708     32707     32708     32709     32710     32709     32711
     32710     32711     32712     32713     32712     32714     32713     32714
     32715     32716     32715     32717     32716     32717     32718     32719
     32718     32720     32719     32720     32721     32722     32721     32723
     32722     32723     32724     32725     32724     32726     32725     32726
     32727     32728     32727     32729     32728     32729     32730     32731
     32730     32732     32731     32732     32733     32734     32733     32735
     32734     32735     32736     32737     32736     32738     32737     32738
     32739     32740     32739     32741     32740     32741     32742     32743
     32742     32744     32743     32744     32745     32746     32745     32747
     32746     32747     32748     32749     32748     32750     32749     32750
     32751     32752     32751     32753     32752     32753     32754     32755
     32754     32756     32755     32756     32757     32758     32757     32759
     32758     32759     32760     32761     32760     32762     32761     32762
     32763     32764     32763     32765     32764     32765     32766     32767
     32766     32768     32767     32768     32769     32770     32769     32771
     32770     32771     32772     32773     32772     32774     32773     32774
     32775     32776     32775     32777     32776     32777     32778     32779
     32778     32780     32779     32780     32781     32782     32781     32783
     32782     32783     32784     32785     32784     32786     32785     32786
     32787     32788     32787     32789     32788     32789     32790     32791
     32790     32792     32791     32792     32793     32794     32793     32795
     32794     32795     32796     32797     32796     32798     32797     32798
     32799     32800     32799     32801     32800     32801     32802     32803
     32802     32804     32803     32804     32805     32806     32805     32807
     32806     32807     32808     32809     32808     32810     32809     32810
     32811     32812     32811     32813     32812     32813     32814     32815
     32814     32816     32815     32816     32817     32818     32817     32819
     32818     32819     32820     32821     32820     32822     32821     32822
     32823     32824     32823     32825     32824     32825     32826     32827
     32826     32828     32827     32828     32829     32830     32829     32831
     32830     32831     32832     32833     32832     32834     32833     32834
     32835     32836     32835     32837     32836     32837     32838     32839
     32838     32840     32839     32840     32841     32842     32841     32843
     32842     32843     32844     32845     32844     32846     32845     32846
     32847     32848     32847     32849     32848     32849     32850     32851
     32850     32852     32851     32852     32853     32854     32853     32855
     32854     32855     32856     32857     32856     32858     32857     32858
     32859     32860     32859     32861     32860     32861     32862     32863
     32862     32864     32863     32864     32865     32866     32865     32867
     32866     32867     32868     32869     32868     32870     32869     32870
     32871     32872     32871     32873     32872     32873     32874     32875
     32874     32876     32875     32876     32877     32878     32877     32879
     32878     32879     32880     32881     32880     32882     32881     32882
     32883     32884     32883     32885     32884     32885     32886     32887
     32886     32888     32887     32888     32889     32890     32889     32891
     32890     32891     32892     32893     32892     32894     32893     32894
     32895     32896     32895     32897     32896     32897     32898     32899
     32898     32900     32899     32900     32901     32902     32901     32903
     32902     32903     32904     32905     32904     32906     32905     32906
     32907     32908     32907     32909     32908     32909     32910     32911
     32910     32912     32911     32912     32913     32914     32913     32915
     32914     32915     32916     32917     32916     32918     32917     32918
     32919     32920     32919     32921     32920     32921     32922     32923
     32922     32924     32923     32924     32925     32926     32925     32927
     32926     32927     32928     32929     32928     32930     32929     32930
     32931     32932     32931     32933     32932     32933     32934     32935
     32934     32936     32935     32936     32937     32938     32937     32939
     32938     32939     32940     32941     32940     32942     32941     32942
     32943     32944     32943     32945     32944     32945     32946     32947
     32946     32948     32947     32948     32949     32950     32949     32951
     32950     32951     32952     32953     32952     32954     32953     32954
     32955     32956     32955     32957     32956     32957     32958     32959
     32958     32960     32959     32960     32961     32962     32961     32963
     32962     32963     32964     32965     32964     32966     32965     32966
     32967     32968     32967     32969     32968     32969     32970     32971
     32970     32972     32971     32972     32973     32974     32973     32975
     32974     32975     32976     32977     32976     32978     32977     32978
     32979     32980     32979     32981     32980     32981     32982     32983
     32982     32984     32983     32984     32985     32986     32985     32987
     32986     32987     32988     32989     32988     32990     32989     32990
     32991     32992     32991     32993     32992     32993     32994     32995
     32994     32996     32995     32996     32997     32998     32997     32999
     32998     32999     33000     33001     33000     33002     33001     33002
     33003     33004     33003     33005     33004     33005     33006     33007
     33006     33008     33007     33008     33009     33010     33009     33011
     33010     33011     33012     33013     33012     33014     33013     33014
     33015     33016     33015     33017     33016     33017     33018     33019
     33018     33020     33019     33020     33021     33022     33021     33023
     33022     33023     33024     33025     33024     33026     33025     33026
     33027     33028     33027     33029     33028     33029     33030     33031
     33030     33032     33031     33032     33033     33034     33033     33035
     33034     33035     33036     33037     33036     33038     33037     33038
     33039     33040     33039     33041     33040     33041     33042     33043
     33042     33044     33043     33044     33045     33046     33045     33047
     33046     33047     33048     33049     33048     33050     33049     33050
     33051     33052     33051     33053     33052     33053     33054     33055
     33054     33056     33055     33056     33057     33058     33057     33059
     33058     33059     33060     33061     33060     33062     33061     33062
     33063     33064     33063     33065     33064     33065     33066     33067
     33066     33068     33067     33068     33069     33070     33069     33071
     33070     33071     33072     33073     33072     33074     33073     33074
     33075     33076     33075     33077     33076     33077     33078     33079
     33078     33080     33079     33080     33081     33082     33081     33083
     33082     33083     33084     33085     33084     33086     33085     33086
     33087     33088     33087     33089     33088     33089     33090     33091
     33090     33092     33091     33092     33093     33094     33093     33095
     33094     33095     33096     33097     33096     33098     33097     33098
     33099     33100     33099     33101     33100     33101     33102     33103
     33102     33104     33103     33104     33105     33106     33105     33107
     33106     33107     33108     33109     33108     33110     33109     33110
     33111     33112     33111     33113     33112     33113     33114     33115
     33114     33116     33115     33116     33117     33118     33117     33119
     33118     33119     33120     33121     33120     33122     33121     33122
     33123     33124     33123     33125     33124     33125     33126     33127
     33126     33128     33127     33128     33129     33130     33129     33131
     33130     33131     33132     33133     33132     33134     33133     33134
     33135     33136     33135     33137     33136     33137     33138     33139
     33138     33140     33139     33140     33141     33142     33141     33143
     33142     33143     33144     33145     33144     33146     33145     33146
     33147     33148     33147     33149     33148     33149     33150     33151
     33150     33152     33151     33152     33153     33154     33153     33155
     33154     33155     33156     33157     33156     33158     33157     33158
     33159     33160     33159     33161     33160     33161     33162     33163
     33162     33164     33163     33164     33165     33166     33165     33167
     33166     33167     33168     33169     33168     33170     33169     33170
     33171     33172     33171     33173     33172     33173     33174     33175
     33174     33176     33175     33176     33177     33178     33177     33179
     33178     33179     33180     33181     33180     33182     33181     33182
     33183     33184     33183     33185     33184     33185     33186     33187
     33186     33188     33187     33188     33189     33190     33189     33191
     33190     33191     33192     33193     33192     33194     33193     33194
     33195     33196     33195     33197     33196     33197     33198     33199
     33198     33200     33199     33200     33201     33202     33201     33203
     33202     33203     33204     33205     33204     33206     33205     33206
     33207     33208     33207     33209     33208     33209     33210     33211
     33210     33212     33211     33212     33213     33214     33213     33215
     33214     33215     33216     33217     33216     33218     33217     33218
     33219     33220     33219     33221     33220     33221     33222     33223
     33222     33224     33223     33224     33225     33226     33225     33227
     33226     33227     33228     33229     33228     33230     33229     33230
     33231     33232     33231     33233     33232     33233     33234     33235
     33234     33236     33235     33236     33237     33238     33237     33239
     33238     33239     33240     33241     33240     33242     33241     33242
     33243     33244     33243     33245     33244     33245     33246     33247
     33246     33248     33247     33248     33249     33250     33249     33251
     33250     33251     33252     33253     33252     33254     33253     33254
     33255     33256     33255     33257     33256     33257     33258     33259
     33258     33260     33259     33260     33261     33262     33261     33263
     33262     33263     33264     33265     33264     33266     33265     33266
     33267     33268     33267     33269     33268     33269     33270     33271
     33270     33272     33271     33272     33273     33274     33273     33275
     33274     33275     33276     33277     33276     33278     33277     33278
     33279     33280     33279     33281     33280     33281     33282     33283
     33282     33284     33283     33284     33285     33286     33285     33287
     33286     33287     33288     33289     33288     33290     33289     33290
     33291     33292     33291     33293     33292     33293     33294     33295
     33294     33296     33295     33296     33297     33298     33297     33299
     33298     33299     33300     33301     33300     33302     33301     33302
     33303     33304     33303     33305     33304     33305     33306     33307
     33306     33308     33307     33308     33309     33310     33309     33311
     33310     33311     33312     33313     33312     33314     33313     33314
     33315     33316     33315     33317     33316     33317     33318     33319
     33318     33320     33319     33320     33321     33322     33321     33323
     33322     33323     33324     33325     33324     33326     33325     33326
     33327     33328     33327     33329     33328     33329     33330     33331
     33330     33332     33331     33332     33333     33334     33333     33335
     33334     33335     33336     33337     33336     33338     33337     33338
     33339     33340     33339     33341     33340     33341     33342     33343
     33342     33344     33343     33344     33345     33346     33345     33347
     33346     33347     33348     33349     33348     33350     33349     33350
     33351     33352     33351     33353     33352     33353     33354     33355
     33354     33356     33355     33356     33357     33358     33357     33359
     33358     33359     33360     33361     33360     33362     33361     33362
     33363     33364     33363     33365     33364     33365     33366     33367
     33366     33368     33367     33368     33369     33370     33369     33371
     33370     33371     33372     33373     33372     33374     33373     33374
     33375     33376     33375     33377     33376     33377     33378     33379
     33378     33380     33379     33380     33381     33382     33381     33383
     33382     33383     33384     33385     33384     33386     33385     33386
     33387     33388     33387     33389     33388     33389     33390     33391
     33390     33392     33391     33392     33393     33394     33393     33395
     33394     33395     33396     33397     33396     33398     33397     33398
     33399     33400     33399     33401     33400     33401     33402     33403
     33402     33404     33403     33404     33405     33406     33405     33407
     33406     33407     33408     33409     33408     33410     33409     33410
     33411     33412     33411     33413     33412     33413     33414     33415
     33414     33416     33415     33416     33417     33418     33417     33419
     33418     33419     33420     33421     33420     33422     33421     33422
     33423     33424     33423     33425     33424     33425     33426     33427
     33426     33428     33427     33428     33429     33430     33429     33431
     33430     33431     33432     33433     33432     33434     33433     33434
     33435     33436     33435     33437     33436     33437     33438     33439
     33438     33440     33439     33440     33441     33442     33441     33443
     33442     33443     33444     33445     33444     33446     33445     33446
     33447     33448     33447     33449     33448     33449     33450     33451
     33450     33452     33451     33452     33453     33454     33453     33455
     33454     33455     33456     33457     33456     33458     33457     33458
     33459     33460     33459     33461     33460     33461     33462     33463
     33462     33464     33463     33464     33465     33466     33465     33467
     33466     33467     33468     33469     33468     33470     33469     33470
     33471     33472     33471     33473     33472     33473     33474     33475
     33474     33476     33475     33476     33477     33478     33477     33479
     33478     33479     33480     33481     33480     33482     33481     33482
     33483     33484     33483     33485     33484     33485     33486     33487
     33486     33488     33487     33488     33489     33490     33489     33491
     33490     33491     33492     33493     33492     33494     33493     33494
     33495     33496     33495     33497     33496     33497     33498     33499
     33498     33500     33499     33500     33501     33502     33501     33503
     33502     33503     33504     33505     33504     33506     33505     33506
     33507     33508     33507     33509     33508     33509     33510     33511
     33510     33512     33511     33512     33513     33514     33513     33515
     33514     33515     33516     33517     33516     33518     33517     33518
     33519     33520     33519     33521     33520     33521     33522     33523
     33522     33524     33523     33524     33525     33526     33525     33527
     33526     33527     33528     33529     33528     33530     33529     33530
     33531     33532     33531     33533     33532     33533     33534     33535
     33534     33536     33535     33536     33537     33538     33537     33539
     33538     33539     33540     33541     33540     33542     33541     33542
     33543     33544     33543     33545     33544     33545     33546     33547
     33546     33548     33547     33548     33549     33550     33549     33551
     33550     33551     33552     33553     33552     33554     33553     33554
     33555     33556     33555     33557     33556     33557     33558     33559
     33558     33560     33559     33560     33561     33562     33561     33563
     33562     33563     33564     33565     33564     33566     33565     33566
     33567     33568     33567     33569     33568     33569     33570     33571
     33570     33572     33571     33572     33573     33574     33573     33575
     33574     33575     33576     33577     33576     33578     33577     33578
     33579     33580     33579     33581     33580     33581     33582     33583
     33582     33584     33583     33584     33585     33586     33585     33587
     33586     33587     33588     33589     33588     33590     33589     33590
     33591     33592     33591     33593     33592     33593     33594     33595
     33594     33596     33595     33596     33597     33598     33597     33599
     33598     33599     33600     33601     33600     33602     33601     33602
     33603     33604     33603     33605     33604     33605     33606     33607
     33606     33608     33607     33608     33609     33610     33609     33611
     33610     33611     33612     33613     33612     33614     33613     33614
     33615     33616     33615     33617     33616     33617     33618     33619
     33618     33620     33619     33620     33621     33622     33621     33623
     33622     33623     33624     33625     33624     33626     33625     33626
     33627     33628     33627     33629     33628     33629     33630     33631
     33630     33632     33631     33632     33633     33634     33633     33635
     33634     33635     33636     33637     33636     33638     33637     33638
     33639     33640     33639     33641     33640     33641     33642     33643
     33642     33644     33643     33644     33645     33646     33645     33647
     33646     33647     33648     33649     33648     33650     33649     33650
     33651     33652     33651     33653     33652     33653     33654     33655
     33654     33656     33655     33656     33657     33658     33657     33659
     33658     33659     33660     33661     33660     33662     33661     33662
     33663     33664     33663     33665     33664     33665     33666     33667
     33666     33668     33667     33668     33669     33670     33669     33671
     33670     33671     33672     33673     33672     33674     33673     33674
     33675     33676     33675     33677     33676     33677     33678     33679
     33678     33680     33679     33680     33681     33682     33681     33683
     33682     33683     33684     33685     33684     33686     33685     33686
     33687     33688     33687     33689     33688     33689     33690     33691
     33690     33692     33691     33692     33693     33694     33693     33695
     33694     33695     33696     33697     33696     33698     33697     33698
     33699     33700     33699     33701     33700     33701     33702     33703
     33702     33704     33703     33704     33705     33706     33705     33707
     33706     33707     33708     33709     33708     33710     33709     33710
     33711     33712     33711     33713     33712     33713     33714     33715
     33714     33716     33715     33716     33717     33718     33717     33719
     33718     33719     33720     33721     33720     33722     33721     33722
     33723     33724     33723     33725     33724     33725     33726     33727
     33726     33728     33727     33728     33729     33730     33729     33731
     33730     33731     33732     33733     33732     33734     33733     33734
     33735     33736     33735     33737     33736     33737     33738     33739
     33738     33740     33739     33740     33741     33742     33741     33743
     33742     33743     33744     33745     33744     33746     33745     33746
     33747     33748     33747     33749     33748     33749     33750     33751
     33750     33752     33751     33752     33753     33754     33753     33755
     33754     33755     33756     33757     33756     33758     33757     33758
     33759     33760     33759     33761     33760     33761     33762     33763
     33762     33764     33763     33764     33765     33766     33765     33767
     33766     33767     33768     33769     33768     33770     33769     33770
     33771     33772     33771     33773     33772     33773     33774     33775
     33774     33776     33775     33776     33777     33778     33777     33779
     33778     33779     33780     33781     33780     33782     33781     33782
     33783     33784     33783     33785     33784     33785     33786     33787
     33786     33788     33787     33788     33789     33790     33789     33791
     33790     33791     33792     33793     33792     33794     33793     33794
     33795     33796     33795     33797     33796     33797     33798     33799
     33798     33800     33799     33800     33801     33802     33801     33803
     33802     33803     33804     33805     33804     33806     33805     33806
     33807     33808     33807     33809     33808     33809     33810     33811
     33810     33812     33811     33812     33813     33814     33813     33815
     33814     33815     33816     33817     33816     33818     33817     33818
     33819     33820     33819     33821     33820     33821     33822     33823
     33822     33824     33823     33824     33825     33826     33825     33827
     33826     33827     33828     33829     33828     33830     33829     33830
     33831     33832     33831     33833     33832     33833     33834     33835
     33834     33836     33835     33836     33837     33838     33837     33839
     33838     33839     33840     33841     33840     33842     33841     33842
     33843     33844     33843     33845     33844     33845     33846     33847
     33846     33848     33847     33848     33849     33850     33849     33851
     33850     33851     33852     33853     33852     33854     33853     33854
     33855     33856     33855     33857     33856     33857     33858     33859
     33858     33860     33859     33860     33861     33862     33861     33863
     33862     33863     33864     33865     33864     33866     33865     33866
     33867     33868     33867     33869     33868     33869     33870     33871
     33870     33872     33871     33872     33873     33874     33873     33875
     33874     33875     33876     33877     33876     33878     33877     33878
     33879     33880     33879     33881     33880     33881     33882     33883
     33882     33884     33883     33884     33885     33886     33885     33887
     33886     33887     33888     33889     33888     33890     33889     33890
     33891     33892     33891     33893     33892     33893     33894     33895
     33894     33896     33895     33896     33897     33898     33897     33899
     33898     33899     33900     33901     33900     33902     33901     33902
     33903     33904     33903     33905     33904     33905     33906     33907
     33906     33908     33907     33908     33909     33910     33909     33911
     33910     33911     33912     33913     33912     33914     33913     33914
     33915     33916     33915     33917     33916     33917     33918     33919
     33918     33920     33919     33920     33921     33922     33921     33923
     33922     33923     33924     33925     33924     33926     33925     33926
     33927     33928     33927     33929     33928     33929     33930     33931
     33930     33932     33931     33932     33933     33934     33933     33935
     33934     33935     33936     33937     33936     33938     33937     33938
     33939     33940     33939     33941     33940     33941     33942     33943
     33942     33944     33943     33944     33945     33946     33945     33947
     33946     33947     33948     33949     33948     33950     33949     33950
     33951     33952     33951     33953     33952     33953     33954     33955
     33954     33956     33955     33956     33957     33958     33957     33959
     33958     33959     33960     33961     33960     33962     33961     33962
     33963     33964     33963     33965     33964     33965     33966     33967
     33966     33968     33967     33968     33969     33970     33969     33971
     33970     33971     33972     33973     33972     33974     33973     33974
     33975     33976     33975     33977     33976     33977     33978     33979
     33978     33980     33979     33980     33981     33982     33981     33983
     33982     33983     33984     33985     33984     33986     33985     33986
     33987     33988     33987     33989     33988     33989     33990     33991
     33990     33992     33991     33992     33993     33994     33993     33995
     33994     33995     33996     33997     33996     33998     33997     33998
     33999     34000     33999     34001     34000     34001     34002     34003
     34002     34004     34003     34004     34005     34006     34005     34007
     34006     34007     34008     34009     34008     34010     34009     34010
     34011     34012     34011     34013     34012     34013     34014     34015
     34014     34016     34015     34016     34017     34018     34017     34019
     34018     34019     34020     34021     34020     34022     34021     34022
     34023     34024     34023     34025     34024     34025     34026     34027
     34026     34028     34027     34028     34029     34030     34029     34031
     34030     34031     34032     34033     34032     34034     34033     34034
     34035     34036     34035     34037     34036     34037     34038     34039
     34038     34040     34039     34040     34041     34042     34041     34043
     34042     34043     34044     34045     34044     34046     34045     34046
     34047     34048     34047     34049     34048     34049     34050     34051
     34050     34052     34051     34052     34053     34054     34053     34055
     34054     34055     34056     34057     34056     34058     34057     34058
     34059     34060     34059     34061     34060     34061     34062     34063
     34062     34064     34063     34064     34065     34066     34065     34067
     34066     34067     34068     34069     34068     34070     34069     34070
     34071     34072     34071     34073     34072     34073     34074     34075
     34074     34076     34075     34076     34077     34078     34077     34079
     34078     34079     34080     34081     34080     34082     34081     34082
     34083     34084     34083     34085     34084     34085     34086     34087
     34086     34088     34087     34088     34089     34090     34089     34091
     34090     34091     34092     34093     34092     34094     34093     34094
     34095     34096     34095     34097     34096     34097     34098     34099
     34098     34100     34099     34100     34101     34102     34101     34103
     34102     34103     34104     34105     34104     34106     34105     34106
     34107     34108     34107     34109     34108     34109     34110     34111
     34110     34112     34111     34112     34113     34114     34113     34115
     34114     34115     34116     34117     34116     34118     34117     34118
     34119     34120     34119     34121     34120     34121     34122     34123
     34122     34124     34123     34124     34125     34126     34125     34127
     34126     34127     34128     34129     34128     34130     34129     34130
     34131     34132     34131     34133     34132     34133     34134     34135
     34134     34136     34135     34136     34137     34138     34137     34139
     34138     34139     34140     34141     34140     34142     34141     34142
     34143     34144     34143     34145     34144     34145     34146     34147
     34146     34148     34147     34148     34149     34150     34149     34151
     34150     34151     34152     34153     34152     34154     34153     34154
     34155     34156     34155     34157     34156     34157     34158     34159
     34158     34160     34159     34160     34161     34162     34161     34163
     34162     34163     34164     34165     34164     34166     34165     34166
     34167     34168     34167     34169     34168     34169     34170     34171
     34170     34172     34171     34172     34173     34174     34173     34175
     34174     34175     34176     34177     34176     34178     34177     34178
     34179     34180     34179     34181     34180     34181     34182     34183
     34182     34184     34183     34184     34185     34186     34185     34187
     34186     34187     34188     34189     34188     34190     34189     34190
     34191     34192     34191     34193     34192     34193     34194     34195
     34194     34196     34195     34196     34197     34198     34197     34199
     34198     34199     34200     34201     34200     34202     34201     34202
     34203     34204     34203     34205     34204     34205     34206     34207
     34206     34208     34207     34208     34209     34210     34209     34211
     34210     34211     34212     34213     34212     34214     34213     34214
     34215     34216     34215     34217     34216     34217     34218     34219
     34218     34220     34219     34220     34221     34222     34221     34223
     34222     34223     34224     34225     34224     34226     34225     34226
     34227     34228     34227     34229     34228     34229     34230     34231
     34230     34232     34231     34232     34233     34234     34233     34235
     34234     34235     34236     34237     34236     34238     34237     34238
     34239     34240     34239     34241     34240     34241     34242     34243
     34242     34244     34243     34244     34245     34246     34245     34247
     34246     34247     34248     34249     34248     34250     34249     34250
     34251     34252     34251     34253     34252     34253     34254     34255
     34254     34256     34255     34256     34257     34258     34257     34259
     34258     34259     34260     34261     34260     34262     34261     34262
     34263     34264     34263     34265     34264     34265     34266     34267
     34266     34268     34267     34268     34269     34270     34269     34271
     34270     34271     34272     34273     34272     34274     34273     34274
     34275     34276     34275     34277     34276     34277     34278     34279
     34278     34280     34279     34280     34281     34282     34281     34283
     34282     34283     34284     34285     34284     34286     34285     34286
     34287     34288     34287     34289     34288     34289     34290     34291
     34290     34292     34291     34292     34293     34294     34293     34295
     34294     34295     34296     34297     34296     34298     34297     34298
     34299     34300     34299     34301     34300     34301     34302     34303
     34302     34304     34303     34304     34305     34306     34305     34307
     34306     34307     34308     34309     34308     34310     34309     34310
     34311     34312     34311     34313     34312     34313     34314     34315
     34314     34316     34315     34316     34317     34318     34317     34319
     34318     34319     34320     34321     34320     34322     34321     34322
     34323     34324     34323     34325     34324     34325     34326     34327
     34326     34328     34327     34328     34329     34330     34329     34331
     34330     34331     34332     34333     34332     34334     34333     34334
     34335     34336     34335     34337     34336     34337     34338     34339
     34338     34340     34339     34340     34341     34342     34341     34343
     34342     34343     34344     34345     34344     34346     34345     34346
     34347     34348     34347     34349     34348     34349     34350     34351
     34350     34352     34351     34352     34353     34354     34353     34355
     34354     34355     34356     34357     34356     34358     34357     34358
     34359     34360     34359     34361     34360     34361     34362     34363
     34362     34364     34363     34364     34365     34366     34365     34367
     34366     34367     34368     34369     34368     34370     34369     34370
     34371     34372     34371     34373     34372     34373     34374     34375
     34374     34376     34375     34376     34377     34378     34377     34379
     34378     34379     34380     34381     34380     34382     34381     34382
     34383     34384     34383     34385     34384     34385     34386     34387
     34386     34388     34387     34388     34389     34390     34389     34391
     34390     34391     34392     34393     34392     34394     34393     34394
     34395     34396     34395     34397     34396     34397     34398     34399
     34398     34400     34399     34400     34401     34402     34401     34403
     34402     34403     34404     34405     34404     34406     34405     34406
     34407     34408     34407     34409     34408     34409     34410     34411
     34410     34412     34411     34412     34413     34414     34413     34415
     34414     34415     34416     34417     34416     34418     34417     34418
     34419     34420     34419     34421     34420     34421     34422     34423
     34422     34424     34423     34424     34425     34426     34425     34427
     34426     34427     34428     34429     34428     34430     34429     34430
     34431     34432     34431     34433     34432     34433     34434     34435
     34434     34436     34435     34436     34437     34438     34437     34439
     34438     34439     34440     34441     34440     34442     34441     34442
     34443     34444     34443     34445     34444     34445     34446     34447
     34446     34448     34447     34448     34449     34450     34449     34451
     34450     34451     34452     34453     34452     34454     34453     34454
     34455     34456     34455     34457     34456     34457     34458     34459
     34458     34460     34459     34460     34461     34462     34461     34463
     34462     34463     34464     34465     34464     34466     34465     34466
     34467     34468     34467     34469     34468     34469     34470     34471
     34470     34472     34471     34472     34473     34474     34473     34475
     34474     34475     34476     34477     34476     34478     34477     34478
     34479     34480     34479     34481     34480     34481     34482     34483
     34482     34484     34483     34484     34485     34486     34485     34487
     34486     34487     34488     34489     34488     34490     34489     34490
     34491     34492     34491     34493     34492     34493     34494     34495
     34494     34496     34495     34496     34497     34498     34497     34499
     34498     34499     34500     34501     34500     34502     34501     34502
     34503     34504     34503     34505     34504     34505     34506     34507
     34506     34508     34507     34508     34509     34510     34509     34511
     34510     34511     34512     34513     34512     34514     34513     34514
     34515     34516     34515     34517     34516     34517     34518     34519
     34518     34520     34519     34520     34521     34522     34521     34523
     34522     34523     34524     34525     34524     34526     34525     34526
     34527     34528     34527     34529     34528     34529     34530     34531
     34530     34532     34531     34532     34533     34534     34533     34535
     34534     34535     34536     34537     34536     34538     34537     34538
     34539     34540     34539     34541     34540     34541     34542     34543
     34542     34544     34543     34544     34545     34546     34545     34547
     34546     34547     34548     34549     34548     34550     34549     34550
     34551     34552     34551     34553     34552     34553     34554     34555
     34554     34556     34555     34556     34557     34558     34557     34559
     34558     34559     34560     34561     34560     34562     34561     34562
     34563     34564     34563     34565     34564     34565     34566     34567
     34566     34568     34567     34568     34569     34570     34569     34571
     34570     34571     34572     34573     34572     34574     34573     34574
     34575     34576     34575     34577     34576     34577     34578     34579
     34578     34580     34579     34580     34581     34582     34581     34583
     34582     34583     34584     34585     34584     34586     34585     34586
     34587     34588     34587     34589     34588     34589     34590     34591
     34590     34592     34591     34592     34593     34594     34593     34595
     34594     34595     34596     34597     34596     34598     34597     34598
     34599     34600     34599     34601     34600     34601     34602     34603
     34602     34604     34603     34604     34605     34606     34605     34607
     34606     34607     34608     34609     34608     34610     34609     34610
     34611     34612     34611     34613     34612     34613     34614     34615
     34614     34616     34615     34616     34617     34618     34617     34619
     34618     34619     34620     34621     34620     34622     34621     34622
     34623     34624     34623     34625     34624     34625     34626     34627
     34626     34628     34627     34628     34629     34630     34629     34631
     34630     34631     34632     34633     34632     34634     34633     34634
     34635     34636     34635     34637     34636     34637     34638     34639
     34638     34640     34639     34640     34641     34642     34641     34643
     34642     34643     34644     34645     34644     34646     34645     34646
     34647     34648     34647     34649     34648     34649     34650     34651
     34650     34652     34651     34652     34653     34654     34653     34655
     34654     34655     34656     34657     34656     34658     34657     34658
     34659     34660     34659     34661     34660     34661     34662     34663
     34662     34664     34663     34664     34665     34666     34665     34667
     34666     34667     34668     34669     34668     34670     34669     34670
     34671     34672     34671     34673     34672     34673     34674     34675
     34674     34676     34675     34676     34677     34678     34677     34679
     34678     34679     34680     34681     34680     34682     34681     34682
     34683     34684     34683     34685     34684     34685     34686     34687
     34686     34688     34687     34688     34689     34690     34689     34691
     34690     34691     34692     34693     34692     34694     34693     34694
     34695     34696     34695     34697     34696     34697     34698     34699
     34698     34700     34699     34700     34701     34702     34701     34703
     34702     34703     34704     34705     34704     34706     34705     34706
     34707     34708     34707     34709     34708     34709     34710     34711
     34710     34712     34711     34712     34713     34714     34713     34715
     34714     34715     34716     34717     34716     34718     34717     34718
     34719     34720     34719     34721     34720     34721     34722     34723
     34722     34724     34723     34724     34725     34726     34725     34727
     34726     34727     34728     34729     34728     34730     34729     34730
     34731     34732     34731     34733     34732     34733     34734     34735
     34734     34736     34735     34736     34737     34738     34737     34739
     34738     34739     34740     34741     34740     34742     34741     34742
     34743     34744     34743     34745     34744     34745     34746     34747
     34746     34748     34747     34748     34749     34750     34749     34751
     34750     34751     34752     34753     34752     34754     34753     34754
     34755     34756     34755     34757     34756     34757     34758     34759
     34758     34760     34759     34760     34761     34762     34761     34763
     34762     34763     34764     34765     34764     34766     34765     34766
     34767     34768     34767     34769     34768     34769     34770     34771
     34770     34772     34771     34772     34773     34774     34773     34775
     34774     34775     34776     34777     34776     34778     34777     34778
     34779     34780     34779     34781     34780     34781     34782     34783
     34782     34784     34783     34784     34785     34786     34785     34787
     34786     34787     34788     34789     34788     34790     34789     34790
     34791     34792     34791     34793     34792     34793     34794     34795
     34794     34796     34795     34796     34797     34798     34797     34799
     34798     34799     34800     34801     34800     34802     34801     34802
     34803     34804     34803     34805     34804     34805     34806     34807
     34806     34808     34807     34808     34809     34810     34809     34811
     34810     34811     34812     34813     34812     34814     34813     34814
     34815     34816     34815     34817     34816     34817     34818     34819
     34818     34820     34819     34820     34821     34822     34821     34823
     34822     34823     34824     34825     34824     34826     34825     34826
     34827     34828     34827     34829     34828     34829     34830     34831
     34830     34832     34831     34832     34833     34834     34833     34835
     34834     34835     34836     34837     34836     34838     34837     34838
     34839     34840     34839     34841     34840     34841     34842     34843
     34842     34844     34843     34844     34845     34846     34845     34847
     34846     34847     34848     34849     34848     34850     34849     34850
     34851     34852     34851     34853     34852     34853     34854     34855
     34854     34856     34855     34856     34857     34858     34857     34859
     34858     34859     34860     34861     34860     34862     34861     34862
     34863     34864     34863     34865     34864     34865     34866     34867
     34866     34868     34867     34868     34869     34870     34869     34871
     34870     34871     34872     34873     34872     34874     34873     34874
     34875     34876     34875     34877     34876     34877     34878     34879
     34878     34880     34879     34880     34881     34882     34881     34883
     34882     34883     34884     34885     34884     34886     34885     34886
     34887     34888     34887     34889     34888     34889     34890     34891
     34890     34892     34891     34892     34893     34894     34893     34895
     34894     34895     34896     34897     34896     34898     34897     34898
     34899     34900     34899     34901     34900     34901     34902     34903
     34902     34904     34903     34904     34905     34906     34905     34907
     34906     34907     34908     34909     34908     34910     34909     34910
     34911     34912     34911     34913     34912     34913     34914     34915
     34914     34916     34915     34916     34917     34918     34917     34919
     34918     34919     34920     34921     34920     34922     34921     34922
     34923     34924     34923     34925     34924     34925     34926     34927
     34926     34928     34927     34928     34929     34930     34929     34931
     34930     34931     34932     34933     34932     34934     34933     34934
     34935     34936     34935     34937     34936     34937     34938     34939
     34938     34940     34939     34940     34941     34942     34941     34943
     34942     34943     34944     34945     34944     34946     34945     34946
     34947     34948     34947     34949     34948     34949     34950     34951
     34950     34952     34951     34952     34953     34954     34953     34955
     34954     34955     34956     34957     34956     34958     34957     34958
     34959     34960     34959     34961     34960     34961     34962     34963
     34962     34964     34963     34964     34965     34966     34965     34967
     34966     34967     34968     34969     34968     34970     34969     34970
     34971     34972     34971     34973     34972     34973     34974     34975
     34974     34976     34975     34976     34977     34978     34977     34979
     34978     34979     34980     34981     34980     34982     34981     34982
     34983     34984     34983     34985     34984     34985     34986     34987
     34986     34988     34987     34988     34989     34990     34989     34991
     34990     34991     34992     34993     34992     34994     34993     34994
     34995     34996     34995     34997     34996     34997     34998     34999
     34998     35000     34999     35000     35001     35002     35001     35003
     35002     35003     35004     35005     35004     35006     35005     35006
     35007     35008     35007     35009     35008     35009     35010     35011
     35010     35012     35011     35012     35013     35014     35013     35015
     35014     35015     35016     35017     35016     35018     35017     35018
     35019     35020     35019     35021     35020     35021     35022     35023
     35022     35024     35023     35024     35025     35026     35025     35027
     35026     35027     35028     35029     35028     35030     35029     35030
     35031     35032     35031     35033     35032     35033     35034     35035
     35034     35036     35035     35036     35037     35038     35037     35039
     35038     35039     35040     35041     35040     35042     35041     35042
     35043     35044     35043     35045     35044     35045     35046     35047
     35046     35048     35047     35048     35049     35050     35049     35051
     35050     35051     35052     35053     35052     35054     35053     35054
     35055     35056     35055     35057     35056     35057     35058     35059
     35058     35060     35059     35060     35061     35062     35061     35063
     35062     35063     35064     35065     35064     35066     35065     35066
     35067     35068     35067     35069     35068     35069     35070     35071
     35070     35072     35071     35072     35073     35074     35073     35075
     35074     35075     35076     35077     35076     35078     35077     35078
     35079     35080     35079     35081     35080     35081     35082     35083
     35082     35084     35083     35084     35085     35086     35085     35087
     35086     35087     35088     35089     35088     35090     35089     35090
     35091     35092     35091     35093     35092     35093     35094     35095
     35094     35096     35095     35096     35097     35098     35097     35099
     35098     35099     35100     35101     35100     35102     35101     35102
     35103     35104     35103     35105     35104     35105     35106     35107
     35106     35108     35107     35108     35109     35110     35109     35111
     35110     35111     35112     35113     35112     35114     35113     35114
     35115     35116     35115     35117     35116     35117     35118     35119
     35118     35120     35119     35120     35121     35122     35121     35123
     35122     35123     35124     35125     35124     35126     35125     35126
     35127     35128     35127     35129     35128     35129     35130     35131
     35130     35132     35131     35132     35133     35134     35133     35135
     35134     35135     35136     35137     35136     35138     35137     35138
     35139     35140     35139     35141     35140     35141     35142     35143
     35142     35144     35143     35144     35145     35146     35145     35147
     35146     35147     35148     35149     35148     35150     35149     35150
     35151     35152     35151     35153     35152     35153     35154     35155
     35154     35156     35155     35156     35157     35158     35157     35159
     35158     35159     35160     35161     35160     35162     35161     35162
     35163     35164     35163     35165     35164     35165     35166     35167
     35166     35168     35167     35168     35169     35170     35169     35171
     35170     35171     35172     35173     35172     35174     35173     35174
     35175     35176     35175     35177     35176     35177     35178     35179
     35178     35180     35179     35180     35181     35182     35181     35183
     35182     35183     35184     35185     35184     35186     35185     35186
     35187     35188     35187     35189     35188     35189     35190     35191
     35190     35192     35191     35192     35193     35194     35193     35195
     35194     35195     35196     35197     35196     35198     35197     35198
     35199     35200     35199     35201     35200     35201     35202     35203
     35202     35204     35203     35204     35205     35206     35205     35207
     35206     35207     35208     35209     35208     35210     35209     35210
     35211     35212     35211     35213     35212     35213     35214     35215
     35214     35216     35215     35216     35217     35218     35217     35219
     35218     35219     35220     35221     35220     35222     35221     35222
     35223     35224     35223     35225     35224     35225     35226     35227
     35226     35228     35227     35228     35229     35230     35229     35231
     35230     35231     35232     35233     35232     35234     35233     35234
     35235     35236     35235     35237     35236     35237     35238     35239
     35238     35240     35239     35240     35241     35242     35241     35243
     35242     35243     35244     35245     35244     35246     35245     35246
     35247     35248     35247     35249     35248     35249     35250     35251
     35250     35252     35251     35252     35253     35254     35253     35255
     35254     35255     35256     35257     35256     35258     35257     35258
     35259     35260     35259     35261     35260     35261     35262     35263
     35262     35264     35263     35264     35265     35266     35265     35267
     35266     35267     35268     35269     35268     35270     35269     35270
     35271     35272     35271     35273     35272     35273     35274     35275
     35274     35276     35275     35276     35277     35278     35277     35279
     35278     35279     35280     35281     35280     35282     35281     35282
     35283     35284     35283     35285     35284     35285     35286     35287
     35286     35288     35287     35288     35289     35290     35289     35291
     35290     35291     35292     35293     35292     35294     35293     35294
     35295     35296     35295     35297     35296     35297     35298     35299
     35298     35300     35299     35300     35301     35302     35301     35303
     35302     35303     35304     35305     35304     35306     35305     35306
     35307     35308     35307     35309     35308     35309     35310     35311
     35310     35312     35311     35312     35313     35314     35313     35315
     35314     35315     35316     35317     35316     35318     35317     35318
     35319     35320     35319     35321     35320     35321     35322     35323
     35322     35324     35323     35324     35325     35326     35325     35327
     35326     35327     35328     35329     35328     35330     35329     35330
     35331     35332     35331     35333     35332     35333     35334     35335
     35334     35336     35335     35336     35337     35338     35337     35339
     35338     35339     35340     35341     35340     35342     35341     35342
     35343     35344     35343     35345     35344     35345     35346     35347
     35346     35348     35347     35348     35349     35350     35349     35351
     35350     35351     35352     35353     35352     35354     35353     35354
     35355     35356     35355     35357     35356     35357     35358     35359
     35358     35360     35359     35360     35361     35362     35361     35363
     35362     35363     35364     35365     35364     35366     35365     35366
     35367     35368     35367     35369     35368     35369     35370     35371
     35370     35372     35371     35372     35373     35374     35373     35375
     35374     35375     35376     35377     35376     35378     35377     35378
     35379     35380     35379     35381     35380     35381     35382     35383
     35382     35384     35383     35384     35385     35386     35385     35387
     35386     35387     35388     35389     35388     35390     35389     35390
     35391     35392     35391     35393     35392     35393     35394     35395
     35394     35396     35395     35396     35397     35398     35397     35399
     35398     35399     35400     35401     35400     35402     35401     35402
     35403     35404     35403     35405     35404     35405     35406     35407
     35406     35408     35407     35408     35409     35410     35409     35411
     35410     35411     35412     35413     35412     35414     35413     35414
     35415     35416     35415     35417     35416     35417     35418     35419
     35418     35420     35419     35420     35421     35422     35421     35423
     35422     35423     35424     35425     35424     35426     35425     35426
     35427     35428     35427     35429     35428     35429     35430     35431
     35430     35432     35431     35432     35433     35434     35433     35435
     35434     35435     35436     35437     35436     35438     35437     35438
     35439     35440     35439     35441     35440     35441     35442     35443
     35442     35444     35443     35444     35445     35446     35445     35447
     35446     35447     35448     35449     35448     35450     35449     35450
     35451     35452     35451     35453     35452     35453     35454     35455
     35454     35456     35455     35456     35457     35458     35457     35459
     35458     35459     35460     35461     35460     35462     35461     35462
     35463     35464     35463     35465     35464     35465     35466     35467
     35466     35468     35467     35468     35469     35470     35469     35471
     35470     35471     35472     35473     35472     35474     35473     35474
     35475     35476     35475     35477     35476     35477     35478     35479
     35478     35480     35479     35480     35481     35482     35481     35483
     35482     35483     35484     35485     35484     35486     35485     35486
     35487     35488     35487     35489     35488     35489     35490     35491
     35490     35492     35491     35492     35493     35494     35493     35495
     35494     35495     35496     35497     35496     35498     35497     35498
     35499     35500     35499     35501     35500     35501     35502     35503
     35502     35504     35503     35504     35505     35506     35505     35507
     35506     35507     35508     35509     35508     35510     35509     35510
     35511     35512     35511     35513     35512     35513     35514     35515
     35514     35516     35515     35516     35517     35518     35517     35519
     35518     35519     35520     35521     35520     35522     35521     35522
     35523     35524     35523     35525     35524     35525     35526     35527
     35526     35528     35527     35528     35529     35530     35529     35531
     35530     35531     35532     35533     35532     35534     35533     35534
     35535     35536     35535     35537     35536     35537     35538     35539
     35538     35540     35539     35540     35541     35542     35541     35543
     35542     35543     35544     35545     35544     35546     35545     35546
     35547     35548     35547     35549     35548     35549     35550     35551
     35550     35552     35551     35552     35553     35554     35553     35555
     35554     35555     35556     35557     35556     35558     35557     35558
     35559     35560     35559     35561     35560     35561     35562     35563
     35562     35564     35563     35564     35565     35566     35565     35567
     35566     35567     35568     35569     35568     35570     35569     35570
     35571     35572     35571     35573     35572     35573     35574     35575
     35574     35576     35575     35576     35577     35578     35577     35579
     35578     35579     35580     35581     35580     35582     35581     35582
     35583     35584     35583     35585     35584     35585     35586     35587
     35586     35588     35587     35588     35589     35590     35589     35591
     35590     35591     35592     35593     35592     35594     35593     35594
     35595     35596     35595     35597     35596     35597     35598     35599
     35598     35600     35599     35600     35601     35602     35601     35603
     35602     35603     35604     35605     35604     35606     35605     35606
     35607     35608     35607     35609     35608     35609     35610     35611
     35610     35612     35611     35612     35613     35614     35613     35615
     35614     35615     35616     35617     35616     35618     35617     35618
     35619     35620     35619     35621     35620     35621     35622     35623
     35622     35624     35623     35624     35625     35626     35625     35627
     35626     35627     35628     35629     35628     35630     35629     35630
     35631     35632     35631     35633     35632     35633     35634     35635
     35634     35636     35635     35636     35637     35638     35637     35639
     35638     35639     35640     35641     35640     35642     35641     35642
     35643     35644     35643     35645     35644     35645     35646     35647
     35646     35648     35647     35648     35649     35650     35649     35651
     35650     35651     35652     35653     35652     35654     35653     35654
     35655     35656     35655     35657     35656     35657     35658     35659
     35658     35660     35659     35660     35661     35662     35661     35663
     35662     35663     35664     35665     35664     35666     35665     35666
     35667     35668     35667     35669     35668     35669     35670     35671
     35670     35672     35671     35672     35673     35674     35673     35675
     35674     35675     35676     35677     35676     35678     35677     35678
     35679     35680     35679     35681     35680     35681     35682     35683
     35682     35684     35683     35684     35685     35686     35685     35687
     35686     35687     35688     35689     35688     35690     35689     35690
     35691     35692     35691     35693     35692     35693     35694     35695
     35694     35696     35695     35696     35697     35698     35697     35699
     35698     35699     35700     35701     35700     35702     35701     35702
     35703     35704     35703     35705     35704     35705     35706     35707
     35706     35708     35707     35708     35709     35710     35709     35711
     35710     35711     35712     35713     35712     35714     35713     35714
     35715     35716     35715     35717     35716     35717     35718     35719
     35718     35720     35719     35720     35721     35722     35721     35723
     35722     35723     35724     35725     35724     35726     35725     35726
     35727     35728     35727     35729     35728     35729     35730     35731
     35730     35732     35731     35732     35733     35734     35733     35735
     35734     35735     35736     35737     35736     35738     35737     35738
     35739     35740     35739     35741     35740     35741     35742     35743
     35742     35744     35743     35744     35745     35746     35745     35747
     35746     35747     35748     35749     35748     35750     35749     35750
     35751     35752     35751     35753     35752     35753     35754     35755
     35754     35756     35755     35756     35757     35758     35757     35759
     35758     35759     35760     35761     35760     35762     35761     35762
     35763     35764     35763     35765     35764     35765     35766     35767
     35766     35768     35767     35768     35769     35770     35769     35771
     35770     35771     35772     35773     35772     35774     35773     35774
     35775     35776     35775     35777     35776     35777     35778     35779
     35778     35780     35779     35780     35781     35782     35781     35783
     35782     35783     35784     35785     35784     35786     35785     35786
     35787     35788     35787     35789     35788     35789     35790     35791
     35790     35792     35791     35792     35793     35794     35793     35795
     35794     35795     35796     35797     35796     35798     35797     35798
     35799     35800     35799     35801     35800     35801     35802     35803
     35802     35804     35803     35804     35805     35806     35805     35807
     35806     35807     35808     35809     35808     35810     35809     35810
     35811     35812     35811     35813     35812     35813     35814     35815
     35814     35816     35815     35816     35817     35818     35817     35819
     35818     35819     35820     35821     35820     35822     35821     35822
     35823     35824     35823     35825     35824     35825     35826     35827
     35826     35828     35827     35828     35829     35830     35829     35831
     35830     35831     35832     35833     35832     35834     35833     35834
     35835     35836     35835     35837     35836     35837     35838     35839
     35838     35840     35839     35840     35841     35842     35841     35843
     35842     35843     35844     35845     35844     35846     35845     35846
     35847     35848     35847     35849     35848     35849     35850     35851
     35850     35852     35851     35852     35853     35854     35853     35855
     35854     35855     35856     35857     35856     35858     35857     35858
     35859     35860     35859     35861     35860     35861     35862     35863
     35862     35864     35863     35864     35865     35866     35865     35867
     35866     35867     35868     35869     35868     35870     35869     35870
     35871     35872     35871     35873     35872     35873     35874     35875
     35874     35876     35875     35876     35877     35878     35877     35879
     35878     35879     35880     35881     35880     35882     35881     35882
     35883     35884     35883     35885     35884     35885     35886     35887
     35886     35888     35887     35888     35889     35890     35889     35891
     35890     35891     35892     35893     35892     35894     35893     35894
     35895     35896     35895     35897     35896     35897     35898     35899
     35898     35900     35899     35900     35901     35902     35901     35903
     35902     35903     35904     35905     35904     35906     35905     35906
     35907     35908     35907     35909     35908     35909     35910     35911
     35910     35912     35911     35912     35913     35914     35913     35915
     35914     35915     35916     35917     35916     35918     35917     35918
     35919     35920     35919     35921     35920     35921     35922     35923
     35922     35924     35923     35924     35925     35926     35925     35927
     35926     35927     35928     35929     35928     35930     35929     35930
     35931     35932     35931     35933     35932     35933     35934     35935
     35934     35936     35935     35936     35937     35938     35937     35939
     35938     35939     35940     35941     35940     35942     35941     35942
     35943     35944     35943     35945     35944     35945     35946     35947
     35946     35948     35947     35948     35949     35950     35949     35951
     35950     35951     35952     35953     35952     35954     35953     35954
     35955     35956     35955     35957     35956     35957     35958     35959
     35958     35960     35959     35960     35961     35962     35961     35963
     35962     35963     35964     35965     35964     35966     35965     35966
     35967     35968     35967     35969     35968     35969     35970     35971
     35970     35972     35971     35972     35973     35974     35973     35975
     35974     35975     35976     35977     35976     35978     35977     35978
     35979     35980     35979     35981     35980     35981     35982     35983
     35982     35984     35983     35984     35985     35986     35985     35987
     35986     35987     35988     35989     35988     35990     35989     35990
     35991     35992     35991     35993     35992     35993     35994     35995
     35994     35996     35995     35996     35997     35998     35997     35999
     35998     35999     36000     36001     36000     36002     36001     36002
     36003     36004     36003     36005     36004     36005     36006     36007
     36006     36008     36007     36008     36009     36010     36009     36011
     36010     36011     36012     36013     36012     36014     36013     36014
     36015     36016     36015     36017     36016     36017     36018     36019
     36018     36020     36019     36020     36021     36022     36021     36023
     36022     36023     36024     36025     36024     36026     36025     36026
     36027     36028     36027     36029     36028     36029     36030     36031
     36030     36032     36031     36032     36033     36034     36033     36035
     36034     36035     36036     36037     36036     36038     36037     36038
     36039     36040     36039     36041     36040     36041     36042     36043
     36042     36044     36043     36044     36045     36046     36045     36047
     36046     36047     36048     36049     36048     36050     36049     36050
     36051     36052     36051     36053     36052     36053     36054     36055
     36054     36056     36055     36056     36057     36058     36057     36059
     36058     36059     36060     36061     36060     36062     36061     36062
     36063     36064     36063     36065     36064     36065     36066     36067
     36066     36068     36067     36068     36069     36070     36069     36071
     36070     36071     36072     36073     36072     36074     36073     36074
     36075     36076     36075     36077     36076     36077     36078     36079
     36078     36080     36079     36080     36081     36082     36081     36083
     36082     36083     36084     36085     36084     36086     36085     36086
     36087     36088     36087     36089     36088     36089     36090     36091
     36090     36092     36091     36092     36093     36094     36093     36095
     36094     36095     36096     36097     36096     36098     36097     36098
     36099     36100     36099     36101     36100     36101     36102     36103
     36102     36104     36103     36104     36105     36106     36105     36107
     36106     36107     36108     36109     36108     36110     36109     36110
     36111     36112     36111     36113     36112     36113     36114     36115
     36114     36116     36115     36116     36117     36118     36117     36119
     36118     36119     36120     36121     36120     36122     36121     36122
     36123     36124     36123     36125     36124     36125     36126     36127
     36126     36128     36127     36128     36129     36130     36129     36131
     36130     36131     36132     36133     36132     36134     36133     36134
     36135     36136     36135     36137     36136     36137     36138     36139
     36138     36140     36139     36140     36141     36142     36141     36143
     36142     36143     36144     36145     36144     36146     36145     36146
     36147     36148     36147     36149     36148     36149     36150     36151
     36150     36152     36151     36152     36153     36154     36153     36155
     36154     36155     36156     36157     36156     36158     36157     36158
     36159     36160     36159     36161     36160     36161     36162     36163
     36162     36164     36163     36164     36165     36166     36165     36167
     36166     36167     36168     36169     36168     36170     36169     36170
     36171     36172     36171     36173     36172     36173     36174     36175
     36174     36176     36175     36176     36177     36178     36177     36179
     36178     36179     36180     36181     36180     36182     36181     36182
     36183     36184     36183     36185     36184     36185     36186     36187
     36186     36188     36187     36188     36189     36190     36189     36191
     36190     36191     36192     36193     36192     36194     36193     36194
     36195     36196     36195     36197     36196     36197     36198     36199
     36198     36200     36199     36200     36201     36202     36201     36203
     36202     36203     36204     36205     36204     36206     36205     36206
     36207     36208     36207     36209     36208     36209     36210     36211
     36210     36212     36211     36212     36213     36214     36213     36215
     36214     36215     36216     36217     36216     36218     36217     36218
     36219     36220     36219     36221     36220     36221     36222     36223
     36222     36224     36223     36224     36225     36226     36225     36227
     36226     36227     36228     36229     36228     36230     36229     36230
     36231     36232     36231     36233     36232     36233     36234     36235
     36234     36236     36235     36236     36237     36238     36237     36239
     36238     36239     36240     36241     36240     36242     36241     36242
     36243     36244     36243     36245     36244     36245     36246     36247
     36246     36248     36247     36248     36249     36250     36249     36251
     36250     36251     36252     36253     36252     36254     36253     36254
     36255     36256     36255     36257     36256     36257     36258     36259
     36258     36260     36259     36260     36261     36262     36261     36263
     36262     36263     36264     36265     36264     36266     36265     36266
     36267     36268     36267     36269     36268     36269     36270     36271
     36270     36272     36271     36272     36273     36274     36273     36275
     36274     36275     36276     36277     36276     36278     36277     36278
     36279     36280     36279     36281     36280     36281     36282     36283
     36282     36284     36283     36284     36285     36286     36285     36287
     36286     36287     36288     36289     36288     36290     36289     36290
     36291     36292     36291     36293     36292     36293     36294     36295
     36294     36296     36295     36296     36297     36298     36297     36299
     36298     36299     36300     36301     36300     36302     36301     36302
     36303     36304     36303     36305     36304     36305     36306     36307
     36306     36308     36307     36308     36309     36310     36309     36311
     36310     36311     36312     36313     36312     36314     36313     36314
     36315     36316     36315     36317     36316     36317     36318     36319
     36318     36320     36319     36320     36321     36322     36321     36323
     36322     36323     36324     36325     36324     36326     36325     36326
     36327     36328     36327     36329     36328     36329     36330     36331
     36330     36332     36331     36332     36333     36334     36333     36335
     36334     36335     36336     36337     36336     36338     36337     36338
     36339     36340     36339     36341     36340     36341     36342     36343
     36342     36344     36343     36344     36345     36346     36345     36347
     36346     36347     36348     36349     36348     36350     36349     36350
     36351     36352     36351     36353     36352     36353     36354     36355
     36354     36356     36355     36356     36357     36358     36357     36359
     36358     36359     36360     36361     36360     36362     36361     36362
     36363     36364     36363     36365     36364     36365     36366     36367
     36366     36368     36367     36368     36369     36370     36369     36371
     36370     36371     36372     36373     36372     36374     36373     36374
     36375     36376     36375     36377     36376     36377     36378     36379
     36378     36380     36379     36380     36381     36382     36381     36383
     36382     36383     36384     36385     36384     36386     36385     36386
     36387     36388     36387     36389     36388     36389     36390     36391
     36390     36392     36391     36392     36393     36394     36393     36395
     36394     36395     36396     36397     36396     36398     36397     36398
     36399     36400     36399     36401     36400     36401     36402     36403
     36402     36404     36403     36404     36405     36406     36405     36407
     36406     36407     36408     36409     36408     36410     36409     36410
     36411     36412     36411     36413     36412     36413     36414     36415
     36414     36416     36415     36416     36417     36418     36417     36419
     36418     36419     36420     36421     36420     36422     36421     36422
     36423     36424     36423     36425     36424     36425     36426     36427
     36426     36428     36427     36428     36429     36430     36429     36431
     36430     36431     36432     36433     36432     36434     36433     36434
     36435     36436     36435     36437     36436     36437     36438     36439
     36438     36440     36439     36440     36441     36442     36441     36443
     36442     36443     36444     36445     36444     36446     36445     36446
     36447     36448     36447     36449     36448     36449     36450     36451
     36450     36452     36451     36452     36453     36454     36453     36455
     36454     36455     36456     36457     36456     36458     36457     36458
     36459     36460     36459     36461     36460     36461     36462     36463
     36462     36464     36463     36464     36465     36466     36465     36467
     36466     36467     36468     36469     36468     36470     36469     36470
     36471     36472     36471     36473     36472     36473     36474     36475
     36474     36476     36475     36476     36477     36478     36477     36479
     36478     36479     36480     36481     36480     36482     36481     36482
     36483     36484     36483     36485     36484     36485     36486     36487
     36486     36488     36487     36488     36489     36490     36489     36491
     36490     36491     36492     36493     36492     36494     36493     36494
     36495     36496     36495     36497     36496     36497     36498     36499
     36498     36500     36499     36500     36501     36502     36501     36503
     36502     36503     36504     36505     36504     36506     36505     36506
     36507     36508     36507     36509     36508     36509     36510     36511
     36510     36512     36511     36512     36513     36514     36513     36515
     36514     36515     36516     36517     36516     36518     36517     36518
     36519     36520     36519     36521     36520     36521     36522     36523
     36522     36524     36523     36524     36525     36526     36525     36527
     36526     36527     36528     36529     36528     36530     36529     36530
     36531     36532     36531     36533     36532     36533     36534     36535
     36534     36536     36535     36536     36537     36538     36537     36539
     36538     36539     36540     36541     36540     36542     36541     36542
     36543     36544     36543     36545     36544     36545     36546     36547
     36546     36548     36547     36548     36549     36550     36549     36551
     36550     36551     36552     36553     36552     36554     36553     36554
     36555     36556     36555     36557     36556     36557     36558     36559
     36558     36560     36559     36560     36561     36562     36561     36563
     36562     36563     36564     36565     36564     36566     36565     36566
     36567     36568     36567     36569     36568     36569     36570     36571
     36570     36572     36571     36572     36573     36574     36573     36575
     36574     36575     36576     36577     36576     36578     36577     36578
     36579     36580     36579     36581     36580     36581     36582     36583
     36582     36584     36583     36584     36585     36586     36585     36587
     36586     36587     36588     36589     36588     36590     36589     36590
     36591     36592     36591     36593     36592     36593     36594     36595
     36594     36596     36595     36596     36597     36598     36597     36599
     36598     36599     36600     36601     36600     36602     36601     36602
     36603     36604     36603     36605     36604     36605     36606     36607
     36606     36608     36607     36608     36609     36610     36609     36611
     36610     36611     36612     36613     36612     36614     36613     36614
     36615     36616     36615     36617     36616     36617     36618     36619
     36618     36620     36619     36620     36621     36622     36621     36623
     36622     36623     36624     36625     36624     36626     36625     36626
     36627     36628     36627     36629     36628     36629     36630     36631
     36630     36632     36631     36632     36633     36634     36633     36635
     36634     36635     36636     36637     36636     36638     36637     36638
     36639     36640     36639     36641     36640     36641     36642     36643
     36642     36644     36643     36644     36645     36646     36645     36647
     36646     36647     36648     36649     36648     36650     36649     36650
     36651     36652     36651     36653     36652     36653     36654     36655
     36654     36656     36655     36656     36657     36658     36657     36659
     36658     36659     36660     36661     36660     36662     36661     36662
     36663     36664     36663     36665     36664     36665     36666     36667
     36666     36668     36667     36668     36669     36670     36669     36671
     36670     36671     36672     36673     36672     36674     36673     36674
     36675     36676     36675     36677     36676     36677     36678     36679
     36678     36680     36679     36680     36681     36682     36681     36683
     36682     36683     36684     36685     36684     36686     36685     36686
     36687     36688     36687     36689     36688     36689     36690     36691
     36690     36692     36691     36692     36693     36694     36693     36695
     36694     36695     36696     36697     36696     36698     36697     36698
     36699     36700     36699     36701     36700     36701     36702     36703
     36702     36704     36703     36704     36705     36706     36705     36707
     36706     36707     36708     36709     36708     36710     36709     36710
     36711     36712     36711     36713     36712     36713     36714     36715
     36714     36716     36715     36716     36717     36718     36717     36719
     36718     36719     36720     36721     36720     36722     36721     36722
     36723     36724     36723     36725     36724     36725     36726     36727
     36726     36728     36727     36728     36729     36730     36729     36731
     36730     36731     36732     36733     36732     36734     36733     36734
     36735     36736     36735     36737     36736     36737     36738     36739
     36738     36740     36739     36740     36741     36742     36741     36743
     36742     36743     36744     36745     36744     36746     36745     36746
     36747     36748     36747     36749     36748     36749     36750     36751
     36750     36752     36751     36752     36753     36754     36753     36755
     36754     36755     36756     36757     36756     36758     36757     36758
     36759     36760     36759     36761     36760     36761     36762     36763
     36762     36764     36763     36764     36765     36766     36765     36767
     36766     36767     36768     36769     36768     36770     36769     36770
     36771     36772     36771     36773     36772     36773     36774     36775
     36774     36776     36775     36776     36777     36778     36777     36779
     36778     36779     36780     36781     36780     36782     36781     36782
     36783     36784     36783     36785     36784     36785     36786     36787
     36786     36788     36787     36788     36789     36790     36789     36791
     36790     36791     36792     36793     36792     36794     36793     36794
     36795     36796     36795     36797     36796     36797     36798     36799
     36798     36800     36799     36800     36801     36802     36801     36803
     36802     36803     36804     36805     36804     36806     36805     36806
     36807     36808     36807     36809     36808     36809     36810     36811
     36810     36812     36811     36812     36813     36814     36813     36815
     36814     36815     36816     36817     36816     36818     36817     36818
     36819     36820     36819     36821     36820     36821     36822     36823
     36822     36824     36823     36824     36825     36826     36825     36827
     36826     36827     36828     36829     36828     36830     36829     36830
     36831     36832     36831     36833     36832     36833     36834     36835
     36834     36836     36835     36836     36837     36838     36837     36839
     36838     36839     36840     36841     36840     36842     36841     36842
     36843     36844     36843     36845     36844     36845     36846     36847
     36846     36848     36847     36848     36849     36850     36849     36851
     36850     36851     36852     36853     36852     36854     36853     36854
     36855     36856     36855     36857     36856     36857     36858     36859
     36858     36860     36859     36860     36861     36862     36861     36863
     36862     36863     36864     36865     36864     36866     36865     36866
     36867     36868     36867     36869     36868     36869     36870     36871
     36870     36872     36871     36872     36873     36874     36873     36875
     36874     36875     36876     36877     36876     36878     36877     36878
     36879     36880     36879     36881     36880     36881     36882     36883
     36882     36884     36883     36884     36885     36886     36885     36887
     36886     36887     36888     36889     36888     36890     36889     36890
     36891     36892     36891     36893     36892     36893     36894     36895
     36894     36896     36895     36896     36897     36898     36897     36899
     36898     36899     36900     36901     36900     36902     36901     36902
     36903     36904     36903     36905     36904     36905     36906     36907
     36906     36908     36907     36908     36909     36910     36909     36911
     36910     36911     36912     36913     36912     36914     36913     36914
     36915     36916     36915     36917     36916     36917     36918     36919
     36918     36920     36919     36920     36921     36922     36921     36923
     36922     36923     36924     36925     36924     36926     36925     36926
     36927     36928     36927     36929     36928     36929     36930     36931
     36930     36932     36931     36932     36933     36934     36933     36935
     36934     36935     36936     36937     36936     36938     36937     36938
     36939     36940     36939     36941     36940     36941     36942     36943
     36942     36944     36943     36944     36945     36946     36945     36947
     36946     36947     36948     36949     36948     36950     36949     36950
     36951     36952     36951     36953     36952     36953     36954     36955
     36954     36956     36955     36956     36957     36958     36957     36959
     36958     36959     36960     36961     36960     36962     36961     36962
     36963     36964     36963     36965     36964     36965     36966     36967
     36966     36968     36967     36968     36969     36970     36969     36971
     36970     36971     36972     36973     36972     36974     36973     36974
     36975     36976     36975     36977     36976     36977     36978     36979
     36978     36980     36979     36980     36981     36982     36981     36983
     36982     36983     36984     36985     36984     36986     36985     36986
     36987     36988     36987     36989     36988     36989     36990     36991
     36990     36992     36991     36992     36993     36994     36993     36995
     36994     36995     36996     36997     36996     36998     36997     36998
     36999     37000     36999     37001     37000     37001     37002     37003
     37002     37004     37003     37004     37005     37006     37005     37007
     37006     37007     37008     37009     37008     37010     37009     37010
     37011     37012     37011     37013     37012     37013     37014     37015
     37014     37016     37015     37016     37017     37018     37017     37019
     37018     37019     37020     37021     37020     37022     37021     37022
     37023     37024     37023     37025     37024     37025     37026     37027
     37026     37028     37027     37028     37029     37030     37029     37031
     37030     37031     37032     37033     37032     37034     37033     37034
     37035     37036     37035     37037     37036     37037     37038     37039
     37038     37040     37039     37040     37041     37042     37041     37043
     37042     37043     37044     37045     37044     37046     37045     37046
     37047     37048     37047     37049     37048     37049     37050     37051
     37050     37052     37051     37052     37053     37054     37053     37055
     37054     37055     37056     37057     37056     37058     37057     37058
     37059     37060     37059     37061     37060     37061     37062     37063
     37062     37064     37063     37064     37065     37066     37065     37067
     37066     37067     37068     37069     37068     37070     37069     37070
     37071     37072     37071     37073     37072     37073     37074     37075
     37074     37076     37075     37076     37077     37078     37077     37079
     37078     37079     37080     37081     37080     37082     37081     37082
     37083     37084     37083     37085     37084     37085     37086     37087
     37086     37088     37087     37088     37089     37090     37089     37091
     37090     37091     37092     37093     37092     37094     37093     37094
     37095     37096     37095     37097     37096     37097     37098     37099
     37098     37100     37099     37100     37101     37102     37101     37103
     37102     37103     37104     37105     37104     37106     37105     37106
     37107     37108     37107     37109     37108     37109     37110     37111
     37110     37112     37111     37112     37113     37114     37113     37115
     37114     37115     37116     37117     37116     37118     37117     37118
     37119     37120     37119     37121     37120     37121     37122     37123
     37122     37124     37123     37124     37125     37126     37125     37127
     37126     37127     37128     37129     37128     37130     37129     37130
     37131     37132     37131     37133     37132     37133     37134     37135
     37134     37136     37135     37136     37137     37138     37137     37139
     37138     37139     37140     37141     37140     37142     37141     37142
     37143     37144     37143     37145     37144     37145     37146     37147
     37146     37148     37147     37148     37149     37150     37149     37151
     37150     37151     37152     37153     37152     37154     37153     37154
     37155     37156     37155     37157     37156     37157     37158     37159
     37158     37160     37159     37160     37161     37162     37161     37163
     37162     37163     37164     37165     37164     37166     37165     37166
     37167     37168     37167     37169     37168     37169     37170     37171
     37170     37172     37171     37172     37173     37174     37173     37175
     37174     37175     37176     37177     37176     37178     37177     37178
     37179     37180     37179     37181     37180     37181     37182     37183
     37182     37184     37183     37184     37185     37186     37185     37187
     37186     37187     37188     37189     37188     37190     37189     37190
     37191     37192     37191     37193     37192     37193     37194     37195
     37194     37196     37195     37196     37197     37198     37197     37199
     37198     37199     37200     37201     37200     37202     37201     37202
     37203     37204     37203     37205     37204     37205     37206     37207
     37206     37208     37207     37208     37209     37210     37209     37211
     37210     37211     37212     37213     37212     37214     37213     37214
     37215     37216     37215     37217     37216     37217     37218     37219
     37218     37220     37219     37220     37221     37222     37221     37223
     37222     37223     37224     37225     37224     37226     37225     37226
     37227     37228     37227     37229     37228     37229     37230     37231
     37230     37232     37231     37232     37233     37234     37233     37235
     37234     37235     37236     37237     37236     37238     37237     37238
     37239     37240     37239     37241     37240     37241     37242     37243
     37242     37244     37243     37244     37245     37246     37245     37247
     37246     37247     37248     37249     37248     37250     37249     37250
     37251     37252     37251     37253     37252     37253     37254     37255
     37254     37256     37255     37256     37257     37258     37257     37259
     37258     37259     37260     37261     37260     37262     37261     37262
     37263     37264     37263     37265     37264     37265     37266     37267
     37266     37268     37267     37268     37269     37270     37269     37271
     37270     37271     37272     37273     37272     37274     37273     37274
     37275     37276     37275     37277     37276     37277     37278     37279
     37278     37280     37279     37280     37281     37282     37281     37283
     37282     37283     37284     37285     37284     37286     37285     37286
     37287     37288     37287     37289     37288     37289     37290     37291
     37290     37292     37291     37292     37293     37294     37293     37295
     37294     37295     37296     37297     37296     37298     37297     37298
     37299     37300     37299     37301     37300     37301     37302     37303
     37302     37304     37303     37304     37305     37306     37305     37307
     37306     37307     37308     37309     37308     37310     37309     37310
     37311     37312     37311     37313     37312     37313     37314     37315
     37314     37316     37315     37316     37317     37318     37317     37319
     37318     37319     37320     37321     37320     37322     37321     37322
     37323     37324     37323     37325     37324     37325     37326     37327
     37326     37328     37327     37328     37329     37330     37329     37331
     37330     37331     37332     37333     37332     37334     37333     37334
     37335     37336     37335     37337     37336     37337     37338     37339
     37338     37340     37339     37340     37341     37342     37341     37343
     37342     37343     37344     37345     37344     37346     37345     37346
     37347     37348     37347     37349     37348     37349     37350     37351
     37350     37352     37351     37352     37353     37354     37353     37355
     37354     37355     37356     37357     37356     37358     37357     37358
     37359     37360     37359     37361     37360     37361     37362     37363
     37362     37364     37363     37364     37365     37366     37365     37367
     37366     37367     37368     37369     37368     37370     37369     37370
     37371     37372     37371     37373     37372     37373     37374     37375
     37374     37376     37375     37376     37377     37378     37377     37379
     37378     37379     37380     37381     37380     37382     37381     37382
     37383     37384     37383     37385     37384     37385     37386     37387
     37386     37388     37387     37388     37389     37390     37389     37391
     37390     37391     37392     37393     37392     37394     37393     37394
     37395     37396     37395     37397     37396     37397     37398     37399
     37398     37400     37399     37400     37401     37402     37401     37403
     37402     37403     37404     37405     37404     37406     37405     37406
     37407     37408     37407     37409     37408     37409     37410     37411
     37410     37412     37411     37412     37413     37414     37413     37415
     37414     37415     37416     37417     37416     37418     37417     37418
     37419     37420     37419     37421     37420     37421     37422     37423
     37422     37424     37423     37424     37425     37426     37425     37427
     37426     37427     37428     37429     37428     37430     37429     37430
     37431     37432     37431     37433     37432     37433     37434     37435
     37434     37436     37435     37436     37437     37438     37437     37439
     37438     37439     37440     37441     37440     37442     37441     37442
     37443     37444     37443     37445     37444     37445     37446     37447
     37446     37448     37447     37448     37449     37450     37449     37451
     37450     37451     37452     37453     37452     37454     37453     37454
     37455     37456     37455     37457     37456     37457     37458     37459
     37458     37460     37459     37460     37461     37462     37461     37463
     37462     37463     37464     37465     37464     37466     37465     37466
     37467     37468     37467     37469     37468     37469     37470     37471
     37470     37472     37471     37472     37473     37474     37473     37475
     37474     37475     37476     37477     37476     37478     37477     37478
     37479     37480     37479     37481     37480     37481     37482     37483
     37482     37484     37483     37484     37485     37486     37485     37487
     37486     37487     37488     37489     37488     37490     37489     37490
     37491     37492     37491     37493     37492     37493     37494     37495
     37494     37496     37495     37496     37497     37498     37497     37499
     37498     37499     37500     37501     37500     37502     37501     37502
     37503     37504     37503     37505     37504     37505     37506     37507
     37506     37508     37507     37508     37509     37510     37509     37511
     37510     37511     37512     37513     37512     37514     37513     37514
     37515     37516     37515     37517     37516     37517     37518     37519
     37518     37520     37519     37520     37521     37522     37521     37523
     37522     37523     37524     37525     37524     37526     37525     37526
     37527     37528     37527     37529     37528     37529     37530     37531
     37530     37532     37531     37532     37533     37534     37533     37535
     37534     37535     37536     37537     37536     37538     37537     37538
     37539     37540     37539     37541     37540     37541     37542     37543
     37542     37544     37543     37544     37545     37546     37545     37547
     37546     37547     37548     37549     37548     37550     37549     37550
     37551     37552     37551     37553     37552     37553     37554     37555
     37554     37556     37555     37556     37557     37558     37557     37559
     37558     37559     37560     37561     37560     37562     37561     37562
     37563     37564     37563     37565     37564     37565     37566     37567
     37566     37568     37567     37568     37569     37570     37569     37571
     37570     37571     37572     37573     37572     37574     37573     37574
     37575     37576     37575     37577     37576     37577     37578     37579
     37578     37580     37579     37580     37581     37582     37581     37583
     37582     37583     37584     37585     37584     37586     37585     37586
     37587     37588     37587     37589     37588     37589     37590     37591
     37590     37592     37591     37592     37593     37594     37593     37595
     37594     37595     37596     37597     37596     37598     37597     37598
     37599     37600     37599     37601     37600     37601     37602     37603
     37602     37604     37603     37604     37605     37606     37605     37607
     37606     37607     37608     37609     37608     37610     37609     37610
     37611     37612     37611     37613     37612     37613     37614     37615
     37614     37616     37615     37616     37617     37618     37617     37619
     37618     37619     37620     37621     37620     37622     37621     37622
     37623     37624     37623     37625     37624     37625     37626     37627
     37626     37628     37627     37628     37629     37630     37629     37631
     37630     37631     37632     37633     37632     37634     37633     37634
     37635     37636     37635     37637     37636     37637     37638     37639
     37638     37640     37639     37640     37641     37642     37641     37643
     37642     37643     37644     37645     37644     37646     37645     37646
     37647     37648     37647     37649     37648     37649     37650     37651
     37650     37652     37651     37652     37653     37654     37653     37655
     37654     37655     37656     37657     37656     37658     37657     37658
     37659     37660     37659     37661     37660     37661     37662     37663
     37662     37664     37663     37664     37665     37666     37665     37667
     37666     37667     37668     37669     37668     37670     37669     37670
     37671     37672     37671     37673     37672     37673     37674     37675
     37674     37676     37675     37676     37677     37678     37677     37679
     37678     37679     37680     37681     37680     37682     37681     37682
     37683     37684     37683     37685     37684     37685     37686     37687
     37686     37688     37687     37688     37689     37690     37689     37691
     37690     37691     37692     37693     37692     37694     37693     37694
     37695     37696     37695     37697     37696     37697     37698     37699
     37698     37700     37699     37700     37701     37702     37701     37703
     37702     37703     37704     37705     37704     37706     37705     37706
     37707     37708     37707     37709     37708     37709     37710     37711
     37710     37712     37711     37712     37713     37714     37713     37715
     37714     37715     37716     37717     37716     37718     37717     37718
     37719     37720     37719     37721     37720     37721     37722     37723
     37722     37724     37723     37724     37725     37726     37725     37727
     37726     37727     37728     37729     37728     37730     37729     37730
     37731     37732     37731     37733     37732     37733     37734     37735
     37734     37736     37735     37736     37737     37738     37737     37739
     37738     37739     37740     37741     37740     37742     37741     37742
     37743     37744     37743     37745     37744     37745     37746     37747
     37746     37748     37747     37748     37749     37750     37749     37751
     37750     37751     37752     37753     37752     37754     37753     37754
     37755     37756     37755     37757     37756     37757     37758     37759
     37758     37760     37759     37760     37761     37762     37761     37763
     37762     37763     37764     37765     37764     37766     37765     37766
     37767     37768     37767     37769     37768     37769     37770     37771
     37770     37772     37771     37772     37773     37774     37773     37775
     37774     37775     37776     37777     37776     37778     37777     37778
     37779     37780     37779     37781     37780     37781     37782     37783
     37782     37784     37783     37784     37785     37786     37785     37787
     37786     37787     37788     37789     37788     37790     37789     37790
     37791     37792     37791     37793     37792     37793     37794     37795
     37794     37796     37795     37796     37797     37798     37797     37799
     37798     37799     37800     37801     37800     37802     37801     37802
     37803     37804     37803     37805     37804     37805     37806     37807
     37806     37808     37807     37808     37809     37810     37809     37811
     37810     37811     37812     37813     37812     37814     37813     37814
     37815     37816     37815     37817     37816     37817     37818     37819
     37818     37820     37819     37820     37821     37822     37821     37823
     37822     37823     37824     37825     37824     37826     37825     37826
     37827     37828     37827     37829     37828     37829     37830     37831
     37830     37832     37831     37832     37833     37834     37833     37835
     37834     37835     37836     37837     37836     37838     37837     37838
     37839     37840     37839     37841     37840     37841     37842     37843
     37842     37844     37843     37844     37845     37846     37845     37847
     37846     37847     37848     37849     37848     37850     37849     37850
     37851     37852     37851     37853     37852     37853     37854     37855
     37854     37856     37855     37856     37857     37858     37857     37859
     37858     37859     37860     37861     37860     37862     37861     37862
     37863     37864     37863     37865     37864     37865     37866     37867
     37866     37868     37867     37868     37869     37870     37869     37871
     37870     37871     37872     37873     37872     37874     37873     37874
     37875     37876     37875     37877     37876     37877     37878     37879
     37878     37880     37879     37880     37881     37882     37881     37883
     37882     37883     37884     37885     37884     37886     37885     37886
     37887     37888     37887     37889     37888     37889     37890     37891
     37890     37892     37891     37892     37893     37894     37893     37895
     37894     37895     37896     37897     37896     37898     37897     37898
     37899     37900     37899     37901     37900     37901     37902     37903
     37902     37904     37903     37904     37905     37906     37905     37907
     37906     37907     37908     37909     37908     37910     37909     37910
     37911     37912     37911     37913     37912     37913     37914     37915
     37914     37916     37915     37916     37917     37918     37917     37919
     37918     37919     37920     37921     37920     37922     37921     37922
     37923     37924     37923     37925     37924     37925     37926     37927
     37926     37928     37927     37928     37929     37930     37929     37931
     37930     37931     37932     37933     37932     37934     37933     37934
     37935     37936     37935     37937     37936     37937     37938     37939
     37938     37940     37939     37940     37941     37942     37941     37943
     37942     37943     37944     37945     37944     37946     37945     37946
     37947     37948     37947     37949     37948     37949     37950     37951
     37950     37952     37951     37952     37953     37954     37953     37955
     37954     37955     37956     37957     37956     37958     37957     37958
     37959     37960     37959     37961     37960     37961     37962     37963
     37962     37964     37963     37964     37965     37966     37965     37967
     37966     37967     37968     37969     37968     37970     37969     37970
     37971     37972     37971     37973     37972     37973     37974     37975
     37974     37976     37975     37976     37977     37978     37977     37979
     37978     37979     37980     37981     37980     37982     37981     37982
     37983     37984     37983     37985     37984     37985     37986     37987
     37986     37988     37987     37988     37989     37990     37989     37991
     37990     37991     37992     37993     37992     37994     37993     37994
     37995     37996     37995     37997     37996     37997     37998     37999
     37998     38000     37999     38000     38001     38002     38001     38003
     38002     38003     38004     38005     38004     38006     38005     38006
     38007     38008     38007     38009     38008     38009     38010     38011
     38010     38012     38011     38012     38013     38014     38013     38015
     38014     38015     38016     38017     38016     38018     38017     38018
     38019     38020     38019     38021     38020     38021     38022     38023
     38022     38024     38023     38024     38025     38026     38025     38027
     38026     38027     38028     38029     38028     38030     38029     38030
     38031     38032     38031     38033     38032     38033     38034     38035
     38034     38036     38035     38036     38037     38038     38037     38039
     38038     38039     38040     38041     38040     38042     38041     38042
     38043     38044     38043     38045     38044     38045     38046     38047
     38046     38048     38047     38048     38049     38050     38049     38051
     38050     38051     38052     38053     38052     38054     38053     38054
     38055     38056     38055     38057     38056     38057     38058     38059
     38058     38060     38059     38060     38061     38062     38061     38063
     38062     38063     38064     38065     38064     38066     38065     38066
     38067     38068     38067     38069     38068     38069     38070     38071
     38070     38072     38071     38072     38073     38074     38073     38075
     38074     38075     38076     38077     38076     38078     38077     38078
     38079     38080     38079     38081     38080     38081     38082     38083
     38082     38084     38083     38084     38085     38086     38085     38087
     38086     38087     38088     38089     38088     38090     38089     38090
     38091     38092     38091     38093     38092     38093     38094     38095
     38094     38096     38095     38096     38097     38098     38097     38099
     38098     38099     38100     38101     38100     38102     38101     38102
     38103     38104     38103     38105     38104     38105     38106     38107
     38106     38108     38107     38108     38109     38110     38109     38111
     38110     38111     38112     38113     38112     38114     38113     38114
     38115     38116     38115     38117     38116     38117     38118     38119
     38118     38120     38119     38120     38121     38122     38121     38123
     38122     38123     38124     38125     38124     38126     38125     38126
     38127     38128     38127     38129     38128     38129     38130     38131
     38130     38132     38131     38132     38133     38134     38133     38135
     38134     38135     38136     38137     38136     38138     38137     38138
     38139     38140     38139     38141     38140     38141     38142     38143
     38142     38144     38143     38144     38145     38146     38145     38147
     38146     38147     38148     38149     38148     38150     38149     38150
     38151     38152     38151     38153     38152     38153     38154     38155
     38154     38156     38155     38156     38157     38158     38157     38159
     38158     38159     38160     38161     38160     38162     38161     38162
     38163     38164     38163     38165     38164     38165     38166     38167
     38166     38168     38167     38168     38169     38170     38169     38171
     38170     38171     38172     38173     38172     38174     38173     38174
     38175     38176     38175     38177     38176     38177     38178     38179
     38178     38180     38179     38180     38181     38182     38181     38183
     38182     38183     38184     38185     38184     38186     38185     38186
     38187     38188     38187     38189     38188     38189     38190     38191
     38190     38192     38191     38192     38193     38194     38193     38195
     38194     38195     38196     38197     38196     38198     38197     38198
     38199     38200     38199     38201     38200     38201     38202     38203
     38202     38204     38203     38204     38205     38206     38205     38207
     38206     38207     38208     38209     38208     38210     38209     38210
     38211     38212     38211     38213     38212     38213     38214     38215
     38214     38216     38215     38216     38217     38218     38217     38219
     38218     38219     38220     38221     38220     38222     38221     38222
     38223     38224     38223     38225     38224     38225     38226     38227
     38226     38228     38227     38228     38229     38230     38229     38231
     38230     38231     38232     38233     38232     38234     38233     38234
     38235     38236     38235     38237     38236     38237     38238     38239
     38238     38240     38239     38240     38241     38242     38241     38243
     38242     38243     38244     38245     38244     38246     38245     38246
     38247     38248     38247     38249     38248     38249     38250     38251
     38250     38252     38251     38252     38253     38254     38253     38255
     38254     38255     38256     38257     38256     38258     38257     38258
     38259     38260     38259     38261     38260     38261     38262     38263
     38262     38264     38263     38264     38265     38266     38265     38267
     38266     38267     38268     38269     38268     38270     38269     38270
     38271     38272     38271     38273     38272     38273     38274     38275
     38274     38276     38275     38276     38277     38278     38277     38279
     38278     38279     38280     38281     38280     38282     38281     38282
     38283     38284     38283     38285     38284     38285     38286     38287
     38286     38288     38287     38288     38289     38290     38289     38291
     38290     38291     38292     38293     38292     38294     38293     38294
     38295     38296     38295     38297     38296     38297     38298     38299
     38298     38300     38299     38300     38301     38302     38301     38303
     38302     38303     38304     38305     38304     38306     38305     38306
     38307     38308     38307     38309     38308     38309     38310     38311
     38310     38312     38311     38312     38313     38314     38313     38315
     38314     38315     38316     38317     38316     38318     38317     38318
     38319     38320     38319     38321     38320     38321     38322     38323
     38322     38324     38323     38324     38325     38326     38325     38327
     38326     38327     38328     38329     38328     38330     38329     38330
     38331     38332     38331     38333     38332     38333     38334     38335
     38334     38336     38335     38336     38337     38338     38337     38339
     38338     38339     38340     38341     38340     38342     38341     38342
     38343     38344     38343     38345     38344     38345     38346     38347
     38346     38348     38347     38348     38349     38350     38349     38351
     38350     38351     38352     38353     38352     38354     38353     38354
     38355     38356     38355     38357     38356     38357     38358     38359
     38358     38360     38359     38360     38361     38362     38361     38363
     38362     38363     38364     38365     38364     38366     38365     38366
     38367     38368     38367     38369     38368     38369     38370     38371
     38370     38372     38371     38372     38373     38374     38373     38375
     38374     38375     38376     38377     38376     38378     38377     38378
     38379     38380     38379     38381     38380     38381     38382     38383
     38382     38384     38383     38384     38385     38386     38385     38387
     38386     38387     38388     38389     38388     38390     38389     38390
     38391     38392     38391     38393     38392     38393     38394     38395
     38394     38396     38395     38396     38397     38398     38397     38399
     38398     38399     38400     38401     38400     38402     38401     38402
     38403     38404     38403     38405     38404     38405     38406     38407
     38406     38408     38407     38408     38409     38410     38409     38411
     38410     38411     38412     38413     38412     38414     38413     38414
     38415     38416     38415     38417     38416     38417     38418     38419
     38418     38420     38419     38420     38421     38422     38421     38423
     38422     38423     38424     38425     38424     38426     38425     38426
     38427     38428     38427     38429     38428     38429     38430     38431
     38430     38432     38431     38432     38433     38434     38433     38435
     38434     38435     38436     38437     38436     38438     38437     38438
     38439     38440     38439     38441     38440     38441     38442     38443
     38442     38444     38443     38444     38445     38446     38445     38447
     38446     38447     38448     38449     38448     38450     38449     38450
     38451     38452     38451     38453     38452     38453     38454     38455
     38454     38456     38455     38456     38457     38458     38457     38459
     38458     38459     38460     38461     38460     38462     38461     38462
     38463     38464     38463     38465     38464     38465     38466     38467
     38466     38468     38467     38468     38469     38470     38469     38471
     38470     38471     38472     38473     38472     38474     38473     38474
     38475     38476     38475     38477     38476     38477     38478     38479
     38478     38480     38479     38480     38481     38482     38481     38483
     38482     38483     38484     38485     38484     38486     38485     38486
     38487     38488     38487     38489     38488     38489     38490     38491
     38490     38492     38491     38492     38493     38494     38493     38495
     38494     38495     38496     38497     38496     38498     38497     38498
     38499     38500     38499     38501     38500     38501     38502     38503
     38502     38504     38503     38504     38505     38506     38505     38507
     38506     38507     38508     38509     38508     38510     38509     38510
     38511     38512     38511     38513     38512     38513     38514     38515
     38514     38516     38515     38516     38517     38518     38517     38519
     38518     38519     38520     38521     38520     38522     38521     38522
     38523     38524     38523     38525     38524     38525     38526     38527
     38526     38528     38527     38528     38529     38530     38529     38531
     38530     38531     38532     38533     38532     38534     38533     38534
     38535     38536     38535     38537     38536     38537     38538     38539
     38538     38540     38539     38540     38541     38542     38541     38543
     38542     38543     38544     38545     38544     38546     38545     38546
     38547     38548     38547     38549     38548     38549     38550     38551
     38550     38552     38551     38552     38553     38554     38553     38555
     38554     38555     38556     38557     38556     38558     38557     38558
     38559     38560     38559     38561     38560     38561     38562     38563
     38562     38564     38563     38564     38565     38566     38565     38567
     38566     38567     38568     38569     38568     38570     38569     38570
     38571     38572     38571     38573     38572     38573     38574     38575
     38574     38576     38575     38576     38577     38578     38577     38579
     38578     38579     38580     38581     38580     38582     38581     38582
     38583     38584     38583     38585     38584     38585     38586     38587
     38586     38588     38587     38588     38589     38590     38589     38591
     38590     38591     38592     38593     38592     38594     38593     38594
     38595     38596     38595     38597     38596     38597     38598     38599
     38598     38600     38599     38600     38601     38602     38601     38603
     38602     38603     38604     38605     38604     38606     38605     38606
     38607     38608     38607     38609     38608     38609     38610     38611
     38610     38612     38611     38612     38613     38614     38613     38615
     38614     38615     38616     38617     38616     38618     38617     38618
     38619     38620     38619     38621     38620     38621     38622     38623
     38622     38624     38623     38624     38625     38626     38625     38627
     38626     38627     38628     38629     38628     38630     38629     38630
     38631     38632     38631     38633     38632     38633     38634     38635
     38634     38636     38635     38636     38637     38638     38637     38639
     38638     38639     38640     38641     38640     38642     38641     38642
     38643     38644     38643     38645     38644     38645     38646     38647
     38646     38648     38647     38648     38649     38650     38649     38651
     38650     38651     38652     38653     38652     38654     38653     38654
     38655     38656     38655     38657     38656     38657     38658     38659
     38658     38660     38659     38660     38661     38662     38661     38663
     38662     38663     38664     38665     38664     38666     38665     38666
     38667     38668     38667     38669     38668     38669     38670     38671
     38670     38672     38671     38672     38673     38674     38673     38675
     38674     38675     38676     38677     38676     38678     38677     38678
     38679     38680     38679     38681     38680     38681     38682     38683
     38682     38684     38683     38684     38685     38686     38685     38687
     38686     38687     38688     38689     38688     38690     38689     38690
     38691     38692     38691     38693     38692     38693     38694     38695
     38694     38696     38695     38696     38697     38698     38697     38699
     38698     38699     38700     38701     38700     38702     38701     38702
     38703     38704     38703     38705     38704     38705     38706     38707
     38706     38708     38707     38708     38709     38710     38709     38711
     38710     38711     38712     38713     38712     38714     38713     38714
     38715     38716     38715     38717     38716     38717     38718     38719
     38718     38720     38719     38720     38721     38722     38721     38723
     38722     38723     38724     38725     38724     38726     38725     38726
     38727     38728     38727     38729     38728     38729     38730     38731
     38730     38732     38731     38732     38733     38734     38733     38735
     38734     38735     38736     38737     38736     38738     38737     38738
     38739     38740     38739     38741     38740     38741     38742     38743
     38742     38744     38743     38744     38745     38746     38745     38747
     38746     38747     38748     38749     38748     38750     38749     38750
     38751     38752     38751     38753     38752     38753     38754     38755
     38754     38756     38755     38756     38757     38758     38757     38759
     38758     38759     38760     38761     38760     38762     38761     38762
     38763     38764     38763     38765     38764     38765     38766     38767
     38766     38768     38767     38768     38769     38770     38769     38771
     38770     38771     38772     38773     38772     38774     38773     38774
     38775     38776     38775     38777     38776     38777     38778     38779
     38778     38780     38779     38780     38781     38782     38781     38783
     38782     38783     38784     38785     38784     38786     38785     38786
     38787     38788     38787     38789     38788     38789     38790     38791
     38790     38792     38791     38792     38793     38794     38793     38795
     38794     38795     38796     38797     38796     38798     38797     38798
     38799     38800     38799     38801     38800     38801     38802     38803
     38802     38804     38803     38804     38805     38806     38805     38807
     38806     38807     38808     38809     38808     38810     38809     38810
     38811     38812     38811     38813     38812     38813     38814     38815
     38814     38816     38815     38816     38817     38818     38817     38819
     38818     38819     38820     38821     38820     38822     38821     38822
     38823     38824     38823     38825     38824     38825     38826     38827
     38826     38828     38827     38828     38829     38830     38829     38831
     38830     38831     38832     38833     38832     38834     38833     38834
     38835     38836     38835     38837     38836     38837     38838     38839
     38838     38840     38839     38840     38841     38842     38841     38843
     38842     38843     38844     38845     38844     38846     38845     38846
     38847     38848     38847     38849     38848     38849     38850     38851
     38850     38852     38851     38852     38853     38854     38853     38855
     38854     38855     38856     38857     38856     38858     38857     38858
     38859     38860     38859     38861     38860     38861     38862     38863
     38862     38864     38863     38864     38865     38866     38865     38867
     38866     38867     38868     38869     38868     38870     38869     38870
     38871     38872     38871     38873     38872     38873     38874     38875
     38874     38876     38875     38876     38877     38878     38877     38879
     38878     38879     38880     38881     38880     38882     38881     38882
     38883     38884     38883     38885     38884     38885     38886     38887
     38886     38888     38887     38888     38889     38890     38889     38891
     38890     38891     38892     38893     38892     38894     38893     38894
     38895     38896     38895     38897     38896     38897     38898     38899
     38898     38900     38899     38900     38901     38902     38901     38903
     38902     38903     38904     38905     38904     38906     38905     38906
     38907     38908     38907     38909     38908     38909     38910     38911
     38910     38912     38911     38912     38913     38914     38913     38915
     38914     38915     38916     38917     38916     38918     38917     38918
     38919     38920     38919     38921     38920     38921     38922     38923
     38922     38924     38923     38924     38925     38926     38925     38927
     38926     38927     38928     38929     38928     38930     38929     38930
     38931     38932     38931     38933     38932     38933     38934     38935
     38934     38936     38935     38936     38937     38938     38937     38939
     38938     38939     38940     38941     38940     38942     38941     38942
     38943     38944     38943     38945     38944     38945     38946     38947
     38946     38948     38947     38948     38949     38950     38949     38951
     38950     38951     38952     38953     38952     38954     38953     38954
     38955     38956     38955     38957     38956     38957     38958     38959
     38958     38960     38959     38960     38961     38962     38961     38963
     38962     38963     38964     38965     38964     38966     38965     38966
     38967     38968     38967     38969     38968     38969     38970     38971
     38970     38972     38971     38972     38973     38974     38973     38975
     38974     38975     38976     38977     38976     38978     38977     38978
     38979     38980     38979     38981     38980     38981     38982     38983
     38982     38984     38983     38984     38985     38986     38985     38987
     38986     38987     38988     38989     38988     38990     38989     38990
     38991     38992     38991     38993     38992     38993     38994     38995
     38994     38996     38995     38996     38997     38998     38997     38999
     38998     38999     39000     39001     39000     39002     39001     39002
     39003     39004     39003     39005     39004     39005     39006     39007
     39006     39008     39007     39008     39009     39010     39009     39011
     39010     39011     39012     39013     39012     39014     39013     39014
     39015     39016     39015     39017     39016     39017     39018     39019
     39018     39020     39019     39020     39021     39022     39021     39023
     39022     39023     39024     39025     39024     39026     39025     39026
     39027     39028     39027     39029     39028     39029     39030     39031
     39030     39032     39031     39032     39033     39034     39033     39035
     39034     39035     39036     39037     39036     39038     39037     39038
     39039     39040     39039     39041     39040     39041     39042     39043
     39042     39044     39043     39044     39045     39046     39045     39047
     39046     39047     39048     39049     39048     39050     39049     39050
     39051     39052     39051     39053     39052     39053     39054     39055
     39054     39056     39055     39056     39057     39058     39057     39059
     39058     39059     39060     39061     39060     39062     39061     39062
     39063     39064     39063     39065     39064     39065     39066     39067
     39066     39068     39067     39068     39069     39070     39069     39071
     39070     39071     39072     39073     39072     39074     39073     39074
     39075     39076     39075     39077     39076     39077     39078     39079
     39078     39080     39079     39080     39081     39082     39081     39083
     39082     39083     39084     39085     39084     39086     39085     39086
     39087     39088     39087     39089     39088     39089     39090     39091
     39090     39092     39091     39092     39093     39094     39093     39095
     39094     39095     39096     39097     39096     39098     39097     39098
     39099     39100     39099     39101     39100     39101     39102     39103
     39102     39104     39103     39104     39105     39106     39105     39107
     39106     39107     39108     39109     39108     39110     39109     39110
     39111     39112     39111     39113     39112     39113     39114     39115
     39114     39116     39115     39116     39117     39118     39117     39119
     39118     39119     39120     39121     39120     39122     39121     39122
     39123     39124     39123     39125     39124     39125     39126     39127
     39126     39128     39127     39128     39129     39130     39129     39131
     39130     39131     39132     39133     39132     39134     39133     39134
     39135     39136     39135     39137     39136     39137     39138     39139
     39138     39140     39139     39140     39141     39142     39141     39143
     39142     39143     39144     39145     39144     39146     39145     39146
     39147     39148     39147     39149     39148     39149     39150     39151
     39150     39152     39151     39152     39153     39154     39153     39155
     39154     39155     39156     39157     39156     39158     39157     39158
     39159     39160     39159     39161     39160     39161     39162     39163
     39162     39164     39163     39164     39165     39166     39165     39167
     39166     39167     39168     39169     39168     39170     39169     39170
     39171     39172     39171     39173     39172     39173     39174     39175
     39174     39176     39175     39176     39177     39178     39177     39179
     39178     39179     39180     39181     39180     39182     39181     39182
     39183     39184     39183     39185     39184     39185     39186     39187
     39186     39188     39187     39188     39189     39190     39189     39191
     39190     39191     39192     39193     39192     39194     39193     39194
     39195     39196     39195     39197     39196     39197     39198     39199
     39198     39200     39199     39200     39201     39202     39201     39203
     39202     39203     39204     39205     39204     39206     39205     39206
     39207     39208     39207     39209     39208     39209     39210     39211
     39210     39212     39211     39212     39213     39214     39213     39215
     39214     39215     39216     39217     39216     39218     39217     39218
     39219     39220     39219     39221     39220     39221     39222     39223
     39222     39224     39223     39224     39225     39226     39225     39227
     39226     39227     39228     39229     39228     39230     39229     39230
     39231     39232     39231     39233     39232     39233     39234     39235
     39234     39236     39235     39236     39237     39238     39237     39239
     39238     39239     39240     39241     39240     39242     39241     39242
     39243     39244     39243     39245     39244     39245     39246     39247
     39246     39248     39247     39248     39249     39250     39249     39251
     39250     39251     39252     39253     39252     39254     39253     39254
     39255     39256     39255     39257     39256     39257     39258     39259
     39258     39260     39259     39260     39261     39262     39261     39263
     39262     39263     39264     39265     39264     39266     39265     39266
     39267     39268     39267     39269     39268     39269     39270     39271
     39270     39272     39271     39272     39273     39274     39273     39275
     39274     39275     39276     39277     39276     39278     39277     39278
     39279     39280     39279     39281     39280     39281     39282     39283
     39282     39284     39283     39284     39285     39286     39285     39287
     39286     39287     39288     39289     39288     39290     39289     39290
     39291     39292     39291     39293     39292     39293     39294     39295
     39294     39296     39295     39296     39297     39298     39297     39299
     39298     39299     39300     39301     39300     39302     39301     39302
     39303     39304     39303     39305     39304     39305     39306     39307
     39306     39308     39307     39308     39309     39310     39309     39311
     39310     39311     39312     39313     39312     39314     39313     39314
     39315     39316     39315     39317     39316     39317     39318     39319
     39318     39320     39319     39320     39321     39322     39321     39323
     39322     39323     39324     39325     39324     39326     39325     39326
     39327     39328     39327     39329     39328     39329     39330     39331
     39330     39332     39331     39332     39333     39334     39333     39335
     39334     39335     39336     39337     39336     39338     39337     39338
     39339     39340     39339     39341     39340     39341     39342     39343
     39342     39344     39343     39344     39345     39346     39345     39347
     39346     39347     39348     39349     39348     39350     39349     39350
     39351     39352     39351     39353     39352     39353     39354     39355
     39354     39356     39355     39356     39357     39358     39357     39359
     39358     39359     39360     39361     39360     39362     39361     39362
     39363     39364     39363     39365     39364     39365     39366     39367
     39366     39368     39367     39368     39369     39370     39369     39371
     39370     39371     39372     39373     39372     39374     39373     39374
     39375     39376     39375     39377     39376     39377     39378     39379
     39378     39380     39379     39380     39381     39382     39381     39383
     39382     39383     39384     39385     39384     39386     39385     39386
     39387     39388     39387     39389     39388     39389     39390     39391
     39390     39392     39391     39392     39393     39394     39393     39395
     39394     39395     39396     39397     39396     39398     39397     39398
     39399     39400     39399     39401     39400     39401     39402     39403
     39402     39404     39403     39404     39405     39406     39405     39407
     39406     39407     39408     39409     39408     39410     39409     39410
     39411     39412     39411     39413     39412     39413     39414     39415
     39414     39416     39415     39416     39417     39418     39417     39419
     39418     39419     39420     39421     39420     39422     39421     39422
     39423     39424     39423     39425     39424     39425     39426     39427
     39426     39428     39427     39428     39429     39430     39429     39431
     39430     39431     39432     39433     39432     39434     39433     39434
     39435     39436     39435     39437     39436     39437     39438     39439
     39438     39440     39439     39440     39441     39442     39441     39443
     39442     39443     39444     39445     39444     39446     39445     39446
     39447     39448     39447     39449     39448     39449     39450     39451
     39450     39452     39451     39452     39453     39454     39453     39455
     39454     39455     39456     39457     39456     39458     39457     39458
     39459     39460     39459     39461     39460     39461     39462     39463
     39462     39464     39463     39464     39465     39466     39465     39467
     39466     39467     39468     39469     39468     39470     39469     39470
     39471     39472     39471     39473     39472     39473     39474     39475
     39474     39476     39475     39476     39477     39478     39477     39479
     39478     39479     39480     39481     39480     39482     39481     39482
     39483     39484     39483     39485     39484     39485     39486     39487
     39486     39488     39487     39488     39489     39490     39489     39491
     39490     39491     39492     39493     39492     39494     39493     39494
     39495     39496     39495     39497     39496     39497     39498     39499
     39498     39500     39499     39500     39501     39502     39501     39503
     39502     39503     39504     39505     39504     39506     39505     39506
     39507     39508     39507     39509     39508     39509     39510     39511
     39510     39512     39511     39512     39513     39514     39513     39515
     39514     39515     39516     39517     39516     39518     39517     39518
     39519     39520     39519     39521     39520     39521     39522     39523
     39522     39524     39523     39524     39525     39526     39525     39527
     39526     39527     39528     39529     39528     39530     39529     39530
     39531     39532     39531     39533     39532     39533     39534     39535
     39534     39536     39535     39536     39537     39538     39537     39539
     39538     39539     39540     39541     39540     39542     39541     39542
     39543     39544     39543     39545     39544     39545     39546     39547
     39546     39548     39547     39548     39549     39550     39549     39551
     39550     39551     39552     39553     39552     39554     39553     39554
     39555     39556     39555     39557     39556     39557     39558     39559
     39558     39560     39559     39560     39561     39562     39561     39563
     39562     39563     39564     39565     39564     39566     39565     39566
     39567     39568     39567     39569     39568     39569     39570     39571
     39570     39572     39571     39572     39573     39574     39573     39575
     39574     39575     39576     39577     39576     39578     39577     39578
     39579     39580     39579     39581     39580     39581     39582     39583
     39582     39584     39583     39584     39585     39586     39585     39587
     39586     39587     39588     39589     39588     39590     39589     39590
     39591     39592     39591     39593     39592     39593     39594     39595
     39594     39596     39595     39596     39597     39598     39597     39599
     39598     39599     39600     39601     39600     39602     39601     39602
     39603     39604     39603     39605     39604     39605     39606     39607
     39606     39608     39607     39608     39609     39610     39609     39611
     39610     39611     39612     39613     39612     39614     39613     39614
     39615     39616     39615     39617     39616     39617     39618     39619
     39618     39620     39619     39620     39621     39622     39621     39623
     39622     39623     39624     39625     39624     39626     39625     39626
     39627     39628     39627     39629     39628     39629     39630     39631
     39630     39632     39631     39632     39633     39634     39633     39635
     39634     39635     39636     39637     39636     39638     39637     39638
     39639     39640     39639     39641     39640     39641     39642     39643
     39642     39644     39643     39644     39645     39646     39645     39647
     39646     39647     39648     39649     39648     39650     39649     39650
     39651     39652     39651     39653     39652     39653     39654     39655
     39654     39656     39655     39656     39657     39658     39657     39659
     39658     39659     39660     39661     39660     39662     39661     39662
     39663     39664     39663     39665     39664     39665     39666     39667
     39666     39668     39667     39668     39669     39670     39669     39671
     39670     39671     39672     39673     39672     39674     39673     39674
     39675     39676     39675     39677     39676     39677     39678     39679
     39678     39680     39679     39680     39681     39682     39681     39683
     39682     39683     39684     39685     39684     39686     39685     39686
     39687     39688     39687     39689     39688     39689     39690     39691
     39690     39692     39691     39692     39693     39694     39693     39695
     39694     39695     39696     39697     39696     39698     39697     39698
     39699     39700     39699     39701     39700     39701     39702     39703
     39702     39704     39703     39704     39705     39706     39705     39707
     39706     39707     39708     39709     39708     39710     39709     39710
     39711     39712     39711     39713     39712     39713     39714     39715
     39714     39716     39715     39716     39717     39718     39717     39719
     39718     39719     39720     39721     39720     39722     39721     39722
     39723     39724     39723     39725     39724     39725     39726     39727
     39726     39728     39727     39728     39729     39730     39729     39731
     39730     39731     39732     39733     39732     39734     39733     39734
     39735     39736     39735     39737     39736     39737     39738     39739
     39738     39740     39739     39740     39741     39742     39741     39743
     39742     39743     39744     39745     39744     39746     39745     39746
     39747     39748     39747     39749     39748     39749     39750     39751
     39750     39752     39751     39752     39753     39754     39753     39755
     39754     39755     39756     39757     39756     39758     39757     39758
     39759     39760     39759     39761     39760     39761     39762     39763
     39762     39764     39763     39764     39765     39766     39765     39767
     39766     39767     39768     39769     39768     39770     39769     39770
     39771     39772     39771     39773     39772     39773     39774     39775
     39774     39776     39775     39776     39777     39778     39777     39779
     39778     39779     39780     39781     39780     39782     39781     39782
     39783     39784     39783     39785     39784     39785     39786     39787
     39786     39788     39787     39788     39789     39790     39789     39791
     39790     39791     39792     39793     39792     39794     39793     39794
     39795     39796     39795     39797     39796     39797     39798     39799
     39798     39800     39799     39800     39801     39802     39801     39803
     39802     39803     39804     39805     39804     39806     39805     39806
     39807     39808     39807     39809     39808     39809     39810     39811
     39810     39812     39811     39812     39813     39814     39813     39815
     39814     39815     39816     39817     39816     39818     39817     39818
     39819     39820     39819     39821     39820     39821     39822     39823
     39822     39824     39823     39824     39825     39826     39825     39827
     39826     39827     39828     39829     39828     39830     39829     39830
     39831     39832     39831     39833     39832     39833     39834     39835
     39834     39836     39835     39836     39837     39838     39837     39839
     39838     39839     39840     39841     39840     39842     39841     39842
     39843     39844     39843     39845     39844     39845     39846     39847
     39846     39848     39847     39848     39849     39850     39849     39851
     39850     39851     39852     39853     39852     39854     39853     39854
     39855     39856     39855     39857     39856     39857     39858     39859
     39858     39860     39859     39860     39861     39862     39861     39863
     39862     39863     39864     39865     39864     39866     39865     39866
     39867     39868     39867     39869     39868     39869     39870     39871
     39870     39872     39871     39872     39873     39874     39873     39875
     39874     39875     39876     39877     39876     39878     39877     39878
     39879     39880     39879     39881     39880     39881     39882     39883
     39882     39884     39883     39884     39885     39886     39885     39887
     39886     39887     39888     39889     39888     39890     39889     39890
     39891     39892     39891     39893     39892     39893     39894     39895
     39894     39896     39895     39896     39897     39898     39897     39899
     39898     39899     39900     39901     39900     39902     39901     39902
     39903     39904     39903     39905     39904     39905     39906     39907
     39906     39908     39907     39908     39909     39910     39909     39911
     39910     39911     39912     39913     39912     39914     39913     39914
     39915     39916     39915     39917     39916     39917     39918     39919
     39918     39920     39919     39920     39921     39922     39921     39923
     39922     39923     39924     39925     39924     39926     39925     39926
     39927     39928     39927     39929     39928     39929     39930     39931
     39930     39932     39931     39932     39933     39934     39933     39935
     39934     39935     39936     39937     39936     39938     39937     39938
     39939     39940     39939     39941     39940     39941     39942     39943
     39942     39944     39943     39944     39945     39946     39945     39947
     39946     39947     39948     39949     39948     39950     39949     39950
     39951     39952     39951     39953     39952     39953     39954     39955
     39954     39956     39955     39956     39957     39958     39957     39959
     39958     39959     39960     39961     39960     39962     39961     39962
     39963     39964     39963     39965     39964     39965     39966     39967
     39966     39968     39967     39968     39969     39970     39969     39971
     39970     39971     39972     39973     39972     39974     39973     39974
     39975     39976     39975     39977     39976     39977     39978     39979
     39978     39980     39979     39980     39981     39982     39981     39983
     39982     39983     39984     39985     39984     39986     39985     39986
     39987     39988     39987     39989     39988     39989     39990     39991
     39990     39992     39991     39992     39993     39994     39993     39995
     39994     39995     39996     39997     39996     39998     39997     39998
     39999     40000     39999     40001     40000     40001     40002     40003
     40002     40004     40003     40004     40005     40006     40005     40007
     40006     40007     40008     40009     40008     40010     40009     40010
     40011     40012     40011     40013     40012     40013     40014     40015
     40014     40016     40015     40016     40017     40018     40017     40019
     40018     40019     40020     40021     40020     40022     40021     40022
     40023     40024     40023     40025     40024     40025     40026     40027
     40026     40028     40027     40028     40029     40030     40029     40031
     40030     40031     40032     40033     40032     40034     40033     40034
     40035     40036     40035     40037     40036     40037     40038     40039
     40038     40040     40039     40040     40041     40042     40041     40043
     40042     40043     40044     40045     40044     40046     40045     40046
     40047     40048     40047     40049     40048     40049     40050     40051
     40050     40052     40051     40052     40053     40054     40053     40055
     40054     40055     40056     40057     40056     40058     40057     40058
     40059     40060     40059     40061     40060     40061     40062     40063
     40062     40064     40063     40064     40065     40066     40065     40067
     40066     40067     40068     40069     40068     40070     40069     40070
     40071     40072     40071     40073     40072     40073     40074     40075
     40074     40076     40075     40076     40077     40078     40077     40079
     40078     40079     40080     40081     40080     40082     40081     40082
     40083     40084     40083     40085     40084     40085     40086     40087
     40086     40088     40087     40088     40089     40090     40089     40091
     40090     40091     40092     40093     40092     40094     40093     40094
     40095     40096     40095     40097     40096     40097     40098     40099
     40098     40100     40099     40100     40101     40102     40101     40103
     40102     40103     40104     40105     40104     40106     40105     40106
     40107     40108     40107     40109     40108     40109     40110     40111
     40110     40112     40111     40112     40113     40114     40113     40115
     40114     40115     40116     40117     40116     40118     40117     40118
     40119     40120     40119     40121     40120     40121     40122     40123
     40122     40124     40123     40124     40125     40126     40125     40127
     40126     40127     40128     40129     40128     40130     40129     40130
     40131     40132     40131     40133     40132     40133     40134     40135
     40134     40136     40135     40136     40137     40138     40137     40139
     40138     40139     40140     40141     40140     40142     40141     40142
     40143     40144     40143     40145     40144     40145     40146     40147
     40146     40148     40147     40148     40149     40150     40149     40151
     40150     40151     40152     40153     40152     40154     40153     40154
     40155     40156     40155     40157     40156     40157     40158     40159
     40158     40160     40159     40160     40161     40162     40161     40163
     40162     40163     40164     40165     40164     40166     40165     40166
     40167     40168     40167     40169     40168     40169     40170     40171
     40170     40172     40171     40172     40173     40174     40173     40175
     40174     40175     40176     40177     40176     40178     40177     40178
     40179     40180     40179     40181     40180     40181     40182     40183
     40182     40184     40183     40184     40185     40186     40185     40187
     40186     40187     40188     40189     40188     40190     40189     40190
     40191     40192     40191     40193     40192     40193     40194     40195
     40194     40196     40195     40196     40197     40198     40197     40199
     40198     40199     40200     40201     40200     40202     40201     40202
     40203     40204     40203     40205     40204     40205     40206     40207
     40206     40208     40207     40208     40209     40210     40209     40211
     40210     40211     40212     40213     40212     40214     40213     40214
     40215     40216     40215     40217     40216     40217     40218     40219
     40218     40220     40219     40220     40221     40222     40221     40223
     40222     40223     40224     40225     40224     40226     40225     40226
     40227     40228     40227     40229     40228     40229     40230     40231
     40230     40232     40231     40232     40233     40234     40233     40235
     40234     40235     40236     40237     40236     40238     40237     40238
     40239     40240     40239     40241     40240     40241     40242     40243
     40242     40244     40243     40244     40245     40246     40245     40247
     40246     40247     40248     40249     40248     40250     40249     40250
     40251     40252     40251     40253     40252     40253     40254     40255
     40254     40256     40255     40256     40257     40258     40257     40259
     40258     40259     40260     40261     40260     40262     40261     40262
     40263     40264     40263     40265     40264     40265     40266     40267
     40266     40268     40267     40268     40269     40270     40269     40271
     40270     40271     40272     40273     40272     40274     40273     40274
     40275     40276     40275     40277     40276     40277     40278     40279
     40278     40280     40279     40280     40281     40282     40281     40283
     40282     40283     40284     40285     40284     40286     40285     40286
     40287     40288     40287     40289     40288     40289     40290     40291
     40290     40292     40291     40292     40293     40294     40293     40295
     40294     40295     40296     40297     40296     40298     40297     40298
     40299     40300     40299     40301     40300     40301     40302     40303
     40302     40304     40303     40304     40305     40306     40305     40307
     40306     40307     40308     40309     40308     40310     40309     40310
     40311     40312     40311     40313     40312     40313     40314     40315
     40314     40316     40315     40316     40317     40318     40317     40319
     40318     40319     40320     40321     40320     40322     40321     40322
     40323     40324     40323     40325     40324     40325     40326     40327
     40326     40328     40327     40328     40329     40330     40329     40331
     40330     40331     40332     40333     40332     40334     40333     40334
     40335     40336     40335     40337     40336     40337     40338     40339
     40338     40340     40339     40340     40341     40342     40341     40343
     40342     40343     40344     40345     40344     40346     40345     40346
     40347     40348     40347     40349     40348     40349     40350     40351
     40350     40352     40351     40352     40353     40354     40353     40355
     40354     40355     40356     40357     40356     40358     40357     40358
     40359     40360     40359     40361     40360     40361     40362     40363
     40362     40364     40363     40364     40365     40366     40365     40367
     40366     40367     40368     40369     40368     40370     40369     40370
     40371     40372     40371     40373     40372     40373     40374     40375
     40374     40376     40375     40376     40377     40378     40377     40379
     40378     40379     40380     40381     40380     40382     40381     40382
     40383     40384     40383     40385     40384     40385     40386     40387
     40386     40388     40387     40388     40389     40390     40389     40391
     40390     40391     40392     40393     40392     40394     40393     40394
     40395     40396     40395     40397     40396     40397     40398     40399
     40398     40400     40399     40400     40401     40402     40401     40403
     40402     40403     40404     40405     40404     40406     40405     40406
     40407     40408     40407     40409     40408     40409     40410     40411
     40410     40412     40411     40412     40413     40414     40413     40415
     40414     40415     40416     40417     40416     40418     40417     40418
     40419     40420     40419     40421     40420     40421     40422     40423
     40422     40424     40423     40424     40425     40426     40425     40427
     40426     40427     40428     40429     40428     40430     40429     40430
     40431     40432     40431     40433     40432     40433     40434     40435
     40434     40436     40435     40436     40437     40438     40437     40439
     40438     40439     40440     40441     40440     40442     40441     40442
     40443     40444     40443     40445     40444     40445     40446     40447
     40446     40448     40447     40448     40449     40450     40449     40451
     40450     40451     40452     40453     40452     40454     40453     40454
     40455     40456     40455     40457     40456     40457     40458     40459
     40458     40460     40459     40460     40461     40462     40461     40463
     40462     40463     40464     40465     40464     40466     40465     40466
     40467     40468     40467     40469     40468     40469     40470     40471
     40470     40472     40471     40472     40473     40474     40473     40475
     40474     40475     40476     40477     40476     40478     40477     40478
     40479     40480     40479     40481     40480     40481     40482     40483
     40482     40484     40483     40484     40485     40486     40485     40487
     40486     40487     40488     40489     40488     40490     40489     40490
     40491     40492     40491     40493     40492     40493     40494     40495
     40494     40496     40495     40496     40497     40498     40497     40499
     40498     40499     40500     40501     40500     40502     40501     40502
     40503     40504     40503     40505     40504     40505     40506     40507
     40506     40508     40507     40508     40509     40510     40509     40511
     40510     40511     40512     40513     40512     40514     40513     40514
     40515     40516     40515     40517     40516     40517     40518     40519
     40518     40520     40519     40520     40521     40522     40521     40523
     40522     40523     40524     40525     40524     40526     40525     40526
     40527     40528     40527     40529     40528     40529     40530     40531
     40530     40532     40531     40532     40533     40534     40533     40535
     40534     40535     40536     40537     40536     40538     40537     40538
     40539     40540     40539     40541     40540     40541     40542     40543
     40542     40544     40543     40544     40545     40546     40545     40547
     40546     40547     40548     40549     40548     40550     40549     40550
     40551     40552     40551     40553     40552     40553     40554     40555
     40554     40556     40555     40556     40557     40558     40557     40559
     40558     40559     40560     40561     40560     40562     40561     40562
     40563     40564     40563     40565     40564     40565     40566     40567
     40566     40568     40567     40568     40569     40570     40569     40571
     40570     40571     40572     40573     40572     40574     40573     40574
     40575     40576     40575     40577     40576     40577     40578     40579
     40578     40580     40579     40580     40581     40582     40581     40583
     40582     40583     40584     40585     40584     40586     40585     40586
     40587     40588     40587     40589     40588     40589     40590     40591
     40590     40592     40591     40592     40593     40594     40593     40595
     40594     40595     40596     40597     40596     40598     40597     40598
     40599     40600     40599     40601     40600     40601     40602     40603
     40602     40604     40603     40604     40605     40606     40605     40607
     40606     40607     40608     40609     40608     40610     40609     40610
     40611     40612     40611     40613     40612     40613     40614     40615
     40614     40616     40615     40616     40617     40618     40617     40619
     40618     40619     40620     40621     40620     40622     40621     40622
     40623     40624     40623     40625     40624     40625     40626     40627
     40626     40628     40627     40628     40629     40630     40629     40631
     40630     40631     40632     40633     40632     40634     40633     40634
     40635     40636     40635     40637     40636     40637     40638     40639
     40638     40640     40639     40640     40641     40642     40641     40643
     40642     40643     40644     40645     40644     40646     40645     40646
     40647     40648     40647     40649     40648     40649     40650     40651
     40650     40652     40651     40652     40653     40654     40653     40655
     40654     40655     40656     40657     40656     40658     40657     40658
     40659     40660     40659     40661     40660     40661     40662     40663
     40662     40664     40663     40664     40665     40666     40665     40667
     40666     40667     40668     40669     40668     40670     40669     40670
     40671     40672     40671     40673     40672     40673     40674     40675
     40674     40676     40675     40676     40677     40678     40677     40679
     40678     40679     40680     40681     40680     40682     40681     40682
     40683     40684     40683     40685     40684     40685     40686     40687
     40686     40688     40687     40688     40689     40690     40689     40691
     40690     40691     40692     40693     40692     40694     40693     40694
     40695     40696     40695     40697     40696     40697     40698     40699
     40698     40700     40699     40700     40701     40702     40701     40703
     40702     40703     40704     40705     40704     40706     40705     40706
     40707     40708     40707     40709     40708     40709     40710     40711
     40710     40712     40711     40712     40713     40714     40713     40715
     40714     40715     40716     40717     40716     40718     40717     40718
     40719     40720     40719     40721     40720     40721     40722     40723
     40722     40724     40723     40724     40725     40726     40725     40727
     40726     40727     40728     40729     40728     40730     40729     40730
     40731     40732     40731     40733     40732     40733     40734     40735
     40734     40736     40735     40736     40737     40738     40737     40739
     40738     40739     40740     40741     40740     40742     40741     40742
     40743     40744     40743     40745     40744     40745     40746     40747
     40746     40748     40747     40748     40749     40750     40749     40751
     40750     40751     40752     40753     40752     40754     40753     40754
     40755     40756     40755     40757     40756     40757     40758     40759
     40758     40760     40759     40760     40761     40762     40761     40763
     40762     40763     40764     40765     40764     40766     40765     40766
     40767     40768     40767     40769     40768     40769     40770     40771
     40770     40772     40771     40772     40773     40774     40773     40775
     40774     40775     40776     40777     40776     40778     40777     40778
     40779     40780     40779     40781     40780     40781     40782     40783
     40782     40784     40783     40784     40785     40786     40785     40787
     40786     40787     40788     40789     40788     40790     40789     40790
     40791     40792     40791     40793     40792     40793     40794     40795
     40794     40796     40795     40796     40797     40798     40797     40799
     40798     40799     40800     40801     40800     40802     40801     40802
     40803     40804     40803     40805     40804     40805     40806     40807
     40806     40808     40807     40808     40809     40810     40809     40811
     40810     40811     40812     40813     40812     40814     40813     40814
     40815     40816     40815     40817     40816     40817     40818     40819
     40818     40820     40819     40820     40821     40822     40821     40823
     40822     40823     40824     40825     40824     40826     40825     40826
     40827     40828     40827     40829     40828     40829     40830     40831
     40830     40832     40831     40832     40833     40834     40833     40835
     40834     40835     40836     40837     40836     40838     40837     40838
     40839     40840     40839     40841     40840     40841     40842     40843
     40842     40844     40843     40844     40845     40846     40845     40847
     40846     40847     40848     40849     40848     40850     40849     40850
     40851     40852     40851     40853     40852     40853     40854     40855
     40854     40856     40855     40856     40857     40858     40857     40859
     40858     40859     40860     40861     40860     40862     40861     40862
     40863     40864     40863     40865     40864     40865     40866     40867
     40866     40868     40867     40868     40869     40870     40869     40871
     40870     40871     40872     40873     40872     40874     40873     40874
     40875     40876     40875     40877     40876     40877     40878     40879
     40878     40880     40879     40880     40881     40882     40881     40883
     40882     40883     40884     40885     40884     40886     40885     40886
     40887     40888     40887     40889     40888     40889     40890     40891
     40890     40892     40891     40892     40893     40894     40893     40895
     40894     40895     40896     40897     40896     40898     40897     40898
     40899     40900     40899     40901     40900     40901     40902     40903
     40902     40904     40903     40904     40905     40906     40905     40907
     40906     40907     40908     40909     40908     40910     40909     40910
     40911     40912     40911     40913     40912     40913     40914     40915
     40914     40916     40915     40916     40917     40918     40917     40919
     40918     40919     40920     40921     40920     40922     40921     40922
     40923     40924     40923     40925     40924     40925     40926     40927
     40926     40928     40927     40928     40929     40930     40929     40931
     40930     40931     40932     40933     40932     40934     40933     40934
     40935     40936     40935     40937     40936     40937     40938     40939
     40938     40940     40939     40940     40941     40942     40941     40943
     40942     40943     40944     40945     40944     40946     40945     40946
     40947     40948     40947     40949     40948     40949     40950     40951
     40950     40952     40951     40952     40953     40954     40953     40955
     40954     40955     40956     40957     40956     40958     40957     40958
     40959     40960     40959     40961     40960     40961     40962     40963
     40962     40964     40963     40964     40965     40966     40965     40967
     40966     40967     40968     40969     40968     40970     40969     40970
     40971     40972     40971     40973     40972     40973     40974     40975
     40974     40976     40975     40976     40977     40978     40977     40979
     40978     40979     40980     40981     40980     40982     40981     40982
     40983     40984     40983     40985     40984     40985     40986     40987
     40986     40988     40987     40988     40989     40990     40989     40991
     40990     40991     40992     40993     40992     40994     40993     40994
     40995     40996     40995     40997     40996     40997     40998     40999
     40998     41000     40999     41000     41001     41002     41001     41003
     41002     41003     41004     41005     41004     41006     41005     41006
     41007     41008     41007     41009     41008     41009     41010     41011
     41010     41012     41011     41012     41013     41014     41013     41015
     41014     41015     41016     41017     41016     41018     41017     41018
     41019     41020     41019     41021     41020     41021     41022     41023
     41022     41024     41023     41024     41025     41026     41025     41027
     41026     41027     41028     41029     41028     41030     41029     41030
     41031     41032     41031     41033     41032     41033     41034     41035
     41034     41036     41035     41036     41037     41038     41037     41039
     41038     41039     41040     41041     41040     41042     41041     41042
     41043     41044     41043     41045     41044     41045     41046     41047
     41046     41048     41047     41048     41049     41050     41049     41051
     41050     41051     41052     41053     41052     41054     41053     41054
     41055     41056     41055     41057     41056     41057     41058     41059
     41058     41060     41059     41060     41061     41062     41061     41063
     41062     41063     41064     41065     41064     41066     41065     41066
     41067     41068     41067     41069     41068     41069     41070     41071
     41070     41072     41071     41072     41073     41074     41073     41075
     41074     41075     41076     41077     41076     41078     41077     41078
     41079     41080     41079     41081     41080     41081     41082     41083
     41082     41084     41083     41084     41085     41086     41085     41087
     41086     41087     41088     41089     41088     41090     41089     41090
     41091     41092     41091     41093     41092     41093     41094     41095
     41094     41096     41095     41096     41097     41098     41097     41099
     41098     41099     41100     41101     41100     41102     41101     41102
     41103     41104     41103     41105     41104     41105     41106     41107
     41106     41108     41107     41108     41109     41110     41109     41111
     41110     41111     41112     41113     41112     41114     41113     41114
     41115     41116     41115     41117     41116     41117     41118     41119
     41118     41120     41119     41120     41121     41122     41121     41123
     41122     41123     41124     41125     41124     41126     41125     41126
     41127     41128     41127     41129     41128     41129     41130     41131
     41130     41132     41131     41132     41133     41134     41133     41135
     41134     41135     41136     41137     41136     41138     41137     41138
     41139     41140     41139     41141     41140     41141     41142     41143
     41142     41144     41143     41144     41145     41146     41145     41147
     41146     41147     41148     41149     41148     41150     41149     41150
     41151     41152     41151     41153     41152     41153     41154     41155
     41154     41156     41155     41156     41157     41158     41157     41159
     41158     41159     41160     41161     41160     41162     41161     41162
     41163     41164     41163     41165     41164     41165     41166     41167
     41166     41168     41167     41168     41169     41170     41169     41171
     41170     41171     41172     41173     41172     41174     41173     41174
     41175     41176     41175     41177     41176     41177     41178     41179
     41178     41180     41179     41180     41181     41182     41181     41183
     41182     41183     41184     41185     41184     41186     41185     41186
     41187     41188     41187     41189     41188     41189     41190     41191
     41190     41192     41191     41192     41193     41194     41193     41195
     41194     41195     41196     41197     41196     41198     41197     41198
     41199     41200     41199     41201     41200     41201     41202     41203
     41202     41204     41203     41204     41205     41206     41205     41207
     41206     41207     41208     41209     41208     41210     41209     41210
     41211     41212     41211     41213     41212     41213     41214     41215
     41214     41216     41215     41216     41217     41218     41217     41219
     41218     41219     41220     41221     41220     41222     41221     41222
     41223     41224     41223     41225     41224     41225     41226     41227
     41226     41228     41227     41228     41229     41230     41229     41231
     41230     41231     41232     41233     41232     41234     41233     41234
     41235     41236     41235     41237     41236     41237     41238     41239
     41238     41240     41239     41240     41241     41242     41241     41243
     41242     41243     41244     41245     41244     41246     41245     41246
     41247     41248     41247     41249     41248     41249     41250     41251
     41250     41252     41251     41252     41253     41254     41253     41255
     41254     41255     41256     41257     41256     41258     41257     41258
     41259     41260     41259     41261     41260     41261     41262     41263
     41262     41264     41263     41264     41265     41266     41265     41267
     41266     41267     41268     41269     41268     41270     41269     41270
     41271     41272     41271     41273     41272     41273     41274     41275
     41274     41276     41275     41276     41277     41278     41277     41279
     41278     41279     41280     41281     41280     41282     41281     41282
     41283     41284     41283     41285     41284     41285     41286     41287
     41286     41288     41287     41288     41289     41290     41289     41291
     41290     41291     41292     41293     41292     41294     41293     41294
     41295     41296     41295     41297     41296     41297     41298     41299
     41298     41300     41299     41300     41301     41302     41301     41303
     41302     41303     41304     41305     41304     41306     41305     41306
     41307     41308     41307     41309     41308     41309     41310     41311
     41310     41312     41311     41312     41313     41314     41313     41315
     41314     41315     41316     41317     41316     41318     41317     41318
     41319     41320     41319     41321     41320     41321     41322     41323
     41322     41324     41323     41324     41325     41326     41325     41327
     41326     41327     41328     41329     41328     41330     41329     41330
     41331     41332     41331     41333     41332     41333     41334     41335
     41334     41336     41335     41336     41337     41338     41337     41339
     41338     41339     41340     41341     41340     41342     41341     41342
     41343     41344     41343     41345     41344     41345     41346     41347
     41346     41348     41347     41348     41349     41350     41349     41351
     41350     41351     41352     41353     41352     41354     41353     41354
     41355     41356     41355     41357     41356     41357     41358     41359
     41358     41360     41359     41360     41361     41362     41361     41363
     41362     41363     41364     41365     41364     41366     41365     41366
     41367     41368     41367     41369     41368     41369     41370     41371
     41370     41372     41371     41372     41373     41374     41373     41375
     41374     41375     41376     41377     41376     41378     41377     41378
     41379     41380     41379     41381     41380     41381     41382     41383
     41382     41384     41383     41384     41385     41386     41385     41387
     41386     41387     41388     41389     41388     41390     41389     41390
     41391     41392     41391     41393     41392     41393     41394     41395
     41394     41396     41395     41396     41397     41398     41397     41399
     41398     41399     41400     41401     41400     41402     41401     41402
     41403     41404     41403     41405     41404     41405     41406     41407
     41406     41408     41407     41408     41409     41410     41409     41411
     41410     41411     41412     41413     41412     41414     41413     41414
     41415     41416     41415     41417     41416     41417     41418     41419
     41418     41420     41419     41420     41421     41422     41421     41423
     41422     41423     41424     41425     41424     41426     41425     41426
     41427     41428     41427     41429     41428     41429     41430     41431
     41430     41432     41431     41432     41433     41434     41433     41435
     41434     41435     41436     41437     41436     41438     41437     41438
     41439     41440     41439     41441     41440     41441     41442     41443
     41442     41444     41443     41444     41445     41446     41445     41447
     41446     41447     41448     41449     41448     41450     41449     41450
     41451     41452     41451     41453     41452     41453     41454     41455
     41454     41456     41455     41456     41457     41458     41457     41459
     41458     41459     41460     41461     41460     41462     41461     41462
     41463     41464     41463     41465     41464     41465     41466     41467
     41466     41468     41467     41468     41469     41470     41469     41471
     41470     41471     41472     41473     41472     41474     41473     41474
     41475     41476     41475     41477     41476     41477     41478     41479
     41478     41480     41479     41480     41481     41482     41481     41483
     41482     41483     41484     41485     41484     41486     41485     41486
     41487     41488     41487     41489     41488     41489     41490     41491
     41490     41492     41491     41492     41493     41494     41493     41495
     41494     41495     41496     41497     41496     41498     41497     41498
     41499     41500     41499     41501     41500     41501     41502     41503
     41502     41504     41503     41504     41505     41506     41505     41507
     41506     41507     41508     41509     41508     41510     41509     41510
     41511     41512     41511     41513     41512     41513     41514     41515
     41514     41516     41515     41516     41517     41518     41517     41519
     41518     41519     41520     41521     41520     41522     41521     41522
     41523     41524     41523     41525     41524     41525     41526     41527
     41526     41528     41527     41528     41529     41530     41529     41531
     41530     41531     41532     41533     41532     41534     41533     41534
     41535     41536     41535     41537     41536     41537     41538     41539
     41538     41540     41539     41540     41541     41542     41541     41543
     41542     41543     41544     41545     41544     41546     41545     41546
     41547     41548     41547     41549     41548     41549     41550     41551
     41550     41552     41551     41552     41553     41554     41553     41555
     41554     41555     41556     41557     41556     41558     41557     41558
     41559     41560     41559     41561     41560     41561     41562     41563
     41562     41564     41563     41564     41565     41566     41565     41567
     41566     41567     41568     41569     41568     41570     41569     41570
     41571     41572     41571     41573     41572     41573     41574     41575
     41574     41576     41575     41576     41577     41578     41577     41579
     41578     41579     41580     41581     41580     41582     41581     41582
     41583     41584     41583     41585     41584     41585     41586     41587
     41586     41588     41587     41588     41589     41590     41589     41591
     41590     41591     41592     41593     41592     41594     41593     41594
     41595     41596     41595     41597     41596     41597     41598     41599
     41598     41600     41599     41600     41601     41602     41601     41603
     41602     41603     41604     41605     41604     41606     41605     41606
     41607     41608     41607     41609     41608     41609     41610     41611
     41610     41612     41611     41612     41613     41614     41613     41615
     41614     41615     41616     41617     41616     41618     41617     41618
     41619     41620     41619     41621     41620     41621     41622     41623
     41622     41624     41623     41624     41625     41626     41625     41627
     41626     41627     41628     41629     41628     41630     41629     41630
     41631     41632     41631     41633     41632     41633     41634     41635
     41634     41636     41635     41636     41637     41638     41637     41639
     41638     41639     41640     41641     41640     41642     41641     41642
     41643     41644     41643     41645     41644     41645     41646     41647
     41646     41648     41647     41648     41649     41650     41649     41651
     41650     41651     41652     41653     41652     41654     41653     41654
     41655     41656     41655     41657     41656     41657     41658     41659
     41658     41660     41659     41660     41661     41662     41661     41663
     41662     41663     41664     41665     41664     41666     41665     41666
     41667     41668     41667     41669     41668     41669     41670     41671
     41670     41672     41671     41672     41673     41674     41673     41675
     41674     41675     41676     41677     41676     41678     41677     41678
     41679     41680     41679     41681     41680     41681     41682     41683
     41682     41684     41683     41684     41685     41686     41685     41687
     41686     41687     41688     41689     41688     41690     41689     41690
     41691     41692     41691     41693     41692     41693     41694     41695
     41694     41696     41695     41696     41697     41698     41697     41699
     41698     41699     41700     41701     41700     41702     41701     41702
     41703     41704     41703     41705     41704     41705     41706     41707
     41706     41708     41707     41708     41709     41710     41709     41711
     41710     41711     41712     41713     41712     41714     41713     41714
     41715     41716     41715     41717     41716     41717     41718     41719
     41718     41720     41719     41720     41721     41722     41721     41723
     41722     41723     41724     41725     41724     41726     41725     41726
     41727     41728     41727     41729     41728     41729     41730     41731
     41730     41732     41731     41732     41733     41734     41733     41735
     41734     41735     41736     41737     41736     41738     41737     41738
     41739     41740     41739     41741     41740     41741     41742     41743
     41742     41744     41743     41744     41745     41746     41745     41747
     41746     41747     41748     41749     41748     41750     41749     41750
     41751     41752     41751     41753     41752     41753     41754     41755
     41754     41756     41755     41756     41757     41758     41757     41759
     41758     41759     41760     41761     41760     41762     41761     41762
     41763     41764     41763     41765     41764     41765     41766     41767
     41766     41768     41767     41768     41769     41770     41769     41771
     41770     41771     41772     41773     41772     41774     41773     41774
     41775     41776     41775     41777     41776     41777     41778     41779
     41778     41780     41779     41780     41781     41782     41781     41783
     41782     41783     41784     41785     41784     41786     41785     41786
     41787     41788     41787     41789     41788     41789     41790     41791
     41790     41792     41791     41792     41793     41794     41793     41795
     41794     41795     41796     41797     41796     41798     41797     41798
     41799     41800     41799     41801     41800     41801     41802     41803
     41802     41804     41803     41804     41805     41806     41805     41807
     41806     41807     41808     41809     41808     41810     41809     41810
     41811     41812     41811     41813     41812     41813     41814     41815
     41814     41816     41815     41816     41817     41818     41817     41819
     41818     41819     41820     41821     41820     41822     41821     41822
     41823     41824     41823     41825     41824     41825     41826     41827
     41826     41828     41827     41828     41829     41830     41829     41831
     41830     41831     41832     41833     41832     41834     41833     41834
     41835     41836     41835     41837     41836     41837     41838     41839
     41838     41840     41839     41840     41841     41842     41841     41843
     41842     41843     41844     41845     41844     41846     41845     41846
     41847     41848     41847     41849     41848     41849     41850     41851
     41850     41852     41851     41852     41853     41854     41853     41855
     41854     41855     41856     41857     41856     41858     41857     41858
     41859     41860     41859     41861     41860     41861     41862     41863
     41862     41864     41863     41864     41865     41866     41865     41867
     41866     41867     41868     41869     41868     41870     41869     41870
     41871     41872     41871     41873     41872     41873     41874     41875
     41874     41876     41875     41876     41877     41878     41877     41879
     41878     41879     41880     41881     41880     41882     41881     41882
     41883     41884     41883     41885     41884     41885     41886     41887
     41886     41888     41887     41888     41889     41890     41889     41891
     41890     41891     41892     41893     41892     41894     41893     41894
     41895     41896     41895     41897     41896     41897     41898     41899
     41898     41900     41899     41900     41901     41902     41901     41903
     41902     41903     41904     41905     41904     41906     41905     41906
     41907     41908     41907     41909     41908     41909     41910     41911
     41910     41912     41911     41912     41913     41914     41913     41915
     41914     41915     41916     41917     41916     41918     41917     41918
     41919     41920     41919     41921     41920     41921     41922     41923
     41922     41924     41923     41924     41925     41926     41925     41927
     41926     41927     41928     41929     41928     41930     41929     41930
     41931     41932     41931     41933     41932     41933     41934     41935
     41934     41936     41935     41936     41937     41938     41937     41939
     41938     41939     41940     41941     41940     41942     41941     41942
     41943     41944     41943     41945     41944     41945     41946     41947
     41946     41948     41947     41948     41949     41950     41949     41951
     41950     41951     41952     41953     41952     41954     41953     41954
     41955     41956     41955     41957     41956     41957     41958     41959
     41958     41960     41959     41960     41961     41962     41961     41963
     41962     41963     41964     41965     41964     41966     41965     41966
     41967     41968     41967     41969     41968     41969     41970     41971
     41970     41972     41971     41972     41973     41974     41973     41975
     41974     41975     41976     41977     41976     41978     41977     41978
     41979     41980     41979     41981     41980     41981     41982     41983
     41982     41984     41983     41984     41985     41986     41985     41987
     41986     41987     41988     41989     41988     41990     41989     41990
     41991     41992     41991     41993     41992     41993     41994     41995
     41994     41996     41995     41996     41997     41998     41997     41999
     41998     41999     42000     42001     42000     42002     42001     42002
     42003     42004     42003     42005     42004     42005     42006     42007
     42006     42008     42007     42008     42009     42010     42009     42011
     42010     42011     42012     42013     42012     42014     42013     42014
     42015     42016     42015     42017     42016     42017     42018     42019
     42018     42020     42019     42020     42021     42022     42021     42023
     42022     42023     42024     42025     42024     42026     42025     42026
     42027     42028     42027     42029     42028     42029     42030     42031
     42030     42032     42031     42032     42033     42034     42033     42035
     42034     42035     42036     42037     42036     42038     42037     42038
     42039     42040     42039     42041     42040     42041     42042     42043
     42042     42044     42043     42044     42045     42046     42045     42047
     42046     42047     42048     42049     42048     42050     42049     42050
     42051     42052     42051     42053     42052     42053     42054     42055
     42054     42056     42055     42056     42057     42058     42057     42059
     42058     42059     42060     42061     42060     42062     42061     42062
     42063     42064     42063     42065     42064     42065     42066     42067
     42066     42068     42067     42068     42069     42070     42069     42071
     42070     42071     42072     42073     42072     42074     42073     42074
     42075     42076     42075     42077     42076     42077     42078     42079
     42078     42080     42079     42080     42081     42082     42081     42083
     42082     42083     42084     42085     42084     42086     42085     42086
     42087     42088     42087     42089     42088     42089     42090     42091
     42090     42092     42091     42092     42093     42094     42093     42095
     42094     42095     42096     42097     42096     42098     42097     42098
     42099     42100     42099     42101     42100     42101     42102     42103
     42102     42104     42103     42104     42105     42106     42105     42107
     42106     42107     42108     42109     42108     42110     42109     42110
     42111     42112     42111     42113     42112     42113     42114     42115
     42114     42116     42115     42116     42117     42118     42117     42119
     42118     42119     42120     42121     42120     42122     42121     42122
     42123     42124     42123     42125     42124     42125     42126     42127
     42126     42128     42127     42128     42129     42130     42129     42131
     42130     42131     42132     42133     42132     42134     42133     42134
     42135     42136     42135     42137     42136     42137     42138     42139
     42138     42140     42139     42140     42141     42142     42141     42143
     42142     42143     42144     42145     42144     42146     42145     42146
     42147     42148     42147     42149     42148     42149     42150     42151
     42150     42152     42151     42152     42153     42154     42153     42155
     42154     42155     42156     42157     42156     42158     42157     42158
     42159     42160     42159     42161     42160     42161     42162     42163
     42162     42164     42163     42164     42165     42166     42165     42167
     42166     42167     42168     42169     42168     42170     42169     42170
     42171     42172     42171     42173     42172     42173     42174     42175
     42174     42176     42175     42176     42177     42178     42177     42179
     42178     42179     42180     42181     42180     42182     42181     42182
     42183     42184     42183     42185     42184     42185     42186     42187
     42186     42188     42187     42188     42189     42190     42189     42191
     42190     42191     42192     42193     42192     42194     42193     42194
     42195     42196     42195     42197     42196     42197     42198     42199
     42198     42200     42199     42200     42201     42202     42201     42203
     42202     42203     42204     42205     42204     42206     42205     42206
     42207     42208     42207     42209     42208     42209     42210     42211
     42210     42212     42211     42212     42213     42214     42213     42215
     42214     42215     42216     42217     42216     42218     42217     42218
     42219     42220     42219     42221     42220     42221     42222     42223
     42222     42224     42223     42224     42225     42226     42225     42227
     42226     42227     42228     42229     42228     42230     42229     42230
     42231     42232     42231     42233     42232     42233     42234     42235
     42234     42236     42235     42236     42237     42238     42237     42239
     42238     42239     42240     42241     42240     42242     42241     42242
     42243     42244     42243     42245     42244     42245     42246     42247
     42246     42248     42247     42248     42249     42250     42249     42251
     42250     42251     42252     42253     42252     42254     42253     42254
     42255     42256     42255     42257     42256     42257     42258     42259
     42258     42260     42259     42260     42261     42262     42261     42263
     42262     42263     42264     42265     42264     42266     42265     42266
     42267     42268     42267     42269     42268     42269     42270     42271
     42270     42272     42271     42272     42273     42274     42273     42275
     42274     42275     42276     42277     42276     42278     42277     42278
     42279     42280     42279     42281     42280     42281     42282     42283
     42282     42284     42283     42284     42285     42286     42285     42287
     42286     42287     42288     42289     42288     42290     42289     42290
     42291     42292     42291     42293     42292     42293     42294     42295
     42294     42296     42295     42296     42297     42298     42297     42299
     42298     42299     42300     42301     42300     42302     42301     42302
     42303     42304     42303     42305     42304     42305     42306     42307
     42306     42308     42307     42308     42309     42310     42309     42311
     42310     42311     42312     42313     42312     42314     42313     42314
     42315     42316     42315     42317     42316     42317     42318     42319
     42318     42320     42319     42320     42321     42322     42321     42323
     42322     42323     42324     42325     42324     42326     42325     42326
     42327     42328     42327     42329     42328     42329     42330     42331
     42330     42332     42331     42332     42333     42334     42333     42335
     42334     42335     42336     42337     42336     42338     42337     42338
     42339     42340     42339     42341     42340     42341     42342     42343
     42342     42344     42343     42344     42345     42346     42345     42347
     42346     42347     42348     42349     42348     42350     42349     42350
     42351     42352     42351     42353     42352     42353     42354     42355
     42354     42356     42355     42356     42357     42358     42357     42359
     42358     42359     42360     42361     42360     42362     42361     42362
     42363     42364     42363     42365     42364     42365     42366     42367
     42366     42368     42367     42368     42369     42370     42369     42371
     42370     42371     42372     42373     42372     42374     42373     42374
     42375     42376     42375     42377     42376     42377     42378     42379
     42378     42380     42379     42380     42381     42382     42381     42383
     42382     42383     42384     42385     42384     42386     42385     42386
     42387     42388     42387     42389     42388     42389     42390     42391
     42390     42392     42391     42392     42393     42394     42393     42395
     42394     42395     42396     42397     42396     42398     42397     42398
     42399     42400     42399     42401     42400     42401     42402     42403
     42402     42404     42403     42404     42405     42406     42405     42407
     42406     42407     42408     42409     42408     42410     42409     42410
     42411     42412     42411     42413     42412     42413     42414     42415
     42414     42416     42415     42416     42417     42418     42417     42419
     42418     42419     42420     42421     42420     42422     42421     42422
     42423     42424     42423     42425     42424     42425     42426     42427
     42426     42428     42427     42428     42429     42430     42429     42431
     42430     42431     42432     42433     42432     42434     42433     42434
     42435     42436     42435     42437     42436     42437     42438     42439
     42438     42440     42439     42440     42441     42442     42441     42443
     42442     42443     42444     42445     42444     42446     42445     42446
     42447     42448     42447     42449     42448     42449     42450     42451
     42450     42452     42451     42452     42453     42454     42453     42455
     42454     42455     42456     42457     42456     42458     42457     42458
     42459     42460     42459     42461     42460     42461     42462     42463
     42462     42464     42463     42464     42465     42466     42465     42467
     42466     42467     42468     42469     42468     42470     42469     42470
     42471     42472     42471     42473     42472     42473     42474     42475
     42474     42476     42475     42476     42477     42478     42477     42479
     42478     42479     42480     42481     42480     42482     42481     42482
     42483     42484     42483     42485     42484     42485     42486     42487
     42486     42488     42487     42488     42489     42490     42489     42491
     42490     42491     42492     42493     42492     42494     42493     42494
     42495     42496     42495     42497     42496     42497     42498     42499
     42498     42500     42499     42500     42501     42502     42501     42503
     42502     42503     42504     42505     42504     42506     42505     42506
     42507     42508     42507     42509     42508     42509     42510     42511
     42510     42512     42511     42512     42513     42514     42513     42515
     42514     42515     42516     42517     42516     42518     42517     42518
     42519     42520     42519     42521     42520     42521     42522     42523
     42522     42524     42523     42524     42525     42526     42525     42527
     42526     42527     42528     42529     42528     42530     42529     42530
     42531     42532     42531     42533     42532     42533     42534     42535
     42534     42536     42535     42536     42537     42538     42537     42539
     42538     42539     42540     42541     42540     42542     42541     42542
     42543     42544     42543     42545     42544     42545     42546     42547
     42546     42548     42547     42548     42549     42550     42549     42551
     42550     42551     42552     42553     42552     42554     42553     42554
     42555     42556     42555     42557     42556     42557     42558     42559
     42558     42560     42559     42560     42561     42562     42561     42563
     42562     42563     42564     42565     42564     42566     42565     42566
     42567     42568     42567     42569     42568     42569     42570     42571
     42570     42572     42571     42572     42573     42574     42573     42575
     42574     42575     42576     42577     42576     42578     42577     42578
     42579     42580     42579     42581     42580     42581     42582     42583
     42582     42584     42583     42584     42585     42586     42585     42587
     42586     42587     42588     42589     42588     42590     42589     42590
     42591     42592     42591     42593     42592     42593     42594     42595
     42594     42596     42595     42596     42597     42598     42597     42599
     42598     42599     42600     42601     42600     42602     42601     42602
     42603     42604     42603     42605     42604     42605     42606     42607
     42606     42608     42607     42608     42609     42610     42609     42611
     42610     42611     42612     42613     42612     42614     42613     42614
     42615     42616     42615     42617     42616     42617     42618     42619
     42618     42620     42619     42620     42621     42622     42621     42623
     42622     42623     42624     42625     42624     42626     42625     42626
     42627     42628     42627     42629     42628     42629     42630     42631
     42630     42632     42631     42632     42633     42634     42633     42635
     42634     42635     42636     42637     42636     42638     42637     42638
     42639     42640     42639     42641     42640     42641     42642     42643
     42642     42644     42643     42644     42645     42646     42645     42647
     42646     42647     42648     42649     42648     42650     42649     42650
     42651     42652     42651     42653     42652     42653     42654     42655
     42654     42656     42655     42656     42657     42658     42657     42659
     42658     42659     42660     42661     42660     42662     42661     42662
     42663     42664     42663     42665     42664     42665     42666     42667
     42666     42668     42667     42668     42669     42670     42669     42671
     42670     42671     42672     42673     42672     42674     42673     42674
     42675     42676     42675     42677     42676     42677     42678     42679
     42678     42680     42679     42680     42681     42682     42681     42683
     42682     42683     42684     42685     42684     42686     42685     42686
     42687     42688     42687     42689     42688     42689     42690     42691
     42690     42692     42691     42692     42693     42694     42693     42695
     42694     42695     42696     42697     42696     42698     42697     42698
     42699     42700     42699     42701     42700     42701     42702     42703
     42702     42704     42703     42704     42705     42706     42705     42707
     42706     42707     42708     42709     42708     42710     42709     42710
     42711     42712     42711     42713     42712     42713     42714     42715
     42714     42716     42715     42716     42717     42718     42717     42719
     42718     42719     42720     42721     42720     42722     42721     42722
     42723     42724     42723     42725     42724     42725     42726     42727
     42726     42728     42727     42728     42729     42730     42729     42731
     42730     42731     42732     42733     42732     42734     42733     42734
     42735     42736     42735     42737     42736     42737     42738     42739
     42738     42740     42739     42740     42741     42742     42741     42743
     42742     42743     42744     42745     42744     42746     42745     42746
     42747     42748     42747     42749     42748     42749     42750     42751
     42750     42752     42751     42752     42753     42754     42753     42755
     42754     42755     42756     42757     42756     42758     42757     42758
     42759     42760     42759     42761     42760     42761     42762     42763
     42762     42764     42763     42764     42765     42766     42765     42767
     42766     42767     42768     42769     42768     42770     42769     42770
     42771     42772     42771     42773     42772     42773     42774     42775
     42774     42776     42775     42776     42777     42778     42777     42779
     42778     42779     42780     42781     42780     42782     42781     42782
     42783     42784     42783     42785     42784     42785     42786     42787
     42786     42788     42787     42788     42789     42790     42789     42791
     42790     42791     42792     42793     42792     42794     42793     42794
     42795     42796     42795     42797     42796     42797     42798     42799
     42798     42800     42799     42800     42801     42802     42801     42803
     42802     42803     42804     42805     42804     42806     42805     42806
     42807     42808     42807     42809     42808     42809     42810     42811
     42810     42812     42811     42812     42813     42814     42813     42815
     42814     42815     42816     42817     42816     42818     42817     42818
     42819     42820     42819     42821     42820     42821     42822     42823
     42822     42824     42823     42824     42825     42826     42825     42827
     42826     42827     42828     42829     42828     42830     42829     42830
     42831     42832     42831     42833     42832     42833     42834     42835
     42834     42836     42835     42836     42837     42838     42837     42839
     42838     42839     42840     42841     42840     42842     42841     42842
     42843     42844     42843     42845     42844     42845     42846     42847
     42846     42848     42847     42848     42849     42850     42849     42851
     42850     42851     42852     42853     42852     42854     42853     42854
     42855     42856     42855     42857     42856     42857     42858     42859
     42858     42860     42859     42860     42861     42862     42861     42863
     42862     42863     42864     42865     42864     42866     42865     42866
     42867     42868     42867     42869     42868     42869     42870     42871
     42870     42872     42871     42872     42873     42874     42873     42875
     42874     42875     42876     42877     42876     42878     42877     42878
     42879     42880     42879     42881     42880     42881     42882     42883
     42882     42884     42883     42884     42885     42886     42885     42887
     42886     42887     42888     42889     42888     42890     42889     42890
     42891     42892     42891     42893     42892     42893     42894     42895
     42894     42896     42895     42896     42897     42898     42897     42899
     42898     42899     42900     42901     42900     42902     42901     42902
     42903     42904     42903     42905     42904     42905     42906     42907
     42906     42908     42907     42908     42909     42910     42909     42911
     42910     42911     42912     42913     42912     42914     42913     42914
     42915     42916     42915     42917     42916     42917     42918     42919
     42918     42920     42919     42920     42921     42922     42921     42923
     42922     42923     42924     42925     42924     42926     42925     42926
     42927     42928     42927     42929     42928     42929     42930     42931
     42930     42932     42931     42932     42933     42934     42933     42935
     42934     42935     42936     42937     42936     42938     42937     42938
     42939     42940     42939     42941     42940     42941     42942     42943
     42942     42944     42943     42944     42945     42946     42945     42947
     42946     42947     42948     42949     42948     42950     42949     42950
     42951     42952     42951     42953     42952     42953     42954     42955
     42954     42956     42955     42956     42957     42958     42957     42959
     42958     42959     42960     42961     42960     42962     42961     42962
     42963     42964     42963     42965     42964     42965     42966     42967
     42966     42968     42967     42968     42969     42970     42969     42971
     42970     42971     42972     42973     42972     42974     42973     42974
     42975     42976     42975     42977     42976     42977     42978     42979
     42978     42980     42979     42980     42981     42982     42981     42983
     42982     42983     42984     42985     42984     42986     42985     42986
     42987     42988     42987     42989     42988     42989     42990     42991
     42990     42992     42991     42992     42993     42994     42993     42995
     42994     42995     42996     42997     42996     42998     42997     42998
     42999     43000     42999     43001     43000     43001     43002     43003
     43002     43004     43003     43004     43005     43006     43005     43007
     43006     43007     43008     43009     43008     43010     43009     43010
     43011     43012     43011     43013     43012     43013     43014     43015
     43014     43016     43015     43016     43017     43018     43017     43019
     43018     43019     43020     43021     43020     43022     43021     43022
     43023     43024     43023     43025     43024     43025     43026     43027
     43026     43028     43027     43028     43029     43030     43029     43031
     43030     43031     43032     43033     43032     43034     43033     43034
     43035     43036     43035     43037     43036     43037     43038     43039
     43038     43040     43039     43040     43041     43042     43041     43043
     43042     43043     43044     43045     43044     43046     43045     43046
     43047     43048     43047     43049     43048     43049     43050     43051
     43050     43052     43051     43052     43053     43054     43053     43055
     43054     43055     43056     43057     43056     43058     43057     43058
     43059     43060     43059     43061     43060     43061     43062     43063
     43062     43064     43063     43064     43065     43066     43065     43067
     43066     43067     43068     43069     43068     43070     43069     43070
     43071     43072     43071     43073     43072     43073     43074     43075
     43074     43076     43075     43076     43077     43078     43077     43079
     43078     43079     43080     43081     43080     43082     43081     43082
     43083     43084     43083     43085     43084     43085     43086     43087
     43086     43088     43087     43088     43089     43090     43089     43091
     43090     43091     43092     43093     43092     43094     43093     43094
     43095     43096     43095     43097     43096     43097     43098     43099
     43098     43100     43099     43100     43101     43102     43101     43103
     43102     43103     43104     43105     43104     43106     43105     43106
     43107     43108     43107     43109     43108     43109     43110     43111
     43110     43112     43111     43112     43113     43114     43113     43115
     43114     43115     43116     43117     43116     43118     43117     43118
     43119     43120     43119     43121     43120     43121     43122     43123
     43122     43124     43123     43124     43125     43126     43125     43127
     43126     43127     43128     43129     43128     43130     43129     43130
     43131     43132     43131     43133     43132     43133     43134     43135
     43134     43136     43135     43136     43137     43138     43137     43139
     43138     43139     43140     43141     43140     43142     43141     43142
     43143     43144     43143     43145     43144     43145     43146     43147
     43146     43148     43147     43148     43149     43150     43149     43151
     43150     43151     43152     43153     43152     43154     43153     43154
     43155     43156     43155     43157     43156     43157     43158     43159
     43158     43160     43159     43160     43161     43162     43161     43163
     43162     43163     43164     43165     43164     43166     43165     43166
     43167     43168     43167     43169     43168     43169     43170     43171
     43170     43172     43171     43172     43173     43174     43173     43175
     43174     43175     43176     43177     43176     43178     43177     43178
     43179     43180     43179     43181     43180     43181     43182     43183
     43182     43184     43183     43184     43185     43186     43185     43187
     43186     43187     43188     43189     43188     43190     43189     43190
     43191     43192     43191     43193     43192     43193     43194     43195
     43194     43196     43195     43196     43197     43198     43197     43199
     43198     43199     43200     43201     43200     43202     43201     43202
     43203     43204     43203     43205     43204     43205     43206     43207
     43206     43208     43207     43208     43209     43210     43209     43211
     43210     43211     43212     43213     43212     43214     43213     43214
     43215     43216     43215     43217     43216     43217     43218     43219
     43218     43220     43219     43220     43221     43222     43221     43223
     43222     43223     43224     43225     43224     43226     43225     43226
     43227     43228     43227     43229     43228     43229     43230     43231
     43230     43232     43231     43232     43233     43234     43233     43235
     43234     43235     43236     43237     43236     43238     43237     43238
     43239     43240     43239     43241     43240     43241     43242     43243
     43242     43244     43243     43244     43245     43246     43245     43247
     43246     43247     43248     43249     43248     43250     43249     43250
     43251     43252     43251     43253     43252     43253     43254     43255
     43254     43256     43255     43256     43257     43258     43257     43259
     43258     43259     43260     43261     43260     43262     43261     43262
     43263     43264     43263     43265     43264     43265     43266     43267
     43266     43268     43267     43268     43269     43270     43269     43271
     43270     43271     43272     43273     43272     43274     43273     43274
     43275     43276     43275     43277     43276     43277     43278     43279
     43278     43280     43279     43280     43281     43282     43281     43283
     43282     43283     43284     43285     43284     43286     43285     43286
     43287     43288     43287     43289     43288     43289     43290     43291
     43290     43292     43291     43292     43293     43294     43293     43295
     43294     43295     43296     43297     43296     43298     43297     43298
     43299     43300     43299     43301     43300     43301     43302     43303
     43302     43304     43303     43304     43305     43306     43305     43307
     43306     43307     43308     43309     43308     43310     43309     43310
     43311     43312     43311     43313     43312     43313     43314     43315
     43314     43316     43315     43316     43317     43318     43317     43319
     43318     43319     43320     43321     43320     43322     43321     43322
     43323     43324     43323     43325     43324     43325     43326     43327
     43326     43328     43327     43328     43329     43330     43329     43331
     43330     43331     43332     43333     43332     43334     43333     43334
     43335     43336     43335     43337     43336     43337     43338     43339
     43338     43340     43339     43340     43341     43342     43341     43343
     43342     43343     43344     43345     43344     43346     43345     43346
     43347     43348     43347     43349     43348     43349     43350     43351
     43350     43352     43351     43352     43353     43354     43353     43355
     43354     43355     43356     43357     43356     43358     43357     43358
     43359     43360     43359     43361     43360     43361     43362     43363
     43362     43364     43363     43364     43365     43366     43365     43367
     43366     43367     43368     43369     43368     43370     43369     43370
     43371     43372     43371     43373     43372     43373     43374     43375
     43374     43376     43375     43376     43377     43378     43377     43379
     43378     43379     43380     43381     43380     43382     43381     43382
     43383     43384     43383     43385     43384     43385     43386     43387
     43386     43388     43387     43388     43389     43390     43389     43391
     43390     43391     43392     43393     43392     43394     43393     43394
     43395     43396     43395     43397     43396     43397     43398     43399
     43398     43400     43399     43400     43401     43402     43401     43403
     43402     43403     43404     43405     43404     43406     43405     43406
     43407     43408     43407     43409     43408     43409     43410     43411
     43410     43412     43411     43412     43413     43414     43413     43415
     43414     43415     43416     43417     43416     43418     43417     43418
     43419     43420     43419     43421     43420     43421     43422     43423
     43422     43424     43423     43424     43425     43426     43425     43427
     43426     43427     43428     43429     43428     43430     43429     43430
     43431     43432     43431     43433     43432     43433     43434     43435
     43434     43436     43435     43436     43437     43438     43437     43439
     43438     43439     43440     43441     43440     43442     43441     43442
     43443     43444     43443     43445     43444     43445     43446     43447
     43446     43448     43447     43448     43449     43450     43449     43451
     43450     43451     43452     43453     43452     43454     43453     43454
     43455     43456     43455     43457     43456     43457     43458     43459
     43458     43460     43459     43460     43461     43462     43461     43463
     43462     43463     43464     43465     43464     43466     43465     43466
     43467     43468     43467     43469     43468     43469     43470     43471
     43470     43472     43471     43472     43473     43474     43473     43475
     43474     43475     43476     43477     43476     43478     43477     43478
     43479     43480     43479     43481     43480     43481     43482     43483
     43482     43484     43483     43484     43485     43486     43485     43487
     43486     43487     43488     43489     43488     43490     43489     43490
     43491     43492     43491     43493     43492     43493     43494     43495
     43494     43496     43495     43496     43497     43498     43497     43499
     43498     43499     43500     43501     43500     43502     43501     43502
     43503     43504     43503     43505     43504     43505     43506     43507
     43506     43508     43507     43508     43509     43510     43509     43511
     43510     43511     43512     43513     43512     43514     43513     43514
     43515     43516     43515     43517     43516     43517     43518     43519
     43518     43520     43519     43520     43521     43522     43521     43523
     43522     43523     43524     43525     43524     43526     43525     43526
     43527     43528     43527     43529     43528     43529     43530     43531
     43530     43532     43531     43532     43533     43534     43533     43535
     43534     43535     43536     43537     43536     43538     43537     43538
     43539     43540     43539     43541     43540     43541     43542     43543
     43542     43544     43543     43544     43545     43546     43545     43547
     43546     43547     43548     43549     43548     43550     43549     43550
     43551     43552     43551     43553     43552     43553     43554     43555
     43554     43556     43555     43556     43557     43558     43557     43559
     43558     43559     43560     43561     43560     43562     43561     43562
     43563     43564     43563     43565     43564     43565     43566     43567
     43566     43568     43567     43568     43569     43570     43569     43571
     43570     43571     43572     43573     43572     43574     43573     43574
     43575     43576     43575     43577     43576     43577     43578     43579
     43578     43580     43579     43580     43581     43582     43581     43583
     43582     43583     43584     43585     43584     43586     43585     43586
     43587     43588     43587     43589     43588     43589     43590     43591
     43590     43592     43591     43592     43593     43594     43593     43595
     43594     43595     43596     43597     43596     43598     43597     43598
     43599     43600     43599     43601     43600     43601     43602     43603
     43602     43604     43603     43604     43605     43606     43605     43607
     43606     43607     43608     43609     43608     43610     43609     43610
     43611     43612     43611     43613     43612     43613     43614     43615
     43614     43616     43615     43616     43617     43618     43617     43619
     43618     43619     43620     43621     43620     43622     43621     43622
     43623     43624     43623     43625     43624     43625     43626     43627
     43626     43628     43627     43628     43629     43630     43629     43631
     43630     43631     43632     43633     43632     43634     43633     43634
     43635     43636     43635     43637     43636     43637     43638     43639
     43638     43640     43639     43640     43641     43642     43641     43643
     43642     43643     43644     43645     43644     43646     43645     43646
     43647     43648     43647     43649     43648     43649     43650     43651
     43650     43652     43651     43652     43653     43654     43653     43655
     43654     43655     43656     43657     43656     43658     43657     43658
     43659     43660     43659     43661     43660     43661     43662     43663
     43662     43664     43663     43664     43665     43666     43665     43667
     43666     43667     43668     43669     43668     43670     43669     43670
     43671     43672     43671     43673     43672     43673     43674     43675
     43674     43676     43675     43676     43677     43678     43677     43679
     43678     43679     43680     43681     43680     43682     43681     43682
     43683     43684     43683     43685     43684     43685     43686     43687
     43686     43688     43687     43688     43689     43690     43689     43691
     43690     43691     43692     43693     43692     43694     43693     43694
     43695     43696     43695     43697     43696     43697     43698     43699
     43698     43700     43699     43700     43701     43702     43701     43703
     43702     43703     43704     43705     43704     43706     43705     43706
     43707     43708     43707     43709     43708     43709     43710     43711
     43710     43712     43711     43712     43713     43714     43713     43715
     43714     43715     43716     43717     43716     43718     43717     43718
     43719     43720     43719     43721     43720     43721     43722     43723
     43722     43724     43723     43724     43725     43726     43725     43727
     43726     43727     43728     43729     43728     43730     43729     43730
     43731     43732     43731     43733     43732     43733     43734     43735
     43734     43736     43735     43736     43737     43738     43737     43739
     43738     43739     43740     43741     43740     43742     43741     43742
     43743     43744     43743     43745     43744     43745     43746     43747
     43746     43748     43747     43748     43749     43750     43749     43751
     43750     43751     43752     43753     43752     43754     43753     43754
     43755     43756     43755     43757     43756     43757     43758     43759
     43758     43760     43759     43760     43761     43762     43761     43763
     43762     43763     43764     43765     43764     43766     43765     43766
     43767     43768     43767     43769     43768     43769     43770     43771
     43770     43772     43771     43772     43773     43774     43773     43775
     43774     43775     43776     43777     43776     43778     43777     43778
     43779     43780     43779     43781     43780     43781     43782     43783
     43782     43784     43783     43784     43785     43786     43785     43787
     43786     43787     43788     43789     43788     43790     43789     43790
     43791     43792     43791     43793     43792     43793     43794     43795
     43794     43796     43795     43796     43797     43798     43797     43799
     43798     43799     43800     43801     43800     43802     43801     43802
     43803     43804     43803     43805     43804     43805     43806     43807
     43806     43808     43807     43808     43809     43810     43809     43811
     43810     43811     43812     43813     43812     43814     43813     43814
     43815     43816     43815     43817     43816     43817     43818     43819
     43818     43820     43819     43820     43821     43822     43821     43823
     43822     43823     43824     43825     43824     43826     43825     43826
     43827     43828     43827     43829     43828     43829     43830     43831
     43830     43832     43831     43832     43833     43834     43833     43835
     43834     43835     43836     43837     43836     43838     43837     43838
     43839     43840     43839     43841     43840     43841     43842     43843
     43842     43844     43843     43844     43845     43846     43845     43847
     43846     43847     43848     43849     43848     43850     43849     43850
     43851     43852     43851     43853     43852     43853     43854     43855
     43854     43856     43855     43856     43857     43858     43857     43859
     43858     43859     43860     43861     43860     43862     43861     43862
     43863     43864     43863     43865     43864     43865     43866     43867
     43866     43868     43867     43868     43869     43870     43869     43871
     43870     43871     43872     43873     43872     43874     43873     43874
     43875     43876     43875     43877     43876     43877     43878     43879
     43878     43880     43879     43880     43881     43882     43881     43883
     43882     43883     43884     43885     43884     43886     43885     43886
     43887     43888     43887     43889     43888     43889     43890     43891
     43890     43892     43891     43892     43893     43894     43893     43895
     43894     43895     43896     43897     43896     43898     43897     43898
     43899     43900     43899     43901     43900     43901     43902     43903
     43902     43904     43903     43904     43905     43906     43905     43907
     43906     43907     43908     43909     43908     43910     43909     43910
     43911     43912     43911     43913     43912     43913     43914     43915
     43914     43916     43915     43916     43917     43918     43917     43919
     43918     43919     43920     43921     43920     43922     43921     43922
     43923     43924     43923     43925     43924     43925     43926     43927
     43926     43928     43927     43928     43929     43930     43929     43931
     43930     43931     43932     43933     43932     43934     43933     43934
     43935     43936     43935     43937     43936     43937     43938     43939
     43938     43940     43939     43940     43941     43942     43941     43943
     43942     43943     43944     43945     43944     43946     43945     43946
     43947     43948     43947     43949     43948     43949     43950     43951
     43950     43952     43951     43952     43953     43954     43953     43955
     43954     43955     43956     43957     43956     43958     43957     43958
     43959     43960     43959     43961     43960     43961     43962     43963
     43962     43964     43963     43964     43965     43966     43965     43967
     43966     43967     43968     43969     43968     43970     43969     43970
     43971     43972     43971     43973     43972     43973     43974     43975
     43974     43976     43975     43976     43977     43978     43977     43979
     43978     43979     43980     43981     43980     43982     43981     43982
     43983     43984     43983     43985     43984     43985     43986     43987
     43986     43988     43987     43988     43989     43990     43989     43991
     43990     43991     43992     43993     43992     43994     43993     43994
     43995     43996     43995     43997     43996     43997     43998     43999
     43998     44000     43999     44000     44001     44002     44001     44003
     44002     44003     44004     44005     44004     44006     44005     44006
     44007     44008     44007     44009     44008     44009     44010     44011
     44010     44012     44011     44012     44013     44014     44013     44015
     44014     44015     44016     44017     44016     44018     44017     44018
     44019     44020     44019     44021     44020     44021     44022     44023
     44022     44024     44023     44024     44025     44026     44025     44027
     44026     44027     44028     44029     44028     44030     44029     44030
     44031     44032     44031     44033     44032     44033     44034     44035
     44034     44036     44035     44036     44037     44038     44037     44039
     44038     44039     44040     44041     44040     44042     44041     44042
     44043     44044     44043     44045     44044     44045     44046     44047
     44046     44048     44047     44048     44049     44050     44049     44051
     44050     44051     44052     44053     44052     44054     44053     44054
     44055     44056     44055     44057     44056     44057     44058     44059
     44058     44060     44059     44060     44061     44062     44061     44063
     44062     44063     44064     44065     44064     44066     44065     44066
     44067     44068     44067     44069     44068     44069     44070     44071
     44070     44072     44071     44072     44073     44074     44073     44075
     44074     44075     44076     44077     44076     44078     44077     44078
     44079     44080     44079     44081     44080     44081     44082     44083
     44082     44084     44083     44084     44085     44086     44085     44087
     44086     44087     44088     44089     44088     44090     44089     44090
     44091     44092     44091     44093     44092     44093     44094     44095
     44094     44096     44095     44096     44097     44098     44097     44099
     44098     44099     44100     44101     44100     44102     44101     44102
     44103     44104     44103     44105     44104     44105     44106     44107
     44106     44108     44107     44108     44109     44110     44109     44111
     44110     44111     44112     44113     44112     44114     44113     44114
     44115     44116     44115     44117     44116     44117     44118     44119
     44118     44120     44119     44120     44121     44122     44121     44123
     44122     44123     44124     44125     44124     44126     44125     44126
     44127     44128     44127     44129     44128     44129     44130     44131
     44130     44132     44131     44132     44133     44134     44133     44135
     44134     44135     44136     44137     44136     44138     44137     44138
     44139     44140     44139     44141     44140     44141     44142     44143
     44142     44144     44143     44144     44145     44146     44145     44147
     44146     44147     44148     44149     44148     44150     44149     44150
     44151     44152     44151     44153     44152     44153     44154     44155
     44154     44156     44155     44156     44157     44158     44157     44159
     44158     44159     44160     44161     44160     44162     44161     44162
     44163     44164     44163     44165     44164     44165     44166     44167
     44166     44168     44167     44168     44169     44170     44169     44171
     44170     44171     44172     44173     44172     44174     44173     44174
     44175     44176     44175     44177     44176     44177     44178     44179
     44178     44180     44179     44180     44181     44182     44181     44183
     44182     44183     44184     44185     44184     44186     44185     44186
     44187     44188     44187     44189     44188     44189     44190     44191
     44190     44192     44191     44192     44193     44194     44193     44195
     44194     44195     44196     44197     44196     44198     44197     44198
     44199     44200     44199     44201     44200     44201     44202     44203
     44202     44204     44203     44204     44205     44206     44205     44207
     44206     44207     44208     44209     44208     44210     44209     44210
     44211     44212     44211     44213     44212     44213     44214     44215
     44214     44216     44215     44216     44217     44218     44217     44219
     44218     44219     44220     44221     44220     44222     44221     44222
     44223     44224     44223     44225     44224     44225     44226     44227
     44226     44228     44227     44228     44229     44230     44229     44231
     44230     44231     44232     44233     44232     44234     44233     44234
     44235     44236     44235     44237     44236     44237     44238     44239
     44238     44240     44239     44240     44241     44242     44241     44243
     44242     44243     44244     44245     44244     44246     44245     44246
     44247     44248     44247     44249     44248     44249     44250     44251
     44250     44252     44251     44252     44253     44254     44253     44255
     44254     44255     44256     44257     44256     44258     44257     44258
     44259     44260     44259     44261     44260     44261     44262     44263
     44262     44264     44263     44264     44265     44266     44265     44267
     44266     44267     44268     44269     44268     44270     44269     44270
     44271     44272     44271     44273     44272     44273     44274     44275
     44274     44276     44275     44276     44277     44278     44277     44279
     44278     44279     44280     44281     44280     44282     44281     44282
     44283     44284     44283     44285     44284     44285     44286     44287
     44286     44288     44287     44288     44289     44290     44289     44291
     44290     44291     44292     44293     44292     44294     44293     44294
     44295     44296     44295     44297     44296     44297     44298     44299
     44298     44300     44299     44300     44301     44302     44301     44303
     44302     44303     44304     44305     44304     44306     44305     44306
     44307     44308     44307     44309     44308     44309     44310     44311
     44310     44312     44311     44312     44313     44314     44313     44315
     44314     44315     44316     44317     44316     44318     44317     44318
     44319     44320     44319     44321     44320     44321     44322     44323
     44322     44324     44323     44324     44325     44326     44325     44327
     44326     44327     44328     44329     44328     44330     44329     44330
     44331     44332     44331     44333     44332     44333     44334     44335
     44334     44336     44335     44336     44337     44338     44337     44339
     44338     44339     44340     44341     44340     44342     44341     44342
     44343     44344     44343     44345     44344     44345     44346     44347
     44346     44348     44347     44348     44349     44350     44349     44351
     44350     44351     44352     44353     44352     44354     44353     44354
     44355     44356     44355     44357     44356     44357     44358     44359
     44358     44360     44359     44360     44361     44362     44361     44363
     44362     44363     44364     44365     44364     44366     44365     44366
     44367     44368     44367     44369     44368     44369     44370     44371
     44370     44372     44371     44372     44373     44374     44373     44375
     44374     44375     44376     44377     44376     44378     44377     44378
     44379     44380     44379     44381     44380     44381     44382     44383
     44382     44384     44383     44384     44385     44386     44385     44387
     44386     44387     44388     44389     44388     44390     44389     44390
     44391     44392     44391     44393     44392     44393     44394     44395
     44394     44396     44395     44396     44397     44398     44397     44399
     44398     44399     44400     44401     44400     44402     44401     44402
     44403     44404     44403     44405     44404     44405     44406     44407
     44406     44408     44407     44408     44409     44410     44409     44411
     44410     44411     44412     44413     44412     44414     44413     44414
     44415     44416     44415     44417     44416     44417     44418     44419
     44418     44420     44419     44420     44421     44422     44421     44423
     44422     44423     44424     44425     44424     44426     44425     44426
     44427     44428     44427     44429     44428     44429     44430     44431
     44430     44432     44431     44432     44433     44434     44433     44435
     44434     44435     44436     44437     44436     44438     44437     44438
     44439     44440     44439     44441     44440     44441     44442     44443
     44442     44444     44443     44444     44445     44446     44445     44447
     44446     44447     44448     44449     44448     44450     44449     44450
     44451     44452     44451     44453     44452     44453     44454     44455
     44454     44456     44455     44456     44457     44458     44457     44459
     44458     44459     44460     44461     44460     44462     44461     44462
     44463     44464     44463     44465     44464     44465     44466     44467
     44466     44468     44467     44468     44469     44470     44469     44471
     44470     44471     44472     44473     44472     44474     44473     44474
     44475     44476     44475     44477     44476     44477     44478     44479
     44478     44480     44479     44480     44481     44482     44481     44483
     44482     44483     44484     44485     44484     44486     44485     44486
     44487     44488     44487     44489     44488     44489     44490     44491
     44490     44492     44491     44492     44493     44494     44493     44495
     44494     44495     44496     44497     44496     44498     44497     44498
     44499     44500     44499     44501     44500     44501     44502     44503
     44502     44504     44503     44504     44505     44506     44505     44507
     44506     44507     44508     44509     44508     44510     44509     44510
     44511     44512     44511     44513     44512     44513     44514     44515
     44514     44516     44515     44516     44517     44518     44517     44519
     44518     44519     44520     44521     44520     44522     44521     44522
     44523     44524     44523     44525     44524     44525     44526     44527
     44526     44528     44527     44528     44529     44530     44529     44531
     44530     44531     44532     44533     44532     44534     44533     44534
     44535     44536     44535     44537     44536     44537     44538     44539
     44538     44540     44539     44540     44541     44542     44541     44543
     44542     44543     44544     44545     44544     44546     44545     44546
     44547     44548     44547     44549     44548     44549     44550     44551
     44550     44552     44551     44552     44553     44554     44553     44555
     44554     44555     44556     44557     44556     44558     44557     44558
     44559     44560     44559     44561     44560     44561     44562     44563
     44562     44564     44563     44564     44565     44566     44565     44567
     44566     44567     44568     44569     44568     44570     44569     44570
     44571     44572     44571     44573     44572     44573     44574     44575
     44574     44576     44575     44576     44577     44578     44577     44579
     44578     44579     44580     44581     44580     44582     44581     44582
     44583     44584     44583     44585     44584     44585     44586     44587
     44586     44588     44587     44588     44589     44590     44589     44591
     44590     44591     44592     44593     44592     44594     44593     44594
     44595     44596     44595     44597     44596     44597     44598     44599
     44598     44600     44599     44600     44601     44602     44601     44603
     44602     44603     44604     44605     44604     44606     44605     44606
     44607     44608     44607     44609     44608     44609     44610     44611
     44610     44612     44611     44612     44613     44614     44613     44615
     44614     44615     44616     44617     44616     44618     44617     44618
     44619     44620     44619     44621     44620     44621     44622     44623
     44622     44624     44623     44624     44625     44626     44625     44627
     44626     44627     44628     44629     44628     44630     44629     44630
     44631     44632     44631     44633     44632     44633     44634     44635
     44634     44636     44635     44636     44637     44638     44637     44639
     44638     44639     44640     44641     44640     44642     44641     44642
     44643     44644     44643     44645     44644     44645     44646     44647
     44646     44648     44647     44648     44649     44650     44649     44651
     44650     44651     44652     44653     44652     44654     44653     44654
     44655     44656     44655     44657     44656     44657     44658     44659
     44658     44660     44659     44660     44661     44662     44661     44663
     44662     44663     44664     44665     44664     44666     44665     44666
     44667     44668     44667     44669     44668     44669     44670     44671
     44670     44672     44671     44672     44673     44674     44673     44675
     44674     44675     44676     44677     44676     44678     44677     44678
     44679     44680     44679     44681     44680     44681     44682     44683
     44682     44684     44683     44684     44685     44686     44685     44687
     44686     44687     44688     44689     44688     44690     44689     44690
     44691     44692     44691     44693     44692     44693     44694     44695
     44694     44696     44695     44696     44697     44698     44697     44699
     44698     44699     44700     44701     44700     44702     44701     44702
     44703     44704     44703     44705     44704     44705     44706     44707
     44706     44708     44707     44708     44709     44710     44709     44711
     44710     44711     44712     44713     44712     44714     44713     44714
     44715     44716     44715     44717     44716     44717     44718     44719
     44718     44720     44719     44720     44721     44722     44721     44723
     44722     44723     44724     44725     44724     44726     44725     44726
     44727     44728     44727     44729     44728     44729     44730     44731
     44730     44732     44731     44732     44733     44734     44733     44735
     44734     44735     44736     44737     44736     44738     44737     44738
     44739     44740     44739     44741     44740     44741     44742     44743
     44742     44744     44743     44744     44745     44746     44745     44747
     44746     44747     44748     44749     44748     44750     44749     44750
     44751     44752     44751     44753     44752     44753     44754     44755
     44754     44756     44755     44756     44757     44758     44757     44759
     44758     44759     44760     44761     44760     44762     44761     44762
     44763     44764     44763     44765     44764     44765     44766     44767
     44766     44768     44767     44768     44769     44770     44769     44771
     44770     44771     44772     44773     44772     44774     44773     44774
     44775     44776     44775     44777     44776     44777     44778     44779
     44778     44780     44779     44780     44781     44782     44781     44783
     44782     44783     44784     44785     44784     44786     44785     44786
     44787     44788     44787     44789     44788     44789     44790     44791
     44790     44792     44791     44792     44793     44794     44793     44795
     44794     44795     44796     44797     44796     44798     44797     44798
     44799     44800     44799     44801     44800     44801     44802     44803
     44802     44804     44803     44804     44805     44806     44805     44807
     44806     44807     44808     44809     44808     44810     44809     44810
     44811     44812     44811     44813     44812     44813     44814     44815
     44814     44816     44815     44816     44817     44818     44817     44819
     44818     44819     44820     44821     44820     44822     44821     44822
     44823     44824     44823     44825     44824     44825     44826     44827
     44826     44828     44827     44828     44829     44830     44829     44831
     44830     44831     44832     44833     44832     44834     44833     44834
     44835     44836     44835     44837     44836     44837     44838     44839
     44838     44840     44839     44840     44841     44842     44841     44843
     44842     44843     44844     44845     44844     44846     44845     44846
     44847     44848     44847     44849     44848     44849     44850     44851
     44850     44852     44851     44852     44853     44854     44853     44855
     44854     44855     44856     44857     44856     44858     44857     44858
     44859     44860     44859     44861     44860     44861     44862     44863
     44862     44864     44863     44864     44865     44866     44865     44867
     44866     44867     44868     44869     44868     44870     44869     44870
     44871     44872     44871     44873     44872     44873     44874     44875
     44874     44876     44875     44876     44877     44878     44877     44879
     44878     44879     44880     44881     44880     44882     44881     44882
     44883     44884     44883     44885     44884     44885     44886     44887
     44886     44888     44887     44888     44889     44890     44889     44891
     44890     44891     44892     44893     44892     44894     44893     44894
     44895     44896     44895     44897     44896     44897     44898     44899
     44898     44900     44899     44900     44901     44902     44901     44903
     44902     44903     44904     44905     44904     44906     44905     44906
     44907     44908     44907     44909     44908     44909     44910     44911
     44910     44912     44911     44912     44913     44914     44913     44915
     44914     44915     44916     44917     44916     44918     44917     44918
     44919     44920     44919     44921     44920     44921     44922     44923
     44922     44924     44923     44924     44925     44926     44925     44927
     44926     44927     44928     44929     44928     44930     44929     44930
     44931     44932     44931     44933     44932     44933     44934     44935
     44934     44936     44935     44936     44937     44938     44937     44939
     44938     44939     44940     44941     44940     44942     44941     44942
     44943     44944     44943     44945     44944     44945     44946     44947
     44946     44948     44947     44948     44949     44950     44949     44951
     44950     44951     44952     44953     44952     44954     44953     44954
     44955     44956     44955     44957     44956     44957     44958     44959
     44958     44960     44959     44960     44961     44962     44961     44963
     44962     44963     44964     44965     44964     44966     44965     44966
     44967     44968     44967     44969     44968     44969     44970     44971
     44970     44972     44971     44972     44973     44974     44973     44975
     44974     44975     44976     44977     44976     44978     44977     44978
     44979     44980     44979     44981     44980     44981     44982     44983
     44982     44984     44983     44984     44985     44986     44985     44987
     44986     44987     44988     44989     44988     44990     44989     44990
     44991     44992     44991     44993     44992     44993     44994     44995
     44994     44996     44995     44996     44997     44998     44997     44999
     44998     44999     45000     45001     45000     45002     45001     45002
     45003     45004     45003     45005     45004     45005     45006     45007
     45006     45008     45007     45008     45009     45010     45009     45011
     45010     45011     45012     45013     45012     45014     45013     45014
     45015     45016     45015     45017     45016     45017     45018     45019
     45018     45020     45019     45020     45021     45022     45021     45023
     45022     45023     45024     45025     45024     45026     45025     45026
     45027     45028     45027     45029     45028     45029     45030     45031
     45030     45032     45031     45032     45033     45034     45033     45035
     45034     45035     45036     45037     45036     45038     45037     45038
     45039     45040     45039     45041     45040     45041     45042     45043
     45042     45044     45043     45044     45045     45046     45045     45047
     45046     45047     45048     45049     45048     45050     45049     45050
     45051     45052     45051     45053     45052     45053     45054     45055
     45054     45056     45055     45056     45057     45058     45057     45059
     45058     45059     45060     45061     45060     45062     45061     45062
     45063     45064     45063     45065     45064     45065     45066     45067
     45066     45068     45067     45068     45069     45070     45069     45071
     45070     45071     45072     45073     45072     45074     45073     45074
     45075     45076     45075     45077     45076     45077     45078     45079
     45078     45080     45079     45080     45081     45082     45081     45083
     45082     45083     45084     45085     45084     45086     45085     45086
     45087     45088     45087     45089     45088     45089     45090     45091
     45090     45092     45091     45092     45093     45094     45093     45095
     45094     45095     45096     45097     45096     45098     45097     45098
     45099     45100     45099     45101     45100     45101     45102     45103
     45102     45104     45103     45104     45105     45106     45105     45107
     45106     45107     45108     45109     45108     45110     45109     45110
     45111     45112     45111     45113     45112     45113     45114     45115
     45114     45116     45115     45116     45117     45118     45117     45119
     45118     45119     45120     45121     45120     45122     45121     45122
     45123     45124     45123     45125     45124     45125     45126     45127
     45126     45128     45127     45128     45129     45130     45129     45131
     45130     45131     45132     45133     45132     45134     45133     45134
     45135     45136     45135     45137     45136     45137     45138     45139
     45138     45140     45139     45140     45141     45142     45141     45143
     45142     45143     45144     45145     45144     45146     45145     45146
     45147     45148     45147     45149     45148     45149     45150     45151
     45150     45152     45151     45152     45153     45154     45153     45155
     45154     45155     45156     45157     45156     45158     45157     45158
     45159     45160     45159     45161     45160     45161     45162     45163
     45162     45164     45163     45164     45165     45166     45165     45167
     45166     45167     45168     45169     45168     45170     45169     45170
     45171     45172     45171     45173     45172     45173     45174     45175
     45174     45176     45175     45176     45177     45178     45177     45179
     45178     45179     45180     45181     45180     45182     45181     45182
     45183     45184     45183     45185     45184     45185     45186     45187
     45186     45188     45187     45188     45189     45190     45189     45191
     45190     45191     45192     45193     45192     45194     45193     45194
     45195     45196     45195     45197     45196     45197     45198     45199
     45198     45200     45199     45200     45201     45202     45201     45203
     45202     45203     45204     45205     45204     45206     45205     45206
     45207     45208     45207     45209     45208     45209     45210     45211
     45210     45212     45211     45212     45213     45214     45213     45215
     45214     45215     45216     45217     45216     45218     45217     45218
     45219     45220     45219     45221     45220     45221     45222     45223
     45222     45224     45223     45224     45225     45226     45225     45227
     45226     45227     45228     45229     45228     45230     45229     45230
     45231     45232     45231     45233     45232     45233     45234     45235
     45234     45236     45235     45236     45237     45238     45237     45239
     45238     45239     45240     45241     45240     45242     45241     45242
     45243     45244     45243     45245     45244     45245     45246     45247
     45246     45248     45247     45248     45249     45250     45249     45251
     45250     45251     45252     45253     45252     45254     45253     45254
     45255     45256     45255     45257     45256     45257     45258     45259
     45258     45260     45259     45260     45261     45262     45261     45263
     45262     45263     45264     45265     45264     45266     45265     45266
     45267     45268     45267     45269     45268     45269     45270     45271
     45270     45272     45271     45272     45273     45274     45273     45275
     45274     45275     45276     45277     45276     45278     45277     45278
     45279     45280     45279     45281     45280     45281     45282     45283
     45282     45284     45283     45284     45285     45286     45285     45287
     45286     45287     45288     45289     45288     45290     45289     45290
     45291     45292     45291     45293     45292     45293     45294     45295
     45294     45296     45295     45296     45297     45298     45297     45299
     45298     45299     45300     45301     45300     45302     45301     45302
     45303     45304     45303     45305     45304     45305     45306     45307
     45306     45308     45307     45308     45309     45310     45309     45311
     45310     45311     45312     45313     45312     45314     45313     45314
     45315     45316     45315     45317     45316     45317     45318     45319
     45318     45320     45319     45320     45321     45322     45321     45323
     45322     45323     45324     45325     45324     45326     45325     45326
     45327     45328     45327     45329     45328     45329     45330     45331
     45330     45332     45331     45332     45333     45334     45333     45335
     45334     45335     45336     45337     45336     45338     45337     45338
     45339     45340     45339     45341     45340     45341     45342     45343
     45342     45344     45343     45344     45345     45346     45345     45347
     45346     45347     45348     45349     45348     45350     45349     45350
     45351     45352     45351     45353     45352     45353     45354     45355
     45354     45356     45355     45356     45357     45358     45357     45359
     45358     45359     45360     45361     45360     45362     45361     45362
     45363     45364     45363     45365     45364     45365     45366     45367
     45366     45368     45367     45368     45369     45370     45369     45371
     45370     45371     45372     45373     45372     45374     45373     45374
     45375     45376     45375     45377     45376     45377     45378     45379
     45378     45380     45379     45380     45381     45382     45381     45383
     45382     45383     45384     45385     45384     45386     45385     45386
     45387     45388     45387     45389     45388     45389     45390     45391
     45390     45392     45391     45392     45393     45394     45393     45395
     45394     45395     45396     45397     45396     45398     45397     45398
     45399     45400     45399     45401     45400     45401     45402     45403
     45402     45404     45403     45404     45405     45406     45405     45407
     45406     45407     45408     45409     45408     45410     45409     45410
     45411     45412     45411     45413     45412     45413     45414     45415
     45414     45416     45415     45416     45417     45418     45417     45419
     45418     45419     45420     45421     45420     45422     45421     45422
     45423     45424     45423     45425     45424     45425     45426     45427
     45426     45428     45427     45428     45429     45430     45429     45431
     45430     45431     45432     45433     45432     45434     45433     45434
     45435     45436     45435     45437     45436     45437     45438     45439
     45438     45440     45439     45440     45441     45442     45441     45443
     45442     45443     45444     45445     45444     45446     45445     45446
     45447     45448     45447     45449     45448     45449     45450     45451
     45450     45452     45451     45452     45453     45454     45453     45455
     45454     45455     45456     45457     45456     45458     45457     45458
     45459     45460     45459     45461     45460     45461     45462     45463
     45462     45464     45463     45464     45465     45466     45465     45467
     45466     45467     45468     45469     45468     45470     45469     45470
     45471     45472     45471     45473     45472     45473     45474     45475
     45474     45476     45475     45476     45477     45478     45477     45479
     45478     45479     45480     45481     45480     45482     45481     45482
     45483     45484     45483     45485     45484     45485     45486     45487
     45486     45488     45487     45488     45489     45490     45489     45491
     45490     45491     45492     45493     45492     45494     45493     45494
     45495     45496     45495     45497     45496     45497     45498     45499
     45498     45500     45499     45500     45501     45502     45501     45503
     45502     45503     45504     45505     45504     45506     45505     45506
     45507     45508     45507     45509     45508     45509     45510     45511
     45510     45512     45511     45512     45513     45514     45513     45515
     45514     45515     45516     45517     45516     45518     45517     45518
     45519     45520     45519     45521     45520     45521     45522     45523
     45522     45524     45523     45524     45525     45526     45525     45527
     45526     45527     45528     45529     45528     45530     45529     45530
     45531     45532     45531     45533     45532     45533     45534     45535
     45534     45536     45535     45536     45537     45538     45537     45539
     45538     45539     45540     45541     45540     45542     45541     45542
     45543     45544     45543     45545     45544     45545     45546     45547
     45546     45548     45547     45548     45549     45550     45549     45551
     45550     45551     45552     45553     45552     45554     45553     45554
     45555     45556     45555     45557     45556     45557     45558     45559
     45558     45560     45559     45560     45561     45562     45561     45563
     45562     45563     45564     45565     45564     45566     45565     45566
     45567     45568     45567     45569     45568     45569     45570     45571
     45570     45572     45571     45572     45573     45574     45573     45575
     45574     45575     45576     45577     45576     45578     45577     45578
     45579     45580     45579     45581     45580     45581     45582     45583
     45582     45584     45583     45584     45585     45586     45585     45587
     45586     45587     45588     45589     45588     45590     45589     45590
     45591     45592     45591     45593     45592     45593     45594     45595
     45594     45596     45595     45596     45597     45598     45597     45599
     45598     45599     45600     45601     45600     45602     45601     45602
     45603     45604     45603     45605     45604     45605     45606     45607
     45606     45608     45607     45608     45609     45610     45609     45611
     45610     45611     45612     45613     45612     45614     45613     45614
     45615     45616     45615     45617     45616     45617     45618     45619
     45618     45620     45619     45620     45621     45622     45621     45623
     45622     45623     45624     45625     45624     45626     45625     45626
     45627     45628     45627     45629     45628     45629     45630     45631
     45630     45632     45631     45632     45633     45634     45633     45635
     45634     45635     45636     45637     45636     45638     45637     45638
     45639     45640     45639     45641     45640     45641     45642     45643
     45642     45644     45643     45644     45645     45646     45645     45647
     45646     45647     45648     45649     45648     45650     45649     45650
     45651     45652     45651     45653     45652     45653     45654     45655
     45654     45656     45655     45656     45657     45658     45657     45659
     45658     45659     45660     45661     45660     45662     45661     45662
     45663     45664     45663     45665     45664     45665     45666     45667
     45666     45668     45667     45668     45669     45670     45669     45671
     45670     45671     45672     45673     45672     45674     45673     45674
     45675     45676     45675     45677     45676     45677     45678     45679
     45678     45680     45679     45680     45681     45682     45681     45683
     45682     45683     45684     45685     45684     45686     45685     45686
     45687     45688     45687     45689     45688     45689     45690     45691
     45690     45692     45691     45692     45693     45694     45693     45695
     45694     45695     45696     45697     45696     45698     45697     45698
     45699     45700     45699     45701     45700     45701     45702     45703
     45702     45704     45703     45704     45705     45706     45705     45707
     45706     45707     45708     45709     45708     45710     45709     45710
     45711     45712     45711     45713     45712     45713     45714     45715
     45714     45716     45715     45716     45717     45718     45717     45719
     45718     45719     45720     45721     45720     45722     45721     45722
     45723     45724     45723     45725     45724     45725     45726     45727
     45726     45728     45727     45728     45729     45730     45729     45731
     45730     45731     45732     45733     45732     45734     45733     45734
     45735     45736     45735     45737     45736     45737     45738     45739
     45738     45740     45739     45740     45741     45742     45741     45743
     45742     45743     45744     45745     45744     45746     45745     45746
     45747     45748     45747     45749     45748     45749     45750     45751
     45750     45752     45751     45752     45753     45754     45753     45755
     45754     45755     45756     45757     45756     45758     45757     45758
     45759     45760     45759     45761     45760     45761     45762     45763
     45762     45764     45763     45764     45765     45766     45765     45767
     45766     45767     45768     45769     45768     45770     45769     45770
     45771     45772     45771     45773     45772     45773     45774     45775
     45774     45776     45775     45776     45777     45778     45777     45779
     45778     45779     45780     45781     45780     45782     45781     45782
     45783     45784     45783     45785     45784     45785     45786     45787
     45786     45788     45787     45788     45789     45790     45789     45791
     45790     45791     45792     45793     45792     45794     45793     45794
     45795     45796     45795     45797     45796     45797     45798     45799
     45798     45800     45799     45800     45801     45802     45801     45803
     45802     45803     45804     45805     45804     45806     45805     45806
     45807     45808     45807     45809     45808     45809     45810     45811
     45810     45812     45811     45812     45813     45814     45813     45815
     45814     45815     45816     45817     45816     45818     45817     45818
     45819     45820     45819     45821     45820     45821     45822     45823
     45822     45824     45823     45824     45825     45826     45825     45827
     45826     45827     45828     45829     45828     45830     45829     45830
     45831     45832     45831     45833     45832     45833     45834     45835
     45834     45836     45835     45836     45837     45838     45837     45839
     45838     45839     45840     45841     45840     45842     45841     45842
     45843     45844     45843     45845     45844     45845     45846     45847
     45846     45848     45847     45848     45849     45850     45849     45851
     45850     45851     45852     45853     45852     45854     45853     45854
     45855     45856     45855     45857     45856     45857     45858     45859
     45858     45860     45859     45860     45861     45862     45861     45863
     45862     45863     45864     45865     45864     45866     45865     45866
     45867     45868     45867     45869     45868     45869     45870     45871
     45870     45872     45871     45872     45873     45874     45873     45875
     45874     45875     45876     45877     45876     45878     45877     45878
     45879     45880     45879     45881     45880     45881     45882     45883
     45882     45884     45883     45884     45885     45886     45885     45887
     45886     45887     45888     45889     45888     45890     45889     45890
     45891     45892     45891     45893     45892     45893     45894     45895
     45894     45896     45895     45896     45897     45898     45897     45899
     45898     45899     45900     45901     45900     45902     45901     45902
     45903     45904     45903     45905     45904     45905     45906     45907
     45906     45908     45907     45908     45909     45910     45909     45911
     45910     45911     45912     45913     45912     45914     45913     45914
     45915     45916     45915     45917     45916     45917     45918     45919
     45918     45920     45919     45920     45921     45922     45921     45923
     45922     45923     45924     45925     45924     45926     45925     45926
     45927     45928     45927     45929     45928     45929     45930     45931
     45930     45932     45931     45932     45933     45934     45933     45935
     45934     45935     45936     45937     45936     45938     45937     45938
     45939     45940     45939     45941     45940     45941     45942     45943
     45942     45944     45943     45944     45945     45946     45945     45947
     45946     45947     45948     45949     45948     45950     45949     45950
     45951     45952     45951     45953     45952     45953     45954     45955
     45954     45956     45955     45956     45957     45958     45957     45959
     45958     45959     45960     45961     45960     45962     45961     45962
     45963     45964     45963     45965     45964     45965     45966     45967
     45966     45968     45967     45968     45969     45970     45969     45971
     45970     45971     45972     45973     45972     45974     45973     45974
     45975     45976     45975     45977     45976     45977     45978     45979
     45978     45980     45979     45980     45981     45982     45981     45983
     45982     45983     45984     45985     45984     45986     45985     45986
     45987     45988     45987     45989     45988     45989     45990     45991
     45990     45992     45991     45992     45993     45994     45993     45995
     45994     45995     45996     45997     45996     45998     45997     45998
     45999     46000     45999     46001     46000     46001     46002     46003
     46002     46004     46003     46004     46005     46006     46005     46007
     46006     46007     46008     46009     46008     46010     46009     46010
     46011     46012     46011     46013     46012     46013     46014     46015
     46014     46016     46015     46016     46017     46018     46017     46019
     46018     46019     46020     46021     46020     46022     46021     46022
     46023     46024     46023     46025     46024     46025     46026     46027
     46026     46028     46027     46028     46029     46030     46029     46031
     46030     46031     46032     46033     46032     46034     46033     46034
     46035     46036     46035     46037     46036     46037     46038     46039
     46038     46040     46039     46040     46041     46042     46041     46043
     46042     46043     46044     46045     46044     46046     46045     46046
     46047     46048     46047     46049     46048     46049     46050     46051
     46050     46052     46051     46052     46053     46054     46053     46055
     46054     46055     46056     46057     46056     46058     46057     46058
     46059     46060     46059     46061     46060     46061     46062     46063
     46062     46064     46063     46064     46065     46066     46065     46067
     46066     46067     46068     46069     46068     46070     46069     46070
     46071     46072     46071     46073     46072     46073     46074     46075
     46074     46076     46075     46076     46077     46078     46077     46079
     46078     46079     46080     46081     46080     46082     46081     46082
     46083     46084     46083     46085     46084     46085     46086     46087
     46086     46088     46087     46088     46089     46090     46089     46091
     46090     46091     46092     46093     46092     46094     46093     46094
     46095     46096     46095     46097     46096     46097     46098     46099
     46098     46100     46099     46100     46101     46102     46101     46103
     46102     46103     46104     46105     46104     46106     46105     46106
     46107     46108     46107     46109     46108     46109     46110     46111
     46110     46112     46111     46112     46113     46114     46113     46115
     46114     46115     46116     46117     46116     46118     46117     46118
     46119     46120     46119     46121     46120     46121     46122     46123
     46122     46124     46123     46124     46125     46126     46125     46127
     46126     46127     46128     46129     46128     46130     46129     46130
     46131     46132     46131     46133     46132     46133     46134     46135
     46134     46136     46135     46136     46137     46138     46137     46139
     46138     46139     46140     46141     46140     46142     46141     46142
     46143     46144     46143     46145     46144     46145     46146     46147
     46146     46148     46147     46148     46149     46150     46149     46151
     46150     46151     46152     46153     46152     46154     46153     46154
     46155     46156     46155     46157     46156     46157     46158     46159
     46158     46160     46159     46160     46161     46162     46161     46163
     46162     46163     46164     46165     46164     46166     46165     46166
     46167     46168     46167     46169     46168     46169     46170     46171
     46170     46172     46171     46172     46173     46174     46173     46175
     46174     46175     46176     46177     46176     46178     46177     46178
     46179     46180     46179     46181     46180     46181     46182     46183
     46182     46184     46183     46184     46185     46186     46185     46187
     46186     46187     46188     46189     46188     46190     46189     46190
     46191     46192     46191     46193     46192     46193     46194     46195
     46194     46196     46195     46196     46197     46198     46197     46199
     46198     46199     46200     46201     46200     46202     46201     46202
     46203     46204     46203     46205     46204     46205     46206     46207
     46206     46208     46207     46208     46209     46210     46209     46211
     46210     46211     46212     46213     46212     46214     46213     46214
     46215     46216     46215     46217     46216     46217     46218     46219
     46218     46220     46219     46220     46221     46222     46221     46223
     46222     46223     46224     46225     46224     46226     46225     46226
     46227     46228     46227     46229     46228     46229     46230     46231
     46230     46232     46231     46232     46233     46234     46233     46235
     46234     46235     46236     46237     46236     46238     46237     46238
     46239     46240     46239     46241     46240     46241     46242     46243
     46242     46244     46243     46244     46245     46246     46245     46247
     46246     46247     46248     46249     46248     46250     46249     46250
     46251     46252     46251     46253     46252     46253     46254     46255
     46254     46256     46255     46256     46257     46258     46257     46259
     46258     46259     46260     46261     46260     46262     46261     46262
     46263     46264     46263     46265     46264     46265     46266     46267
     46266     46268     46267     46268     46269     46270     46269     46271
     46270     46271     46272     46273     46272     46274     46273     46274
     46275     46276     46275     46277     46276     46277     46278     46279
     46278     46280     46279     46280     46281     46282     46281     46283
     46282     46283     46284     46285     46284     46286     46285     46286
     46287     46288     46287     46289     46288     46289     46290     46291
     46290     46292     46291     46292     46293     46294     46293     46295
     46294     46295     46296     46297     46296     46298     46297     46298
     46299     46300     46299     46301     46300     46301     46302     46303
     46302     46304     46303     46304     46305     46306     46305     46307
     46306     46307     46308     46309     46308     46310     46309     46310
     46311     46312     46311     46313     46312     46313     46314     46315
     46314     46316     46315     46316     46317     46318     46317     46319
     46318     46319     46320     46321     46320     46322     46321     46322
     46323     46324     46323     46325     46324     46325     46326     46327
     46326     46328     46327     46328     46329     46330     46329     46331
     46330     46331     46332     46333     46332     46334     46333     46334
     46335     46336     46335     46337     46336     46337     46338     46339
     46338     46340     46339     46340     46341     46342     46341     46343
     46342     46343     46344     46345     46344     46346     46345     46346
     46347     46348     46347     46349     46348     46349     46350     46351
     46350     46352     46351     46352     46353     46354     46353     46355
     46354     46355     46356     46357     46356     46358     46357     46358
     46359     46360     46359     46361     46360     46361     46362     46363
     46362     46364     46363     46364     46365     46366     46365     46367
     46366     46367     46368     46369     46368     46370     46369     46370
     46371     46372     46371     46373     46372     46373     46374     46375
     46374     46376     46375     46376     46377     46378     46377     46379
     46378     46379     46380     46381     46380     46382     46381     46382
     46383     46384     46383     46385     46384     46385     46386     46387
     46386     46388     46387     46388     46389     46390     46389     46391
     46390     46391     46392     46393     46392     46394     46393     46394
     46395     46396     46395     46397     46396     46397     46398     46399
     46398     46400     46399     46400     46401     46402     46401     46403
     46402     46403     46404     46405     46404     46406     46405     46406
     46407     46408     46407     46409     46408     46409     46410     46411
     46410     46412     46411     46412     46413     46414     46413     46415
     46414     46415     46416     46417     46416     46418     46417     46418
     46419     46420     46419     46421     46420     46421     46422     46423
     46422     46424     46423     46424     46425     46426     46425     46427
     46426     46427     46428     46429     46428     46430     46429     46430
     46431     46432     46431     46433     46432     46433     46434     46435
     46434     46436     46435     46436     46437     46438     46437     46439
     46438     46439     46440     46441     46440     46442     46441     46442
     46443     46444     46443     46445     46444     46445     46446     46447
     46446     46448     46447     46448     46449     46450     46449     46451
     46450     46451     46452     46453     46452     46454     46453     46454
     46455     46456     46455     46457     46456     46457     46458     46459
     46458     46460     46459     46460     46461     46462     46461     46463
     46462     46463     46464     46465     46464     46466     46465     46466
     46467     46468     46467     46469     46468     46469     46470     46471
     46470     46472     46471     46472     46473     46474     46473     46475
     46474     46475     46476     46477     46476     46478     46477     46478
     46479     46480     46479     46481     46480     46481     46482     46483
     46482     46484     46483     46484     46485     46486     46485     46487
     46486     46487     46488     46489     46488     46490     46489     46490
     46491     46492     46491     46493     46492     46493     46494     46495
     46494     46496     46495     46496     46497     46498     46497     46499
     46498     46499     46500     46501     46500     46502     46501     46502
     46503     46504     46503     46505     46504     46505     46506     46507
     46506     46508     46507     46508     46509     46510     46509     46511
     46510     46511     46512     46513     46512     46514     46513     46514
     46515     46516     46515     46517     46516     46517     46518     46519
     46518     46520     46519     46520     46521     46522     46521     46523
     46522     46523     46524     46525     46524     46526     46525     46526
     46527     46528     46527     46529     46528     46529     46530     46531
     46530     46532     46531     46532     46533     46534     46533     46535
     46534     46535     46536     46537     46536     46538     46537     46538
     46539     46540     46539     46541     46540     46541     46542     46543
     46542     46544     46543     46544     46545     46546     46545     46547
     46546     46547     46548     46549     46548     46550     46549     46550
     46551     46552     46551     46553     46552     46553     46554     46555
     46554     46556     46555     46556     46557     46558     46557     46559
     46558     46559     46560     46561     46560     46562     46561     46562
     46563     46564     46563     46565     46564     46565     46566     46567
     46566     46568     46567     46568     46569     46570     46569     46571
     46570     46571     46572     46573     46572     46574     46573     46574
     46575     46576     46575     46577     46576     46577     46578     46579
     46578     46580     46579     46580     46581     46582     46581     46583
     46582     46583     46584     46585     46584     46586     46585     46586
     46587     46588     46587     46589     46588     46589     46590     46591
     46590     46592     46591     46592     46593     46594     46593     46595
     46594     46595     46596     46597     46596     46598     46597     46598
     46599     46600     46599     46601     46600     46601     46602     46603
     46602     46604     46603     46604     46605     46606     46605     46607
     46606     46607     46608     46609     46608     46610     46609     46610
     46611     46612     46611     46613     46612     46613     46614     46615
     46614     46616     46615     46616     46617     46618     46617     46619
     46618     46619     46620     46621     46620     46622     46621     46622
     46623     46624     46623     46625     46624     46625     46626     46627
     46626     46628     46627     46628     46629     46630     46629     46631
     46630     46631     46632     46633     46632     46634     46633     46634
     46635     46636     46635     46637     46636     46637     46638     46639
     46638     46640     46639     46640     46641     46642     46641     46643
     46642     46643     46644     46645     46644     46646     46645     46646
     46647     46648     46647     46649     46648     46649     46650     46651
     46650     46652     46651     46652     46653     46654     46653     46655
     46654     46655     46656     46657     46656     46658     46657     46658
     46659     46660     46659     46661     46660     46661     46662     46663
     46662     46664     46663     46664     46665     46666     46665     46667
     46666     46667     46668     46669     46668     46670     46669     46670
     46671     46672     46671     46673     46672     46673     46674     46675
     46674     46676     46675     46676     46677     46678     46677     46679
     46678     46679     46680     46681     46680     46682     46681     46682
     46683     46684     46683     46685     46684     46685     46686     46687
     46686     46688     46687     46688     46689     46690     46689     46691
     46690     46691     46692     46693     46692     46694     46693     46694
     46695     46696     46695     46697     46696     46697     46698     46699
     46698     46700     46699     46700     46701     46702     46701     46703
     46702     46703     46704     46705     46704     46706     46705     46706
     46707     46708     46707     46709     46708     46709     46710     46711
     46710     46712     46711     46712     46713     46714     46713     46715
     46714     46715     46716     46717     46716     46718     46717     46718
     46719     46720     46719     46721     46720     46721     46722     46723
     46722     46724     46723     46724     46725     46726     46725     46727
     46726     46727     46728     46729     46728     46730     46729     46730
     46731     46732     46731     46733     46732     46733     46734     46735
     46734     46736     46735     46736     46737     46738     46737     46739
     46738     46739     46740     46741     46740     46742     46741     46742
     46743     46744     46743     46745     46744     46745     46746     46747
     46746     46748     46747     46748     46749     46750     46749     46751
     46750     46751     46752     46753     46752     46754     46753     46754
     46755     46756     46755     46757     46756     46757     46758     46759
     46758     46760     46759     46760     46761     46762     46761     46763
     46762     46763     46764     46765     46764     46766     46765     46766
     46767     46768     46767     46769     46768     46769     46770     46771
     46770     46772     46771     46772     46773     46774     46773     46775
     46774     46775     46776     46777     46776     46778     46777     46778
     46779     46780     46779     46781     46780     46781     46782     46783
     46782     46784     46783     46784     46785     46786     46785     46787
     46786     46787     46788     46789     46788     46790     46789     46790
     46791     46792     46791     46793     46792     46793     46794     46795
     46794     46796     46795     46796     46797     46798     46797     46799
     46798     46799     46800     46801     46800     46802     46801     46802
     46803     46804     46803     46805     46804     46805     46806     46807
     46806     46808     46807     46808     46809     46810     46809     46811
     46810     46811     46812     46813     46812     46814     46813     46814
     46815     46816     46815     46817     46816     46817     46818     46819
     46818     46820     46819     46820     46821     46822     46821     46823
     46822     46823     46824     46825     46824     46826     46825     46826
     46827     46828     46827     46829     46828     46829     46830     46831
     46830     46832     46831     46832     46833     46834     46833     46835
     46834     46835     46836     46837     46836     46838     46837     46838
     46839     46840     46839     46841     46840     46841     46842     46843
     46842     46844     46843     46844     46845     46846     46845     46847
     46846     46847     46848     46849     46848     46850     46849     46850
     46851     46852     46851     46853     46852     46853     46854     46855
     46854     46856     46855     46856     46857     46858     46857     46859
     46858     46859     46860     46861     46860     46862     46861     46862
     46863     46864     46863     46865     46864     46865     46866     46867
     46866     46868     46867     46868     46869     46870     46869     46871
     46870     46871     46872     46873     46872     46874     46873     46874
     46875     46876     46875     46877     46876     46877     46878     46879
     46878     46880     46879     46880     46881     46882     46881     46883
     46882     46883     46884     46885     46884     46886     46885     46886
     46887     46888     46887     46889     46888     46889     46890     46891
     46890     46892     46891     46892     46893     46894     46893     46895
     46894     46895     46896     46897     46896     46898     46897     46898
     46899     46900     46899     46901     46900     46901     46902     46903
     46902     46904     46903     46904     46905     46906     46905     46907
     46906     46907     46908     46909     46908     46910     46909     46910
     46911     46912     46911     46913     46912     46913     46914     46915
     46914     46916     46915     46916     46917     46918     46917     46919
     46918     46919     46920     46921     46920     46922     46921     46922
     46923     46924     46923     46925     46924     46925     46926     46927
     46926     46928     46927     46928     46929     46930     46929     46931
     46930     46931     46932     46933     46932     46934     46933     46934
     46935     46936     46935     46937     46936     46937     46938     46939
     46938     46940     46939     46940     46941     46942     46941     46943
     46942     46943     46944     46945     46944     46946     46945     46946
     46947     46948     46947     46949     46948     46949     46950     46951
     46950     46952     46951     46952     46953     46954     46953     46955
     46954     46955     46956     46957     46956     46958     46957     46958
     46959     46960     46959     46961     46960     46961     46962     46963
     46962     46964     46963     46964     46965     46966     46965     46967
     46966     46967     46968     46969     46968     46970     46969     46970
     46971     46972     46971     46973     46972     46973     46974     46975
     46974     46976     46975     46976     46977     46978     46977     46979
     46978     46979     46980     46981     46980     46982     46981     46982
     46983     46984     46983     46985     46984     46985     46986     46987
     46986     46988     46987     46988     46989     46990     46989     46991
     46990     46991     46992     46993     46992     46994     46993     46994
     46995     46996     46995     46997     46996     46997     46998     46999
     46998     47000     46999     47000     47001     47002     47001     47003
     47002     47003     47004     47005     47004     47006     47005     47006
     47007     47008     47007     47009     47008     47009     47010     47011
     47010     47012     47011     47012     47013     47014     47013     47015
     47014     47015     47016     47017     47016     47018     47017     47018
     47019     47020     47019     47021     47020     47021     47022     47023
     47022     47024     47023     47024     47025     47026     47025     47027
     47026     47027     47028     47029     47028     47030     47029     47030
     47031     47032     47031     47033     47032     47033     47034     47035
     47034     47036     47035     47036     47037     47038     47037     47039
     47038     47039     47040     47041     47040     47042     47041     47042
     47043     47044     47043     47045     47044     47045     47046     47047
     47046     47048     47047     47048     47049     47050     47049     47051
     47050     47051     47052     47053     47052     47054     47053     47054
     47055     47056     47055     47057     47056     47057     47058     47059
     47058     47060     47059     47060     47061     47062     47061     47063
     47062     47063     47064     47065     47064     47066     47065     47066
     47067     47068     47067     47069     47068     47069     47070     47071
     47070     47072     47071     47072     47073     47074     47073     47075
     47074     47075     47076     47077     47076     47078     47077     47078
     47079     47080     47079     47081     47080     47081     47082     47083
     47082     47084     47083     47084     47085     47086     47085     47087
     47086     47087     47088     47089     47088     47090     47089     47090
     47091     47092     47091     47093     47092     47093     47094     47095
     47094     47096     47095     47096     47097     47098     47097     47099
     47098     47099     47100     47101     47100     47102     47101     47102
     47103     47104     47103     47105     47104     47105     47106     47107
     47106     47108     47107     47108     47109     47110     47109     47111
     47110     47111     47112     47113     47112     47114     47113     47114
     47115     47116     47115     47117     47116     47117     47118     47119
     47118     47120     47119     47120     47121     47122     47121     47123
     47122     47123     47124     47125     47124     47126     47125     47126
     47127     47128     47127     47129     47128     47129     47130     47131
     47130     47132     47131     47132     47133     47134     47133     47135
     47134     47135     47136     47137     47136     47138     47137     47138
     47139     47140     47139     47141     47140     47141     47142     47143
     47142     47144     47143     47144     47145     47146     47145     47147
     47146     47147     47148     47149     47148     47150     47149     47150
     47151     47152     47151     47153     47152     47153     47154     47155
     47154     47156     47155     47156     47157     47158     47157     47159
     47158     47159     47160     47161     47160     47162     47161     47162
     47163     47164     47163     47165     47164     47165     47166     47167
     47166     47168     47167     47168     47169     47170     47169     47171
     47170     47171     47172     47173     47172     47174     47173     47174
     47175     47176     47175     47177     47176     47177     47178     47179
     47178     47180     47179     47180     47181     47182     47181     47183
     47182     47183     47184     47185     47184     47186     47185     47186
     47187     47188     47187     47189     47188     47189     47190     47191
     47190     47192     47191     47192     47193     47194     47193     47195
     47194     47195     47196     47197     47196     47198     47197     47198
     47199     47200     47199     47201     47200     47201     47202     47203
     47202     47204     47203     47204     47205     47206     47205     47207
     47206     47207     47208     47209     47208     47210     47209     47210
     47211     47212     47211     47213     47212     47213     47214     47215
     47214     47216     47215     47216     47217     47218     47217     47219
     47218     47219     47220     47221     47220     47222     47221     47222
     47223     47224     47223     47225     47224     47225     47226     47227
     47226     47228     47227     47228     47229     47230     47229     47231
     47230     47231     47232     47233     47232     47234     47233     47234
     47235     47236     47235     47237     47236     47237     47238     47239
     47238     47240     47239     47240     47241     47242     47241     47243
     47242     47243     47244     47245     47244     47246     47245     47246
     47247     47248     47247     47249     47248     47249     47250     47251
     47250     47252     47251     47252     47253     47254     47253     47255
     47254     47255     47256     47257     47256     47258     47257     47258
     47259     47260     47259     47261     47260     47261     47262     47263
     47262     47264     47263     47264     47265     47266     47265     47267
     47266     47267     47268     47269     47268     47270     47269     47270
     47271     47272     47271     47273     47272     47273     47274     47275
     47274     47276     47275     47276     47277     47278     47277     47279
     47278     47279     47280     47281     47280     47282     47281     47282
     47283     47284     47283     47285     47284     47285     47286     47287
     47286     47288     47287     47288     47289     47290     47289     47291
     47290     47291     47292     47293     47292     47294     47293     47294
     47295     47296     47295     47297     47296     47297     47298     47299
     47298     47300     47299     47300     47301     47302     47301     47303
     47302     47303     47304     47305     47304     47306     47305     47306
     47307     47308     47307     47309     47308     47309     47310     47311
     47310     47312     47311     47312     47313     47314     47313     47315
     47314     47315     47316     47317     47316     47318     47317     47318
     47319     47320     47319     47321     47320     47321     47322     47323
     47322     47324     47323     47324     47325     47326     47325     47327
     47326     47327     47328     47329     47328     47330     47329     47330
     47331     47332     47331     47333     47332     47333     47334     47335
     47334     47336     47335     47336     47337     47338     47337     47339
     47338     47339     47340     47341     47340     47342     47341     47342
     47343     47344     47343     47345     47344     47345     47346     47347
     47346     47348     47347     47348     47349     47350     47349     47351
     47350     47351     47352     47353     47352     47354     47353     47354
     47355     47356     47355     47357     47356     47357     47358     47359
     47358     47360     47359     47360     47361     47362     47361     47363
     47362     47363     47364     47365     47364     47366     47365     47366
     47367     47368     47367     47369     47368     47369     47370     47371
     47370     47372     47371     47372     47373     47374     47373     47375
     47374     47375     47376     47377     47376     47378     47377     47378
     47379     47380     47379     47381     47380     47381     47382     47383
     47382     47384     47383     47384     47385     47386     47385     47387
     47386     47387     47388     47389     47388     47390     47389     47390
     47391     47392     47391     47393     47392     47393     47394     47395
     47394     47396     47395     47396     47397     47398     47397     47399
     47398     47399     47400     47401     47400     47402     47401     47402
     47403     47404     47403     47405     47404     47405     47406     47407
     47406     47408     47407     47408     47409     47410     47409     47411
     47410     47411     47412     47413     47412     47414     47413     47414
     47415     47416     47415     47417     47416     47417     47418     47419
     47418     47420     47419     47420     47421     47422     47421     47423
     47422     47423     47424     47425     47424     47426     47425     47426
     47427     47428     47427     47429     47428     47429     47430     47431
     47430     47432     47431     47432     47433     47434     47433     47435
     47434     47435     47436     47437     47436     47438     47437     47438
     47439     47440     47439     47441     47440     47441     47442     47443
     47442     47444     47443     47444     47445     47446     47445     47447
     47446     47447     47448     47449     47448     47450     47449     47450
     47451     47452     47451     47453     47452     47453     47454     47455
     47454     47456     47455     47456     47457     47458     47457     47459
     47458     47459     47460     47461     47460     47462     47461     47462
     47463     47464     47463     47465     47464     47465     47466     47467
     47466     47468     47467     47468     47469     47470     47469     47471
     47470     47471     47472     47473     47472     47474     47473     47474
     47475     47476     47475     47477     47476     47477     47478     47479
     47478     47480     47479     47480     47481     47482     47481     47483
     47482     47483     47484     47485     47484     47486     47485     47486
     47487     47488     47487     47489     47488     47489     47490     47491
     47490     47492     47491     47492     47493     47494     47493     47495
     47494     47495     47496     47497     47496     47498     47497     47498
     47499     47500     47499     47501     47500     47501     47502     47503
     47502     47504     47503     47504     47505     47506     47505     47507
     47506     47507     47508     47509     47508     47510     47509     47510
     47511     47512     47511     47513     47512     47513     47514     47515
     47514     47516     47515     47516     47517     47518     47517     47519
     47518     47519     47520     47521     47520     47522     47521     47522
     47523     47524     47523     47525     47524     47525     47526     47527
     47526     47528     47527     47528     47529     47530     47529     47531
     47530     47531     47532     47533     47532     47534     47533     47534
     47535     47536     47535     47537     47536     47537     47538     47539
     47538     47540     47539     47540     47541     47542     47541     47543
     47542     47543     47544     47545     47544     47546     47545     47546
     47547     47548     47547     47549     47548     47549     47550     47551
     47550     47552     47551     47552     47553     47554     47553     47555
     47554     47555     47556     47557     47556     47558     47557     47558
     47559     47560     47559     47561     47560     47561     47562     47563
     47562     47564     47563     47564     47565     47566     47565     47567
     47566     47567     47568     47569     47568     47570     47569     47570
     47571     47572     47571     47573     47572     47573     47574     47575
     47574     47576     47575     47576     47577     47578     47577     47579
     47578     47579     47580     47581     47580     47582     47581     47582
     47583     47584     47583     47585     47584     47585     47586     47587
     47586     47588     47587     47588     47589     47590     47589     47591
     47590     47591     47592     47593     47592     47594     47593     47594
     47595     47596     47595     47597     47596     47597     47598     47599
     47598     47600     47599     47600     47601     47602     47601     47603
     47602     47603     47604     47605     47604     47606     47605     47606
     47607     47608     47607     47609     47608     47609     47610     47611
     47610     47612     47611     47612     47613     47614     47613     47615
     47614     47615     47616     47617     47616     47618     47617     47618
     47619     47620     47619     47621     47620     47621     47622     47623
     47622     47624     47623     47624     47625     47626     47625     47627
     47626     47627     47628     47629     47628     47630     47629     47630
     47631     47632     47631     47633     47632     47633     47634     47635
     47634     47636     47635     47636     47637     47638     47637     47639
     47638     47639     47640     47641     47640     47642     47641     47642
     47643     47644     47643     47645     47644     47645     47646     47647
     47646     47648     47647     47648     47649     47650     47649     47651
     47650     47651     47652     47653     47652     47654     47653     47654
     47655     47656     47655     47657     47656     47657     47658     47659
     47658     47660     47659     47660     47661     47662     47661     47663
     47662     47663     47664     47665     47664     47666     47665     47666
     47667     47668     47667     47669     47668     47669     47670     47671
     47670     47672     47671     47672     47673     47674     47673     47675
     47674     47675     47676     47677     47676     47678     47677     47678
     47679     47680     47679     47681     47680     47681     47682     47683
     47682     47684     47683     47684     47685     47686     47685     47687
     47686     47687     47688     47689     47688     47690     47689     47690
     47691     47692     47691     47693     47692     47693     47694     47695
     47694     47696     47695     47696     47697     47698     47697     47699
     47698     47699     47700     47701     47700     47702     47701     47702
     47703     47704     47703     47705     47704     47705     47706     47707
     47706     47708     47707     47708     47709     47710     47709     47711
     47710     47711     47712     47713     47712     47714     47713     47714
     47715     47716     47715     47717     47716     47717     47718     47719
     47718     47720     47719     47720     47721     47722     47721     47723
     47722     47723     47724     47725     47724     47726     47725     47726
     47727     47728     47727     47729     47728     47729     47730     47731
     47730     47732     47731     47732     47733     47734     47733     47735
     47734     47735     47736     47737     47736     47738     47737     47738
     47739     47740     47739     47741     47740     47741     47742     47743
     47742     47744     47743     47744     47745     47746     47745     47747
     47746     47747     47748     47749     47748     47750     47749     47750
     47751     47752     47751     47753     47752     47753     47754     47755
     47754     47756     47755     47756     47757     47758     47757     47759
     47758     47759     47760     47761     47760     47762     47761     47762
     47763     47764     47763     47765     47764     47765     47766     47767
     47766     47768     47767     47768     47769     47770     47769     47771
     47770     47771     47772     47773     47772     47774     47773     47774
     47775     47776     47775     47777     47776     47777     47778     47779
     47778     47780     47779     47780     47781     47782     47781     47783
     47782     47783     47784     47785     47784     47786     47785     47786
     47787     47788     47787     47789     47788     47789     47790     47791
     47790     47792     47791     47792     47793     47794     47793     47795
     47794     47795     47796     47797     47796     47798     47797     47798
     47799     47800     47799     47801     47800     47801     47802     47803
     47802     47804     47803     47804     47805     47806     47805     47807
     47806     47807     47808     47809     47808     47810     47809     47810
     47811     47812     47811     47813     47812     47813     47814     47815
     47814     47816     47815     47816     47817     47818     47817     47819
     47818     47819     47820     47821     47820     47822     47821     47822
     47823     47824     47823     47825     47824     47825     47826     47827
     47826     47828     47827     47828     47829     47830     47829     47831
     47830     47831     47832     47833     47832     47834     47833     47834
     47835     47836     47835     47837     47836     47837     47838     47839
     47838     47840     47839     47840     47841     47842     47841     47843
     47842     47843     47844     47845     47844     47846     47845     47846
     47847     47848     47847     47849     47848     47849     47850     47851
     47850     47852     47851     47852     47853     47854     47853     47855
     47854     47855     47856     47857     47856     47858     47857     47858
     47859     47860     47859     47861     47860     47861     47862     47863
     47862     47864     47863     47864     47865     47866     47865     47867
     47866     47867     47868     47869     47868     47870     47869     47870
     47871     47872     47871     47873     47872     47873     47874     47875
     47874     47876     47875     47876     47877     47878     47877     47879
     47878     47879     47880     47881     47880     47882     47881     47882
     47883     47884     47883     47885     47884     47885     47886     47887
     47886     47888     47887     47888     47889     47890     47889     47891
     47890     47891     47892     47893     47892     47894     47893     47894
     47895     47896     47895     47897     47896     47897     47898     47899
     47898     47900     47899     47900     47901     47902     47901     47903
     47902     47903     47904     47905     47904     47906     47905     47906
     47907     47908     47907     47909     47908     47909     47910     47911
     47910     47912     47911     47912     47913     47914     47913     47915
     47914     47915     47916     47917     47916     47918     47917     47918
     47919     47920     47919     47921     47920     47921     47922     47923
     47922     47924     47923     47924     47925     47926     47925     47927
     47926     47927     47928     47929     47928     47930     47929     47930
     47931     47932     47931     47933     47932     47933     47934     47935
     47934     47936     47935     47936     47937     47938     47937     47939
     47938     47939     47940     47941     47940     47942     47941     47942
     47943     47944     47943     47945     47944     47945     47946     47947
     47946     47948     47947     47948     47949     47950     47949     47951
     47950     47951     47952     47953     47952     47954     47953     47954
     47955     47956     47955     47957     47956     47957     47958     47959
     47958     47960     47959     47960     47961     47962     47961     47963
     47962     47963     47964     47965     47964     47966     47965     47966
     47967     47968     47967     47969     47968     47969     47970     47971
     47970     47972     47971     47972     47973     47974     47973     47975
     47974     47975     47976     47977     47976     47978     47977     47978
     47979     47980     47979     47981     47980     47981     47982     47983
     47982     47984     47983     47984     47985     47986     47985     47987
     47986     47987     47988     47989     47988     47990     47989     47990
     47991     47992     47991     47993     47992     47993     47994     47995
     47994     47996     47995     47996     47997     47998     47997     47999
     47998     47999     48000     48001     48000     48002     48001     48002
     48003     48004     48003     48005     48004     48005     48006     48007
     48006     48008     48007     48008     48009     48010     48009     48011
     48010     48011     48012     48013     48012     48014     48013     48014
     48015     48016     48015     48017     48016     48017     48018     48019
     48018     48020     48019     48020     48021     48022     48021     48023
     48022     48023     48024     48025     48024     48026     48025     48026
     48027     48028     48027     48029     48028     48029     48030     48031
     48030     48032     48031     48032     48033     48034     48033     48035
     48034     48035     48036     48037     48036     48038     48037     48038
     48039     48040     48039     48041     48040     48041     48042     48043
     48042     48044     48043     48044     48045     48046     48045     48047
     48046     48047     48048     48049     48048     48050     48049     48050
     48051     48052     48051     48053     48052     48053     48054     48055
     48054     48056     48055     48056     48057     48058     48057     48059
     48058     48059     48060     48061     48060     48062     48061     48062
     48063     48064     48063     48065     48064     48065     48066     48067
     48066     48068     48067     48068     48069     48070     48069     48071
     48070     48071     48072     48073     48072     48074     48073     48074
     48075     48076     48075     48077     48076     48077     48078     48079
     48078     48080     48079     48080     48081     48082     48081     48083
     48082     48083     48084     48085     48084     48086     48085     48086
     48087     48088     48087     48089     48088     48089     48090     48091
     48090     48092     48091     48092     48093     48094     48093     48095
     48094     48095     48096     48097     48096     48098     48097     48098
     48099     48100     48099     48101     48100     48101     48102     48103
     48102     48104     48103     48104     48105     48106     48105     48107
     48106     48107     48108     48109     48108     48110     48109     48110
     48111     48112     48111     48113     48112     48113     48114     48115
     48114     48116     48115     48116     48117     48118     48117     48119
     48118     48119     48120     48121     48120     48122     48121     48122
     48123     48124     48123     48125     48124     48125     48126     48127
     48126     48128     48127     48128     48129     48130     48129     48131
     48130     48131     48132     48133     48132     48134     48133     48134
     48135     48136     48135     48137     48136     48137     48138     48139
     48138     48140     48139     48140     48141     48142     48141     48143
     48142     48143     48144     48145     48144     48146     48145     48146
     48147     48148     48147     48149     48148     48149     48150     48151
     48150     48152     48151     48152     48153     48154     48153     48155
     48154     48155     48156     48157     48156     48158     48157     48158
     48159     48160     48159     48161     48160     48161     48162     48163
     48162     48164     48163     48164     48165     48166     48165     48167
     48166     48167     48168     48169     48168     48170     48169     48170
     48171     48172     48171     48173     48172     48173     48174     48175
     48174     48176     48175     48176     48177     48178     48177     48179
     48178     48179     48180     48181     48180     48182     48181     48182
     48183     48184     48183     48185     48184     48185     48186     48187
     48186     48188     48187     48188     48189     48190     48189     48191
     48190     48191     48192     48193     48192     48194     48193     48194
     48195     48196     48195     48197     48196     48197     48198     48199
     48198     48200     48199     48200     48201     48202     48201     48203
     48202     48203     48204     48205     48204     48206     48205     48206
     48207     48208     48207     48209     48208     48209     48210     48211
     48210     48212     48211     48212     48213     48214     48213     48215
     48214     48215     48216     48217     48216     48218     48217     48218
     48219     48220     48219     48221     48220     48221     48222     48223
     48222     48224     48223     48224     48225     48226     48225     48227
     48226     48227     48228     48229     48228     48230     48229     48230
     48231     48232     48231     48233     48232     48233     48234     48235
     48234     48236     48235     48236     48237     48238     48237     48239
     48238     48239     48240     48241     48240     48242     48241     48242
     48243     48244     48243     48245     48244     48245     48246     48247
     48246     48248     48247     48248     48249     48250     48249     48251
     48250     48251     48252     48253     48252     48254     48253     48254
     48255     48256     48255     48257     48256     48257     48258     48259
     48258     48260     48259     48260     48261     48262     48261     48263
     48262     48263     48264     48265     48264     48266     48265     48266
     48267     48268     48267     48269     48268     48269     48270     48271
     48270     48272     48271     48272     48273     48274     48273     48275
     48274     48275     48276     48277     48276     48278     48277     48278
     48279     48280     48279     48281     48280     48281     48282     48283
     48282     48284     48283     48284     48285     48286     48285     48287
     48286     48287     48288     48289     48288     48290     48289     48290
     48291     48292     48291     48293     48292     48293     48294     48295
     48294     48296     48295     48296     48297     48298     48297     48299
     48298     48299     48300     48301     48300     48302     48301     48302
     48303     48304     48303     48305     48304     48305     48306     48307
     48306     48308     48307     48308     48309     48310     48309     48311
     48310     48311     48312     48313     48312     48314     48313     48314
     48315     48316     48315     48317     48316     48317     48318     48319
     48318     48320     48319     48320     48321     48322     48321     48323
     48322     48323     48324     48325     48324     48326     48325     48326
     48327     48328     48327     48329     48328     48329     48330     48331
     48330     48332     48331     48332     48333     48334     48333     48335
     48334     48335     48336     48337     48336     48338     48337     48338
     48339     48340     48339     48341     48340     48341     48342     48343
     48342     48344     48343     48344     48345     48346     48345     48347
     48346     48347     48348     48349     48348     48350     48349     48350
     48351     48352     48351     48353     48352     48353     48354     48355
     48354     48356     48355     48356     48357     48358     48357     48359
     48358     48359     48360     48361     48360     48362     48361     48362
     48363     48364     48363     48365     48364     48365     48366     48367
     48366     48368     48367     48368     48369     48370     48369     48371
     48370     48371     48372     48373     48372     48374     48373     48374
     48375     48376     48375     48377     48376     48377     48378     48379
     48378     48380     48379     48380     48381     48382     48381     48383
     48382     48383     48384     48385     48384     48386     48385     48386
     48387     48388     48387     48389     48388     48389     48390     48391
     48390     48392     48391     48392     48393     48394     48393     48395
     48394     48395     48396     48397     48396     48398     48397     48398
     48399     48400     48399     48401     48400     48401     48402     48403
     48402     48404     48403     48404     48405     48406     48405     48407
     48406     48407     48408     48409     48408     48410     48409     48410
     48411     48412     48411     48413     48412     48413     48414     48415
     48414     48416     48415     48416     48417     48418     48417     48419
     48418     48419     48420     48421     48420     48422     48421     48422
     48423     48424     48423     48425     48424     48425     48426     48427
     48426     48428     48427     48428     48429     48430     48429     48431
     48430     48431     48432     48433     48432     48434     48433     48434
     48435     48436     48435     48437     48436     48437     48438     48439
     48438     48440     48439     48440     48441     48442     48441     48443
     48442     48443     48444     48445     48444     48446     48445     48446
     48447     48448     48447     48449     48448     48449     48450     48451
     48450     48452     48451     48452     48453     48454     48453     48455
     48454     48455     48456     48457     48456     48458     48457     48458
     48459     48460     48459     48461     48460     48461     48462     48463
     48462     48464     48463     48464     48465     48466     48465     48467
     48466     48467     48468     48469     48468     48470     48469     48470
     48471     48472     48471     48473     48472     48473     48474     48475
     48474     48476     48475     48476     48477     48478     48477     48479
     48478     48479     48480     48481     48480     48482     48481     48482
     48483     48484     48483     48485     48484     48485     48486     48487
     48486     48488     48487     48488     48489     48490     48489     48491
     48490     48491     48492     48493     48492     48494     48493     48494
     48495     48496     48495     48497     48496     48497     48498     48499
     48498     48500     48499     48500     48501     48502     48501     48503
     48502     48503     48504     48505     48504     48506     48505     48506
     48507     48508     48507     48509     48508     48509     48510     48511
     48510     48512     48511     48512     48513     48514     48513     48515
     48514     48515     48516     48517     48516     48518     48517     48518
     48519     48520     48519     48521     48520     48521     48522     48523
     48522     48524     48523     48524     48525     48526     48525     48527
     48526     48527     48528     48529     48528     48530     48529     48530
     48531     48532     48531     48533     48532     48533     48534     48535
     48534     48536     48535     48536     48537     48538     48537     48539
     48538     48539     48540     48541     48540     48542     48541     48542
     48543     48544     48543     48545     48544     48545     48546     48547
     48546     48548     48547     48548     48549     48550     48549     48551
     48550     48551     48552     48553     48552     48554     48553     48554
     48555     48556     48555     48557     48556     48557     48558     48559
     48558     48560     48559     48560     48561     48562     48561     48563
     48562     48563     48564     48565     48564     48566     48565     48566
     48567     48568     48567     48569     48568     48569     48570     48571
     48570     48572     48571     48572     48573     48574     48573     48575
     48574     48575     48576     48577     48576     48578     48577     48578
     48579     48580     48579     48581     48580     48581     48582     48583
     48582     48584     48583     48584     48585     48586     48585     48587
     48586     48587     48588     48589     48588     48590     48589     48590
     48591     48592     48591     48593     48592     48593     48594     48595
     48594     48596     48595     48596     48597     48598     48597     48599
     48598     48599     48600     48601     48600     48602     48601     48602
     48603     48604     48603     48605     48604     48605     48606     48607
     48606     48608     48607     48608     48609     48610     48609     48611
     48610     48611     48612     48613     48612     48614     48613     48614
     48615     48616     48615     48617     48616     48617     48618     48619
     48618     48620     48619     48620     48621     48622     48621     48623
     48622     48623     48624     48625     48624     48626     48625     48626
     48627     48628     48627     48629     48628     48629     48630     48631
     48630     48632     48631     48632     48633     48634     48633     48635
     48634     48635     48636     48637     48636     48638     48637     48638
     48639     48640     48639     48641     48640     48641     48642     48643
     48642     48644     48643     48644     48645     48646     48645     48647
     48646     48647     48648     48649     48648     48650     48649     48650
     48651     48652     48651     48653     48652     48653     48654     48655
     48654     48656     48655     48656     48657     48658     48657     48659
     48658     48659     48660     48661     48660     48662     48661     48662
     48663     48664     48663     48665     48664     48665     48666     48667
     48666     48668     48667     48668     48669     48670     48669     48671
     48670     48671     48672     48673     48672     48674     48673     48674
     48675     48676     48675     48677     48676     48677     48678     48679
     48678     48680     48679     48680     48681     48682     48681     48683
     48682     48683     48684     48685     48684     48686     48685     48686
     48687     48688     48687     48689     48688     48689     48690     48691
     48690     48692     48691     48692     48693     48694     48693     48695
     48694     48695     48696     48697     48696     48698     48697     48698
     48699     48700     48699     48701     48700     48701     48702     48703
     48702     48704     48703     48704     48705     48706     48705     48707
     48706     48707     48708     48709     48708     48710     48709     48710
     48711     48712     48711     48713     48712     48713     48714     48715
     48714     48716     48715     48716     48717     48718     48717     48719
     48718     48719     48720     48721     48720     48722     48721     48722
     48723     48724     48723     48725     48724     48725     48726     48727
     48726     48728     48727     48728     48729     48730     48729     48731
     48730     48731     48732     48733     48732     48734     48733     48734
     48735     48736     48735     48737     48736     48737     48738     48739
     48738     48740     48739     48740     48741     48742     48741     48743
     48742     48743     48744     48745     48744     48746     48745     48746
     48747     48748     48747     48749     48748     48749     48750     48751
     48750     48752     48751     48752     48753     48754     48753     48755
     48754     48755     48756     48757     48756     48758     48757     48758
     48759     48760     48759     48761     48760     48761     48762     48763
     48762     48764     48763     48764     48765     48766     48765     48767
     48766     48767     48768     48769     48768     48770     48769     48770
     48771     48772     48771     48773     48772     48773     48774     48775
     48774     48776     48775     48776     48777     48778     48777     48779
     48778     48779     48780     48781     48780     48782     48781     48782
     48783     48784     48783     48785     48784     48785     48786     48787
     48786     48788     48787     48788     48789     48790     48789     48791
     48790     48791     48792     48793     48792     48794     48793     48794
     48795     48796     48795     48797     48796     48797     48798     48799
     48798     48800     48799     48800     48801     48802     48801     48803
     48802     48803     48804     48805     48804     48806     48805     48806
     48807     48808     48807     48809     48808     48809     48810     48811
     48810     48812     48811     48812     48813     48814     48813     48815
     48814     48815     48816     48817     48816     48818     48817     48818
     48819     48820     48819     48821     48820     48821     48822     48823
     48822     48824     48823     48824     48825     48826     48825     48827
     48826     48827     48828     48829     48828     48830     48829     48830
     48831     48832     48831     48833     48832     48833     48834     48835
     48834     48836     48835     48836     48837     48838     48837     48839
     48838     48839     48840     48841     48840     48842     48841     48842
     48843     48844     48843     48845     48844     48845     48846     48847
     48846     48848     48847     48848     48849     48850     48849     48851
     48850     48851     48852     48853     48852     48854     48853     48854
     48855     48856     48855     48857     48856     48857     48858     48859
     48858     48860     48859     48860     48861     48862     48861     48863
     48862     48863     48864     48865     48864     48866     48865     48866
     48867     48868     48867     48869     48868     48869     48870     48871
     48870     48872     48871     48872     48873     48874     48873     48875
     48874     48875     48876     48877     48876     48878     48877     48878
     48879     48880     48879     48881     48880     48881     48882     48883
     48882     48884     48883     48884     48885     48886     48885     48887
     48886     48887     48888     48889     48888     48890     48889     48890
     48891     48892     48891     48893     48892     48893     48894     48895
     48894     48896     48895     48896     48897     48898     48897     48899
     48898     48899     48900     48901     48900     48902     48901     48902
     48903     48904     48903     48905     48904     48905     48906     48907
     48906     48908     48907     48908     48909     48910     48909     48911
     48910     48911     48912     48913     48912     48914     48913     48914
     48915     48916     48915     48917     48916     48917     48918     48919
     48918     48920     48919     48920     48921     48922     48921     48923
     48922     48923     48924     48925     48924     48926     48925     48926
     48927     48928     48927     48929     48928     48929     48930     48931
     48930     48932     48931     48932     48933     48934     48933     48935
     48934     48935     48936     48937     48936     48938     48937     48938
     48939     48940     48939     48941     48940     48941     48942     48943
     48942     48944     48943     48944     48945     48946     48945     48947
     48946     48947     48948     48949     48948     48950     48949     48950
     48951     48952     48951     48953     48952     48953     48954     48955
     48954     48956     48955     48956     48957     48958     48957     48959
     48958     48959     48960     48961     48960     48962     48961     48962
     48963     48964     48963     48965     48964     48965     48966     48967
     48966     48968     48967     48968     48969     48970     48969     48971
     48970     48971     48972     48973     48972     48974     48973     48974
     48975     48976     48975     48977     48976     48977     48978     48979
     48978     48980     48979     48980     48981     48982     48981     48983
     48982     48983     48984     48985     48984     48986     48985     48986
     48987     48988     48987     48989     48988     48989     48990     48991
     48990     48992     48991     48992     48993     48994     48993     48995
     48994     48995     48996     48997     48996     48998     48997     48998
     48999     49000     48999     49001     49000     49001     49002     49003
     49002     49004     49003     49004     49005     49006     49005     49007
     49006     49007     49008     49009     49008     49010     49009     49010
     49011     49012     49011     49013     49012     49013     49014     49015
     49014     49016     49015     49016     49017     49018     49017     49019
     49018     49019     49020     49021     49020     49022     49021     49022
     49023     49024     49023     49025     49024     49025     49026     49027
     49026     49028     49027     49028     49029     49030     49029     49031
     49030     49031     49032     49033     49032     49034     49033     49034
     49035     49036     49035     49037     49036     49037     49038     49039
     49038     49040     49039     49040     49041     49042     49041     49043
     49042     49043     49044     49045     49044     49046     49045     49046
     49047     49048     49047     49049     49048     49049     49050     49051
     49050     49052     49051     49052     49053     49054     49053     49055
     49054     49055     49056     49057     49056     49058     49057     49058
     49059     49060     49059     49061     49060     49061     49062     49063
     49062     49064     49063     49064     49065     49066     49065     49067
     49066     49067     49068     49069     49068     49070     49069     49070
     49071     49072     49071     49073     49072     49073     49074     49075
     49074     49076     49075     49076     49077     49078     49077     49079
     49078     49079     49080     49081     49080     49082     49081     49082
     49083     49084     49083     49085     49084     49085     49086     49087
     49086     49088     49087     49088     49089     49090     49089     49091
     49090     49091     49092     49093     49092     49094     49093     49094
     49095     49096     49095     49097     49096     49097     49098     49099
     49098     49100     49099     49100     49101     49102     49101     49103
     49102     49103     49104     49105     49104     49106     49105     49106
     49107     49108     49107     49109     49108     49109     49110     49111
     49110     49112     49111     49112     49113     49114     49113     49115
     49114     49115     49116     49117     49116     49118     49117     49118
     49119     49120     49119     49121     49120     49121     49122     49123
     49122     49124     49123     49124     49125     49126     49125     49127
     49126     49127     49128     49129     49128     49130     49129     49130
     49131     49132     49131     49133     49132     49133     49134     49135
     49134     49136     49135     49136     49137     49138     49137     49139
     49138     49139     49140     49141     49140     49142     49141     49142
     49143     49144     49143     49145     49144     49145     49146     49147
     49146     49148     49147     49148     49149     49150     49149     49151
     49150     49151     49152     49153     49152     49154     49153     49154
     49155     49156     49155     49157     49156     49157     49158     49159
     49158     49160     49159     49160     49161     49162     49161     49163
     49162     49163     49164     49165     49164     49166     49165     49166
     49167     49168     49167     49169     49168     49169     49170     49171
     49170     49172     49171     49172     49173     49174     49173     49175
     49174     49175     49176     49177     49176     49178     49177     49178
     49179     49180     49179     49181     49180     49181     49182     49183
     49182     49184     49183     49184     49185     49186     49185     49187
     49186     49187     49188     49189     49188     49190     49189     49190
     49191     49192     49191     49193     49192     49193     49194     49195
     49194     49196     49195     49196     49197     49198     49197     49199
     49198     49199     49200     49201     49200     49202     49201     49202
     49203     49204     49203     49205     49204     49205     49206     49207
     49206     49208     49207     49208     49209     49210     49209     49211
     49210     49211     49212     49213     49212     49214     49213     49214
     49215     49216     49215     49217     49216     49217     49218     49219
     49218     49220     49219     49220     49221     49222     49221     49223
     49222     49223     49224     49225     49224     49226     49225     49226
     49227     49228     49227     49229     49228     49229     49230     49231
     49230     49232     49231     49232     49233     49234     49233     49235
     49234     49235     49236     49237     49236     49238     49237     49238
     49239     49240     49239     49241     49240     49241     49242     49243
     49242     49244     49243     49244     49245     49246     49245     49247
     49246     49247     49248     49249     49248     49250     49249     49250
     49251     49252     49251     49253     49252     49253     49254     49255
     49254     49256     49255     49256     49257     49258     49257     49259
     49258     49259     49260     49261     49260     49262     49261     49262
     49263     49264     49263     49265     49264     49265     49266     49267
     49266     49268     49267     49268     49269     49270     49269     49271
     49270     49271     49272     49273     49272     49274     49273     49274
     49275     49276     49275     49277     49276     49277     49278     49279
     49278     49280     49279     49280     49281     49282     49281     49283
     49282     49283     49284     49285     49284     49286     49285     49286
     49287     49288     49287     49289     49288     49289     49290     49291
     49290     49292     49291     49292     49293     49294     49293     49295
     49294     49295     49296     49297     49296     49298     49297     49298
     49299     49300     49299     49301     49300     49301     49302     49303
     49302     49304     49303     49304     49305     49306     49305     49307
     49306     49307     49308     49309     49308     49310     49309     49310
     49311     49312     49311     49313     49312     49313     49314     49315
     49314     49316     49315     49316     49317     49318     49317     49319
     49318     49319     49320     49321     49320     49322     49321     49322
     49323     49324     49323     49325     49324     49325     49326     49327
     49326     49328     49327     49328     49329     49330     49329     49331
     49330     49331     49332     49333     49332     49334     49333     49334
     49335     49336     49335     49337     49336     49337     49338     49339
     49338     49340     49339     49340     49341     49342     49341     49343
     49342     49343     49344     49345     49344     49346     49345     49346
     49347     49348     49347     49349     49348     49349     49350     49351
     49350     49352     49351     49352     49353     49354     49353     49355
     49354     49355     49356     49357     49356     49358     49357     49358
     49359     49360     49359     49361     49360     49361     49362     49363
     49362     49364     49363     49364     49365     49366     49365     49367
     49366     49367     49368     49369     49368     49370     49369     49370
     49371     49372     49371     49373     49372     49373     49374     49375
     49374     49376     49375     49376     49377     49378     49377     49379
     49378     49379     49380     49381     49380     49382     49381     49382
     49383     49384     49383     49385     49384     49385     49386     49387
     49386     49388     49387     49388     49389     49390     49389     49391
     49390     49391     49392     49393     49392     49394     49393     49394
     49395     49396     49395     49397     49396     49397     49398     49399
     49398     49400     49399     49400     49401     49402     49401     49403
     49402     49403     49404     49405     49404     49406     49405     49406
     49407     49408     49407     49409     49408     49409     49410     49411
     49410     49412     49411     49412     49413     49414     49413     49415
     49414     49415     49416     49417     49416     49418     49417     49418
     49419     49420     49419     49421     49420     49421     49422     49423
     49422     49424     49423     49424     49425     49426     49425     49427
     49426     49427     49428     49429     49428     49430     49429     49430
     49431     49432     49431     49433     49432     49433     49434     49435
     49434     49436     49435     49436     49437     49438     49437     49439
     49438     49439     49440     49441     49440     49442     49441     49442
     49443     49444     49443     49445     49444     49445     49446     49447
     49446     49448     49447     49448     49449     49450     49449     49451
     49450     49451     49452     49453     49452     49454     49453     49454
     49455     49456     49455     49457     49456     49457     49458     49459
     49458     49460     49459     49460     49461     49462     49461     49463
     49462     49463     49464     49465     49464     49466     49465     49466
     49467     49468     49467     49469     49468     49469     49470     49471
     49470     49472     49471     49472     49473     49474     49473     49475
     49474     49475     49476     49477     49476     49478     49477     49478
     49479     49480     49479     49481     49480     49481     49482     49483
     49482     49484     49483     49484     49485     49486     49485     49487
     49486     49487     49488     49489     49488     49490     49489     49490
     49491     49492     49491     49493     49492     49493     49494     49495
     49494     49496     49495     49496     49497     49498     49497     49499
     49498     49499     49500     49501     49500     49502     49501     49502
     49503     49504     49503     49505     49504     49505     49506     49507
     49506     49508     49507     49508     49509     49510     49509     49511
     49510     49511     49512     49513     49512     49514     49513     49514
     49515     49516     49515     49517     49516     49517     49518     49519
     49518     49520     49519     49520     49521     49522     49521     49523
     49522     49523     49524     49525     49524     49526     49525     49526
     49527     49528     49527     49529     49528     49529     49530     49531
     49530     49532     49531     49532     49533     49534     49533     49535
     49534     49535     49536     49537     49536     49538     49537     49538
     49539     49540     49539     49541     49540     49541     49542     49543
     49542     49544     49543     49544     49545     49546     49545     49547
     49546     49547     49548     49549     49548     49550     49549     49550
     49551     49552     49551     49553     49552     49553     49554     49555
     49554     49556     49555     49556     49557     49558     49557     49559
     49558     49559     49560     49561     49560     49562     49561     49562
     49563     49564     49563     49565     49564     49565     49566     49567
     49566     49568     49567     49568     49569     49570     49569     49571
     49570     49571     49572     49573     49572     49574     49573     49574
     49575     49576     49575     49577     49576     49577     49578     49579
     49578     49580     49579     49580     49581     49582     49581     49583
     49582     49583     49584     49585     49584     49586     49585     49586
     49587     49588     49587     49589     49588     49589     49590     49591
     49590     49592     49591     49592     49593     49594     49593     49595
     49594     49595     49596     49597     49596     49598     49597     49598
     49599     49600     49599     49601     49600     49601     49602     49603
     49602     49604     49603     49604     49605     49606     49605     49607
     49606     49607     49608     49609     49608     49610     49609     49610
     49611     49612     49611     49613     49612     49613     49614     49615
     49614     49616     49615     49616     49617     49618     49617     49619
     49618     49619     49620     49621     49620     49622     49621     49622
     49623     49624     49623     49625     49624     49625     49626     49627
     49626     49628     49627     49628     49629     49630     49629     49631
     49630     49631     49632     49633     49632     49634     49633     49634
     49635     49636     49635     49637     49636     49637     49638     49639
     49638     49640     49639     49640     49641     49642     49641     49643
     49642     49643     49644     49645     49644     49646     49645     49646
     49647     49648     49647     49649     49648     49649     49650     49651
     49650     49652     49651     49652     49653     49654     49653     49655
     49654     49655     49656     49657     49656     49658     49657     49658
     49659     49660     49659     49661     49660     49661     49662     49663
     49662     49664     49663     49664     49665     49666     49665     49667
     49666     49667     49668     49669     49668     49670     49669     49670
     49671     49672     49671     49673     49672     49673     49674     49675
     49674     49676     49675     49676     49677     49678     49677     49679
     49678     49679     49680     49681     49680     49682     49681     49682
     49683     49684     49683     49685     49684     49685     49686     49687
     49686     49688     49687     49688     49689     49690     49689     49691
     49690     49691     49692     49693     49692     49694     49693     49694
     49695     49696     49695     49697     49696     49697     49698     49699
     49698     49700     49699     49700     49701     49702     49701     49703
     49702     49703     49704     49705     49704     49706     49705     49706
     49707     49708     49707     49709     49708     49709     49710     49711
     49710     49712     49711     49712     49713     49714     49713     49715
     49714     49715     49716     49717     49716     49718     49717     49718
     49719     49720     49719     49721     49720     49721     49722     49723
     49722     49724     49723     49724     49725     49726     49725     49727
     49726     49727     49728     49729     49728     49730     49729     49730
     49731     49732     49731     49733     49732     49733     49734     49735
     49734     49736     49735     49736     49737     49738     49737     49739
     49738     49739     49740     49741     49740     49742     49741     49742
     49743     49744     49743     49745     49744     49745     49746     49747
     49746     49748     49747     49748     49749     49750     49749     49751
     49750     49751     49752     49753     49752     49754     49753     49754
     49755     49756     49755     49757     49756     49757     49758     49759
     49758     49760     49759     49760     49761     49762     49761     49763
     49762     49763     49764     49765     49764     49766     49765     49766
     49767     49768     49767     49769     49768     49769     49770     49771
     49770     49772     49771     49772     49773     49774     49773     49775
     49774     49775     49776     49777     49776     49778     49777     49778
     49779     49780     49779     49781     49780     49781     49782     49783
     49782     49784     49783     49784     49785     49786     49785     49787
     49786     49787     49788     49789     49788     49790     49789     49790
     49791     49792     49791     49793     49792     49793     49794     49795
     49794     49796     49795     49796     49797     49798     49797     49799
     49798     49799     49800     49801     49800     49802     49801     49802
     49803     49804     49803     49805     49804     49805     49806     49807
     49806     49808     49807     49808     49809     49810     49809     49811
     49810     49811     49812     49813     49812     49814     49813     49814
     49815     49816     49815     49817     49816     49817     49818     49819
     49818     49820     49819     49820     49821     49822     49821     49823
     49822     49823     49824     49825     49824     49826     49825     49826
     49827     49828     49827     49829     49828     49829     49830     49831
     49830     49832     49831     49832     49833     49834     49833     49835
     49834     49835     49836     49837     49836     49838     49837     49838
     49839     49840     49839     49841     49840     49841     49842     49843
     49842     49844     49843     49844     49845     49846     49845     49847
     49846     49847     49848     49849     49848     49850     49849     49850
     49851     49852     49851     49853     49852     49853     49854     49855
     49854     49856     49855     49856     49857     49858     49857     49859
     49858     49859     49860     49861     49860     49862     49861     49862
     49863     49864     49863     49865     49864     49865     49866     49867
     49866     49868     49867     49868     49869     49870     49869     49871
     49870     49871     49872     49873     49872     49874     49873     49874
     49875     49876     49875     49877     49876     49877     49878     49879
     49878     49880     49879     49880     49881     49882     49881     49883
     49882     49883     49884     49885     49884     49886     49885     49886
     49887     49888     49887     49889     49888     49889     49890     49891
     49890     49892     49891     49892     49893     49894     49893     49895
     49894     49895     49896     49897     49896     49898     49897     49898
     49899     49900     49899     49901     49900     49901     49902     49903
     49902     49904     49903     49904     49905     49906     49905     49907
     49906     49907     49908     49909     49908     49910     49909     49910
     49911     49912     49911     49913     49912     49913     49914     49915
     49914     49916     49915     49916     49917     49918     49917     49919
     49918     49919     49920     49921     49920     49922     49921     49922
     49923     49924     49923     49925     49924     49925     49926     49927
     49926     49928     49927     49928     49929     49930     49929     49931
     49930     49931     49932     49933     49932     49934     49933     49934
     49935     49936     49935     49937     49936     49937     49938     49939
     49938     49940     49939     49940     49941     49942     49941     49943
     49942     49943     49944     49945     49944     49946     49945     49946
     49947     49948     49947     49949     49948     49949     49950     49951
     49950     49952     49951     49952     49953     49954     49953     49955
     49954     49955     49956     49957     49956     49958     49957     49958
     49959     49960     49959     49961     49960     49961     49962     49963
     49962     49964     49963     49964     49965     49966     49965     49967
     49966     49967     49968     49969     49968     49970     49969     49970
     49971     49972     49971     49973     49972     49973     49974     49975
     49974     49976     49975     49976     49977     49978     49977     49979
     49978     49979     49980     49981     49980     49982     49981     49982
     49983     49984     49983     49985     49984     49985     49986     49987
     49986     49988     49987     49988     49989     49990     49989     49991
     49990     49991     49992     49993     49992     49994     49993     49994
     49995     49996     49995     49997     49996     49997     49998     49999
     49998     50000     49999     50000     50001     50002     50001     50003
     50002     50003     50004     50005     50004     50006     50005     50006
     50007     50008     50007     50009     50008     50009     50010     50011
     50010     50012     50011     50012     50013     50014     50013     50015
     50014     50015     50016     50017     50016     50018     50017     50018
     50019     50020     50019     50021     50020     50021     50022     50023
     50022     50024     50023     50024     50025     50026     50025     50027
     50026     50027     50028     50029     50028     50030     50029     50030
     50031     50032     50031     50033     50032     50033     50034     50035
     50034     50036     50035     50036     50037     50038     50037     50039
     50038     50039     50040     50041     50040     50042     50041     50042
     50043     50044     50043     50045     50044     50045     50046     50047
     50046     50048     50047     50048     50049     50050     50049     50051
     50050     50051     50052     50053     50052     50054     50053     50054
     50055     50056     50055     50057     50056     50057     50058     50059
     50058     50060     50059     50060     50061     50062     50061     50063
     50062     50063     50064     50065     50064     50066     50065     50066
     50067     50068     50067     50069     50068     50069     50070     50071
     50070     50072     50071     50072     50073     50074     50073     50075
     50074     50075     50076     50077     50076     50078     50077     50078
     50079     50080     50079     50081     50080     50081     50082     50083
     50082     50084     50083     50084     50085     50086     50085     50087
     50086     50087     50088     50089     50088     50090     50089     50090
     50091     50092     50091     50093     50092     50093     50094     50095
     50094     50096     50095     50096     50097     50098     50097     50099
     50098     50099     50100     50101     50100     50102     50101     50102
     50103     50104     50103     50105     50104     50105     50106     50107
     50106     50108     50107     50108     50109     50110     50109     50111
     50110     50111     50112     50113     50112     50114     50113     50114
     50115     50116     50115     50117     50116     50117     50118     50119
     50118     50120     50119     50120     50121     50122     50121     50123
     50122     50123     50124     50125     50124     50126     50125     50126
     50127     50128     50127     50129     50128     50129     50130     50131
     50130     50132     50131     50132     50133     50134     50133     50135
     50134     50135     50136     50137     50136     50138     50137     50138
     50139     50140     50139     50141     50140     50141     50142     50143
     50142     50144     50143     50144     50145     50146     50145     50147
     50146     50147     50148     50149     50148     50150     50149     50150
     50151     50152     50151     50153     50152     50153     50154     50155
     50154     50156     50155     50156     50157     50158     50157     50159
     50158     50159     50160     50161     50160     50162     50161     50162
     50163     50164     50163     50165     50164     50165     50166     50167
     50166     50168     50167     50168     50169     50170     50169     50171
     50170     50171     50172     50173     50172     50174     50173     50174
     50175     50176     50175     50177     50176     50177     50178     50179
     50178     50180     50179     50180     50181     50182     50181     50183
     50182     50183     50184     50185     50184     50186     50185     50186
     50187     50188     50187     50189     50188     50189     50190     50191
     50190     50192     50191     50192     50193     50194     50193     50195
     50194     50195     50196     50197     50196     50198     50197     50198
     50199     50200     50199     50201     50200     50201     50202     50203
     50202     50204     50203     50204     50205     50206     50205     50207
     50206     50207     50208     50209     50208     50210     50209     50210
     50211     50212     50211     50213     50212     50213     50214     50215
     50214     50216     50215     50216     50217     50218     50217     50219
     50218     50219     50220     50221     50220     50222     50221     50222
     50223     50224     50223     50225     50224     50225     50226     50227
     50226     50228     50227     50228     50229     50230     50229     50231
     50230     50231     50232     50233     50232     50234     50233     50234
     50235     50236     50235     50237     50236     50237     50238     50239
     50238     50240     50239     50240     50241     50242     50241     50243
     50242     50243     50244     50245     50244     50246     50245     50246
     50247     50248     50247     50249     50248     50249     50250     50251
     50250     50252     50251     50252     50253     50254     50253     50255
     50254     50255     50256     50257     50256     50258     50257     50258
     50259     50260     50259     50261     50260     50261     50262     50263
     50262     50264     50263     50264     50265     50266     50265     50267
     50266     50267     50268     50269     50268     50270     50269     50270
     50271     50272     50271     50273     50272     50273     50274     50275
     50274     50276     50275     50276     50277     50278     50277     50279
     50278     50279     50280     50281     50280     50282     50281     50282
     50283     50284     50283     50285     50284     50285     50286     50287
     50286     50288     50287     50288     50289     50290     50289     50291
     50290     50291     50292     50293     50292     50294     50293     50294
     50295     50296     50295     50297     50296     50297     50298     50299
     50298     50300     50299     50300     50301     50302     50301     50303
     50302     50303     50304     50305     50304     50306     50305     50306
     50307     50308     50307     50309     50308     50309     50310     50311
     50310     50312     50311     50312     50313     50314     50313     50315
     50314     50315     50316     50317     50316     50318     50317     50318
     50319     50320     50319     50321     50320     50321     50322     50323
     50322     50324     50323     50324     50325     50326     50325     50327
     50326     50327     50328     50329     50328     50330     50329     50330
     50331     50332     50331     50333     50332     50333     50334     50335
     50334     50336     50335     50336     50337     50338     50337     50339
     50338     50339     50340     50341     50340     50342     50341     50342
     50343     50344     50343     50345     50344     50345     50346     50347
     50346     50348     50347     50348     50349     50350     50349     50351
     50350     50351     50352     50353     50352     50354     50353     50354
     50355     50356     50355     50357     50356     50357     50358     50359
     50358     50360     50359     50360     50361     50362     50361     50363
     50362     50363     50364     50365     50364     50366     50365     50366
     50367     50368     50367     50369     50368     50369     50370     50371
     50370     50372     50371     50372     50373     50374     50373     50375
     50374     50375     50376     50377     50376     50378     50377     50378
     50379     50380     50379     50381     50380     50381     50382     50383
     50382     50384     50383     50384     50385     50386     50385     50387
     50386     50387     50388     50389     50388     50390     50389     50390
     50391     50392     50391     50393     50392     50393     50394     50395
     50394     50396     50395     50396     50397     50398     50397     50399
     50398     50399     50400     50401     50400     50402     50401     50402
     50403     50404     50403     50405     50404     50405     50406     50407
     50406     50408     50407     50408     50409     50410     50409     50411
     50410     50411     50412     50413     50412     50414     50413     50414
     50415     50416     50415     50417     50416     50417     50418     50419
     50418     50420     50419     50420     50421     50422     50421     50423
     50422     50423     50424     50425     50424     50426     50425     50426
     50427     50428     50427     50429     50428     50429     50430     50431
     50430     50432     50431     50432     50433     50434     50433     50435
     50434     50435     50436     50437     50436     50438     50437     50438
     50439     50440     50439     50441     50440     50441     50442     50443
     50442     50444     50443     50444     50445     50446     50445     50447
     50446     50447     50448     50449     50448     50450     50449     50450
     50451     50452     50451     50453     50452     50453     50454     50455
     50454     50456     50455     50456     50457     50458     50457     50459
     50458     50459     50460     50461     50460     50462     50461     50462
     50463     50464     50463     50465     50464     50465     50466     50467
     50466     50468     50467     50468     50469     50470     50469     50471
     50470     50471     50472     50473     50472     50474     50473     50474
     50475     50476     50475     50477     50476     50477     50478     50479
     50478     50480     50479     50480     50481     50482     50481     50483
     50482     50483     50484     50485     50484     50486     50485     50486
     50487     50488     50487     50489     50488     50489     50490     50491
     50490     50492     50491     50492     50493     50494     50493     50495
     50494     50495     50496     50497     50496     50498     50497     50498
     50499     50500     50499     50501     50500     50501     50502     50503
     50502     50504     50503     50504     50505     50506     50505     50507
     50506     50507     50508     50509     50508     50510     50509     50510
     50511     50512     50511     50513     50512     50513     50514     50515
     50514     50516     50515     50516     50517     50518     50517     50519
     50518     50519     50520     50521     50520     50522     50521     50522
     50523     50524     50523     50525     50524     50525     50526     50527
     50526     50528     50527     50528     50529     50530     50529     50531
     50530     50531     50532     50533     50532     50534     50533     50534
     50535     50536     50535     50537     50536     50537     50538     50539
     50538     50540     50539     50540     50541     50542     50541     50543
     50542     50543     50544     50545     50544     50546     50545     50546
     50547     50548     50547     50549     50548     50549     50550     50551
     50550     50552     50551     50552     50553     50554     50553     50555
     50554     50555     50556     50557     50556     50558     50557     50558
     50559     50560     50559     50561     50560     50561     50562     50563
     50562     50564     50563     50564     50565     50566     50565     50567
     50566     50567     50568     50569     50568     50570     50569     50570
     50571     50572     50571     50573     50572     50573     50574     50575
     50574     50576     50575     50576     50577     50578     50577     50579
     50578     50579     50580     50581     50580     50582     50581     50582
     50583     50584     50583     50585     50584     50585     50586     50587
     50586     50588     50587     50588     50589     50590     50589     50591
     50590     50591     50592     50593     50592     50594     50593     50594
     50595     50596     50595     50597     50596     50597     50598     50599
     50598     50600     50599     50600     50601     50602     50601     50603
     50602     50603     50604     50605     50604     50606     50605     50606
     50607     50608     50607     50609     50608     50609     50610     50611
     50610     50612     50611     50612     50613     50614     50613     50615
     50614     50615     50616     50617     50616     50618     50617     50618
     50619     50620     50619     50621     50620     50621     50622     50623
     50622     50624     50623     50624     50625     50626     50625     50627
     50626     50627     50628     50629     50628     50630     50629     50630
     50631     50632     50631     50633     50632     50633     50634     50635
     50634     50636     50635     50636     50637     50638     50637     50639
     50638     50639     50640     50641     50640     50642     50641     50642
     50643     50644     50643     50645     50644     50645     50646     50647
     50646     50648     50647     50648     50649     50650     50649     50651
     50650     50651     50652     50653     50652     50654     50653     50654
     50655     50656     50655     50657     50656     50657     50658     50659
     50658     50660     50659     50660     50661     50662     50661     50663
     50662     50663     50664     50665     50664     50666     50665     50666
     50667     50668     50667     50669     50668     50669     50670     50671
     50670     50672     50671     50672     50673     50674     50673     50675
     50674     50675     50676     50677     50676     50678     50677     50678
     50679     50680     50679     50681     50680     50681     50682     50683
     50682     50684     50683     50684     50685     50686     50685     50687
     50686     50687     50688     50689     50688     50690     50689     50690
     50691     50692     50691     50693     50692     50693     50694     50695
     50694     50696     50695     50696     50697     50698     50697     50699
     50698     50699     50700     50701     50700     50702     50701     50702
     50703     50704     50703     50705     50704     50705     50706     50707
     50706     50708     50707     50708     50709     50710     50709     50711
     50710     50711     50712     50713     50712     50714     50713     50714
     50715     50716     50715     50717     50716     50717     50718     50719
     50718     50720     50719     50720     50721     50722     50721     50723
     50722     50723     50724     50725     50724     50726     50725     50726
     50727     50728     50727     50729     50728     50729     50730     50731
     50730     50732     50731     50732     50733     50734     50733     50735
     50734     50735     50736     50737     50736     50738     50737     50738
     50739     50740     50739     50741     50740     50741     50742     50743
     50742     50744     50743     50744     50745     50746     50745     50747
     50746     50747     50748     50749     50748     50750     50749     50750
     50751     50752     50751     50753     50752     50753     50754     50755
     50754     50756     50755     50756     50757     50758     50757     50759
     50758     50759     50760     50761     50760     50762     50761     50762
     50763     50764     50763     50765     50764     50765     50766     50767
     50766     50768     50767     50768     50769     50770     50769     50771
     50770     50771     50772     50773     50772     50774     50773     50774
     50775     50776     50775     50777     50776     50777     50778     50779
     50778     50780     50779     50780     50781     50782     50781     50783
     50782     50783     50784     50785     50784     50786     50785     50786
     50787     50788     50787     50789     50788     50789     50790     50791
     50790     50792     50791     50792     50793     50794     50793     50795
     50794     50795     50796     50797     50796     50798     50797     50798
     50799     50800     50799     50801     50800     50801     50802     50803
     50802     50804     50803     50804     50805     50806     50805     50807
     50806     50807     50808     50809     50808     50810     50809     50810
     50811     50812     50811     50813     50812     50813     50814     50815
     50814     50816     50815     50816     50817     50818     50817     50819
     50818     50819     50820     50821     50820     50822     50821     50822
     50823     50824     50823     50825     50824     50825     50826     50827
     50826     50828     50827     50828     50829     50830     50829     50831
     50830     50831     50832     50833     50832     50834     50833     50834
     50835     50836     50835     50837     50836     50837     50838     50839
     50838     50840     50839     50840     50841     50842     50841     50843
     50842     50843     50844     50845     50844     50846     50845     50846
     50847     50848     50847     50849     50848     50849     50850     50851
     50850     50852     50851     50852     50853     50854     50853     50855
     50854     50855     50856     50857     50856     50858     50857     50858
     50859     50860     50859     50861     50860     50861     50862     50863
     50862     50864     50863     50864     50865     50866     50865     50867
     50866     50867     50868     50869     50868     50870     50869     50870
     50871     50872     50871     50873     50872     50873     50874     50875
     50874     50876     50875     50876     50877     50878     50877     50879
     50878     50879     50880     50881     50880     50882     50881     50882
     50883     50884     50883     50885     50884     50885     50886     50887
     50886     50888     50887     50888     50889     50890     50889     50891
     50890     50891     50892     50893     50892     50894     50893     50894
     50895     50896     50895     50897     50896     50897     50898     50899
     50898     50900     50899     50900     50901     50902     50901     50903
     50902     50903     50904     50905     50904     50906     50905     50906
     50907     50908     50907     50909     50908     50909     50910     50911
     50910     50912     50911     50912     50913     50914     50913     50915
     50914     50915     50916     50917     50916     50918     50917     50918
     50919     50920     50919     50921     50920     50921     50922     50923
     50922     50924     50923     50924     50925     50926     50925     50927
     50926     50927     50928     50929     50928     50930     50929     50930
     50931     50932     50931     50933     50932     50933     50934     50935
     50934     50936     50935     50936     50937     50938     50937     50939
     50938     50939     50940     50941     50940     50942     50941     50942
     50943     50944     50943     50945     50944     50945     50946     50947
     50946     50948     50947     50948     50949     50950     50949     50951
     50950     50951     50952     50953     50952     50954     50953     50954
     50955     50956     50955     50957     50956     50957     50958     50959
     50958     50960     50959     50960     50961     50962     50961     50963
     50962     50963     50964     50965     50964     50966     50965     50966
     50967     50968     50967     50969     50968     50969     50970     50971
     50970     50972     50971     50972     50973     50974     50973     50975
     50974     50975     50976     50977     50976     50978     50977     50978
     50979     50980     50979     50981     50980     50981     50982     50983
     50982     50984     50983     50984     50985     50986     50985     50987
     50986     50987     50988     50989     50988     50990     50989     50990
     50991     50992     50991     50993     50992     50993     50994     50995
     50994     50996     50995     50996     50997     50998     50997     50999
     50998     50999     51000     51001     51000     51002     51001     51002
     51003     51004     51003     51005     51004     51005     51006     51007
     51006     51008     51007     51008     51009     51010     51009     51011
     51010     51011     51012     51013     51012     51014     51013     51014
     51015     51016     51015     51017     51016     51017     51018     51019
     51018     51020     51019     51020     51021     51022     51021     51023
     51022     51023     51024     51025     51024     51026     51025     51026
     51027     51028     51027     51029     51028     51029     51030     51031
     51030     51032     51031     51032     51033     51034     51033     51035
     51034     51035     51036     51037     51036     51038     51037     51038
     51039     51040     51039     51041     51040     51041     51042     51043
     51042     51044     51043     51044     51045     51046     51045     51047
     51046     51047     51048     51049     51048     51050     51049     51050
     51051     51052     51051     51053     51052     51053     51054     51055
     51054     51056     51055     51056     51057     51058     51057     51059
     51058     51059     51060     51061     51060     51062     51061     51062
     51063     51064     51063     51065     51064     51065     51066     51067
     51066     51068     51067     51068     51069     51070     51069     51071
     51070     51071     51072     51073     51072     51074     51073     51074
     51075     51076     51075     51077     51076     51077     51078     51079
     51078     51080     51079     51080     51081     51082     51081     51083
     51082     51083     51084     51085     51084     51086     51085     51086
     51087     51088     51087     51089     51088     51089     51090     51091
     51090     51092     51091     51092     51093     51094     51093     51095
     51094     51095     51096     51097     51096     51098     51097     51098
     51099     51100     51099     51101     51100     51101     51102     51103
     51102     51104     51103     51104     51105     51106     51105     51107
     51106     51107     51108     51109     51108     51110     51109     51110
     51111     51112     51111     51113     51112     51113     51114     51115
     51114     51116     51115     51116     51117     51118     51117     51119
     51118     51119     51120     51121     51120     51122     51121     51122
     51123     51124     51123     51125     51124     51125     51126     51127
     51126     51128     51127     51128     51129     51130     51129     51131
     51130     51131     51132     51133     51132     51134     51133     51134
     51135     51136     51135     51137     51136     51137     51138     51139
     51138     51140     51139     51140     51141     51142     51141     51143
     51142     51143     51144     51145     51144     51146     51145     51146
     51147     51148     51147     51149     51148     51149     51150     51151
     51150     51152     51151     51152     51153     51154     51153     51155
     51154     51155     51156     51157     51156     51158     51157     51158
     51159     51160     51159     51161     51160     51161     51162     51163
     51162     51164     51163     51164     51165     51166     51165     51167
     51166     51167     51168     51169     51168     51170     51169     51170
     51171     51172     51171     51173     51172     51173     51174     51175
     51174     51176     51175     51176     51177     51178     51177     51179
     51178     51179     51180     51181     51180     51182     51181     51182
     51183     51184     51183     51185     51184     51185     51186     51187
     51186     51188     51187     51188     51189     51190     51189     51191
     51190     51191     51192     51193     51192     51194     51193     51194
     51195     51196     51195     51197     51196     51197     51198     51199
     51198     51200     51199     51200     51201     51202     51201     51203
     51202     51203     51204     51205     51204     51206     51205     51206
     51207     51208     51207     51209     51208     51209     51210     51211
     51210     51212     51211     51212     51213     51214     51213     51215
     51214     51215     51216     51217     51216     51218     51217     51218
     51219     51220     51219     51221     51220     51221     51222     51223
     51222     51224     51223     51224     51225     51226     51225     51227
     51226     51227     51228     51229     51228     51230     51229     51230
     51231     51232     51231     51233     51232     51233     51234     51235
     51234     51236     51235     51236     51237     51238     51237     51239
     51238     51239     51240     51241     51240     51242     51241     51242
     51243     51244     51243     51245     51244     51245     51246     51247
     51246     51248     51247     51248     51249     51250     51249     51251
     51250     51251     51252     51253     51252     51254     51253     51254
     51255     51256     51255     51257     51256     51257     51258     51259
     51258     51260     51259     51260     51261     51262     51261     51263
     51262     51263     51264     51265     51264     51266     51265     51266
     51267     51268     51267     51269     51268     51269     51270     51271
     51270     51272     51271     51272     51273     51274     51273     51275
     51274     51275     51276     51277     51276     51278     51277     51278
     51279     51280     51279     51281     51280     51281     51282     51283
     51282     51284     51283     51284     51285     51286     51285     51287
     51286     51287     51288     51289     51288     51290     51289     51290
     51291     51292     51291     51293     51292     51293     51294     51295
     51294     51296     51295     51296     51297     51298     51297     51299
     51298     51299     51300     51301     51300     51302     51301     51302
     51303     51304     51303     51305     51304     51305     51306     51307
     51306     51308     51307     51308     51309     51310     51309     51311
     51310     51311     51312     51313     51312     51314     51313     51314
     51315     51316     51315     51317     51316     51317     51318     51319
     51318     51320     51319     51320     51321     51322     51321     51323
     51322     51323     51324     51325     51324     51326     51325     51326
     51327     51328     51327     51329     51328     51329     51330     51331
     51330     51332     51331     51332     51333     51334     51333     51335
     51334     51335     51336     51337     51336     51338     51337     51338
     51339     51340     51339     51341     51340     51341     51342     51343
     51342     51344     51343     51344     51345     51346     51345     51347
     51346     51347     51348     51349     51348     51350     51349     51350
     51351     51352     51351     51353     51352     51353     51354     51355
     51354     51356     51355     51356     51357     51358     51357     51359
     51358     51359     51360     51361     51360     51362     51361     51362
     51363     51364     51363     51365     51364     51365     51366     51367
     51366     51368     51367     51368     51369     51370     51369     51371
     51370     51371     51372     51373     51372     51374     51373     51374
     51375     51376     51375     51377     51376     51377     51378     51379
     51378     51380     51379     51380     51381     51382     51381     51383
     51382     51383     51384     51385     51384     51386     51385     51386
     51387     51388     51387     51389     51388     51389     51390     51391
     51390     51392     51391     51392     51393     51394     51393     51395
     51394     51395     51396     51397     51396     51398     51397     51398
     51399     51400     51399     51401     51400     51401     51402     51403
     51402     51404     51403     51404     51405     51406     51405     51407
     51406     51407     51408     51409     51408     51410     51409     51410
     51411     51412     51411     51413     51412     51413     51414     51415
     51414     51416     51415     51416     51417     51418     51417     51419
     51418     51419     51420     51421     51420     51422     51421     51422
     51423     51424     51423     51425     51424     51425     51426     51427
     51426     51428     51427     51428     51429     51430     51429     51431
     51430     51431     51432     51433     51432     51434     51433     51434
     51435     51436     51435     51437     51436     51437     51438     51439
     51438     51440     51439     51440     51441     51442     51441     51443
     51442     51443     51444     51445     51444     51446     51445     51446
     51447     51448     51447     51449     51448     51449     51450     51451
     51450     51452     51451     51452     51453     51454     51453     51455
     51454     51455     51456     51457     51456     51458     51457     51458
     51459     51460     51459     51461     51460     51461     51462     51463
     51462     51464     51463     51464     51465     51466     51465     51467
     51466     51467     51468     51469     51468     51470     51469     51470
     51471     51472     51471     51473     51472     51473     51474     51475
     51474     51476     51475     51476     51477     51478     51477     51479
     51478     51479     51480     51481     51480     51482     51481     51482
     51483     51484     51483     51485     51484     51485     51486     51487
     51486     51488     51487     51488     51489     51490     51489     51491
     51490     51491     51492     51493     51492     51494     51493     51494
     51495     51496     51495     51497     51496     51497     51498     51499
     51498     51500     51499     51500     51501     51502     51501     51503
     51502     51503     51504     51505     51504     51506     51505     51506
     51507     51508     51507     51509     51508     51509     51510     51511
     51510     51512     51511     51512     51513     51514     51513     51515
     51514     51515     51516     51517     51516     51518     51517     51518
     51519     51520     51519     51521     51520     51521     51522     51523
     51522     51524     51523     51524     51525     51526     51525     51527
     51526     51527     51528     51529     51528     51530     51529     51530
     51531     51532     51531     51533     51532     51533     51534     51535
     51534     51536     51535     51536     51537     51538     51537     51539
     51538     51539     51540     51541     51540     51542     51541     51542
     51543     51544     51543     51545     51544     51545     51546     51547
     51546     51548     51547     51548     51549     51550     51549     51551
     51550     51551     51552     51553     51552     51554     51553     51554
     51555     51556     51555     51557     51556     51557     51558     51559
     51558     51560     51559     51560     51561     51562     51561     51563
     51562     51563     51564     51565     51564     51566     51565     51566
     51567     51568     51567     51569     51568     51569     51570     51571
     51570     51572     51571     51572     51573     51574     51573     51575
     51574     51575     51576     51577     51576     51578     51577     51578
     51579     51580     51579     51581     51580     51581     51582     51583
     51582     51584     51583     51584     51585     51586     51585     51587
     51586     51587     51588     51589     51588     51590     51589     51590
     51591     51592     51591     51593     51592     51593     51594     51595
     51594     51596     51595     51596     51597     51598     51597     51599
     51598     51599     51600     51601     51600     51602     51601     51602
     51603     51604     51603     51605     51604     51605     51606     51607
     51606     51608     51607     51608     51609     51610     51609     51611
     51610     51611     51612     51613     51612     51614     51613     51614
     51615     51616     51615     51617     51616     51617     51618     51619
     51618     51620     51619     51620     51621     51622     51621     51623
     51622     51623     51624     51625     51624     51626     51625     51626
     51627     51628     51627     51629     51628     51629     51630     51631
     51630     51632     51631     51632     51633     51634     51633     51635
     51634     51635     51636     51637     51636     51638     51637     51638
     51639     51640     51639     51641     51640     51641     51642     51643
     51642     51644     51643     51644     51645     51646     51645     51647
     51646     51647     51648     51649     51648     51650     51649     51650
     51651     51652     51651     51653     51652     51653     51654     51655
     51654     51656     51655     51656     51657     51658     51657     51659
     51658     51659     51660     51661     51660     51662     51661     51662
     51663     51664     51663     51665     51664     51665     51666     51667
     51666     51668     51667     51668     51669     51670     51669     51671
     51670     51671     51672     51673     51672     51674     51673     51674
     51675     51676     51675     51677     51676     51677     51678     51679
     51678     51680     51679     51680     51681     51682     51681     51683
     51682     51683     51684     51685     51684     51686     51685     51686
     51687     51688     51687     51689     51688     51689     51690     51691
     51690     51692     51691     51692     51693     51694     51693     51695
     51694     51695     51696     51697     51696     51698     51697     51698
     51699     51700     51699     51701     51700     51701     51702     51703
     51702     51704     51703     51704     51705     51706     51705     51707
     51706     51707     51708     51709     51708     51710     51709     51710
     51711     51712     51711     51713     51712     51713     51714     51715
     51714     51716     51715     51716     51717     51718     51717     51719
     51718     51719     51720     51721     51720     51722     51721     51722
     51723     51724     51723     51725     51724     51725     51726     51727
     51726     51728     51727     51728     51729     51730     51729     51731
     51730     51731     51732     51733     51732     51734     51733     51734
     51735     51736     51735     51737     51736     51737     51738     51739
     51738     51740     51739     51740     51741     51742     51741     51743
     51742     51743     51744     51745     51744     51746     51745     51746
     51747     51748     51747     51749     51748     51749     51750     51751
     51750     51752     51751     51752     51753     51754     51753     51755
     51754     51755     51756     51757     51756     51758     51757     51758
     51759     51760     51759     51761     51760     51761     51762     51763
     51762     51764     51763     51764     51765     51766     51765     51767
     51766     51767     51768     51769     51768     51770     51769     51770
     51771     51772     51771     51773     51772     51773     51774     51775
     51774     51776     51775     51776     51777     51778     51777     51779
     51778     51779     51780     51781     51780     51782     51781     51782
     51783     51784     51783     51785     51784     51785     51786     51787
     51786     51788     51787     51788     51789     51790     51789     51791
     51790     51791     51792     51793     51792     51794     51793     51794
     51795     51796     51795     51797     51796     51797     51798     51799
     51798     51800     51799     51800     51801     51802     51801     51803
     51802     51803     51804     51805     51804     51806     51805     51806
     51807     51808     51807     51809     51808     51809     51810     51811
     51810     51812     51811     51812     51813     51814     51813     51815
     51814     51815     51816     51817     51816     51818     51817     51818
     51819     51820     51819     51821     51820     51821     51822     51823
     51822     51824     51823     51824     51825     51826     51825     51827
     51826     51827     51828     51829     51828     51830     51829     51830
     51831     51832     51831     51833     51832     51833     51834     51835
     51834     51836     51835     51836     51837     51838     51837     51839
     51838     51839     51840     51841     51840     51842     51841     51842
     51843     51844     51843     51845     51844     51845     51846     51847
     51846     51848     51847     51848     51849     51850     51849     51851
     51850     51851     51852     51853     51852     51854     51853     51854
     51855     51856     51855     51857     51856     51857     51858     51859
     51858     51860     51859     51860     51861     51862     51861     51863
     51862     51863     51864     51865     51864     51866     51865     51866
     51867     51868     51867     51869     51868     51869     51870     51871
     51870     51872     51871     51872     51873     51874     51873     51875
     51874     51875     51876     51877     51876     51878     51877     51878
     51879     51880     51879     51881     51880     51881     51882     51883
     51882     51884     51883     51884     51885     51886     51885     51887
     51886     51887     51888     51889     51888     51890     51889     51890
     51891     51892     51891     51893     51892     51893     51894     51895
     51894     51896     51895     51896     51897     51898     51897     51899
     51898     51899     51900     51901     51900     51902     51901     51902
     51903     51904     51903     51905     51904     51905     51906     51907
     51906     51908     51907     51908     51909     51910     51909     51911
     51910     51911     51912     51913     51912     51914     51913     51914
     51915     51916     51915     51917     51916     51917     51918     51919
     51918     51920     51919     51920     51921     51922     51921     51923
     51922     51923     51924     51925     51924     51926     51925     51926
     51927     51928     51927     51929     51928     51929     51930     51931
     51930     51932     51931     51932     51933     51934     51933     51935
     51934     51935     51936     51937     51936     51938     51937     51938
     51939     51940     51939     51941     51940     51941     51942     51943
     51942     51944     51943     51944     51945     51946     51945     51947
     51946     51947     51948     51949     51948     51950     51949     51950
     51951     51952     51951     51953     51952     51953     51954     51955
     51954     51956     51955     51956     51957     51958     51957     51959
     51958     51959     51960     51961     51960     51962     51961     51962
     51963     51964     51963     51965     51964     51965     51966     51967
     51966     51968     51967     51968     51969     51970     51969     51971
     51970     51971     51972     51973     51972     51974     51973     51974
     51975     51976     51975     51977     51976     51977     51978     51979
     51978     51980     51979     51980     51981     51982     51981     51983
     51982     51983     51984     51985     51984     51986     51985     51986
     51987     51988     51987     51989     51988     51989     51990     51991
     51990     51992     51991     51992     51993     51994     51993     51995
     51994     51995     51996     51997     51996     51998     51997     51998
     51999     52000     51999     52001     52000     52001     52002     52003
     52002     52004     52003     52004     52005     52006     52005     52007
     52006     52007     52008     52009     52008     52010     52009     52010
     52011     52012     52011     52013     52012     52013     52014     52015
     52014     52016     52015     52016     52017     52018     52017     52019
     52018     52019     52020     52021     52020     52022     52021     52022
     52023     52024     52023     52025     52024     52025     52026     52027
     52026     52028     52027     52028     52029     52030     52029     52031
     52030     52031     52032     52033     52032     52034     52033     52034
     52035     52036     52035     52037     52036     52037     52038     52039
     52038     52040     52039     52040     52041     52042     52041     52043
     52042     52043     52044     52045     52044     52046     52045     52046
     52047     52048     52047     52049     52048     52049     52050     52051
     52050     52052     52051     52052     52053     52054     52053     52055
     52054     52055     52056     52057     52056     52058     52057     52058
     52059     52060     52059     52061     52060     52061     52062     52063
     52062     52064     52063     52064     52065     52066     52065     52067
     52066     52067     52068     52069     52068     52070     52069     52070
     52071     52072     52071     52073     52072     52073     52074     52075
     52074     52076     52075     52076     52077     52078     52077     52079
     52078     52079     52080     52081     52080     52082     52081     52082
     52083     52084     52083     52085     52084     52085     52086     52087
     52086     52088     52087     52088     52089     52090     52089     52091
     52090     52091     52092     52093     52092     52094     52093     52094
     52095     52096     52095     52097     52096     52097     52098     52099
     52098     52100     52099     52100     52101     52102     52101     52103
     52102     52103     52104     52105     52104     52106     52105     52106
     52107     52108     52107     52109     52108     52109     52110     52111
     52110     52112     52111     52112     52113     52114     52113     52115
     52114     52115     52116     52117     52116     52118     52117     52118
     52119     52120     52119     52121     52120     52121     52122     52123
     52122     52124     52123     52124     52125     52126     52125     52127
     52126     52127     52128     52129     52128     52130     52129     52130
     52131     52132     52131     52133     52132     52133     52134     52135
     52134     52136     52135     52136     52137     52138     52137     52139
     52138     52139     52140     52141     52140     52142     52141     52142
     52143     52144     52143     52145     52144     52145     52146     52147
     52146     52148     52147     52148     52149     52150     52149     52151
     52150     52151     52152     52153     52152     52154     52153     52154
     52155     52156     52155     52157     52156     52157     52158     52159
     52158     52160     52159     52160     52161     52162     52161     52163
     52162     52163     52164     52165     52164     52166     52165     52166
     52167     52168     52167     52169     52168     52169     52170     52171
     52170     52172     52171     52172     52173     52174     52173     52175
     52174     52175     52176     52177     52176     52178     52177     52178
     52179     52180     52179     52181     52180     52181     52182     52183
     52182     52184     52183     52184     52185     52186     52185     52187
     52186     52187     52188     52189     52188     52190     52189     52190
     52191     52192     52191     52193     52192     52193     52194     52195
     52194     52196     52195     52196     52197     52198     52197     52199
     52198     52199     52200     52201     52200     52202     52201     52202
     52203     52204     52203     52205     52204     52205     52206     52207
     52206     52208     52207     52208     52209     52210     52209     52211
     52210     52211     52212     52213     52212     52214     52213     52214
     52215     52216     52215     52217     52216     52217     52218     52219
     52218     52220     52219     52220     52221     52222     52221     52223
     52222     52223     52224     52225     52224     52226     52225     52226
     52227     52228     52227     52229     52228     52229     52230     52231
     52230     52232     52231     52232     52233     52234     52233     52235
     52234     52235     52236     52237     52236     52238     52237     52238
     52239     52240     52239     52241     52240     52241     52242     52243
     52242     52244     52243     52244     52245     52246     52245     52247
     52246     52247     52248     52249     52248     52250     52249     52250
     52251     52252     52251     52253     52252     52253     52254     52255
     52254     52256     52255     52256     52257     52258     52257     52259
     52258     52259     52260     52261     52260     52262     52261     52262
     52263     52264     52263     52265     52264     52265     52266     52267
     52266     52268     52267     52268     52269     52270     52269     52271
     52270     52271     52272     52273     52272     52274     52273     52274
     52275     52276     52275     52277     52276     52277     52278     52279
     52278     52280     52279     52280     52281     52282     52281     52283
     52282     52283     52284     52285     52284     52286     52285     52286
     52287     52288     52287     52289     52288     52289     52290     52291
     52290     52292     52291     52292     52293     52294     52293     52295
     52294     52295     52296     52297     52296     52298     52297     52298
     52299     52300     52299     52301     52300     52301     52302     52303
     52302     52304     52303     52304     52305     52306     52305     52307
     52306     52307     52308     52309     52308     52310     52309     52310
     52311     52312     52311     52313     52312     52313     52314     52315
     52314     52316     52315     52316     52317     52318     52317     52319
     52318     52319     52320     52321     52320     52322     52321     52322
     52323     52324     52323     52325     52324     52325     52326     52327
     52326     52328     52327     52328     52329     52330     52329     52331
     52330     52331     52332     52333     52332     52334     52333     52334
     52335     52336     52335     52337     52336     52337     52338     52339
     52338     52340     52339     52340     52341     52342     52341     52343
     52342     52343     52344     52345     52344     52346     52345     52346
     52347     52348     52347     52349     52348     52349     52350     52351
     52350     52352     52351     52352     52353     52354     52353     52355
     52354     52355     52356     52357     52356     52358     52357     52358
     52359     52360     52359     52361     52360     52361     52362     52363
     52362     52364     52363     52364     52365     52366     52365     52367
     52366     52367     52368     52369     52368     52370     52369     52370
     52371     52372     52371     52373     52372     52373     52374     52375
     52374     52376     52375     52376     52377     52378     52377     52379
     52378     52379     52380     52381     52380     52382     52381     52382
     52383     52384     52383     52385     52384     52385     52386     52387
     52386     52388     52387     52388     52389     52390     52389     52391
     52390     52391     52392     52393     52392     52394     52393     52394
     52395     52396     52395     52397     52396     52397     52398     52399
     52398     52400     52399     52400     52401     52402     52401     52403
     52402     52403     52404     52405     52404     52406     52405     52406
     52407     52408     52407     52409     52408     52409     52410     52411
     52410     52412     52411     52412     52413     52414     52413     52415
     52414     52415     52416     52417     52416     52418     52417     52418
     52419     52420     52419     52421     52420     52421     52422     52423
     52422     52424     52423     52424     52425     52426     52425     52427
     52426     52427     52428     52429     52428     52430     52429     52430
     52431     52432     52431     52433     52432     52433     52434     52435
     52434     52436     52435     52436     52437     52438     52437     52439
     52438     52439     52440     52441     52440     52442     52441     52442
     52443     52444     52443     52445     52444     52445     52446     52447
     52446     52448     52447     52448     52449     52450     52449     52451
     52450     52451     52452     52453     52452     52454     52453     52454
     52455     52456     52455     52457     52456     52457     52458     52459
     52458     52460     52459     52460     52461     52462     52461     52463
     52462     52463     52464     52465     52464     52466     52465     52466
     52467     52468     52467     52469     52468     52469     52470     52471
     52470     52472     52471     52472     52473     52474     52473     52475
     52474     52475     52476     52477     52476     52478     52477     52478
     52479     52480     52479     52481     52480     52481     52482     52483
     52482     52484     52483     52484     52485     52486     52485     52487
     52486     52487     52488     52489     52488     52490     52489     52490
     52491     52492     52491     52493     52492     52493     52494     52495
     52494     52496     52495     52496     52497     52498     52497     52499
     52498     52499     52500     52501     52500     52502     52501     52502
     52503     52504     52503     52505     52504     52505     52506     52507
     52506     52508     52507     52508     52509     52510     52509     52511
     52510     52511     52512     52513     52512     52514     52513     52514
     52515     52516     52515     52517     52516     52517     52518     52519
     52518     52520     52519     52520     52521     52522     52521     52523
     52522     52523     52524     52525     52524     52526     52525     52526
     52527     52528     52527     52529     52528     52529     52530     52531
     52530     52532     52531     52532     52533     52534     52533     52535
     52534     52535     52536     52537     52536     52538     52537     52538
     52539     52540     52539     52541     52540     52541     52542     52543
     52542     52544     52543     52544     52545     52546     52545     52547
     52546     52547     52548     52549     52548     52550     52549     52550
     52551     52552     52551     52553     52552     52553     52554     52555
     52554     52556     52555     52556     52557     52558     52557     52559
     52558     52559     52560     52561     52560     52562     52561     52562
     52563     52564     52563     52565     52564     52565     52566     52567
     52566     52568     52567     52568     52569     52570     52569     52571
     52570     52571     52572     52573     52572     52574     52573     52574
     52575     52576     52575     52577     52576     52577     52578     52579
     52578     52580     52579     52580     52581     52582     52581     52583
     52582     52583     52584     52585     52584     52586     52585     52586
     52587     52588     52587     52589     52588     52589     52590     52591
     52590     52592     52591     52592     52593     52594     52593     52595
     52594     52595     52596     52597     52596     52598     52597     52598
     52599     52600     52599     52601     52600     52601     52602     52603
     52602     52604     52603     52604     52605     52606     52605     52607
     52606     52607     52608     52609     52608     52610     52609     52610
     52611     52612     52611     52613     52612     52613     52614     52615
     52614     52616     52615     52616     52617     52618     52617     52619
     52618     52619     52620     52621     52620     52622     52621     52622
     52623     52624     52623     52625     52624     52625     52626     52627
     52626     52628     52627     52628     52629     52630     52629     52631
     52630     52631     52632     52633     52632     52634     52633     52634
     52635     52636     52635     52637     52636     52637     52638     52639
     52638     52640     52639     52640     52641     52642     52641     52643
     52642     52643     52644     52645     52644     52646     52645     52646
     52647     52648     52647     52649     52648     52649     52650     52651
     52650     52652     52651     52652     52653     52654     52653     52655
     52654     52655     52656     52657     52656     52658     52657     52658
     52659     52660     52659     52661     52660     52661     52662     52663
     52662     52664     52663     52664     52665     52666     52665     52667
     52666     52667     52668     52669     52668     52670     52669     52670
     52671     52672     52671     52673     52672     52673     52674     52675
     52674     52676     52675     52676     52677     52678     52677     52679
     52678     52679     52680     52681     52680     52682     52681     52682
     52683     52684     52683     52685     52684     52685     52686     52687
     52686     52688     52687     52688     52689     52690     52689     52691
     52690     52691     52692     52693     52692     52694     52693     52694
     52695     52696     52695     52697     52696     52697     52698     52699
     52698     52700     52699     52700     52701     52702     52701     52703
     52702     52703     52704     52705     52704     52706     52705     52706
     52707     52708     52707     52709     52708     52709     52710     52711
     52710     52712     52711     52712     52713     52714     52713     52715
     52714     52715     52716     52717     52716     52718     52717     52718
     52719     52720     52719     52721     52720     52721     52722     52723
     52722     52724     52723     52724     52725     52726     52725     52727
     52726     52727     52728     52729     52728     52730     52729     52730
     52731     52732     52731     52733     52732     52733     52734     52735
     52734     52736     52735     52736     52737     52738     52737     52739
     52738     52739     52740     52741     52740     52742     52741     52742
     52743     52744     52743     52745     52744     52745     52746     52747
     52746     52748     52747     52748     52749     52750     52749     52751
     52750     52751     52752     52753     52752     52754     52753     52754
     52755     52756     52755     52757     52756     52757     52758     52759
     52758     52760     52759     52760     52761     52762     52761     52763
     52762     52763     52764     52765     52764     52766     52765     52766
     52767     52768     52767     52769     52768     52769     52770     52771
     52770     52772     52771     52772     52773     52774     52773     52775
     52774     52775     52776     52777     52776     52778     52777     52778
     52779     52780     52779     52781     52780     52781     52782     52783
     52782     52784     52783     52784     52785     52786     52785     52787
     52786     52787     52788     52789     52788     52790     52789     52790
     52791     52792     52791     52793     52792     52793     52794     52795
     52794     52796     52795     52796     52797     52798     52797     52799
     52798     52799     52800     52801     52800     52802     52801     52802
     52803     52804     52803     52805     52804     52805     52806     52807
     52806     52808     52807     52808     52809     52810     52809     52811
     52810     52811     52812     52813     52812     52814     52813     52814
     52815     52816     52815     52817     52816     52817     52818     52819
     52818     52820     52819     52820     52821     52822     52821     52823
     52822     52823     52824     52825     52824     52826     52825     52826
     52827     52828     52827     52829     52828     52829     52830     52831
     52830     52832     52831     52832     52833     52834     52833     52835
     52834     52835     52836     52837     52836     52838     52837     52838
     52839     52840     52839     52841     52840     52841     52842     52843
     52842     52844     52843     52844     52845     52846     52845     52847
     52846     52847     52848     52849     52848     52850     52849     52850
     52851     52852     52851     52853     52852     52853     52854     52855
     52854     52856     52855     52856     52857     52858     52857     52859
     52858     52859     52860     52861     52860     52862     52861     52862
     52863     52864     52863     52865     52864     52865     52866     52867
     52866     52868     52867     52868     52869     52870     52869     52871
     52870     52871     52872     52873     52872     52874     52873     52874
     52875     52876     52875     52877     52876     52877     52878     52879
     52878     52880     52879     52880     52881     52882     52881     52883
     52882     52883     52884     52885     52884     52886     52885     52886
     52887     52888     52887     52889     52888     52889     52890     52891
     52890     52892     52891     52892     52893     52894     52893     52895
     52894     52895     52896     52897     52896     52898     52897     52898
     52899     52900     52899     52901     52900     52901     52902     52903
     52902     52904     52903     52904     52905     52906     52905     52907
     52906     52907     52908     52909     52908     52910     52909     52910
     52911     52912     52911     52913     52912     52913     52914     52915
     52914     52916     52915     52916     52917     52918     52917     52919
     52918     52919     52920     52921     52920     52922     52921     52922
     52923     52924     52923     52925     52924     52925     52926     52927
     52926     52928     52927     52928     52929     52930     52929     52931
     52930     52931     52932     52933     52932     52934     52933     52934
     52935     52936     52935     52937     52936     52937     52938     52939
     52938     52940     52939     52940     52941     52942     52941     52943
     52942     52943     52944     52945     52944     52946     52945     52946
     52947     52948     52947     52949     52948     52949     52950     52951
     52950     52952     52951     52952     52953     52954     52953     52955
     52954     52955     52956     52957     52956     52958     52957     52958
     52959     52960     52959     52961     52960     52961     52962     52963
     52962     52964     52963     52964     52965     52966     52965     52967
     52966     52967     52968     52969     52968     52970     52969     52970
     52971     52972     52971     52973     52972     52973     52974     52975
     52974     52976     52975     52976     52977     52978     52977     52979
     52978     52979     52980     52981     52980     52982     52981     52982
     52983     52984     52983     52985     52984     52985     52986     52987
     52986     52988     52987     52988     52989     52990     52989     52991
     52990     52991     52992     52993     52992     52994     52993     52994
     52995     52996     52995     52997     52996     52997     52998     52999
     52998     53000     52999     53000     53001     53002     53001     53003
     53002     53003     53004     53005     53004     53006     53005     53006
     53007     53008     53007     53009     53008     53009     53010     53011
     53010     53012     53011     53012     53013     53014     53013     53015
     53014     53015     53016     53017     53016     53018     53017     53018
     53019     53020     53019     53021     53020     53021     53022     53023
     53022     53024     53023     53024     53025     53026     53025     53027
     53026     53027     53028     53029     53028     53030     53029     53030
     53031     53032     53031     53033     53032     53033     53034     53035
     53034     53036     53035     53036     53037     53038     53037     53039
     53038     53039     53040     53041     53040     53042     53041     53042
     53043     53044     53043     53045     53044     53045     53046     53047
     53046     53048     53047     53048     53049     53050     53049     53051
     53050     53051     53052     53053     53052     53054     53053     53054
     53055     53056     53055     53057     53056     53057     53058     53059
     53058     53060     53059     53060     53061     53062     53061     53063
     53062     53063     53064     53065     53064     53066     53065     53066
     53067     53068     53067     53069     53068     53069     53070     53071
     53070     53072     53071     53072     53073     53074     53073     53075
     53074     53075     53076     53077     53076     53078     53077     53078
     53079     53080     53079     53081     53080     53081     53082     53083
     53082     53084     53083     53084     53085     53086     53085     53087
     53086     53087     53088     53089     53088     53090     53089     53090
     53091     53092     53091     53093     53092     53093     53094     53095
     53094     53096     53095     53096     53097     53098     53097     53099
     53098     53099     53100     53101     53100     53102     53101     53102
     53103     53104     53103     53105     53104     53105     53106     53107
     53106     53108     53107     53108     53109     53110     53109     53111
     53110     53111     53112     53113     53112     53114     53113     53114
     53115     53116     53115     53117     53116     53117     53118     53119
     53118     53120     53119     53120     53121     53122     53121     53123
     53122     53123     53124     53125     53124     53126     53125     53126
     53127     53128     53127     53129     53128     53129     53130     53131
     53130     53132     53131     53132     53133     53134     53133     53135
     53134     53135     53136     53137     53136     53138     53137     53138
     53139     53140     53139     53141     53140     53141     53142     53143
     53142     53144     53143     53144     53145     53146     53145     53147
     53146     53147     53148     53149     53148     53150     53149     53150
     53151     53152     53151     53153     53152     53153     53154     53155
     53154     53156     53155     53156     53157     53158     53157     53159
     53158     53159     53160     53161     53160     53162     53161     53162
     53163     53164     53163     53165     53164     53165     53166     53167
     53166     53168     53167     53168     53169     53170     53169     53171
     53170     53171     53172     53173     53172     53174     53173     53174
     53175     53176     53175     53177     53176     53177     53178     53179
     53178     53180     53179     53180     53181     53182     53181     53183
     53182     53183     53184     53185     53184     53186     53185     53186
     53187     53188     53187     53189     53188     53189     53190     53191
     53190     53192     53191     53192     53193     53194     53193     53195
     53194     53195     53196     53197     53196     53198     53197     53198
     53199     53200     53199     53201     53200     53201     53202     53203
     53202     53204     53203     53204     53205     53206     53205     53207
     53206     53207     53208     53209     53208     53210     53209     53210
     53211     53212     53211     53213     53212     53213     53214     53215
     53214     53216     53215     53216     53217     53218     53217     53219
     53218     53219     53220     53221     53220     53222     53221     53222
     53223     53224     53223     53225     53224     53225     53226     53227
     53226     53228     53227     53228     53229     53230     53229     53231
     53230     53231     53232     53233     53232     53234     53233     53234
     53235     53236     53235     53237     53236     53237     53238     53239
     53238     53240     53239     53240     53241     53242     53241     53243
     53242     53243     53244     53245     53244     53246     53245     53246
     53247     53248     53247     53249     53248     53249     53250     53251
     53250     53252     53251     53252     53253     53254     53253     53255
     53254     53255     53256     53257     53256     53258     53257     53258
     53259     53260     53259     53261     53260     53261     53262     53263
     53262     53264     53263     53264     53265     53266     53265     53267
     53266     53267     53268     53269     53268     53270     53269     53270
     53271     53272     53271     53273     53272     53273     53274     53275
     53274     53276     53275     53276     53277     53278     53277     53279
     53278     53279     53280     53281     53280     53282     53281     53282
     53283     53284     53283     53285     53284     53285     53286     53287
     53286     53288     53287     53288     53289     53290     53289     53291
     53290     53291     53292     53293     53292     53294     53293     53294
     53295     53296     53295     53297     53296     53297     53298     53299
     53298     53300     53299     53300     53301     53302     53301     53303
     53302     53303     53304     53305     53304     53306     53305     53306
     53307     53308     53307     53309     53308     53309     53310     53311
     53310     53312     53311     53312     53313     53314     53313     53315
     53314     53315     53316     53317     53316     53318     53317     53318
     53319     53320     53319     53321     53320     53321     53322     53323
     53322     53324     53323     53324     53325     53326     53325     53327
     53326     53327     53328     53329     53328     53330     53329     53330
     53331     53332     53331     53333     53332     53333     53334     53335
     53334     53336     53335     53336     53337     53338     53337     53339
     53338     53339     53340     53341     53340     53342     53341     53342
     53343     53344     53343     53345     53344     53345     53346     53347
     53346     53348     53347     53348     53349     53350     53349     53351
     53350     53351     53352     53353     53352     53354     53353     53354
     53355     53356     53355     53357     53356     53357     53358     53359
     53358     53360     53359     53360     53361     53362     53361     53363
     53362     53363     53364     53365     53364     53366     53365     53366
     53367     53368     53367     53369     53368     53369     53370     53371
     53370     53372     53371     53372     53373     53374     53373     53375
     53374     53375     53376     53377     53376     53378     53377     53378
     53379     53380     53379     53381     53380     53381     53382     53383
     53382     53384     53383     53384     53385     53386     53385     53387
     53386     53387     53388     53389     53388     53390     53389     53390
     53391     53392     53391     53393     53392     53393     53394     53395
     53394     53396     53395     53396     53397     53398     53397     53399
     53398     53399     53400     53401     53400     53402     53401     53402
     53403     53404     53403     53405     53404     53405     53406     53407
     53406     53408     53407     53408     53409     53410     53409     53411
     53410     53411     53412     53413     53412     53414     53413     53414
     53415     53416     53415     53417     53416     53417     53418     53419
     53418     53420     53419     53420     53421     53422     53421     53423
     53422     53423     53424     53425     53424     53426     53425     53426
     53427     53428     53427     53429     53428     53429     53430     53431
     53430     53432     53431     53432     53433     53434     53433     53435
     53434     53435     53436     53437     53436     53438     53437     53438
     53439     53440     53439     53441     53440     53441     53442     53443
     53442     53444     53443     53444     53445     53446     53445     53447
     53446     53447     53448     53449     53448     53450     53449     53450
     53451     53452     53451     53453     53452     53453     53454     53455
     53454     53456     53455     53456     53457     53458     53457     53459
     53458     53459     53460     53461     53460     53462     53461     53462
     53463     53464     53463     53465     53464     53465     53466     53467
     53466     53468     53467     53468     53469     53470     53469     53471
     53470     53471     53472     53473     53472     53474     53473     53474
     53475     53476     53475     53477     53476     53477     53478     53479
     53478     53480     53479     53480     53481     53482     53481     53483
     53482     53483     53484     53485     53484     53486     53485     53486
     53487     53488     53487     53489     53488     53489     53490     53491
     53490     53492     53491     53492     53493     53494     53493     53495
     53494     53495     53496     53497     53496     53498     53497     53498
     53499     53500     53499     53501     53500     53501     53502     53503
     53502     53504     53503     53504     53505     53506     53505     53507
     53506     53507     53508     53509     53508     53510     53509     53510
     53511     53512     53511     53513     53512     53513     53514     53515
     53514     53516     53515     53516     53517     53518     53517     53519
     53518     53519     53520     53521     53520     53522     53521     53522
     53523     53524     53523     53525     53524     53525     53526     53527
     53526     53528     53527     53528     53529     53530     53529     53531
     53530     53531     53532     53533     53532     53534     53533     53534
     53535     53536     53535     53537     53536     53537     53538     53539
     53538     53540     53539     53540     53541     53542     53541     53543
     53542     53543     53544     53545     53544     53546     53545     53546
     53547     53548     53547     53549     53548     53549     53550     53551
     53550     53552     53551     53552     53553     53554     53553     53555
     53554     53555     53556     53557     53556     53558     53557     53558
     53559     53560     53559     53561     53560     53561     53562     53563
     53562     53564     53563     53564     53565     53566     53565     53567
     53566     53567     53568     53569     53568     53570     53569     53570
     53571     53572     53571     53573     53572     53573     53574     53575
     53574     53576     53575     53576     53577     53578     53577     53579
     53578     53579     53580     53581     53580     53582     53581     53582
     53583     53584     53583     53585     53584     53585     53586     53587
     53586     53588     53587     53588     53589     53590     53589     53591
     53590     53591     53592     53593     53592     53594     53593     53594
     53595     53596     53595     53597     53596     53597     53598     53599
     53598     53600     53599     53600     53601     53602     53601     53603
     53602     53603     53604     53605     53604     53606     53605     53606
     53607     53608     53607     53609     53608     53609     53610     53611
     53610     53612     53611     53612     53613     53614     53613     53615
     53614     53615     53616     53617     53616     53618     53617     53618
     53619     53620     53619     53621     53620     53621     53622     53623
     53622     53624     53623     53624     53625     53626     53625     53627
     53626     53627     53628     53629     53628     53630     53629     53630
     53631     53632     53631     53633     53632     53633     53634     53635
     53634     53636     53635     53636     53637     53638     53637     53639
     53638     53639     53640     53641     53640     53642     53641     53642
     53643     53644     53643     53645     53644     53645     53646     53647
     53646     53648     53647     53648     53649     53650     53649     53651
     53650     53651     53652     53653     53652     53654     53653     53654
     53655     53656     53655     53657     53656     53657     53658     53659
     53658     53660     53659     53660     53661     53662     53661     53663
     53662     53663     53664     53665     53664     53666     53665     53666
     53667     53668     53667     53669     53668     53669     53670     53671
     53670     53672     53671     53672     53673     53674     53673     53675
     53674     53675     53676     53677     53676     53678     53677     53678
     53679     53680     53679     53681     53680     53681     53682     53683
     53682     53684     53683     53684     53685     53686     53685     53687
     53686     53687     53688     53689     53688     53690     53689     53690
     53691     53692     53691     53693     53692     53693     53694     53695
     53694     53696     53695     53696     53697     53698     53697     53699
     53698     53699     53700     53701     53700     53702     53701     53702
     53703     53704     53703     53705     53704     53705     53706     53707
     53706     53708     53707     53708     53709     53710     53709     53711
     53710     53711     53712     53713     53712     53714     53713     53714
     53715     53716     53715     53717     53716     53717     53718     53719
     53718     53720     53719     53720     53721     53722     53721     53723
     53722     53723     53724     53725     53724     53726     53725     53726
     53727     53728     53727     53729     53728     53729     53730     53731
     53730     53732     53731     53732     53733     53734     53733     53735
     53734     53735     53736     53737     53736     53738     53737     53738
     53739     53740     53739     53741     53740     53741     53742     53743
     53742     53744     53743     53744     53745     53746     53745     53747
     53746     53747     53748     53749     53748     53750     53749     53750
     53751     53752     53751     53753     53752     53753     53754     53755
     53754     53756     53755     53756     53757     53758     53757     53759
     53758     53759     53760     53761     53760     53762     53761     53762
     53763     53764     53763     53765     53764     53765     53766     53767
     53766     53768     53767     53768     53769     53770     53769     53771
     53770     53771     53772     53773     53772     53774     53773     53774
     53775     53776     53775     53777     53776     53777     53778     53779
     53778     53780     53779     53780     53781     53782     53781     53783
     53782     53783     53784     53785     53784     53786     53785     53786
     53787     53788     53787     53789     53788     53789     53790     53791
     53790     53792     53791     53792     53793     53794     53793     53795
     53794     53795     53796     53797     53796     53798     53797     53798
     53799     53800     53799     53801     53800     53801     53802     53803
     53802     53804     53803     53804     53805     53806     53805     53807
     53806     53807     53808     53809     53808     53810     53809     53810
     53811     53812     53811     53813     53812     53813     53814     53815
     53814     53816     53815     53816     53817     53818     53817     53819
     53818     53819     53820     53821     53820     53822     53821     53822
     53823     53824     53823     53825     53824     53825     53826     53827
     53826     53828     53827     53828     53829     53830     53829     53831
     53830     53831     53832     53833     53832     53834     53833     53834
     53835     53836     53835     53837     53836     53837     53838     53839
     53838     53840     53839     53840     53841     53842     53841     53843
     53842     53843     53844     53845     53844     53846     53845     53846
     53847     53848     53847     53849     53848     53849     53850     53851
     53850     53852     53851     53852     53853     53854     53853     53855
     53854     53855     53856     53857     53856     53858     53857     53858
     53859     53860     53859     53861     53860     53861     53862     53863
     53862     53864     53863     53864     53865     53866     53865     53867
     53866     53867     53868     53869     53868     53870     53869     53870
     53871     53872     53871     53873     53872     53873     53874     53875
     53874     53876     53875     53876     53877     53878     53877     53879
     53878     53879     53880     53881     53880     53882     53881     53882
     53883     53884     53883     53885     53884     53885     53886     53887
     53886     53888     53887     53888     53889     53890     53889     53891
     53890     53891     53892     53893     53892     53894     53893     53894
     53895     53896     53895     53897     53896     53897     53898     53899
     53898     53900     53899     53900     53901     53902     53901     53903
     53902     53903     53904     53905     53904     53906     53905     53906
     53907     53908     53907     53909     53908     53909     53910     53911
     53910     53912     53911     53912     53913     53914     53913     53915
     53914     53915     53916     53917     53916     53918     53917     53918
     53919     53920     53919     53921     53920     53921     53922     53923
     53922     53924     53923     53924     53925     53926     53925     53927
     53926     53927     53928     53929     53928     53930     53929     53930
     53931     53932     53931     53933     53932     53933     53934     53935
     53934     53936     53935     53936     53937     53938     53937     53939
     53938     53939     53940     53941     53940     53942     53941     53942
     53943     53944     53943     53945     53944     53945     53946     53947
     53946     53948     53947     53948     53949     53950     53949     53951
     53950     53951     53952     53953     53952     53954     53953     53954
     53955     53956     53955     53957     53956     53957     53958     53959
     53958     53960     53959     53960     53961     53962     53961     53963
     53962     53963     53964     53965     53964     53966     53965     53966
     53967     53968     53967     53969     53968     53969     53970     53971
     53970     53972     53971     53972     53973     53974     53973     53975
     53974     53975     53976     53977     53976     53978     53977     53978
     53979     53980     53979     53981     53980     53981     53982     53983
     53982     53984     53983     53984     53985     53986     53985     53987
     53986     53987     53988     53989     53988     53990     53989     53990
     53991     53992     53991     53993     53992     53993     53994     53995
     53994     53996     53995     53996     53997     53998     53997     53999
     53998     53999     54000     54001     54000     54002     54001     54002
     54003     54004     54003     54005     54004     54005     54006     54007
     54006     54008     54007     54008     54009     54010     54009     54011
     54010     54011     54012     54013     54012     54014     54013     54014
     54015     54016     54015     54017     54016     54017     54018     54019
     54018     54020     54019     54020     54021     54022     54021     54023
     54022     54023     54024     54025     54024     54026     54025     54026
     54027     54028     54027     54029     54028     54029     54030     54031
     54030     54032     54031     54032     54033     54034     54033     54035
     54034     54035     54036     54037     54036     54038     54037     54038
     54039     54040     54039     54041     54040     54041     54042     54043
     54042     54044     54043     54044     54045     54046     54045     54047
     54046     54047     54048     54049     54048     54050     54049     54050
     54051     54052     54051     54053     54052     54053     54054     54055
     54054     54056     54055     54056     54057     54058     54057     54059
     54058     54059     54060     54061     54060     54062     54061     54062
     54063     54064     54063     54065     54064     54065     54066     54067
     54066     54068     54067     54068     54069     54070     54069     54071
     54070     54071     54072     54073     54072     54074     54073     54074
     54075     54076     54075     54077     54076     54077     54078     54079
     54078     54080     54079     54080     54081     54082     54081     54083
     54082     54083     54084     54085     54084     54086     54085     54086
     54087     54088     54087     54089     54088     54089     54090     54091
     54090     54092     54091     54092     54093     54094     54093     54095
     54094     54095     54096     54097     54096     54098     54097     54098
     54099     54100     54099     54101     54100     54101     54102     54103
     54102     54104     54103     54104     54105     54106     54105     54107
     54106     54107     54108     54109     54108     54110     54109     54110
     54111     54112     54111     54113     54112     54113     54114     54115
     54114     54116     54115     54116     54117     54118     54117     54119
     54118     54119     54120     54121     54120     54122     54121     54122
     54123     54124     54123     54125     54124     54125     54126     54127
     54126     54128     54127     54128     54129     54130     54129     54131
     54130     54131     54132     54133     54132     54134     54133     54134
     54135     54136     54135     54137     54136     54137     54138     54139
     54138     54140     54139     54140     54141     54142     54141     54143
     54142     54143     54144     54145     54144     54146     54145     54146
     54147     54148     54147     54149     54148     54149     54150     54151
     54150     54152     54151     54152     54153     54154     54153     54155
     54154     54155     54156     54157     54156     54158     54157     54158
     54159     54160     54159     54161     54160     54161     54162     54163
     54162     54164     54163     54164     54165     54166     54165     54167
     54166     54167     54168     54169     54168     54170     54169     54170
     54171     54172     54171     54173     54172     54173     54174     54175
     54174     54176     54175     54176     54177     54178     54177     54179
     54178     54179     54180     54181     54180     54182     54181     54182
     54183     54184     54183     54185     54184     54185     54186     54187
     54186     54188     54187     54188     54189     54190     54189     54191
     54190     54191     54192     54193     54192     54194     54193     54194
     54195     54196     54195     54197     54196     54197     54198     54199
     54198     54200     54199     54200     54201     54202     54201     54203
     54202     54203     54204     54205     54204     54206     54205     54206
     54207     54208     54207     54209     54208     54209     54210     54211
     54210     54212     54211     54212     54213     54214     54213     54215
     54214     54215     54216     54217     54216     54218     54217     54218
     54219     54220     54219     54221     54220     54221     54222     54223
     54222     54224     54223     54224     54225     54226     54225     54227
     54226     54227     54228     54229     54228     54230     54229     54230
     54231     54232     54231     54233     54232     54233     54234     54235
     54234     54236     54235     54236     54237     54238     54237     54239
     54238     54239     54240     54241     54240     54242     54241     54242
     54243     54244     54243     54245     54244     54245     54246     54247
     54246     54248     54247     54248     54249     54250     54249     54251
     54250     54251     54252     54253     54252     54254     54253     54254
     54255     54256     54255     54257     54256     54257     54258     54259
     54258     54260     54259     54260     54261     54262     54261     54263
     54262     54263     54264     54265     54264     54266     54265     54266
     54267     54268     54267     54269     54268     54269     54270     54271
     54270     54272     54271     54272     54273     54274     54273     54275
     54274     54275     54276     54277     54276     54278     54277     54278
     54279     54280     54279     54281     54280     54281     54282     54283
     54282     54284     54283     54284     54285     54286     54285     54287
     54286     54287     54288     54289     54288     54290     54289     54290
     54291     54292     54291     54293     54292     54293     54294     54295
     54294     54296     54295     54296     54297     54298     54297     54299
     54298     54299     54300     54301     54300     54302     54301     54302
     54303     54304     54303     54305     54304     54305     54306     54307
     54306     54308     54307     54308     54309     54310     54309     54311
     54310     54311     54312     54313     54312     54314     54313     54314
     54315     54316     54315     54317     54316     54317     54318     54319
     54318     54320     54319     54320     54321     54322     54321     54323
     54322     54323     54324     54325     54324     54326     54325     54326
     54327     54328     54327     54329     54328     54329     54330     54331
     54330     54332     54331     54332     54333     54334     54333     54335
     54334     54335     54336     54337     54336     54338     54337     54338
     54339     54340     54339     54341     54340     54341     54342     54343
     54342     54344     54343     54344     54345     54346     54345     54347
     54346     54347     54348     54349     54348     54350     54349     54350
     54351     54352     54351     54353     54352     54353     54354     54355
     54354     54356     54355     54356     54357     54358     54357     54359
     54358     54359     54360     54361     54360     54362     54361     54362
     54363     54364     54363     54365     54364     54365     54366     54367
     54366     54368     54367     54368     54369     54370     54369     54371
     54370     54371     54372     54373     54372     54374     54373     54374
     54375     54376     54375     54377     54376     54377     54378     54379
     54378     54380     54379     54380     54381     54382     54381     54383
     54382     54383     54384     54385     54384     54386     54385     54386
     54387     54388     54387     54389     54388     54389     54390     54391
     54390     54392     54391     54392     54393     54394     54393     54395
     54394     54395     54396     54397     54396     54398     54397     54398
     54399     54400     54399     54401     54400     54401     54402     54403
     54402     54404     54403     54404     54405     54406     54405     54407
     54406     54407     54408     54409     54408     54410     54409     54410
     54411     54412     54411     54413     54412     54413     54414     54415
     54414     54416     54415     54416     54417     54418     54417     54419
     54418     54419     54420     54421     54420     54422     54421     54422
     54423     54424     54423     54425     54424     54425     54426     54427
     54426     54428     54427     54428     54429     54430     54429     54431
     54430     54431     54432     54433     54432     54434     54433     54434
     54435     54436     54435     54437     54436     54437     54438     54439
     54438     54440     54439     54440     54441     54442     54441     54443
     54442     54443     54444     54445     54444     54446     54445     54446
     54447     54448     54447     54449     54448     54449     54450     54451
     54450     54452     54451     54452     54453     54454     54453     54455
     54454     54455     54456     54457     54456     54458     54457     54458
     54459     54460     54459     54461     54460     54461     54462     54463
     54462     54464     54463     54464     54465     54466     54465     54467
     54466     54467     54468     54469     54468     54470     54469     54470
     54471     54472     54471     54473     54472     54473     54474     54475
     54474     54476     54475     54476     54477     54478     54477     54479
     54478     54479     54480     54481     54480     54482     54481     54482
     54483     54484     54483     54485     54484     54485     54486     54487
     54486     54488     54487     54488     54489     54490     54489     54491
     54490     54491     54492     54493     54492     54494     54493     54494
     54495     54496     54495     54497     54496     54497     54498     54499
     54498     54500     54499     54500     54501     54502     54501     54503
     54502     54503     54504     54505     54504     54506     54505     54506
     54507     54508     54507     54509     54508     54509     54510     54511
     54510     54512     54511     54512     54513     54514     54513     54515
     54514     54515     54516     54517     54516     54518     54517     54518
     54519     54520     54519     54521     54520     54521     54522     54523
     54522     54524     54523     54524     54525     54526     54525     54527
     54526     54527     54528     54529     54528     54530     54529     54530
     54531     54532     54531     54533     54532     54533     54534     54535
     54534     54536     54535     54536     54537     54538     54537     54539
     54538     54539     54540     54541     54540     54542     54541     54542
     54543     54544     54543     54545     54544     54545     54546     54547
     54546     54548     54547     54548     54549     54550     54549     54551
     54550     54551     54552     54553     54552     54554     54553     54554
     54555     54556     54555     54557     54556     54557     54558     54559
     54558     54560     54559     54560     54561     54562     54561     54563
     54562     54563     54564     54565     54564     54566     54565     54566
     54567     54568     54567     54569     54568     54569     54570     54571
     54570     54572     54571     54572     54573     54574     54573     54575
     54574     54575     54576     54577     54576     54578     54577     54578
     54579     54580     54579     54581     54580     54581     54582     54583
     54582     54584     54583     54584     54585     54586     54585     54587
     54586     54587     54588     54589     54588     54590     54589     54590
     54591     54592     54591     54593     54592     54593     54594     54595
     54594     54596     54595     54596     54597     54598     54597     54599
     54598     54599     54600     54601     54600     54602     54601     54602
     54603     54604     54603     54605     54604     54605     54606     54607
     54606     54608     54607     54608     54609     54610     54609     54611
     54610     54611     54612     54613     54612     54614     54613     54614
     54615     54616     54615     54617     54616     54617     54618     54619
     54618     54620     54619     54620     54621     54622     54621     54623
     54622     54623     54624     54625     54624     54626     54625     54626
     54627     54628     54627     54629     54628     54629     54630     54631
     54630     54632     54631     54632     54633     54634     54633     54635
     54634     54635     54636     54637     54636     54638     54637     54638
     54639     54640     54639     54641     54640     54641     54642     54643
     54642     54644     54643     54644     54645     54646     54645     54647
     54646     54647     54648     54649     54648     54650     54649     54650
     54651     54652     54651     54653     54652     54653     54654     54655
     54654     54656     54655     54656     54657     54658     54657     54659
     54658     54659     54660     54661     54660     54662     54661     54662
     54663     54664     54663     54665     54664     54665     54666     54667
     54666     54668     54667     54668     54669     54670     54669     54671
     54670     54671     54672     54673     54672     54674     54673     54674
     54675     54676     54675     54677     54676     54677     54678     54679
     54678     54680     54679     54680     54681     54682     54681     54683
     54682     54683     54684     54685     54684     54686     54685     54686
     54687     54688     54687     54689     54688     54689     54690     54691
     54690     54692     54691     54692     54693     54694     54693     54695
     54694     54695     54696     54697     54696     54698     54697     54698
     54699     54700     54699     54701     54700     54701     54702     54703
     54702     54704     54703     54704     54705     54706     54705     54707
     54706     54707     54708     54709     54708     54710     54709     54710
     54711     54712     54711     54713     54712     54713     54714     54715
     54714     54716     54715     54716     54717     54718     54717     54719
     54718     54719     54720     54721     54720     54722     54721     54722
     54723     54724     54723     54725     54724     54725     54726     54727
     54726     54728     54727     54728     54729     54730     54729     54731
     54730     54731     54732     54733     54732     54734     54733     54734
     54735     54736     54735     54737     54736     54737     54738     54739
     54738     54740     54739     54740     54741     54742     54741     54743
     54742     54743     54744     54745     54744     54746     54745     54746
     54747     54748     54747     54749     54748     54749     54750     54751
     54750     54752     54751     54752     54753     54754     54753     54755
     54754     54755     54756     54757     54756     54758     54757     54758
     54759     54760     54759     54761     54760     54761     54762     54763
     54762     54764     54763     54764     54765     54766     54765     54767
     54766     54767     54768     54769     54768     54770     54769     54770
     54771     54772     54771     54773     54772     54773     54774     54775
     54774     54776     54775     54776     54777     54778     54777     54779
     54778     54779     54780     54781     54780     54782     54781     54782
     54783     54784     54783     54785     54784     54785     54786     54787
     54786     54788     54787     54788     54789     54790     54789     54791
     54790     54791     54792     54793     54792     54794     54793     54794
     54795     54796     54795     54797     54796     54797     54798     54799
     54798     54800     54799     54800     54801     54802     54801     54803
     54802     54803     54804     54805     54804     54806     54805     54806
     54807     54808     54807     54809     54808     54809     54810     54811
     54810     54812     54811     54812     54813     54814     54813     54815
     54814     54815     54816     54817     54816     54818     54817     54818
     54819     54820     54819     54821     54820     54821     54822     54823
     54822     54824     54823     54824     54825     54826     54825     54827
     54826     54827     54828     54829     54828     54830     54829     54830
     54831     54832     54831     54833     54832     54833     54834     54835
     54834     54836     54835     54836     54837     54838     54837     54839
     54838     54839     54840     54841     54840     54842     54841     54842
     54843     54844     54843     54845     54844     54845     54846     54847
     54846     54848     54847     54848     54849     54850     54849     54851
     54850     54851     54852     54853     54852     54854     54853     54854
     54855     54856     54855     54857     54856     54857     54858     54859
     54858     54860     54859     54860     54861     54862     54861     54863
     54862     54863     54864     54865     54864     54866     54865     54866
     54867     54868     54867     54869     54868     54869     54870     54871
     54870     54872     54871     54872     54873     54874     54873     54875
     54874     54875     54876     54877     54876     54878     54877     54878
     54879     54880     54879     54881     54880     54881     54882     54883
     54882     54884     54883     54884     54885     54886     54885     54887
     54886     54887     54888     54889     54888     54890     54889     54890
     54891     54892     54891     54893     54892     54893     54894     54895
     54894     54896     54895     54896     54897     54898     54897     54899
     54898     54899     54900     54901     54900     54902     54901     54902
     54903     54904     54903     54905     54904     54905     54906     54907
     54906     54908     54907     54908     54909     54910     54909     54911
     54910     54911     54912     54913     54912     54914     54913     54914
     54915     54916     54915     54917     54916     54917     54918     54919
     54918     54920     54919     54920     54921     54922     54921     54923
     54922     54923     54924     54925     54924     54926     54925     54926
     54927     54928     54927     54929     54928     54929     54930     54931
     54930     54932     54931     54932     54933     54934     54933     54935
     54934     54935     54936     54937     54936     54938     54937     54938
     54939     54940     54939     54941     54940     54941     54942     54943
     54942     54944     54943     54944     54945     54946     54945     54947
     54946     54947     54948     54949     54948     54950     54949     54950
     54951     54952     54951     54953     54952     54953     54954     54955
     54954     54956     54955     54956     54957     54958     54957     54959
     54958     54959     54960     54961     54960     54962     54961     54962
     54963     54964     54963     54965     54964     54965     54966     54967
     54966     54968     54967     54968     54969     54970     54969     54971
     54970     54971     54972     54973     54972     54974     54973     54974
     54975     54976     54975     54977     54976     54977     54978     54979
     54978     54980     54979     54980     54981     54982     54981     54983
     54982     54983     54984     54985     54984     54986     54985     54986
     54987     54988     54987     54989     54988     54989     54990     54991
     54990     54992     54991     54992     54993     54994     54993     54995
     54994     54995     54996     54997     54996     54998     54997     54998
     54999     55000     54999     55001     55000     55001     55002     55003
     55002     55004     55003     55004     55005     55006     55005     55007
     55006     55007     55008     55009     55008     55010     55009     55010
     55011     55012     55011     55013     55012     55013     55014     55015
     55014     55016     55015     55016     55017     55018     55017     55019
     55018     55019     55020     55021     55020     55022     55021     55022
     55023     55024     55023     55025     55024     55025     55026     55027
     55026     55028     55027     55028     55029     55030     55029     55031
     55030     55031     55032     55033     55032     55034     55033     55034
     55035     55036     55035     55037     55036     55037     55038     55039
     55038     55040     55039     55040     55041     55042     55041     55043
     55042     55043     55044     55045     55044     55046     55045     55046
     55047     55048     55047     55049     55048     55049     55050     55051
     55050     55052     55051     55052     55053     55054     55053     55055
     55054     55055     55056     55057     55056     55058     55057     55058
     55059     55060     55059     55061     55060     55061     55062     55063
     55062     55064     55063     55064     55065     55066     55065     55067
     55066     55067     55068     55069     55068     55070     55069     55070
     55071     55072     55071     55073     55072     55073     55074     55075
     55074     55076     55075     55076     55077     55078     55077     55079
     55078     55079     55080     55081     55080     55082     55081     55082
     55083     55084     55083     55085     55084     55085     55086     55087
     55086     55088     55087     55088     55089     55090     55089     55091
     55090     55091     55092     55093     55092     55094     55093     55094
     55095     55096     55095     55097     55096     55097     55098     55099
     55098     55100     55099     55100     55101     55102     55101     55103
     55102     55103     55104     55105     55104     55106     55105     55106
     55107     55108     55107     55109     55108     55109     55110     55111
     55110     55112     55111     55112     55113     55114     55113     55115
     55114     55115     55116     55117     55116     55118     55117     55118
     55119     55120     55119     55121     55120     55121     55122     55123
     55122     55124     55123     55124     55125     55126     55125     55127
     55126     55127     55128     55129     55128     55130     55129     55130
     55131     55132     55131     55133     55132     55133     55134     55135
     55134     55136     55135     55136     55137     55138     55137     55139
     55138     55139     55140     55141     55140     55142     55141     55142
     55143     55144     55143     55145     55144     55145     55146     55147
     55146     55148     55147     55148     55149     55150     55149     55151
     55150     55151     55152     55153     55152     55154     55153     55154
     55155     55156     55155     55157     55156     55157     55158     55159
     55158     55160     55159     55160     55161     55162     55161     55163
     55162     55163     55164     55165     55164     55166     55165     55166
     55167     55168     55167     55169     55168     55169     55170     55171
     55170     55172     55171     55172     55173     55174     55173     55175
     55174     55175     55176     55177     55176     55178     55177     55178
     55179     55180     55179     55181     55180     55181     55182     55183
     55182     55184     55183     55184     55185     55186     55185     55187
     55186     55187     55188     55189     55188     55190     55189     55190
     55191     55192     55191     55193     55192     55193     55194     55195
     55194     55196     55195     55196     55197     55198     55197     55199
     55198     55199     55200     55201     55200     55202     55201     55202
     55203     55204     55203     55205     55204     55205     55206     55207
     55206     55208     55207     55208     55209     55210     55209     55211
     55210     55211     55212     55213     55212     55214     55213     55214
     55215     55216     55215     55217     55216     55217     55218     55219
     55218     55220     55219     55220     55221     55222     55221     55223
     55222     55223     55224     55225     55224     55226     55225     55226
     55227     55228     55227     55229     55228     55229     55230     55231
     55230     55232     55231     55232     55233     55234     55233     55235
     55234     55235     55236     55237     55236     55238     55237     55238
     55239     55240     55239     55241     55240     55241     55242     55243
     55242     55244     55243     55244     55245     55246     55245     55247
     55246     55247     55248     55249     55248     55250     55249     55250
     55251     55252     55251     55253     55252     55253     55254     55255
     55254     55256     55255     55256     55257     55258     55257     55259
     55258     55259     55260     55261     55260     55262     55261     55262
     55263     55264     55263     55265     55264     55265     55266     55267
     55266     55268     55267     55268     55269     55270     55269     55271
     55270     55271     55272     55273     55272     55274     55273     55274
     55275     55276     55275     55277     55276     55277     55278     55279
     55278     55280     55279     55280     55281     55282     55281     55283
     55282     55283     55284     55285     55284     55286     55285     55286
     55287     55288     55287     55289     55288     55289     55290     55291
     55290     55292     55291     55292     55293     55294     55293     55295
     55294     55295     55296     55297     55296     55298     55297     55298
     55299     55300     55299     55301     55300     55301     55302     55303
     55302     55304     55303     55304     55305     55306     55305     55307
     55306     55307     55308     55309     55308     55310     55309     55310
     55311     55312     55311     55313     55312     55313     55314     55315
     55314     55316     55315     55316     55317     55318     55317     55319
     55318     55319     55320     55321     55320     55322     55321     55322
     55323     55324     55323     55325     55324     55325     55326     55327
     55326     55328     55327     55328     55329     55330     55329     55331
     55330     55331     55332     55333     55332     55334     55333     55334
     55335     55336     55335     55337     55336     55337     55338     55339
     55338     55340     55339     55340     55341     55342     55341     55343
     55342     55343     55344     55345     55344     55346     55345     55346
     55347     55348     55347     55349     55348     55349     55350     55351
     55350     55352     55351     55352     55353     55354     55353     55355
     55354     55355     55356     55357     55356     55358     55357     55358
     55359     55360     55359     55361     55360     55361     55362     55363
     55362     55364     55363     55364     55365     55366     55365     55367
     55366     55367     55368     55369     55368     55370     55369     55370
     55371     55372     55371     55373     55372     55373     55374     55375
     55374     55376     55375     55376     55377     55378     55377     55379
     55378     55379     55380     55381     55380     55382     55381     55382
     55383     55384     55383     55385     55384     55385     55386     55387
     55386     55388     55387     55388     55389     55390     55389     55391
     55390     55391     55392     55393     55392     55394     55393     55394
     55395     55396     55395     55397     55396     55397     55398     55399
     55398     55400     55399     55400     55401     55402     55401     55403
     55402     55403     55404     55405     55404     55406     55405     55406
     55407     55408     55407     55409     55408     55409     55410     55411
     55410     55412     55411     55412     55413     55414     55413     55415
     55414     55415     55416     55417     55416     55418     55417     55418
     55419     55420     55419     55421     55420     55421     55422     55423
     55422     55424     55423     55424     55425     55426     55425     55427
     55426     55427     55428     55429     55428     55430     55429     55430
     55431     55432     55431     55433     55432     55433     55434     55435
     55434     55436     55435     55436     55437     55438     55437     55439
     55438     55439     55440     55441     55440     55442     55441     55442
     55443     55444     55443     55445     55444     55445     55446     55447
     55446     55448     55447     55448     55449     55450     55449     55451
     55450     55451     55452     55453     55452     55454     55453     55454
     55455     55456     55455     55457     55456     55457     55458     55459
     55458     55460     55459     55460     55461     55462     55461     55463
     55462     55463     55464     55465     55464     55466     55465     55466
     55467     55468     55467     55469     55468     55469     55470     55471
     55470     55472     55471     55472     55473     55474     55473     55475
     55474     55475     55476     55477     55476     55478     55477     55478
     55479     55480     55479     55481     55480     55481     55482     55483
     55482     55484     55483     55484     55485     55486     55485     55487
     55486     55487     55488     55489     55488     55490     55489     55490
     55491     55492     55491     55493     55492     55493     55494     55495
     55494     55496     55495     55496     55497     55498     55497     55499
     55498     55499     55500     55501     55500     55502     55501     55502
     55503     55504     55503     55505     55504     55505     55506     55507
     55506     55508     55507     55508     55509     55510     55509     55511
     55510     55511     55512     55513     55512     55514     55513     55514
     55515     55516     55515     55517     55516     55517     55518     55519
     55518     55520     55519     55520     55521     55522     55521     55523
     55522     55523     55524     55525     55524     55526     55525     55526
     55527     55528     55527     55529     55528     55529     55530     55531
     55530     55532     55531     55532     55533     55534     55533     55535
     55534     55535     55536     55537     55536     55538     55537     55538
     55539     55540     55539     55541     55540     55541     55542     55543
     55542     55544     55543     55544     55545     55546     55545     55547
     55546     55547     55548     55549     55548     55550     55549     55550
     55551     55552     55551     55553     55552     55553     55554     55555
     55554     55556     55555     55556     55557     55558     55557     55559
     55558     55559     55560     55561     55560     55562     55561     55562
     55563     55564     55563     55565     55564     55565     55566     55567
     55566     55568     55567     55568     55569     55570     55569     55571
     55570     55571     55572     55573     55572     55574     55573     55574
     55575     55576     55575     55577     55576     55577     55578     55579
     55578     55580     55579     55580     55581     55582     55581     55583
     55582     55583     55584     55585     55584     55586     55585     55586
     55587     55588     55587     55589     55588     55589     55590     55591
     55590     55592     55591     55592     55593     55594     55593     55595
     55594     55595     55596     55597     55596     55598     55597     55598
     55599     55600     55599     55601     55600     55601     55602     55603
     55602     55604     55603     55604     55605     55606     55605     55607
     55606     55607     55608     55609     55608     55610     55609     55610
     55611     55612     55611     55613     55612     55613     55614     55615
     55614     55616     55615     55616     55617     55618     55617     55619
     55618     55619     55620     55621     55620     55622     55621     55622
     55623     55624     55623     55625     55624     55625     55626     55627
     55626     55628     55627     55628     55629     55630     55629     55631
     55630     55631     55632     55633     55632     55634     55633     55634
     55635     55636     55635     55637     55636     55637     55638     55639
     55638     55640     55639     55640     55641     55642     55641     55643
     55642     55643     55644     55645     55644     55646     55645     55646
     55647     55648     55647     55649     55648     55649     55650     55651
     55650     55652     55651     55652     55653     55654     55653     55655
     55654     55655     55656     55657     55656     55658     55657     55658
     55659     55660     55659     55661     55660     55661     55662     55663
     55662     55664     55663     55664     55665     55666     55665     55667
     55666     55667     55668     55669     55668     55670     55669     55670
     55671     55672     55671     55673     55672     55673     55674     55675
     55674     55676     55675     55676     55677     55678     55677     55679
     55678     55679     55680     55681     55680     55682     55681     55682
     55683     55684     55683     55685     55684     55685     55686     55687
     55686     55688     55687     55688     55689     55690     55689     55691
     55690     55691     55692     55693     55692     55694     55693     55694
     55695     55696     55695     55697     55696     55697     55698     55699
     55698     55700     55699     55700     55701     55702     55701     55703
     55702     55703     55704     55705     55704     55706     55705     55706
     55707     55708     55707     55709     55708     55709     55710     55711
     55710     55712     55711     55712     55713     55714     55713     55715
     55714     55715     55716     55717     55716     55718     55717     55718
     55719     55720     55719     55721     55720     55721     55722     55723
     55722     55724     55723     55724     55725     55726     55725     55727
     55726     55727     55728     55729     55728     55730     55729     55730
     55731     55732     55731     55733     55732     55733     55734     55735
     55734     55736     55735     55736     55737     55738     55737     55739
     55738     55739     55740     55741     55740     55742     55741     55742
     55743     55744     55743     55745     55744     55745     55746     55747
     55746     55748     55747     55748     55749     55750     55749     55751
     55750     55751     55752     55753     55752     55754     55753     55754
     55755     55756     55755     55757     55756     55757     55758     55759
     55758     55760     55759     55760     55761     55762     55761     55763
     55762     55763     55764     55765     55764     55766     55765     55766
     55767     55768     55767     55769     55768     55769     55770     55771
     55770     55772     55771     55772     55773     55774     55773     55775
     55774     55775     55776     55777     55776     55778     55777     55778
     55779     55780     55779     55781     55780     55781     55782     55783
     55782     55784     55783     55784     55785     55786     55785     55787
     55786     55787     55788     55789     55788     55790     55789     55790
     55791     55792     55791     55793     55792     55793     55794     55795
     55794     55796     55795     55796     55797     55798     55797     55799
     55798     55799     55800     55801     55800     55802     55801     55802
     55803     55804     55803     55805     55804     55805     55806     55807
     55806     55808     55807     55808     55809     55810     55809     55811
     55810     55811     55812     55813     55812     55814     55813     55814
     55815     55816     55815     55817     55816     55817     55818     55819
     55818     55820     55819     55820     55821     55822     55821     55823
     55822     55823     55824     55825     55824     55826     55825     55826
     55827     55828     55827     55829     55828     55829     55830     55831
     55830     55832     55831     55832     55833     55834     55833     55835
     55834     55835     55836     55837     55836     55838     55837     55838
     55839     55840     55839     55841     55840     55841     55842     55843
     55842     55844     55843     55844     55845     55846     55845     55847
     55846     55847     55848     55849     55848     55850     55849     55850
     55851     55852     55851     55853     55852     55853     55854     55855
     55854     55856     55855     55856     55857     55858     55857     55859
     55858     55859     55860     55861     55860     55862     55861     55862
     55863     55864     55863     55865     55864     55865     55866     55867
     55866     55868     55867     55868     55869     55870     55869     55871
     55870     55871     55872     55873     55872     55874     55873     55874
     55875     55876     55875     55877     55876     55877     55878     55879
     55878     55880     55879     55880     55881     55882     55881     55883
     55882     55883     55884     55885     55884     55886     55885     55886
     55887     55888     55887     55889     55888     55889     55890     55891
     55890     55892     55891     55892     55893     55894     55893     55895
     55894     55895     55896     55897     55896     55898     55897     55898
     55899     55900     55899     55901     55900     55901     55902     55903
     55902     55904     55903     55904     55905     55906     55905     55907
     55906     55907     55908     55909     55908     55910     55909     55910
     55911     55912     55911     55913     55912     55913     55914     55915
     55914     55916     55915     55916     55917     55918     55917     55919
     55918     55919     55920     55921     55920     55922     55921     55922
     55923     55924     55923     55925     55924     55925     55926     55927
     55926     55928     55927     55928     55929     55930     55929     55931
     55930     55931     55932     55933     55932     55934     55933     55934
     55935     55936     55935     55937     55936     55937     55938     55939
     55938     55940     55939     55940     55941     55942     55941     55943
     55942     55943     55944     55945     55944     55946     55945     55946
     55947     55948     55947     55949     55948     55949     55950     55951
     55950     55952     55951     55952     55953     55954     55953     55955
     55954     55955     55956     55957     55956     55958     55957     55958
     55959     55960     55959     55961     55960     55961     55962     55963
     55962     55964     55963     55964     55965     55966     55965     55967
     55966     55967     55968     55969     55968     55970     55969     55970
     55971     55972     55971     55973     55972     55973     55974     55975
     55974     55976     55975     55976     55977     55978     55977     55979
     55978     55979     55980     55981     55980     55982     55981     55982
     55983     55984     55983     55985     55984     55985     55986     55987
     55986     55988     55987     55988     55989     55990     55989     55991
     55990     55991     55992     55993     55992     55994     55993     55994
     55995     55996     55995     55997     55996     55997     55998     55999
     55998     56000     55999     56000     56001     56002     56001     56003
     56002     56003     56004     56005     56004     56006     56005     56006
     56007     56008     56007     56009     56008     56009     56010     56011
     56010     56012     56011     56012     56013     56014     56013     56015
     56014     56015     56016     56017     56016     56018     56017     56018
     56019     56020     56019     56021     56020     56021     56022     56023
     56022     56024     56023     56024     56025     56026     56025     56027
     56026     56027     56028     56029     56028     56030     56029     56030
     56031     56032     56031     56033     56032     56033     56034     56035
     56034     56036     56035     56036     56037     56038     56037     56039
     56038     56039     56040     56041     56040     56042     56041     56042
     56043     56044     56043     56045     56044     56045     56046     56047
     56046     56048     56047     56048     56049     56050     56049     56051
     56050     56051     56052     56053     56052     56054     56053     56054
     56055     56056     56055     56057     56056     56057     56058     56059
     56058     56060     56059     56060     56061     56062     56061     56063
     56062     56063     56064     56065     56064     56066     56065     56066
     56067     56068     56067     56069     56068     56069     56070     56071
     56070     56072     56071     56072     56073     56074     56073     56075
     56074     56075     56076     56077     56076     56078     56077     56078
     56079     56080     56079     56081     56080     56081     56082     56083
     56082     56084     56083     56084     56085     56086     56085     56087
     56086     56087     56088     56089     56088     56090     56089     56090
     56091     56092     56091     56093     56092     56093     56094     56095
     56094     56096     56095     56096     56097     56098     56097     56099
     56098     56099     56100     56101     56100     56102     56101     56102
     56103     56104     56103     56105     56104     56105     56106     56107
     56106     56108     56107     56108     56109     56110     56109     56111
     56110     56111     56112     56113     56112     56114     56113     56114
     56115     56116     56115     56117     56116     56117     56118     56119
     56118     56120     56119     56120     56121     56122     56121     56123
     56122     56123     56124     56125     56124     56126     56125     56126
     56127     56128     56127     56129     56128     56129     56130     56131
     56130     56132     56131     56132     56133     56134     56133     56135
     56134     56135     56136     56137     56136     56138     56137     56138
     56139     56140     56139     56141     56140     56141     56142     56143
     56142     56144     56143     56144     56145     56146     56145     56147
     56146     56147     56148     56149     56148     56150     56149     56150
     56151     56152     56151     56153     56152     56153     56154     56155
     56154     56156     56155     56156     56157     56158     56157     56159
     56158     56159     56160     56161     56160     56162     56161     56162
     56163     56164     56163     56165     56164     56165     56166     56167
     56166     56168     56167     56168     56169     56170     56169     56171
     56170     56171     56172     56173     56172     56174     56173     56174
     56175     56176     56175     56177     56176     56177     56178     56179
     56178     56180     56179     56180     56181     56182     56181     56183
     56182     56183     56184     56185     56184     56186     56185     56186
     56187     56188     56187     56189     56188     56189     56190     56191
     56190     56192     56191     56192     56193     56194     56193     56195
     56194     56195     56196     56197     56196     56198     56197     56198
     56199     56200     56199     56201     56200     56201     56202     56203
     56202     56204     56203     56204     56205     56206     56205     56207
     56206     56207     56208     56209     56208     56210     56209     56210
     56211     56212     56211     56213     56212     56213     56214     56215
     56214     56216     56215     56216     56217     56218     56217     56219
     56218     56219     56220     56221     56220     56222     56221     56222
     56223     56224     56223     56225     56224     56225     56226     56227
     56226     56228     56227     56228     56229     56230     56229     56231
     56230     56231     56232     56233     56232     56234     56233     56234
     56235     56236     56235     56237     56236     56237     56238     56239
     56238     56240     56239     56240     56241     56242     56241     56243
     56242     56243     56244     56245     56244     56246     56245     56246
     56247     56248     56247     56249     56248     56249     56250     56251
     56250     56252     56251     56252     56253     56254     56253     56255
     56254     56255     56256     56257     56256     56258     56257     56258
     56259     56260     56259     56261     56260     56261     56262     56263
     56262     56264     56263     56264     56265     56266     56265     56267
     56266     56267     56268     56269     56268     56270     56269     56270
     56271     56272     56271     56273     56272     56273     56274     56275
     56274     56276     56275     56276     56277     56278     56277     56279
     56278     56279     56280     56281     56280     56282     56281     56282
     56283     56284     56283     56285     56284     56285     56286     56287
     56286     56288     56287     56288     56289     56290     56289     56291
     56290     56291     56292     56293     56292     56294     56293     56294
     56295     56296     56295     56297     56296     56297     56298     56299
     56298     56300     56299     56300     56301     56302     56301     56303
     56302     56303     56304     56305     56304     56306     56305     56306
     56307     56308     56307     56309     56308     56309     56310     56311
     56310     56312     56311     56312     56313     56314     56313     56315
     56314     56315     56316     56317     56316     56318     56317     56318
     56319     56320     56319     56321     56320     56321     56322     56323
     56322     56324     56323     56324     56325     56326     56325     56327
     56326     56327     56328     56329     56328     56330     56329     56330
     56331     56332     56331     56333     56332     56333     56334     56335
     56334     56336     56335     56336     56337     56338     56337     56339
     56338     56339     56340     56341     56340     56342     56341     56342
     56343     56344     56343     56345     56344     56345     56346     56347
     56346     56348     56347     56348     56349     56350     56349     56351
     56350     56351     56352     56353     56352     56354     56353     56354
     56355     56356     56355     56357     56356     56357     56358     56359
     56358     56360     56359     56360     56361     56362     56361     56363
     56362     56363     56364     56365     56364     56366     56365     56366
     56367     56368     56367     56369     56368     56369     56370     56371
     56370     56372     56371     56372     56373     56374     56373     56375
     56374     56375     56376     56377     56376     56378     56377     56378
     56379     56380     56379     56381     56380     56381     56382     56383
     56382     56384     56383     56384     56385     56386     56385     56387
     56386     56387     56388     56389     56388     56390     56389     56390
     56391     56392     56391     56393     56392     56393     56394     56395
     56394     56396     56395     56396     56397     56398     56397     56399
     56398     56399     56400     56401     56400     56402     56401     56402
     56403     56404     56403     56405     56404     56405     56406     56407
     56406     56408     56407     56408     56409     56410     56409     56411
     56410     56411     56412     56413     56412     56414     56413     56414
     56415     56416     56415     56417     56416     56417     56418     56419
     56418     56420     56419     56420     56421     56422     56421     56423
     56422     56423     56424     56425     56424     56426     56425     56426
     56427     56428     56427     56429     56428     56429     56430     56431
     56430     56432     56431     56432     56433     56434     56433     56435
     56434     56435     56436     56437     56436     56438     56437     56438
     56439     56440     56439     56441     56440     56441     56442     56443
     56442     56444     56443     56444     56445     56446     56445     56447
     56446     56447     56448     56449     56448     56450     56449     56450
     56451     56452     56451     56453     56452     56453     56454     56455
     56454     56456     56455     56456     56457     56458     56457     56459
     56458     56459     56460     56461     56460     56462     56461     56462
     56463     56464     56463     56465     56464     56465     56466     56467
     56466     56468     56467     56468     56469     56470     56469     56471
     56470     56471     56472     56473     56472     56474     56473     56474
     56475     56476     56475     56477     56476     56477     56478     56479
     56478     56480     56479     56480     56481     56482     56481     56483
     56482     56483     56484     56485     56484     56486     56485     56486
     56487     56488     56487     56489     56488     56489     56490     56491
     56490     56492     56491     56492     56493     56494     56493     56495
     56494     56495     56496     56497     56496     56498     56497     56498
     56499     56500     56499     56501     56500     56501     56502     56503
     56502     56504     56503     56504     56505     56506     56505     56507
     56506     56507     56508     56509     56508     56510     56509     56510
     56511     56512     56511     56513     56512     56513     56514     56515
     56514     56516     56515     56516     56517     56518     56517     56519
     56518     56519     56520     56521     56520     56522     56521     56522
     56523     56524     56523     56525     56524     56525     56526     56527
     56526     56528     56527     56528     56529     56530     56529     56531
     56530     56531     56532     56533     56532     56534     56533     56534
     56535     56536     56535     56537     56536     56537     56538     56539
     56538     56540     56539     56540     56541     56542     56541     56543
     56542     56543     56544     56545     56544     56546     56545     56546
     56547     56548     56547     56549     56548     56549     56550     56551
     56550     56552     56551     56552     56553     56554     56553     56555
     56554     56555     56556     56557     56556     56558     56557     56558
     56559     56560     56559     56561     56560     56561     56562     56563
     56562     56564     56563     56564     56565     56566     56565     56567
     56566     56567     56568     56569     56568     56570     56569     56570
     56571     56572     56571     56573     56572     56573     56574     56575
     56574     56576     56575     56576     56577     56578     56577     56579
     56578     56579     56580     56581     56580     56582     56581     56582
     56583     56584     56583     56585     56584     56585     56586     56587
     56586     56588     56587     56588     56589     56590     56589     56591
     56590     56591     56592     56593     56592     56594     56593     56594
     56595     56596     56595     56597     56596     56597     56598     56599
     56598     56600     56599     56600     56601     56602     56601     56603
     56602     56603     56604     56605     56604     56606     56605     56606
     56607     56608     56607     56609     56608     56609     56610     56611
     56610     56612     56611     56612     56613     56614     56613     56615
     56614     56615     56616     56617     56616     56618     56617     56618
     56619     56620     56619     56621     56620     56621     56622     56623
     56622     56624     56623     56624     56625     56626     56625     56627
     56626     56627     56628     56629     56628     56630     56629     56630
     56631     56632     56631     56633     56632     56633     56634     56635
     56634     56636     56635     56636     56637     56638     56637     56639
     56638     56639     56640     56641     56640     56642     56641     56642
     56643     56644     56643     56645     56644     56645     56646     56647
     56646     56648     56647     56648     56649     56650     56649     56651
     56650     56651     56652     56653     56652     56654     56653     56654
     56655     56656     56655     56657     56656     56657     56658     56659
     56658     56660     56659     56660     56661     56662     56661     56663
     56662     56663     56664     56665     56664     56666     56665     56666
     56667     56668     56667     56669     56668     56669     56670     56671
     56670     56672     56671     56672     56673     56674     56673     56675
     56674     56675     56676     56677     56676     56678     56677     56678
     56679     56680     56679     56681     56680     56681     56682     56683
     56682     56684     56683     56684     56685     56686     56685     56687
     56686     56687     56688     56689     56688     56690     56689     56690
     56691     56692     56691     56693     56692     56693     56694     56695
     56694     56696     56695     56696     56697     56698     56697     56699
     56698     56699     56700     56701     56700     56702     56701     56702
     56703     56704     56703     56705     56704     56705     56706     56707
     56706     56708     56707     56708     56709     56710     56709     56711
     56710     56711     56712     56713     56712     56714     56713     56714
     56715     56716     56715     56717     56716     56717     56718     56719
     56718     56720     56719     56720     56721     56722     56721     56723
     56722     56723     56724     56725     56724     56726     56725     56726
     56727     56728     56727     56729     56728     56729     56730     56731
     56730     56732     56731     56732     56733     56734     56733     56735
     56734     56735     56736     56737     56736     56738     56737     56738
     56739     56740     56739     56741     56740     56741     56742     56743
     56742     56744     56743     56744     56745     56746     56745     56747
     56746     56747     56748     56749     56748     56750     56749     56750
     56751     56752     56751     56753     56752     56753     56754     56755
     56754     56756     56755     56756     56757     56758     56757     56759
     56758     56759     56760     56761     56760     56762     56761     56762
     56763     56764     56763     56765     56764     56765     56766     56767
     56766     56768     56767     56768     56769     56770     56769     56771
     56770     56771     56772     56773     56772     56774     56773     56774
     56775     56776     56775     56777     56776     56777     56778     56779
     56778     56780     56779     56780     56781     56782     56781     56783
     56782     56783     56784     56785     56784     56786     56785     56786
     56787     56788     56787     56789     56788     56789     56790     56791
     56790     56792     56791     56792     56793     56794     56793     56795
     56794     56795     56796     56797     56796     56798     56797     56798
     56799     56800     56799     56801     56800     56801     56802     56803
     56802     56804     56803     56804     56805     56806     56805     56807
     56806     56807     56808     56809     56808     56810     56809     56810
     56811     56812     56811     56813     56812     56813     56814     56815
     56814     56816     56815     56816     56817     56818     56817     56819
     56818     56819     56820     56821     56820     56822     56821     56822
     56823     56824     56823     56825     56824     56825     56826     56827
     56826     56828     56827     56828     56829     56830     56829     56831
     56830     56831     56832     56833     56832     56834     56833     56834
     56835     56836     56835     56837     56836     56837     56838     56839
     56838     56840     56839     56840     56841     56842     56841     56843
     56842     56843     56844     56845     56844     56846     56845     56846
     56847     56848     56847     56849     56848     56849     56850     56851
     56850     56852     56851     56852     56853     56854     56853     56855
     56854     56855     56856     56857     56856     56858     56857     56858
     56859     56860     56859     56861     56860     56861     56862     56863
     56862     56864     56863     56864     56865     56866     56865     56867
     56866     56867     56868     56869     56868     56870     56869     56870
     56871     56872     56871     56873     56872     56873     56874     56875
     56874     56876     56875     56876     56877     56878     56877     56879
     56878     56879     56880     56881     56880     56882     56881     56882
     56883     56884     56883     56885     56884     56885     56886     56887
     56886     56888     56887     56888     56889     56890     56889     56891
     56890     56891     56892     56893     56892     56894     56893     56894
     56895     56896     56895     56897     56896     56897     56898     56899
     56898     56900     56899     56900     56901     56902     56901     56903
     56902     56903     56904     56905     56904     56906     56905     56906
     56907     56908     56907     56909     56908     56909     56910     56911
     56910     56912     56911     56912     56913     56914     56913     56915
     56914     56915     56916     56917     56916     56918     56917     56918
     56919     56920     56919     56921     56920     56921     56922     56923
     56922     56924     56923     56924     56925     56926     56925     56927
     56926     56927     56928     56929     56928     56930     56929     56930
     56931     56932     56931     56933     56932     56933     56934     56935
     56934     56936     56935     56936     56937     56938     56937     56939
     56938     56939     56940     56941     56940     56942     56941     56942
     56943     56944     56943     56945     56944     56945     56946     56947
     56946     56948     56947     56948     56949     56950     56949     56951
     56950     56951     56952     56953     56952     56954     56953     56954
     56955     56956     56955     56957     56956     56957     56958     56959
     56958     56960     56959     56960     56961     56962     56961     56963
     56962     56963     56964     56965     56964     56966     56965     56966
     56967     56968     56967     56969     56968     56969     56970     56971
     56970     56972     56971     56972     56973     56974     56973     56975
     56974     56975     56976     56977     56976     56978     56977     56978
     56979     56980     56979     56981     56980     56981     56982     56983
     56982     56984     56983     56984     56985     56986     56985     56987
     56986     56987     56988     56989     56988     56990     56989     56990
     56991     56992     56991     56993     56992     56993     56994     56995
     56994     56996     56995     56996     56997     56998     56997     56999
     56998     56999     57000     57001     57000     57002     57001     57002
     57003     57004     57003     57005     57004     57005     57006     57007
     57006     57008     57007     57008     57009     57010     57009     57011
     57010     57011     57012     57013     57012     57014     57013     57014
     57015     57016     57015     57017     57016     57017     57018     57019
     57018     57020     57019     57020     57021     57022     57021     57023
     57022     57023     57024     57025     57024     57026     57025     57026
     57027     57028     57027     57029     57028     57029     57030     57031
     57030     57032     57031     57032     57033     57034     57033     57035
     57034     57035     57036     57037     57036     57038     57037     57038
     57039     57040     57039     57041     57040     57041     57042     57043
     57042     57044     57043     57044     57045     57046     57045     57047
     57046     57047     57048     57049     57048     57050     57049     57050
     57051     57052     57051     57053     57052     57053     57054     57055
     57054     57056     57055     57056     57057     57058     57057     57059
     57058     57059     57060     57061     57060     57062     57061     57062
     57063     57064     57063     57065     57064     57065     57066     57067
     57066     57068     57067     57068     57069     57070     57069     57071
     57070     57071     57072     57073     57072     57074     57073     57074
     57075     57076     57075     57077     57076     57077     57078     57079
     57078     57080     57079     57080     57081     57082     57081     57083
     57082     57083     57084     57085     57084     57086     57085     57086
     57087     57088     57087     57089     57088     57089     57090     57091
     57090     57092     57091     57092     57093     57094     57093     57095
     57094     57095     57096     57097     57096     57098     57097     57098
     57099     57100     57099     57101     57100     57101     57102     57103
     57102     57104     57103     57104     57105     57106     57105     57107
     57106     57107     57108     57109     57108     57110     57109     57110
     57111     57112     57111     57113     57112     57113     57114     57115
     57114     57116     57115     57116     57117     57118     57117     57119
     57118     57119     57120     57121     57120     57122     57121     57122
     57123     57124     57123     57125     57124     57125     57126     57127
     57126     57128     57127     57128     57129     57130     57129     57131
     57130     57131     57132     57133     57132     57134     57133     57134
     57135     57136     57135     57137     57136     57137     57138     57139
     57138     57140     57139     57140     57141     57142     57141     57143
     57142     57143     57144     57145     57144     57146     57145     57146
     57147     57148     57147     57149     57148     57149     57150     57151
     57150     57152     57151     57152     57153     57154     57153     57155
     57154     57155     57156     57157     57156     57158     57157     57158
     57159     57160     57159     57161     57160     57161     57162     57163
     57162     57164     57163     57164     57165     57166     57165     57167
     57166     57167     57168     57169     57168     57170     57169     57170
     57171     57172     57171     57173     57172     57173     57174     57175
     57174     57176     57175     57176     57177     57178     57177     57179
     57178     57179     57180     57181     57180     57182     57181     57182
     57183     57184     57183     57185     57184     57185     57186     57187
     57186     57188     57187     57188     57189     57190     57189     57191
     57190     57191     57192     57193     57192     57194     57193     57194
     57195     57196     57195     57197     57196     57197     57198     57199
     57198     57200     57199     57200     57201     57202     57201     57203
     57202     57203     57204     57205     57204     57206     57205     57206
     57207     57208     57207     57209     57208     57209     57210     57211
     57210     57212     57211     57212     57213     57214     57213     57215
     57214     57215     57216     57217     57216     57218     57217     57218
     57219     57220     57219     57221     57220     57221     57222     57223
     57222     57224     57223     57224     57225     57226     57225     57227
     57226     57227     57228     57229     57228     57230     57229     57230
     57231     57232     57231     57233     57232     57233     57234     57235
     57234     57236     57235     57236     57237     57238     57237     57239
     57238     57239     57240     57241     57240     57242     57241     57242
     57243     57244     57243     57245     57244     57245     57246     57247
     57246     57248     57247     57248     57249     57250     57249     57251
     57250     57251     57252     57253     57252     57254     57253     57254
     57255     57256     57255     57257     57256     57257     57258     57259
     57258     57260     57259     57260     57261     57262     57261     57263
     57262     57263     57264     57265     57264     57266     57265     57266
     57267     57268     57267     57269     57268     57269     57270     57271
     57270     57272     57271     57272     57273     57274     57273     57275
     57274     57275     57276     57277     57276     57278     57277     57278
     57279     57280     57279     57281     57280     57281     57282     57283
     57282     57284     57283     57284     57285     57286     57285     57287
     57286     57287     57288     57289     57288     57290     57289     57290
     57291     57292     57291     57293     57292     57293     57294     57295
     57294     57296     57295     57296     57297     57298     57297     57299
     57298     57299     57300     57301     57300     57302     57301     57302
     57303     57304     57303     57305     57304     57305     57306     57307
     57306     57308     57307     57308     57309     57310     57309     57311
     57310     57311     57312     57313     57312     57314     57313     57314
     57315     57316     57315     57317     57316     57317     57318     57319
     57318     57320     57319     57320     57321     57322     57321     57323
     57322     57323     57324     57325     57324     57326     57325     57326
     57327     57328     57327     57329     57328     57329     57330     57331
     57330     57332     57331     57332     57333     57334     57333     57335
     57334     57335     57336     57337     57336     57338     57337     57338
     57339     57340     57339     57341     57340     57341     57342     57343
     57342     57344     57343     57344     57345     57346     57345     57347
     57346     57347     57348     57349     57348     57350     57349     57350
     57351     57352     57351     57353     57352     57353     57354     57355
     57354     57356     57355     57356     57357     57358     57357     57359
     57358     57359     57360     57361     57360     57362     57361     57362
     57363     57364     57363     57365     57364     57365     57366     57367
     57366     57368     57367     57368     57369     57370     57369     57371
     57370     57371     57372     57373     57372     57374     57373     57374
     57375     57376     57375     57377     57376     57377     57378     57379
     57378     57380     57379     57380     57381     57382     57381     57383
     57382     57383     57384     57385     57384     57386     57385     57386
     57387     57388     57387     57389     57388     57389     57390     57391
     57390     57392     57391     57392     57393     57394     57393     57395
     57394     57395     57396     57397     57396     57398     57397     57398
     57399     57400     57399     57401     57400     57401     57402     57403
     57402     57404     57403     57404     57405     57406     57405     57407
     57406     57407     57408     57409     57408     57410     57409     57410
     57411     57412     57411     57413     57412     57413     57414     57415
     57414     57416     57415     57416     57417     57418     57417     57419
     57418     57419     57420     57421     57420     57422     57421     57422
     57423     57424     57423     57425     57424     57425     57426     57427
     57426     57428     57427     57428     57429     57430     57429     57431
     57430     57431     57432     57433     57432     57434     57433     57434
     57435     57436     57435     57437     57436     57437     57438     57439
     57438     57440     57439     57440     57441     57442     57441     57443
     57442     57443     57444     57445     57444     57446     57445     57446
     57447     57448     57447     57449     57448     57449     57450     57451
     57450     57452     57451     57452     57453     57454     57453     57455
     57454     57455     57456     57457     57456     57458     57457     57458
     57459     57460     57459     57461     57460     57461     57462     57463
     57462     57464     57463     57464     57465     57466     57465     57467
     57466     57467     57468     57469     57468     57470     57469     57470
     57471     57472     57471     57473     57472     57473     57474     57475
     57474     57476     57475     57476     57477     57478     57477     57479
     57478     57479     57480     57481     57480     57482     57481     57482
     57483     57484     57483     57485     57484     57485     57486     57487
     57486     57488     57487     57488     57489     57490     57489     57491
     57490     57491     57492     57493     57492     57494     57493     57494
     57495     57496     57495     57497     57496     57497     57498     57499
     57498     57500     57499     57500     57501     57502     57501     57503
     57502     57503     57504     57505     57504     57506     57505     57506
     57507     57508     57507     57509     57508     57509     57510     57511
     57510     57512     57511     57512     57513     57514     57513     57515
     57514     57515     57516     57517     57516     57518     57517     57518
     57519     57520     57519     57521     57520     57521     57522     57523
     57522     57524     57523     57524     57525     57526     57525     57527
     57526     57527     57528     57529     57528     57530     57529     57530
     57531     57532     57531     57533     57532     57533     57534     57535
     57534     57536     57535     57536     57537     57538     57537     57539
     57538     57539     57540     57541     57540     57542     57541     57542
     57543     57544     57543     57545     57544     57545     57546     57547
     57546     57548     57547     57548     57549     57550     57549     57551
     57550     57551     57552     57553     57552     57554     57553     57554
     57555     57556     57555     57557     57556     57557     57558     57559
     57558     57560     57559     57560     57561     57562     57561     57563
     57562     57563     57564     57565     57564     57566     57565     57566
     57567     57568     57567     57569     57568     57569     57570     57571
     57570     57572     57571     57572     57573     57574     57573     57575
     57574     57575     57576     57577     57576     57578     57577     57578
     57579     57580     57579     57581     57580     57581     57582     57583
     57582     57584     57583     57584     57585     57586     57585     57587
     57586     57587     57588     57589     57588     57590     57589     57590
     57591     57592     57591     57593     57592     57593     57594     57595
     57594     57596     57595     57596     57597     57598     57597     57599
     57598     57599     57600     57601     57600     57602     57601     57602
     57603     57604     57603     57605     57604     57605     57606     57607
     57606     57608     57607     57608     57609     57610     57609     57611
     57610     57611     57612     57613     57612     57614     57613     57614
     57615     57616     57615     57617     57616     57617     57618     57619
     57618     57620     57619     57620     57621     57622     57621     57623
     57622     57623     57624     57625     57624     57626     57625     57626
     57627     57628     57627     57629     57628     57629     57630     57631
     57630     57632     57631     57632     57633     57634     57633     57635
     57634     57635     57636     57637     57636     57638     57637     57638
     57639     57640     57639     57641     57640     57641     57642     57643
     57642     57644     57643     57644     57645     57646     57645     57647
     57646     57647     57648     57649     57648     57650     57649     57650
     57651     57652     57651     57653     57652     57653     57654     57655
     57654     57656     57655     57656     57657     57658     57657     57659
     57658     57659     57660     57661     57660     57662     57661     57662
     57663     57664     57663     57665     57664     57665     57666     57667
     57666     57668     57667     57668     57669     57670     57669     57671
     57670     57671     57672     57673     57672     57674     57673     57674
     57675     57676     57675     57677     57676     57677     57678     57679
     57678     57680     57679     57680     57681     57682     57681     57683
     57682     57683     57684     57685     57684     57686     57685     57686
     57687     57688     57687     57689     57688     57689     57690     57691
     57690     57692     57691     57692     57693     57694     57693     57695
     57694     57695     57696     57697     57696     57698     57697     57698
     57699     57700     57699     57701     57700     57701     57702     57703
     57702     57704     57703     57704     57705     57706     57705     57707
     57706     57707     57708     57709     57708     57710     57709     57710
     57711     57712     57711     57713     57712     57713     57714     57715
     57714     57716     57715     57716     57717     57718     57717     57719
     57718     57719     57720     57721     57720     57722     57721     57722
     57723     57724     57723     57725     57724     57725     57726     57727
     57726     57728     57727     57728     57729     57730     57729     57731
     57730     57731     57732     57733     57732     57734     57733     57734
     57735     57736     57735     57737     57736     57737     57738     57739
     57738     57740     57739     57740     57741     57742     57741     57743
     57742     57743     57744     57745     57744     57746     57745     57746
     57747     57748     57747     57749     57748     57749     57750     57751
     57750     57752     57751     57752     57753     57754     57753     57755
     57754     57755     57756     57757     57756     57758     57757     57758
     57759     57760     57759     57761     57760     57761     57762     57763
     57762     57764     57763     57764     57765     57766     57765     57767
     57766     57767     57768     57769     57768     57770     57769     57770
     57771     57772     57771     57773     57772     57773     57774     57775
     57774     57776     57775     57776     57777     57778     57777     57779
     57778     57779     57780     57781     57780     57782     57781     57782
     57783     57784     57783     57785     57784     57785     57786     57787
     57786     57788     57787     57788     57789     57790     57789     57791
     57790     57791     57792     57793     57792     57794     57793     57794
     57795     57796     57795     57797     57796     57797     57798     57799
     57798     57800     57799     57800     57801     57802     57801     57803
     57802     57803     57804     57805     57804     57806     57805     57806
     57807     57808     57807     57809     57808     57809     57810     57811
     57810     57812     57811     57812     57813     57814     57813     57815
     57814     57815     57816     57817     57816     57818     57817     57818
     57819     57820     57819     57821     57820     57821     57822     57823
     57822     57824     57823     57824     57825     57826     57825     57827
     57826     57827     57828     57829     57828     57830     57829     57830
     57831     57832     57831     57833     57832     57833     57834     57835
     57834     57836     57835     57836     57837     57838     57837     57839
     57838     57839     57840     57841     57840     57842     57841     57842
     57843     57844     57843     57845     57844     57845     57846     57847
     57846     57848     57847     57848     57849     57850     57849     57851
     57850     57851     57852     57853     57852     57854     57853     57854
     57855     57856     57855     57857     57856     57857     57858     57859
     57858     57860     57859     57860     57861     57862     57861     57863
     57862     57863     57864     57865     57864     57866     57865     57866
     57867     57868     57867     57869     57868     57869     57870     57871
     57870     57872     57871     57872     57873     57874     57873     57875
     57874     57875     57876     57877     57876     57878     57877     57878
     57879     57880     57879     57881     57880     57881     57882     57883
     57882     57884     57883     57884     57885     57886     57885     57887
     57886     57887     57888     57889     57888     57890     57889     57890
     57891     57892     57891     57893     57892     57893     57894     57895
     57894     57896     57895     57896     57897     57898     57897     57899
     57898     57899     57900     57901     57900     57902     57901     57902
     57903     57904     57903     57905     57904     57905     57906     57907
     57906     57908     57907     57908     57909     57910     57909     57911
     57910     57911     57912     57913     57912     57914     57913     57914
     57915     57916     57915     57917     57916     57917     57918     57919
     57918     57920     57919     57920     57921     57922     57921     57923
     57922     57923     57924     57925     57924     57926     57925     57926
     57927     57928     57927     57929     57928     57929     57930     57931
     57930     57932     57931     57932     57933     57934     57933     57935
     57934     57935     57936     57937     57936     57938     57937     57938
     57939     57940     57939     57941     57940     57941     57942     57943
     57942     57944     57943     57944     57945     57946     57945     57947
     57946     57947     57948     57949     57948     57950     57949     57950
     57951     57952     57951     57953     57952     57953     57954     57955
     57954     57956     57955     57956     57957     57958     57957     57959
     57958     57959     57960     57961     57960     57962     57961     57962
     57963     57964     57963     57965     57964     57965     57966     57967
     57966     57968     57967     57968     57969     57970     57969     57971
     57970     57971     57972     57973     57972     57974     57973     57974
     57975     57976     57975     57977     57976     57977     57978     57979
     57978     57980     57979     57980     57981     57982     57981     57983
     57982     57983     57984     57985     57984     57986     57985     57986
     57987     57988     57987     57989     57988     57989     57990     57991
     57990     57992     57991     57992     57993     57994     57993     57995
     57994     57995     57996     57997     57996     57998     57997     57998
     57999     58000     57999     58001     58000     58001     58002     58003
     58002     58004     58003     58004     58005     58006     58005     58007
     58006     58007     58008     58009     58008     58010     58009     58010
     58011     58012     58011     58013     58012     58013     58014     58015
     58014     58016     58015     58016     58017     58018     58017     58019
     58018     58019     58020     58021     58020     58022     58021     58022
     58023     58024     58023     58025     58024     58025     58026     58027
     58026     58028     58027     58028     58029     58030     58029     58031
     58030     58031     58032     58033     58032     58034     58033     58034
     58035     58036     58035     58037     58036     58037     58038     58039
     58038     58040     58039     58040     58041     58042     58041     58043
     58042     58043     58044     58045     58044     58046     58045     58046
     58047     58048     58047     58049     58048     58049     58050     58051
     58050     58052     58051     58052     58053     58054     58053     58055
     58054     58055     58056     58057     58056     58058     58057     58058
     58059     58060     58059     58061     58060     58061     58062     58063
     58062     58064     58063     58064     58065     58066     58065     58067
     58066     58067     58068     58069     58068     58070     58069     58070
     58071     58072     58071     58073     58072     58073     58074     58075
     58074     58076     58075     58076     58077     58078     58077     58079
     58078     58079     58080     58081     58080     58082     58081     58082
     58083     58084     58083     58085     58084     58085     58086     58087
     58086     58088     58087     58088     58089     58090     58089     58091
     58090     58091     58092     58093     58092     58094     58093     58094
     58095     58096     58095     58097     58096     58097     58098     58099
     58098     58100     58099     58100     58101     58102     58101     58103
     58102     58103     58104     58105     58104     58106     58105     58106
     58107     58108     58107     58109     58108     58109     58110     58111
     58110     58112     58111     58112     58113     58114     58113     58115
     58114     58115     58116     58117     58116     58118     58117     58118
     58119     58120     58119     58121     58120     58121     58122     58123
     58122     58124     58123     58124     58125     58126     58125     58127
     58126     58127     58128     58129     58128     58130     58129     58130
     58131     58132     58131     58133     58132     58133     58134     58135
     58134     58136     58135     58136     58137     58138     58137     58139
     58138     58139     58140     58141     58140     58142     58141     58142
     58143     58144     58143     58145     58144     58145     58146     58147
     58146     58148     58147     58148     58149     58150     58149     58151
     58150     58151     58152     58153     58152     58154     58153     58154
     58155     58156     58155     58157     58156     58157     58158     58159
     58158     58160     58159     58160     58161     58162     58161     58163
     58162     58163     58164     58165     58164     58166     58165     58166
     58167     58168     58167     58169     58168     58169     58170     58171
     58170     58172     58171     58172     58173     58174     58173     58175
     58174     58175     58176     58177     58176     58178     58177     58178
     58179     58180     58179     58181     58180     58181     58182     58183
     58182     58184     58183     58184     58185     58186     58185     58187
     58186     58187     58188     58189     58188     58190     58189     58190
     58191     58192     58191     58193     58192     58193     58194     58195
     58194     58196     58195     58196     58197     58198     58197     58199
     58198     58199     58200     58201     58200     58202     58201     58202
     58203     58204     58203     58205     58204     58205     58206     58207
     58206     58208     58207     58208     58209     58210     58209     58211
     58210     58211     58212     58213     58212     58214     58213     58214
     58215     58216     58215     58217     58216     58217     58218     58219
     58218     58220     58219     58220     58221     58222     58221     58223
     58222     58223     58224     58225     58224     58226     58225     58226
     58227     58228     58227     58229     58228     58229     58230     58231
     58230     58232     58231     58232     58233     58234     58233     58235
     58234     58235     58236     58237     58236     58238     58237     58238
     58239     58240     58239     58241     58240     58241     58242     58243
     58242     58244     58243     58244     58245     58246     58245     58247
     58246     58247     58248     58249     58248     58250     58249     58250
     58251     58252     58251     58253     58252     58253     58254     58255
     58254     58256     58255     58256     58257     58258     58257     58259
     58258     58259     58260     58261     58260     58262     58261     58262
     58263     58264     58263     58265     58264     58265     58266     58267
     58266     58268     58267     58268     58269     58270     58269     58271
     58270     58271     58272     58273     58272     58274     58273     58274
     58275     58276     58275     58277     58276     58277     58278     58279
     58278     58280     58279     58280     58281     58282     58281     58283
     58282     58283     58284     58285     58284     58286     58285     58286
     58287     58288     58287     58289     58288     58289     58290     58291
     58290     58292     58291     58292     58293     58294     58293     58295
     58294     58295     58296     58297     58296     58298     58297     58298
     58299     58300     58299     58301     58300     58301     58302     58303
     58302     58304     58303     58304     58305     58306     58305     58307
     58306     58307     58308     58309     58308     58310     58309     58310
     58311     58312     58311     58313     58312     58313     58314     58315
     58314     58316     58315     58316     58317     58318     58317     58319
     58318     58319     58320     58321     58320     58322     58321     58322
     58323     58324     58323     58325     58324     58325     58326     58327
     58326     58328     58327     58328     58329     58330     58329     58331
     58330     58331     58332     58333     58332     58334     58333     58334
     58335     58336     58335     58337     58336     58337     58338     58339
     58338     58340     58339     58340     58341     58342     58341     58343
     58342     58343     58344     58345     58344     58346     58345     58346
     58347     58348     58347     58349     58348     58349     58350     58351
     58350     58352     58351     58352     58353     58354     58353     58355
     58354     58355     58356     58357     58356     58358     58357     58358
     58359     58360     58359     58361     58360     58361     58362     58363
     58362     58364     58363     58364     58365     58366     58365     58367
     58366     58367     58368     58369     58368     58370     58369     58370
     58371     58372     58371     58373     58372     58373     58374     58375
     58374     58376     58375     58376     58377     58378     58377     58379
     58378     58379     58380     58381     58380     58382     58381     58382
     58383     58384     58383     58385     58384     58385     58386     58387
     58386     58388     58387     58388     58389     58390     58389     58391
     58390     58391     58392     58393     58392     58394     58393     58394
     58395     58396     58395     58397     58396     58397     58398     58399
     58398     58400     58399     58400     58401     58402     58401     58403
     58402     58403     58404     58405     58404     58406     58405     58406
     58407     58408     58407     58409     58408     58409     58410     58411
     58410     58412     58411     58412     58413     58414     58413     58415
     58414     58415     58416     58417     58416     58418     58417     58418
     58419     58420     58419     58421     58420     58421     58422     58423
     58422     58424     58423     58424     58425     58426     58425     58427
     58426     58427     58428     58429     58428     58430     58429     58430
     58431     58432     58431     58433     58432     58433     58434     58435
     58434     58436     58435     58436     58437     58438     58437     58439
     58438     58439     58440     58441     58440     58442     58441     58442
     58443     58444     58443     58445     58444     58445     58446     58447
     58446     58448     58447     58448     58449     58450     58449     58451
     58450     58451     58452     58453     58452     58454     58453     58454
     58455     58456     58455     58457     58456     58457     58458     58459
     58458     58460     58459     58460     58461     58462     58461     58463
     58462     58463     58464     58465     58464     58466     58465     58466
     58467     58468     58467     58469     58468     58469     58470     58471
     58470     58472     58471     58472     58473     58474     58473     58475
     58474     58475     58476     58477     58476     58478     58477     58478
     58479     58480     58479     58481     58480     58481     58482     58483
     58482     58484     58483     58484     58485     58486     58485     58487
     58486     58487     58488     58489     58488     58490     58489     58490
     58491     58492     58491     58493     58492     58493     58494     58495
     58494     58496     58495     58496     58497     58498     58497     58499
     58498     58499     58500     58501     58500     58502     58501     58502
     58503     58504     58503     58505     58504     58505     58506     58507
     58506     58508     58507     58508     58509     58510     58509     58511
     58510     58511     58512     58513     58512     58514     58513     58514
     58515     58516     58515     58517     58516     58517     58518     58519
     58518     58520     58519     58520     58521     58522     58521     58523
     58522     58523     58524     58525     58524     58526     58525     58526
     58527     58528     58527     58529     58528     58529     58530     58531
     58530     58532     58531     58532     58533     58534     58533     58535
     58534     58535     58536     58537     58536     58538     58537     58538
     58539     58540     58539     58541     58540     58541     58542     58543
     58542     58544     58543     58544     58545     58546     58545     58547
     58546     58547     58548     58549     58548     58550     58549     58550
     58551     58552     58551     58553     58552     58553     58554     58555
     58554     58556     58555     58556     58557     58558     58557     58559
     58558     58559     58560     58561     58560     58562     58561     58562
     58563     58564     58563     58565     58564     58565     58566     58567
     58566     58568     58567     58568     58569     58570     58569     58571
     58570     58571     58572     58573     58572     58574     58573     58574
     58575     58576     58575     58577     58576     58577     58578     58579
     58578     58580     58579     58580     58581     58582     58581     58583
     58582     58583     58584     58585     58584     58586     58585     58586
     58587     58588     58587     58589     58588     58589     58590     58591
     58590     58592     58591     58592     58593     58594     58593     58595
     58594     58595     58596     58597     58596     58598     58597     58598
     58599     58600     58599     58601     58600     58601     58602     58603
     58602     58604     58603     58604     58605     58606     58605     58607
     58606     58607     58608     58609     58608     58610     58609     58610
     58611     58612     58611     58613     58612     58613     58614     58615
     58614     58616     58615     58616     58617     58618     58617     58619
     58618     58619     58620     58621     58620     58622     58621     58622
     58623     58624     58623     58625     58624     58625     58626     58627
     58626     58628     58627     58628     58629     58630     58629     58631
     58630     58631     58632     58633     58632     58634     58633     58634
     58635     58636     58635     58637     58636     58637     58638     58639
     58638     58640     58639     58640     58641     58642     58641     58643
     58642     58643     58644     58645     58644     58646     58645     58646
     58647     58648     58647     58649     58648     58649     58650     58651
     58650     58652     58651     58652     58653     58654     58653     58655
     58654     58655     58656     58657     58656     58658     58657     58658
     58659     58660     58659     58661     58660     58661     58662     58663
     58662     58664     58663     58664     58665     58666     58665     58667
     58666     58667     58668     58669     58668     58670     58669     58670
     58671     58672     58671     58673     58672     58673     58674     58675
     58674     58676     58675     58676     58677     58678     58677     58679
     58678     58679     58680     58681     58680     58682     58681     58682
     58683     58684     58683     58685     58684     58685     58686     58687
     58686     58688     58687     58688     58689     58690     58689     58691
     58690     58691     58692     58693     58692     58694     58693     58694
     58695     58696     58695     58697     58696     58697     58698     58699
     58698     58700     58699     58700     58701     58702     58701     58703
     58702     58703     58704     58705     58704     58706     58705     58706
     58707     58708     58707     58709     58708     58709     58710     58711
     58710     58712     58711     58712     58713     58714     58713     58715
     58714     58715     58716     58717     58716     58718     58717     58718
     58719     58720     58719     58721     58720     58721     58722     58723
     58722     58724     58723     58724     58725     58726     58725     58727
     58726     58727     58728     58729     58728     58730     58729     58730
     58731     58732     58731     58733     58732     58733     58734     58735
     58734     58736     58735     58736     58737     58738     58737     58739
     58738     58739     58740     58741     58740     58742     58741     58742
     58743     58744     58743     58745     58744     58745     58746     58747
     58746     58748     58747     58748     58749     58750     58749     58751
     58750     58751     58752     58753     58752     58754     58753     58754
     58755     58756     58755     58757     58756     58757     58758     58759
     58758     58760     58759     58760     58761     58762     58761     58763
     58762     58763     58764     58765     58764     58766     58765     58766
     58767     58768     58767     58769     58768     58769     58770     58771
     58770     58772     58771     58772     58773     58774     58773     58775
     58774     58775     58776     58777     58776     58778     58777     58778
     58779     58780     58779     58781     58780     58781     58782     58783
     58782     58784     58783     58784     58785     58786     58785     58787
     58786     58787     58788     58789     58788     58790     58789     58790
     58791     58792     58791     58793     58792     58793     58794     58795
     58794     58796     58795     58796     58797     58798     58797     58799
     58798     58799     58800     58801     58800     58802     58801     58802
     58803     58804     58803     58805     58804     58805     58806     58807
     58806     58808     58807     58808     58809     58810     58809     58811
     58810     58811     58812     58813     58812     58814     58813     58814
     58815     58816     58815     58817     58816     58817     58818     58819
     58818     58820     58819     58820     58821     58822     58821     58823
     58822     58823     58824     58825     58824     58826     58825     58826
     58827     58828     58827     58829     58828     58829     58830     58831
     58830     58832     58831     58832     58833     58834     58833     58835
     58834     58835     58836     58837     58836     58838     58837     58838
     58839     58840     58839     58841     58840     58841     58842     58843
     58842     58844     58843     58844     58845     58846     58845     58847
     58846     58847     58848     58849     58848     58850     58849     58850
     58851     58852     58851     58853     58852     58853     58854     58855
     58854     58856     58855     58856     58857     58858     58857     58859
     58858     58859     58860     58861     58860     58862     58861     58862
     58863     58864     58863     58865     58864     58865     58866     58867
     58866     58868     58867     58868     58869     58870     58869     58871
     58870     58871     58872     58873     58872     58874     58873     58874
     58875     58876     58875     58877     58876     58877     58878     58879
     58878     58880     58879     58880     58881     58882     58881     58883
     58882     58883     58884     58885     58884     58886     58885     58886
     58887     58888     58887     58889     58888     58889     58890     58891
     58890     58892     58891     58892     58893     58894     58893     58895
     58894     58895     58896     58897     58896     58898     58897     58898
     58899     58900     58899     58901     58900     58901     58902     58903
     58902     58904     58903     58904     58905     58906     58905     58907
     58906     58907     58908     58909     58908     58910     58909     58910
     58911     58912     58911     58913     58912     58913     58914     58915
     58914     58916     58915     58916     58917     58918     58917     58919
     58918     58919     58920     58921     58920     58922     58921     58922
     58923     58924     58923     58925     58924     58925     58926     58927
     58926     58928     58927     58928     58929     58930     58929     58931
     58930     58931     58932     58933     58932     58934     58933     58934
     58935     58936     58935     58937     58936     58937     58938     58939
     58938     58940     58939     58940     58941     58942     58941     58943
     58942     58943     58944     58945     58944     58946     58945     58946
     58947     58948     58947     58949     58948     58949     58950     58951
     58950     58952     58951     58952     58953     58954     58953     58955
     58954     58955     58956     58957     58956     58958     58957     58958
     58959     58960     58959     58961     58960     58961     58962     58963
     58962     58964     58963     58964     58965     58966     58965     58967
     58966     58967     58968     58969     58968     58970     58969     58970
     58971     58972     58971     58973     58972     58973     58974     58975
     58974     58976     58975     58976     58977     58978     58977     58979
     58978     58979     58980     58981     58980     58982     58981     58982
     58983     58984     58983     58985     58984     58985     58986     58987
     58986     58988     58987     58988     58989     58990     58989     58991
     58990     58991     58992     58993     58992     58994     58993     58994
     58995     58996     58995     58997     58996     58997     58998     58999
     58998     59000     58999     59000     59001     59002     59001     59003
     59002     59003     59004     59005     59004     59006     59005     59006
     59007     59008     59007     59009     59008     59009     59010     59011
     59010     59012     59011     59012     59013     59014     59013     59015
     59014     59015     59016     59017     59016     59018     59017     59018
     59019     59020     59019     59021     59020     59021     59022     59023
     59022     59024     59023     59024     59025     59026     59025     59027
     59026     59027     59028     59029     59028     59030     59029     59030
     59031     59032     59031     59033     59032     59033     59034     59035
     59034     59036     59035     59036     59037     59038     59037     59039
     59038     59039     59040     59041     59040     59042     59041     59042
     59043     59044     59043     59045     59044     59045     59046     59047
     59046     59048     59047     59048     59049     59050     59049     59051
     59050     59051     59052     59053     59052     59054     59053     59054
     59055     59056     59055     59057     59056     59057     59058     59059
     59058     59060     59059     59060     59061     59062     59061     59063
     59062     59063     59064     59065     59064     59066     59065     59066
     59067     59068     59067     59069     59068     59069     59070     59071
     59070     59072     59071     59072     59073     59074     59073     59075
     59074     59075     59076     59077     59076     59078     59077     59078
     59079     59080     59079     59081     59080     59081     59082     59083
     59082     59084     59083     59084     59085     59086     59085     59087
     59086     59087     59088     59089     59088     59090     59089     59090
     59091     59092     59091     59093     59092     59093     59094     59095
     59094     59096     59095     59096     59097     59098     59097     59099
     59098     59099     59100     59101     59100     59102     59101     59102
     59103     59104     59103     59105     59104     59105     59106     59107
     59106     59108     59107     59108     59109     59110     59109     59111
     59110     59111     59112     59113     59112     59114     59113     59114
     59115     59116     59115     59117     59116     59117     59118     59119
     59118     59120     59119     59120     59121     59122     59121     59123
     59122     59123     59124     59125     59124     59126     59125     59126
     59127     59128     59127     59129     59128     59129     59130     59131
     59130     59132     59131     59132     59133     59134     59133     59135
     59134     59135     59136     59137     59136     59138     59137     59138
     59139     59140     59139     59141     59140     59141     59142     59143
     59142     59144     59143     59144     59145     59146     59145     59147
     59146     59147     59148     59149     59148     59150     59149     59150
     59151     59152     59151     59153     59152     59153     59154     59155
     59154     59156     59155     59156     59157     59158     59157     59159
     59158     59159     59160     59161     59160     59162     59161     59162
     59163     59164     59163     59165     59164     59165     59166     59167
     59166     59168     59167     59168     59169     59170     59169     59171
     59170     59171     59172     59173     59172     59174     59173     59174
     59175     59176     59175     59177     59176     59177     59178     59179
     59178     59180     59179     59180     59181     59182     59181     59183
     59182     59183     59184     59185     59184     59186     59185     59186
     59187     59188     59187     59189     59188     59189     59190     59191
     59190     59192     59191     59192     59193     59194     59193     59195
     59194     59195     59196     59197     59196     59198     59197     59198
     59199     59200     59199     59201     59200     59201     59202     59203
     59202     59204     59203     59204     59205     59206     59205     59207
     59206     59207     59208     59209     59208     59210     59209     59210
     59211     59212     59211     59213     59212     59213     59214     59215
     59214     59216     59215     59216     59217     59218     59217     59219
     59218     59219     59220     59221     59220     59222     59221     59222
     59223     59224     59223     59225     59224     59225     59226     59227
     59226     59228     59227     59228     59229     59230     59229     59231
     59230     59231     59232     59233     59232     59234     59233     59234
     59235     59236     59235     59237     59236     59237     59238     59239
     59238     59240     59239     59240     59241     59242     59241     59243
     59242     59243     59244     59245     59244     59246     59245     59246
     59247     59248     59247     59249     59248     59249     59250     59251
     59250     59252     59251     59252     59253     59254     59253     59255
     59254     59255     59256     59257     59256     59258     59257     59258
     59259     59260     59259     59261     59260     59261     59262     59263
     59262     59264     59263     59264     59265     59266     59265     59267
     59266     59267     59268     59269     59268     59270     59269     59270
     59271     59272     59271     59273     59272     59273     59274     59275
     59274     59276     59275     59276     59277     59278     59277     59279
     59278     59279     59280     59281     59280     59282     59281     59282
     59283     59284     59283     59285     59284     59285     59286     59287
     59286     59288     59287     59288     59289     59290     59289     59291
     59290     59291     59292     59293     59292     59294     59293     59294
     59295     59296     59295     59297     59296     59297     59298     59299
     59298     59300     59299     59300     59301     59302     59301     59303
     59302     59303     59304     59305     59304     59306     59305     59306
     59307     59308     59307     59309     59308     59309     59310     59311
     59310     59312     59311     59312     59313     59314     59313     59315
     59314     59315     59316     59317     59316     59318     59317     59318
     59319     59320     59319     59321     59320     59321     59322     59323
     59322     59324     59323     59324     59325     59326     59325     59327
     59326     59327     59328     59329     59328     59330     59329     59330
     59331     59332     59331     59333     59332     59333     59334     59335
     59334     59336     59335     59336     59337     59338     59337     59339
     59338     59339     59340     59341     59340     59342     59341     59342
     59343     59344     59343     59345     59344     59345     59346     59347
     59346     59348     59347     59348     59349     59350     59349     59351
     59350     59351     59352     59353     59352     59354     59353     59354
     59355     59356     59355     59357     59356     59357     59358     59359
     59358     59360     59359     59360     59361     59362     59361     59363
     59362     59363     59364     59365     59364     59366     59365     59366
     59367     59368     59367     59369     59368     59369     59370     59371
     59370     59372     59371     59372     59373     59374     59373     59375
     59374     59375     59376     59377     59376     59378     59377     59378
     59379     59380     59379     59381     59380     59381     59382     59383
     59382     59384     59383     59384     59385     59386     59385     59387
     59386     59387     59388     59389     59388     59390     59389     59390
     59391     59392     59391     59393     59392     59393     59394     59395
     59394     59396     59395     59396     59397     59398     59397     59399
     59398     59399     59400     59401     59400     59402     59401     59402
     59403     59404     59403     59405     59404     59405     59406     59407
     59406     59408     59407     59408     59409     59410     59409     59411
     59410     59411     59412     59413     59412     59414     59413     59414
     59415     59416     59415     59417     59416     59417     59418     59419
     59418     59420     59419     59420     59421     59422     59421     59423
     59422     59423     59424     59425     59424     59426     59425     59426
     59427     59428     59427     59429     59428     59429     59430     59431
     59430     59432     59431     59432     59433     59434     59433     59435
     59434     59435     59436     59437     59436     59438     59437     59438
     59439     59440     59439     59441     59440     59441     59442     59443
     59442     59444     59443     59444     59445     59446     59445     59447
     59446     59447     59448     59449     59448     59450     59449     59450
     59451     59452     59451     59453     59452     59453     59454     59455
     59454     59456     59455     59456     59457     59458     59457     59459
     59458     59459     59460     59461     59460     59462     59461     59462
     59463     59464     59463     59465     59464     59465     59466     59467
     59466     59468     59467     59468     59469     59470     59469     59471
     59470     59471     59472     59473     59472     59474     59473     59474
     59475     59476     59475     59477     59476     59477     59478     59479
     59478     59480     59479     59480     59481     59482     59481     59483
     59482     59483     59484     59485     59484     59486     59485     59486
     59487     59488     59487     59489     59488     59489     59490     59491
     59490     59492     59491     59492     59493     59494     59493     59495
     59494     59495     59496     59497     59496     59498     59497     59498
     59499     59500     59499     59501     59500     59501     59502     59503
     59502     59504     59503     59504     59505     59506     59505     59507
     59506     59507     59508     59509     59508     59510     59509     59510
     59511     59512     59511     59513     59512     59513     59514     59515
     59514     59516     59515     59516     59517     59518     59517     59519
     59518     59519     59520     59521     59520     59522     59521     59522
     59523     59524     59523     59525     59524     59525     59526     59527
     59526     59528     59527     59528     59529     59530     59529     59531
     59530     59531     59532     59533     59532     59534     59533     59534
     59535     59536     59535     59537     59536     59537     59538     59539
     59538     59540     59539     59540     59541     59542     59541     59543
     59542     59543     59544     59545     59544     59546     59545     59546
     59547     59548     59547     59549     59548     59549     59550     59551
     59550     59552     59551     59552     59553     59554     59553     59555
     59554     59555     59556     59557     59556     59558     59557     59558
     59559     59560     59559     59561     59560     59561     59562     59563
     59562     59564     59563     59564     59565     59566     59565     59567
     59566     59567     59568     59569     59568     59570     59569     59570
     59571     59572     59571     59573     59572     59573     59574     59575
     59574     59576     59575     59576     59577     59578     59577     59579
     59578     59579     59580     59581     59580     59582     59581     59582
     59583     59584     59583     59585     59584     59585     59586     59587
     59586     59588     59587     59588     59589     59590     59589     59591
     59590     59591     59592     59593     59592     59594     59593     59594
     59595     59596     59595     59597     59596     59597     59598     59599
     59598     59600     59599     59600     59601     59602     59601     59603
     59602     59603     59604     59605     59604     59606     59605     59606
     59607     59608     59607     59609     59608     59609     59610     59611
     59610     59612     59611     59612     59613     59614     59613     59615
     59614     59615     59616     59617     59616     59618     59617     59618
     59619     59620     59619     59621     59620     59621     59622     59623
     59622     59624     59623     59624     59625     59626     59625     59627
     59626     59627     59628     59629     59628     59630     59629     59630
     59631     59632     59631     59633     59632     59633     59634     59635
     59634     59636     59635     59636     59637     59638     59637     59639
     59638     59639     59640     59641     59640     59642     59641     59642
     59643     59644     59643     59645     59644     59645     59646     59647
     59646     59648     59647     59648     59649     59650     59649     59651
     59650     59651     59652     59653     59652     59654     59653     59654
     59655     59656     59655     59657     59656     59657     59658     59659
     59658     59660     59659     59660     59661     59662     59661     59663
     59662     59663     59664     59665     59664     59666     59665     59666
     59667     59668     59667     59669     59668     59669     59670     59671
     59670     59672     59671     59672     59673     59674     59673     59675
     59674     59675     59676     59677     59676     59678     59677     59678
     59679     59680     59679     59681     59680     59681     59682     59683
     59682     59684     59683     59684     59685     59686     59685     59687
     59686     59687     59688     59689     59688     59690     59689     59690
     59691     59692     59691     59693     59692     59693     59694     59695
     59694     59696     59695     59696     59697     59698     59697     59699
     59698     59699     59700     59701     59700     59702     59701     59702
     59703     59704     59703     59705     59704     59705     59706     59707
     59706     59708     59707     59708     59709     59710     59709     59711
     59710     59711     59712     59713     59712     59714     59713     59714
     59715     59716     59715     59717     59716     59717     59718     59719
     59718     59720     59719     59720     59721     59722     59721     59723
     59722     59723     59724     59725     59724     59726     59725     59726
     59727     59728     59727     59729     59728     59729     59730     59731
     59730     59732     59731     59732     59733     59734     59733     59735
     59734     59735     59736     59737     59736     59738     59737     59738
     59739     59740     59739     59741     59740     59741     59742     59743
     59742     59744     59743     59744     59745     59746     59745     59747
     59746     59747     59748     59749     59748     59750     59749     59750
     59751     59752     59751     59753     59752     59753     59754     59755
     59754     59756     59755     59756     59757     59758     59757     59759
     59758     59759     59760     59761     59760     59762     59761     59762
     59763     59764     59763     59765     59764     59765     59766     59767
     59766     59768     59767     59768     59769     59770     59769     59771
     59770     59771     59772     59773     59772     59774     59773     59774
     59775     59776     59775     59777     59776     59777     59778     59779
     59778     59780     59779     59780     59781     59782     59781     59783
     59782     59783     59784     59785     59784     59786     59785     59786
     59787     59788     59787     59789     59788     59789     59790     59791
     59790     59792     59791     59792     59793     59794     59793     59795
     59794     59795     59796     59797     59796     59798     59797     59798
     59799     59800     59799     59801     59800     59801     59802     59803
     59802     59804     59803     59804     59805     59806     59805     59807
     59806     59807     59808     59809     59808     59810     59809     59810
     59811     59812     59811     59813     59812     59813     59814     59815
     59814     59816     59815     59816     59817     59818     59817     59819
     59818     59819     59820     59821     59820     59822     59821     59822
     59823     59824     59823     59825     59824     59825     59826     59827
     59826     59828     59827     59828     59829     59830     59829     59831
     59830     59831     59832     59833     59832     59834     59833     59834
     59835     59836     59835     59837     59836     59837     59838     59839
     59838     59840     59839     59840     59841     59842     59841     59843
     59842     59843     59844     59845     59844     59846     59845     59846
     59847     59848     59847     59849     59848     59849     59850     59851
     59850     59852     59851     59852     59853     59854     59853     59855
     59854     59855     59856     59857     59856     59858     59857     59858
     59859     59860     59859     59861     59860     59861     59862     59863
     59862     59864     59863     59864     59865     59866     59865     59867
     59866     59867     59868     59869     59868     59870     59869     59870
     59871     59872     59871     59873     59872     59873     59874     59875
     59874     59876     59875     59876     59877     59878     59877     59879
     59878     59879     59880     59881     59880     59882     59881     59882
     59883     59884     59883     59885     59884     59885     59886     59887
     59886     59888     59887     59888     59889     59890     59889     59891
     59890     59891     59892     59893     59892     59894     59893     59894
     59895     59896     59895     59897     59896     59897     59898     59899
     59898     59900     59899     59900     59901     59902     59901     59903
     59902     59903     59904     59905     59904     59906     59905     59906
     59907     59908     59907     59909     59908     59909     59910     59911
     59910     59912     59911     59912     59913     59914     59913     59915
     59914     59915     59916     59917     59916     59918     59917     59918
     59919     59920     59919     59921     59920     59921     59922     59923
     59922     59924     59923     59924     59925     59926     59925     59927
     59926     59927     59928     59929     59928     59930     59929     59930
     59931     59932     59931     59933     59932     59933     59934     59935
     59934     59936     59935     59936     59937     59938     59937     59939
     59938     59939     59940     59941     59940     59942     59941     59942
     59943     59944     59943     59945     59944     59945     59946     59947
     59946     59948     59947     59948     59949     59950     59949     59951
     59950     59951     59952     59953     59952     59954     59953     59954
     59955     59956     59955     59957     59956     59957     59958     59959
     59958     59960     59959     59960     59961     59962     59961     59963
     59962     59963     59964     59965     59964     59966     59965     59966
     59967     59968     59967     59969     59968     59969     59970     59971
     59970     59972     59971     59972     59973     59974     59973     59975
     59974     59975     59976     59977     59976     59978     59977     59978
     59979     59980     59979     59981     59980     59981     59982     59983
     59982     59984     59983     59984     59985     59986     59985     59987
     59986     59987     59988     59989     59988     59990     59989     59990
     59991     59992     59991     59993     59992     59993     59994     59995
     59994     59996     59995     59996     59997     59998     59997     59999
     59998     59999     60000     60001     60000     60002     60001     60002
     60003     60004     60003     60005     60004     60005     60006     60007
     60006     60008     60007     60008     60009     60010     60009     60011
     60010     60011     60012     60013     60012     60014     60013     60014
     60015     60016     60015     60017     60016     60017     60018     60019
     60018     60020     60019     60020     60021     60022     60021     60023
     60022     60023     60024     60025     60024     60026     60025     60026
     60027     60028     60027     60029     60028     60029     60030     60031
     60030     60032     60031     60032     60033     60034     60033     60035
     60034     60035     60036     60037     60036     60038     60037     60038
     60039     60040     60039     60041     60040     60041     60042     60043
     60042     60044     60043     60044     60045     60046     60045     60047
     60046     60047     60048     60049     60048     60050     60049     60050
     60051     60052     60051     60053     60052     60053     60054     60055
     60054     60056     60055     60056     60057     60058     60057     60059
     60058     60059     60060     60061     60060     60062     60061     60062
     60063     60064     60063     60065     60064     60065     60066     60067
     60066     60068     60067     60068     60069     60070     60069     60071
     60070     60071     60072     60073     60072     60074     60073     60074
     60075     60076     60075     60077     60076     60077     60078     60079
     60078     60080     60079     60080     60081     60082     60081     60083
     60082     60083     60084     60085     60084     60086     60085     60086
     60087     60088     60087     60089     60088     60089     60090     60091
     60090     60092     60091     60092     60093     60094     60093     60095
     60094     60095     60096     60097     60096     60098     60097     60098
     60099     60100     60099     60101     60100     60101     60102     60103
     60102     60104     60103     60104     60105     60106     60105     60107
     60106     60107     60108     60109     60108     60110     60109     60110
     60111     60112     60111     60113     60112     60113     60114     60115
     60114     60116     60115     60116     60117     60118     60117     60119
     60118     60119     60120     60121     60120     60122     60121     60122
     60123     60124     60123     60125     60124     60125     60126     60127
     60126     60128     60127     60128     60129     60130     60129     60131
     60130     60131     60132     60133     60132     60134     60133     60134
     60135     60136     60135     60137     60136     60137     60138     60139
     60138     60140     60139     60140     60141     60142     60141     60143
     60142     60143     60144     60145     60144     60146     60145     60146
     60147     60148     60147     60149     60148     60149     60150     60151
     60150     60152     60151     60152     60153     60154     60153     60155
     60154     60155     60156     60157     60156     60158     60157     60158
     60159     60160     60159     60161     60160     60161     60162     60163
     60162     60164     60163     60164     60165     60166     60165     60167
     60166     60167     60168     60169     60168     60170     60169     60170
     60171     60172     60171     60173     60172     60173     60174     60175
     60174     60176     60175     60176     60177     60178     60177     60179
     60178     60179     60180     60181     60180     60182     60181     60182
     60183     60184     60183     60185     60184     60185     60186     60187
     60186     60188     60187     60188     60189     60190     60189     60191
     60190     60191     60192     60193     60192     60194     60193     60194
     60195     60196     60195     60197     60196     60197     60198     60199
     60198     60200     60199     60200     60201     60202     60201     60203
     60202     60203     60204     60205     60204     60206     60205     60206
     60207     60208     60207     60209     60208     60209     60210     60211
     60210     60212     60211     60212     60213     60214     60213     60215
     60214     60215     60216     60217     60216     60218     60217     60218
     60219     60220     60219     60221     60220     60221     60222     60223
     60222     60224     60223     60224     60225     60226     60225     60227
     60226     60227     60228     60229     60228     60230     60229     60230
     60231     60232     60231     60233     60232     60233     60234     60235
     60234     60236     60235     60236     60237     60238     60237     60239
     60238     60239     60240     60241     60240     60242     60241     60242
     60243     60244     60243     60245     60244     60245     60246     60247
     60246     60248     60247     60248     60249     60250     60249     60251
     60250     60251     60252     60253     60252     60254     60253     60254
     60255     60256     60255     60257     60256     60257     60258     60259
     60258     60260     60259     60260     60261     60262     60261     60263
     60262     60263     60264     60265     60264     60266     60265     60266
     60267     60268     60267     60269     60268     60269     60270     60271
     60270     60272     60271     60272     60273     60274     60273     60275
     60274     60275     60276     60277     60276     60278     60277     60278
     60279     60280     60279     60281     60280     60281     60282     60283
     60282     60284     60283     60284     60285     60286     60285     60287
     60286     60287     60288     60289     60288     60290     60289     60290
     60291     60292     60291     60293     60292     60293     60294     60295
     60294     60296     60295     60296     60297     60298     60297     60299
     60298     60299     60300     60301     60300     60302     60301     60302
     60303     60304     60303     60305     60304     60305     60306     60307
     60306     60308     60307     60308     60309     60310     60309     60311
     60310     60311     60312     60313     60312     60314     60313     60314
     60315     60316     60315     60317     60316     60317     60318     60319
     60318     60320     60319     60320     60321     60322     60321     60323
     60322     60323     60324     60325     60324     60326     60325     60326
     60327     60328     60327     60329     60328     60329     60330     60331
     60330     60332     60331     60332     60333     60334     60333     60335
     60334     60335     60336     60337     60336     60338     60337     60338
     60339     60340     60339     60341     60340     60341     60342     60343
     60342     60344     60343     60344     60345     60346     60345     60347
     60346     60347     60348     60349     60348     60350     60349     60350
     60351     60352     60351     60353     60352     60353     60354     60355
     60354     60356     60355     60356     60357     60358     60357     60359
     60358     60359     60360     60361     60360     60362     60361     60362
     60363     60364     60363     60365     60364     60365     60366     60367
     60366     60368     60367     60368     60369     60370     60369     60371
     60370     60371     60372     60373     60372     60374     60373     60374
     60375     60376     60375     60377     60376     60377     60378     60379
     60378     60380     60379     60380     60381     60382     60381     60383
     60382     60383     60384     60385     60384     60386     60385     60386
     60387     60388     60387     60389     60388     60389     60390     60391
     60390     60392     60391     60392     60393     60394     60393     60395
     60394     60395     60396     60397     60396     60398     60397     60398
     60399     60400     60399     60401     60400     60401     60402     60403
     60402     60404     60403     60404     60405     60406     60405     60407
     60406     60407     60408     60409     60408     60410     60409     60410
     60411     60412     60411     60413     60412     60413     60414     60415
     60414     60416     60415     60416     60417     60418     60417     60419
     60418     60419     60420     60421     60420     60422     60421     60422
     60423     60424     60423     60425     60424     60425     60426     60427
     60426     60428     60427     60428     60429     60430     60429     60431
     60430     60431     60432     60433     60432     60434     60433     60434
     60435     60436     60435     60437     60436     60437     60438     60439
     60438     60440     60439     60440     60441     60442     60441     60443
     60442     60443     60444     60445     60444     60446     60445     60446
     60447     60448     60447     60449     60448     60449     60450     60451
     60450     60452     60451     60452     60453     60454     60453     60455
     60454     60455     60456     60457     60456     60458     60457     60458
     60459     60460     60459     60461     60460     60461     60462     60463
     60462     60464     60463     60464     60465     60466     60465     60467
     60466     60467     60468     60469     60468     60470     60469     60470
     60471     60472     60471     60473     60472     60473     60474     60475
     60474     60476     60475     60476     60477     60478     60477     60479
     60478     60479     60480     60481     60480     60482     60481     60482
     60483     60484     60483     60485     60484     60485     60486     60487
     60486     60488     60487     60488     60489     60490     60489     60491
     60490     60491     60492     60493     60492     60494     60493     60494
     60495     60496     60495     60497     60496     60497     60498     60499
     60498     60500     60499     60500     60501     60502     60501     60503
     60502     60503     60504     60505     60504     60506     60505     60506
     60507     60508     60507     60509     60508     60509     60510     60511
     60510     60512     60511     60512     60513     60514     60513     60515
     60514     60515     60516     60517     60516     60518     60517     60518
     60519     60520     60519     60521     60520     60521     60522     60523
     60522     60524     60523     60524     60525     60526     60525     60527
     60526     60527     60528     60529     60528     60530     60529     60530
     60531     60532     60531     60533     60532     60533     60534     60535
     60534     60536     60535     60536     60537     60538     60537     60539
     60538     60539     60540     60541     60540     60542     60541     60542
     60543     60544     60543     60545     60544     60545     60546     60547
     60546     60548     60547     60548     60549     60550     60549     60551
     60550     60551     60552     60553     60552     60554     60553     60554
     60555     60556     60555     60557     60556     60557     60558     60559
     60558     60560     60559     60560     60561     60562     60561     60563
     60562     60563     60564     60565     60564     60566     60565     60566
     60567     60568     60567     60569     60568     60569     60570     60571
     60570     60572     60571     60572     60573     60574     60573     60575
     60574     60575     60576     60577     60576     60578     60577     60578
     60579     60580     60579     60581     60580     60581     60582     60583
     60582     60584     60583     60584     60585     60586     60585     60587
     60586     60587     60588     60589     60588     60590     60589     60590
     60591     60592     60591     60593     60592     60593     60594     60595
     60594     60596     60595     60596     60597     60598     60597     60599
     60598     60599     60600     60601     60600     60602     60601     60602
     60603     60604     60603     60605     60604     60605     60606     60607
     60606     60608     60607     60608     60609     60610     60609     60611
     60610     60611     60612     60613     60612     60614     60613     60614
     60615     60616     60615     60617     60616     60617     60618     60619
     60618     60620     60619     60620     60621     60622     60621     60623
     60622     60623     60624     60625     60624     60626     60625     60626
     60627     60628     60627     60629     60628     60629     60630     60631
     60630     60632     60631     60632     60633     60634     60633     60635
     60634     60635     60636     60637     60636     60638     60637     60638
     60639     60640     60639     60641     60640     60641     60642     60643
     60642     60644     60643     60644     60645     60646     60645     60647
     60646     60647     60648     60649     60648     60650     60649     60650
     60651     60652     60651     60653     60652     60653     60654     60655
     60654     60656     60655     60656     60657     60658     60657     60659
     60658     60659     60660     60661     60660     60662     60661     60662
     60663     60664     60663     60665     60664     60665     60666     60667
     60666     60668     60667     60668     60669     60670     60669     60671
     60670     60671     60672     60673     60672     60674     60673     60674
     60675     60676     60675     60677     60676     60677     60678     60679
     60678     60680     60679     60680     60681     60682     60681     60683
     60682     60683     60684     60685     60684     60686     60685     60686
     60687     60688     60687     60689     60688     60689     60690     60691
     60690     60692     60691     60692     60693     60694     60693     60695
     60694     60695     60696     60697     60696     60698     60697     60698
     60699     60700     60699     60701     60700     60701     60702     60703
     60702     60704     60703     60704     60705     60706     60705     60707
     60706     60707     60708     60709     60708     60710     60709     60710
     60711     60712     60711     60713     60712     60713     60714     60715
     60714     60716     60715     60716     60717     60718     60717     60719
     60718     60719     60720     60721     60720     60722     60721     60722
     60723     60724     60723     60725     60724     60725     60726     60727
     60726     60728     60727     60728     60729     60730     60729     60731
     60730     60731     60732     60733     60732     60734     60733     60734
     60735     60736     60735     60737     60736     60737     60738     60739
     60738     60740     60739     60740     60741     60742     60741     60743
     60742     60743     60744     60745     60744     60746     60745     60746
     60747     60748     60747     60749     60748     60749     60750     60751
     60750     60752     60751     60752     60753     60754     60753     60755
     60754     60755     60756     60757     60756     60758     60757     60758
     60759     60760     60759     60761     60760     60761     60762     60763
     60762     60764     60763     60764     60765     60766     60765     60767
     60766     60767     60768     60769     60768     60770     60769     60770
     60771     60772     60771     60773     60772     60773     60774     60775
     60774     60776     60775     60776     60777     60778     60777     60779
     60778     60779     60780     60781     60780     60782     60781     60782
     60783     60784     60783     60785     60784     60785     60786     60787
     60786     60788     60787     60788     60789     60790     60789     60791
     60790     60791     60792     60793     60792     60794     60793     60794
     60795     60796     60795     60797     60796     60797     60798     60799
     60798     60800     60799     60800     60801     60802     60801     60803
     60802     60803     60804     60805     60804     60806     60805     60806
     60807     60808     60807     60809     60808     60809     60810     60811
     60810     60812     60811     60812     60813     60814     60813     60815
     60814     60815     60816     60817     60816     60818     60817     60818
     60819     60820     60819     60821     60820     60821     60822     60823
     60822     60824     60823     60824     60825     60826     60825     60827
     60826     60827     60828     60829     60828     60830     60829     60830
     60831     60832     60831     60833     60832     60833     60834     60835
     60834     60836     60835     60836     60837     60838     60837     60839
     60838     60839     60840     60841     60840     60842     60841     60842
     60843     60844     60843     60845     60844     60845     60846     60847
     60846     60848     60847     60848     60849     60850     60849     60851
     60850     60851     60852     60853     60852     60854     60853     60854
     60855     60856     60855     60857     60856     60857     60858     60859
     60858     60860     60859     60860     60861     60862     60861     60863
     60862     60863     60864     60865     60864     60866     60865     60866
     60867     60868     60867     60869     60868     60869     60870     60871
     60870     60872     60871     60872     60873     60874     60873     60875
     60874     60875     60876     60877     60876     60878     60877     60878
     60879     60880     60879     60881     60880     60881     60882     60883
     60882     60884     60883     60884     60885     60886     60885     60887
     60886     60887     60888     60889     60888     60890     60889     60890
     60891     60892     60891     60893     60892     60893     60894     60895
     60894     60896     60895     60896     60897     60898     60897     60899
     60898     60899     60900     60901     60900     60902     60901     60902
     60903     60904     60903     60905     60904     60905     60906     60907
     60906     60908     60907     60908     60909     60910     60909     60911
     60910     60911     60912     60913     60912     60914     60913     60914
     60915     60916     60915     60917     60916     60917     60918     60919
     60918     60920     60919     60920     60921     60922     60921     60923
     60922     60923     60924     60925     60924     60926     60925     60926
     60927     60928     60927     60929     60928     60929     60930     60931
     60930     60932     60931     60932     60933     60934     60933     60935
     60934     60935     60936     60937     60936     60938     60937     60938
     60939     60940     60939     60941     60940     60941     60942     60943
     60942     60944     60943     60944     60945     60946     60945     60947
     60946     60947     60948     60949     60948     60950     60949     60950
     60951     60952     60951     60953     60952     60953     60954     60955
     60954     60956     60955     60956     60957     60958     60957     60959
     60958     60959     60960     60961     60960     60962     60961     60962
     60963     60964     60963     60965     60964     60965     60966     60967
     60966     60968     60967     60968     60969     60970     60969     60971
     60970     60971     60972     60973     60972     60974     60973     60974
     60975     60976     60975     60977     60976     60977     60978     60979
     60978     60980     60979     60980     60981     60982     60981     60983
     60982     60983     60984     60985     60984     60986     60985     60986
     60987     60988     60987     60989     60988     60989     60990     60991
     60990     60992     60991     60992     60993     60994     60993     60995
     60994     60995     60996     60997     60996     60998     60997     60998
     60999     61000     60999     61001     61000     61001     61002     61003
     61002     61004     61003     61004     61005     61006     61005     61007
     61006     61007     61008     61009     61008     61010     61009     61010
     61011     61012     61011     61013     61012     61013     61014     61015
     61014     61016     61015     61016     61017     61018     61017     61019
     61018     61019     61020     61021     61020     61022     61021     61022
     61023     61024     61023     61025     61024     61025     61026     61027
     61026     61028     61027     61028     61029     61030     61029     61031
     61030     61031     61032     61033     61032     61034     61033     61034
     61035     61036     61035     61037     61036     61037     61038     61039
     61038     61040     61039     61040     61041     61042     61041     61043
     61042     61043     61044     61045     61044     61046     61045     61046
     61047     61048     61047     61049     61048     61049     61050     61051
     61050     61052     61051     61052     61053     61054     61053     61055
     61054     61055     61056     61057     61056     61058     61057     61058
     61059     61060     61059     61061     61060     61061     61062     61063
     61062     61064     61063     61064     61065     61066     61065     61067
     61066     61067     61068     61069     61068     61070     61069     61070
     61071     61072     61071     61073     61072     61073     61074     61075
     61074     61076     61075     61076     61077     61078     61077     61079
     61078     61079     61080     61081     61080     61082     61081     61082
     61083     61084     61083     61085     61084     61085     61086     61087
     61086     61088     61087     61088     61089     61090     61089     61091
     61090     61091     61092     61093     61092     61094     61093     61094
     61095     61096     61095     61097     61096     61097     61098     61099
     61098     61100     61099     61100     61101     61102     61101     61103
     61102     61103     61104     61105     61104     61106     61105     61106
     61107     61108     61107     61109     61108     61109     61110     61111
     61110     61112     61111     61112     61113     61114     61113     61115
     61114     61115     61116     61117     61116     61118     61117     61118
     61119     61120     61119     61121     61120     61121     61122     61123
     61122     61124     61123     61124     61125     61126     61125     61127
     61126     61127     61128     61129     61128     61130     61129     61130
     61131     61132     61131     61133     61132     61133     61134     61135
     61134     61136     61135     61136     61137     61138     61137     61139
     61138     61139     61140     61141     61140     61142     61141     61142
     61143     61144     61143     61145     61144     61145     61146     61147
     61146     61148     61147     61148     61149     61150     61149     61151
     61150     61151     61152     61153     61152     61154     61153     61154
     61155     61156     61155     61157     61156     61157     61158     61159
     61158     61160     61159     61160     61161     61162     61161     61163
     61162     61163     61164     61165     61164     61166     61165     61166
     61167     61168     61167     61169     61168     61169     61170     61171
     61170     61172     61171     61172     61173     61174     61173     61175
     61174     61175     61176     61177     61176     61178     61177     61178
     61179     61180     61179     61181     61180     61181     61182     61183
     61182     61184     61183     61184     61185     61186     61185     61187
     61186     61187     61188     61189     61188     61190     61189     61190
     61191     61192     61191     61193     61192     61193     61194     61195
     61194     61196     61195     61196     61197     61198     61197     61199
     61198     61199     61200     61201     61200     61202     61201     61202
     61203     61204     61203     61205     61204     61205     61206     61207
     61206     61208     61207     61208     61209     61210     61209     61211
     61210     61211     61212     61213     61212     61214     61213     61214
     61215     61216     61215     61217     61216     61217     61218     61219
     61218     61220     61219     61220     61221     61222     61221     61223
     61222     61223     61224     61225     61224     61226     61225     61226
     61227     61228     61227     61229     61228     61229     61230     61231
     61230     61232     61231     61232     61233     61234     61233     61235
     61234     61235     61236     61237     61236     61238     61237     61238
     61239     61240     61239     61241     61240     61241     61242     61243
     61242     61244     61243     61244     61245     61246     61245     61247
     61246     61247     61248     61249     61248     61250     61249     61250
     61251     61252     61251     61253     61252     61253     61254     61255
     61254     61256     61255     61256     61257     61258     61257     61259
     61258     61259     61260     61261     61260     61262     61261     61262
     61263     61264     61263     61265     61264     61265     61266     61267
     61266     61268     61267     61268     61269     61270     61269     61271
     61270     61271     61272     61273     61272     61274     61273     61274
     61275     61276     61275     61277     61276     61277     61278     61279
     61278     61280     61279     61280     61281     61282     61281     61283
     61282     61283     61284     61285     61284     61286     61285     61286
     61287     61288     61287     61289     61288     61289     61290     61291
     61290     61292     61291     61292     61293     61294     61293     61295
     61294     61295     61296     61297     61296     61298     61297     61298
     61299     61300     61299     61301     61300     61301     61302     61303
     61302     61304     61303     61304     61305     61306     61305     61307
     61306     61307     61308     61309     61308     61310     61309     61310
     61311     61312     61311     61313     61312     61313     61314     61315
     61314     61316     61315     61316     61317     61318     61317     61319
     61318     61319     61320     61321     61320     61322     61321     61322
     61323     61324     61323     61325     61324     61325     61326     61327
     61326     61328     61327     61328     61329     61330     61329     61331
     61330     61331     61332     61333     61332     61334     61333     61334
     61335     61336     61335     61337     61336     61337     61338     61339
     61338     61340     61339     61340     61341     61342     61341     61343
     61342     61343     61344     61345     61344     61346     61345     61346
     61347     61348     61347     61349     61348     61349     61350     61351
     61350     61352     61351     61352     61353     61354     61353     61355
     61354     61355     61356     61357     61356     61358     61357     61358
     61359     61360     61359     61361     61360     61361     61362     61363
     61362     61364     61363     61364     61365     61366     61365     61367
     61366     61367     61368     61369     61368     61370     61369     61370
     61371     61372     61371     61373     61372     61373     61374     61375
     61374     61376     61375     61376     61377     61378     61377     61379
     61378     61379     61380     61381     61380     61382     61381     61382
     61383     61384     61383     61385     61384     61385     61386     61387
     61386     61388     61387     61388     61389     61390     61389     61391
     61390     61391     61392     61393     61392     61394     61393     61394
     61395     61396     61395     61397     61396     61397     61398     61399
     61398     61400     61399     61400     61401     61402     61401     61403
     61402     61403     61404     61405     61404     61406     61405     61406
     61407     61408     61407     61409     61408     61409     61410     61411
     61410     61412     61411     61412     61413     61414     61413     61415
     61414     61415     61416     61417     61416     61418     61417     61418
     61419     61420     61419     61421     61420     61421     61422     61423
     61422     61424     61423     61424     61425     61426     61425     61427
     61426     61427     61428     61429     61428     61430     61429     61430
     61431     61432     61431     61433     61432     61433     61434     61435
     61434     61436     61435     61436     61437     61438     61437     61439
     61438     61439     61440     61441     61440     61442     61441     61442
     61443     61444     61443     61445     61444     61445     61446     61447
     61446     61448     61447     61448     61449     61450     61449     61451
     61450     61451     61452     61453     61452     61454     61453     61454
     61455     61456     61455     61457     61456     61457     61458     61459
     61458     61460     61459     61460     61461     61462     61461     61463
     61462     61463     61464     61465     61464     61466     61465     61466
     61467     61468     61467     61469     61468     61469     61470     61471
     61470     61472     61471     61472     61473     61474     61473     61475
     61474     61475     61476     61477     61476     61478     61477     61478
     61479     61480     61479     61481     61480     61481     61482     61483
     61482     61484     61483     61484     61485     61486     61485     61487
     61486     61487     61488     61489     61488     61490     61489     61490
     61491     61492     61491     61493     61492     61493     61494     61495
     61494     61496     61495     61496     61497     61498     61497     61499
     61498     61499     61500     61501     61500     61502     61501     61502
     61503     61504     61503     61505     61504     61505     61506     61507
     61506     61508     61507     61508     61509     61510     61509     61511
     61510     61511     61512     61513     61512     61514     61513     61514
     61515     61516     61515     61517     61516     61517     61518     61519
     61518     61520     61519     61520     61521     61522     61521     61523
     61522     61523     61524     61525     61524     61526     61525     61526
     61527     61528     61527     61529     61528     61529     61530     61531
     61530     61532     61531     61532     61533     61534     61533     61535
     61534     61535     61536     61537     61536     61538     61537     61538
     61539     61540     61539     61541     61540     61541     61542     61543
     61542     61544     61543     61544     61545     61546     61545     61547
     61546     61547     61548     61549     61548     61550     61549     61550
     61551     61552     61551     61553     61552     61553     61554     61555
     61554     61556     61555     61556     61557     61558     61557     61559
     61558     61559     61560     61561     61560     61562     61561     61562
     61563     61564     61563     61565     61564     61565     61566     61567
     61566     61568     61567     61568     61569     61570     61569     61571
     61570     61571     61572     61573     61572     61574     61573     61574
     61575     61576     61575     61577     61576     61577     61578     61579
     61578     61580     61579     61580     61581     61582     61581     61583
     61582     61583     61584     61585     61584     61586     61585     61586
     61587     61588     61587     61589     61588     61589     61590     61591
     61590     61592     61591     61592     61593     61594     61593     61595
     61594     61595     61596     61597     61596     61598     61597     61598
     61599     61600     61599     61601     61600     61601     61602     61603
     61602     61604     61603     61604     61605     61606     61605     61607
     61606     61607     61608     61609     61608     61610     61609     61610
     61611     61612     61611     61613     61612     61613     61614     61615
     61614     61616     61615     61616     61617     61618     61617     61619
     61618     61619     61620     61621     61620     61622     61621     61622
     61623     61624     61623     61625     61624     61625     61626     61627
     61626     61628     61627     61628     61629     61630     61629     61631
     61630     61631     61632     61633     61632     61634     61633     61634
     61635     61636     61635     61637     61636     61637     61638     61639
     61638     61640     61639     61640     61641     61642     61641     61643
     61642     61643     61644     61645     61644     61646     61645     61646
     61647     61648     61647     61649     61648     61649     61650     61651
     61650     61652     61651     61652     61653     61654     61653     61655
     61654     61655     61656     61657     61656     61658     61657     61658
     61659     61660     61659     61661     61660     61661     61662     61663
     61662     61664     61663     61664     61665     61666     61665     61667
     61666     61667     61668     61669     61668     61670     61669     61670
     61671     61672     61671     61673     61672     61673     61674     61675
     61674     61676     61675     61676     61677     61678     61677     61679
     61678     61679     61680     61681     61680     61682     61681     61682
     61683     61684     61683     61685     61684     61685     61686     61687
     61686     61688     61687     61688     61689     61690     61689     61691
     61690     61691     61692     61693     61692     61694     61693     61694
     61695     61696     61695     61697     61696     61697     61698     61699
     61698     61700     61699     61700     61701     61702     61701     61703
     61702     61703     61704     61705     61704     61706     61705     61706
     61707     61708     61707     61709     61708     61709     61710     61711
     61710     61712     61711     61712     61713     61714     61713     61715
     61714     61715     61716     61717     61716     61718     61717     61718
     61719     61720     61719     61721     61720     61721     61722     61723
     61722     61724     61723     61724     61725     61726     61725     61727
     61726     61727     61728     61729     61728     61730     61729     61730
     61731     61732     61731     61733     61732     61733     61734     61735
     61734     61736     61735     61736     61737     61738     61737     61739
     61738     61739     61740     61741     61740     61742     61741     61742
     61743     61744     61743     61745     61744     61745     61746     61747
     61746     61748     61747     61748     61749     61750     61749     61751
     61750     61751     61752     61753     61752     61754     61753     61754
     61755     61756     61755     61757     61756     61757     61758     61759
     61758     61760     61759     61760     61761     61762     61761     61763
     61762     61763     61764     61765     61764     61766     61765     61766
     61767     61768     61767     61769     61768     61769     61770     61771
     61770     61772     61771     61772     61773     61774     61773     61775
     61774     61775     61776     61777     61776     61778     61777     61778
     61779     61780     61779     61781     61780     61781     61782     61783
     61782     61784     61783     61784     61785     61786     61785     61787
     61786     61787     61788     61789     61788     61790     61789     61790
     61791     61792     61791     61793     61792     61793     61794     61795
     61794     61796     61795     61796     61797     61798     61797     61799
     61798     61799     61800     61801     61800     61802     61801     61802
     61803     61804     61803     61805     61804     61805     61806     61807
     61806     61808     61807     61808     61809     61810     61809     61811
     61810     61811     61812     61813     61812     61814     61813     61814
     61815     61816     61815     61817     61816     61817     61818     61819
     61818     61820     61819     61820     61821     61822     61821     61823
     61822     61823     61824     61825     61824     61826     61825     61826
     61827     61828     61827     61829     61828     61829     61830     61831
     61830     61832     61831     61832     61833     61834     61833     61835
     61834     61835     61836     61837     61836     61838     61837     61838
     61839     61840     61839     61841     61840     61841     61842     61843
     61842     61844     61843     61844     61845     61846     61845     61847
     61846     61847     61848     61849     61848     61850     61849     61850
     61851     61852     61851     61853     61852     61853     61854     61855
     61854     61856     61855     61856     61857     61858     61857     61859
     61858     61859     61860     61861     61860     61862     61861     61862
     61863     61864     61863     61865     61864     61865     61866     61867
     61866     61868     61867     61868     61869     61870     61869     61871
     61870     61871     61872     61873     61872     61874     61873     61874
     61875     61876     61875     61877     61876     61877     61878     61879
     61878     61880     61879     61880     61881     61882     61881     61883
     61882     61883     61884     61885     61884     61886     61885     61886
     61887     61888     61887     61889     61888     61889     61890     61891
     61890     61892     61891     61892     61893     61894     61893     61895
     61894     61895     61896     61897     61896     61898     61897     61898
     61899     61900     61899     61901     61900     61901     61902     61903
     61902     61904     61903     61904     61905     61906     61905     61907
     61906     61907     61908     61909     61908     61910     61909     61910
     61911     61912     61911     61913     61912     61913     61914     61915
     61914     61916     61915     61916     61917     61918     61917     61919
     61918     61919     61920     61921     61920     61922     61921     61922
     61923     61924     61923     61925     61924     61925     61926     61927
     61926     61928     61927     61928     61929     61930     61929     61931
     61930     61931     61932     61933     61932     61934     61933     61934
     61935     61936     61935     61937     61936     61937     61938     61939
     61938     61940     61939     61940     61941     61942     61941     61943
     61942     61943     61944     61945     61944     61946     61945     61946
     61947     61948     61947     61949     61948     61949     61950     61951
     61950     61952     61951     61952     61953     61954     61953     61955
     61954     61955     61956     61957     61956     61958     61957     61958
     61959     61960     61959     61961     61960     61961     61962     61963
     61962     61964     61963     61964     61965     61966     61965     61967
     61966     61967     61968     61969     61968     61970     61969     61970
     61971     61972     61971     61973     61972     61973     61974     61975
     61974     61976     61975     61976     61977     61978     61977     61979
     61978     61979     61980     61981     61980     61982     61981     61982
     61983     61984     61983     61985     61984     61985     61986     61987
     61986     61988     61987     61988     61989     61990     61989     61991
     61990     61991     61992     61993     61992     61994     61993     61994
     61995     61996     61995     61997     61996     61997     61998     61999
     61998     62000     61999     62000     62001     62002     62001     62003
     62002     62003     62004     62005     62004     62006     62005     62006
     62007     62008     62007     62009     62008     62009     62010     62011
     62010     62012     62011     62012     62013     62014     62013     62015
     62014     62015     62016     62017     62016     62018     62017     62018
     62019     62020     62019     62021     62020     62021     62022     62023
     62022     62024     62023     62024     62025     62026     62025     62027
     62026     62027     62028     62029     62028     62030     62029     62030
     62031     62032     62031     62033     62032     62033     62034     62035
     62034     62036     62035     62036     62037     62038     62037     62039
     62038     62039     62040     62041     62040     62042     62041     62042
     62043     62044     62043     62045     62044     62045     62046     62047
     62046     62048     62047     62048     62049     62050     62049     62051
     62050     62051     62052     62053     62052     62054     62053     62054
     62055     62056     62055     62057     62056     62057     62058     62059
     62058     62060     62059     62060     62061     62062     62061     62063
     62062     62063     62064     62065     62064     62066     62065     62066
     62067     62068     62067     62069     62068     62069     62070     62071
     62070     62072     62071     62072     62073     62074     62073     62075
     62074     62075     62076     62077     62076     62078     62077     62078
     62079     62080     62079     62081     62080     62081     62082     62083
     62082     62084     62083     62084     62085     62086     62085     62087
     62086     62087     62088     62089     62088     62090     62089     62090
     62091     62092     62091     62093     62092     62093     62094     62095
     62094     62096     62095     62096     62097     62098     62097     62099
     62098     62099     62100     62101     62100     62102     62101     62102
     62103     62104     62103     62105     62104     62105     62106     62107
     62106     62108     62107     62108     62109     62110     62109     62111
     62110     62111     62112     62113     62112     62114     62113     62114
     62115     62116     62115     62117     62116     62117     62118     62119
     62118     62120     62119     62120     62121     62122     62121     62123
     62122     62123     62124     62125     62124     62126     62125     62126
     62127     62128     62127     62129     62128     62129     62130     62131
     62130     62132     62131     62132     62133     62134     62133     62135
     62134     62135     62136     62137     62136     62138     62137     62138
     62139     62140     62139     62141     62140     62141     62142     62143
     62142     62144     62143     62144     62145     62146     62145     62147
     62146     62147     62148     62149     62148     62150     62149     62150
     62151     62152     62151     62153     62152     62153     62154     62155
     62154     62156     62155     62156     62157     62158     62157     62159
     62158     62159     62160     62161     62160     62162     62161     62162
     62163     62164     62163     62165     62164     62165     62166     62167
     62166     62168     62167     62168     62169     62170     62169     62171
     62170     62171     62172     62173     62172     62174     62173     62174
     62175     62176     62175     62177     62176     62177     62178     62179
     62178     62180     62179     62180     62181     62182     62181     62183
     62182     62183     62184     62185     62184     62186     62185     62186
     62187     62188     62187     62189     62188     62189     62190     62191
     62190     62192     62191     62192     62193     62194     62193     62195
     62194     62195     62196     62197     62196     62198     62197     62198
     62199     62200     62199     62201     62200     62201     62202     62203
     62202     62204     62203     62204     62205     62206     62205     62207
     62206     62207     62208     62209     62208     62210     62209     62210
     62211     62212     62211     62213     62212     62213     62214     62215
     62214     62216     62215     62216     62217     62218     62217     62219
     62218     62219     62220     62221     62220     62222     62221     62222
     62223     62224     62223     62225     62224     62225     62226     62227
     62226     62228     62227     62228     62229     62230     62229     62231
     62230     62231     62232     62233     62232     62234     62233     62234
     62235     62236     62235     62237     62236     62237     62238     62239
     62238     62240     62239     62240     62241     62242     62241     62243
     62242     62243     62244     62245     62244     62246     62245     62246
     62247     62248     62247     62249     62248     62249     62250     62251
     62250     62252     62251     62252     62253     62254     62253     62255
     62254     62255     62256     62257     62256     62258     62257     62258
     62259     62260     62259     62261     62260     62261     62262     62263
     62262     62264     62263     62264     62265     62266     62265     62267
     62266     62267     62268     62269     62268     62270     62269     62270
     62271     62272     62271     62273     62272     62273     62274     62275
     62274     62276     62275     62276     62277     62278     62277     62279
     62278     62279     62280     62281     62280     62282     62281     62282
     62283     62284     62283     62285     62284     62285     62286     62287
     62286     62288     62287     62288     62289     62290     62289     62291
     62290     62291     62292     62293     62292     62294     62293     62294
     62295     62296     62295     62297     62296     62297     62298     62299
     62298     62300     62299     62300     62301     62302     62301     62303
     62302     62303     62304     62305     62304     62306     62305     62306
     62307     62308     62307     62309     62308     62309     62310     62311
     62310     62312     62311     62312     62313     62314     62313     62315
     62314     62315     62316     62317     62316     62318     62317     62318
     62319     62320     62319     62321     62320     62321     62322     62323
     62322     62324     62323     62324     62325     62326     62325     62327
     62326     62327     62328     62329     62328     62330     62329     62330
     62331     62332     62331     62333     62332     62333     62334     62335
     62334     62336     62335     62336     62337     62338     62337     62339
     62338     62339     62340     62341     62340     62342     62341     62342
     62343     62344     62343     62345     62344     62345     62346     62347
     62346     62348     62347     62348     62349     62350     62349     62351
     62350     62351     62352     62353     62352     62354     62353     62354
     62355     62356     62355     62357     62356     62357     62358     62359
     62358     62360     62359     62360     62361     62362     62361     62363
     62362     62363     62364     62365     62364     62366     62365     62366
     62367     62368     62367     62369     62368     62369     62370     62371
     62370     62372     62371     62372     62373     62374     62373     62375
     62374     62375     62376     62377     62376     62378     62377     62378
     62379     62380     62379     62381     62380     62381     62382     62383
     62382     62384     62383     62384     62385     62386     62385     62387
     62386     62387     62388     62389     62388     62390     62389     62390
     62391     62392     62391     62393     62392     62393     62394     62395
     62394     62396     62395     62396     62397     62398     62397     62399
     62398     62399     62400     62401     62400     62402     62401     62402
     62403     62404     62403     62405     62404     62405     62406     62407
     62406     62408     62407     62408     62409     62410     62409     62411
     62410     62411     62412     62413     62412     62414     62413     62414
     62415     62416     62415     62417     62416     62417     62418     62419
     62418     62420     62419     62420     62421     62422     62421     62423
     62422     62423     62424     62425     62424     62426     62425     62426
     62427     62428     62427     62429     62428     62429     62430     62431
     62430     62432     62431     62432     62433     62434     62433     62435
     62434     62435     62436     62437     62436     62438     62437     62438
     62439     62440     62439     62441     62440     62441     62442     62443
     62442     62444     62443     62444     62445     62446     62445     62447
     62446     62447     62448     62449     62448     62450     62449     62450
     62451     62452     62451     62453     62452     62453     62454     62455
     62454     62456     62455     62456     62457     62458     62457     62459
     62458     62459     62460     62461     62460     62462     62461     62462
     62463     62464     62463     62465     62464     62465     62466     62467
     62466     62468     62467     62468     62469     62470     62469     62471
     62470     62471     62472     62473     62472     62474     62473     62474
     62475     62476     62475     62477     62476     62477     62478     62479
     62478     62480     62479     62480     62481     62482     62481     62483
     62482     62483     62484     62485     62484     62486     62485     62486
     62487     62488     62487     62489     62488     62489     62490     62491
     62490     62492     62491     62492     62493     62494     62493     62495
     62494     62495     62496     62497     62496     62498     62497     62498
     62499     62500     62499     62501     62500     62501     62502     62503
     62502     62504     62503     62504     62505     62506     62505     62507
     62506     62507     62508     62509     62508     62510     62509     62510
     62511     62512     62511     62513     62512     62513     62514     62515
     62514     62516     62515     62516     62517     62518     62517     62519
     62518     62519     62520     62521     62520     62522     62521     62522
     62523     62524     62523     62525     62524     62525     62526     62527
     62526     62528     62527     62528     62529     62530     62529     62531
     62530     62531     62532     62533     62532     62534     62533     62534
     62535     62536     62535     62537     62536     62537     62538     62539
     62538     62540     62539     62540     62541     62542     62541     62543
     62542     62543     62544     62545     62544     62546     62545     62546
     62547     62548     62547     62549     62548     62549     62550     62551
     62550     62552     62551     62552     62553     62554     62553     62555
     62554     62555     62556     62557     62556     62558     62557     62558
     62559     62560     62559     62561     62560     62561     62562     62563
     62562     62564     62563     62564     62565     62566     62565     62567
     62566     62567     62568     62569     62568     62570     62569     62570
     62571     62572     62571     62573     62572     62573     62574     62575
     62574     62576     62575     62576     62577     62578     62577     62579
     62578     62579     62580     62581     62580     62582     62581     62582
     62583     62584     62583     62585     62584     62585     62586     62587
     62586     62588     62587     62588     62589     62590     62589     62591
     62590     62591     62592     62593     62592     62594     62593     62594
     62595     62596     62595     62597     62596     62597     62598     62599
     62598     62600     62599     62600     62601     62602     62601     62603
     62602     62603     62604     62605     62604     62606     62605     62606
     62607     62608     62607     62609     62608     62609     62610     62611
     62610     62612     62611     62612     62613     62614     62613     62615
     62614     62615     62616     62617     62616     62618     62617     62618
     62619     62620     62619     62621     62620     62621     62622     62623
     62622     62624     62623     62624     62625     62626     62625     62627
     62626     62627     62628     62629     62628     62630     62629     62630
     62631     62632     62631     62633     62632     62633     62634     62635
     62634     62636     62635     62636     62637     62638     62637     62639
     62638     62639     62640     62641     62640     62642     62641     62642
     62643     62644     62643     62645     62644     62645     62646     62647
     62646     62648     62647     62648     62649     62650     62649     62651
     62650     62651     62652     62653     62652     62654     62653     62654
     62655     62656     62655     62657     62656     62657     62658     62659
     62658     62660     62659     62660     62661     62662     62661     62663
     62662     62663     62664     62665     62664     62666     62665     62666
     62667     62668     62667     62669     62668     62669     62670     62671
     62670     62672     62671     62672     62673     62674     62673     62675
     62674     62675     62676     62677     62676     62678     62677     62678
     62679     62680     62679     62681     62680     62681     62682     62683
     62682     62684     62683     62684     62685     62686     62685     62687
     62686     62687     62688     62689     62688     62690     62689     62690
     62691     62692     62691     62693     62692     62693     62694     62695
     62694     62696     62695     62696     62697     62698     62697     62699
     62698     62699     62700     62701     62700     62702     62701     62702
     62703     62704     62703     62705     62704     62705     62706     62707
     62706     62708     62707     62708     62709     62710     62709     62711
     62710     62711     62712     62713     62712     62714     62713     62714
     62715     62716     62715     62717     62716     62717     62718     62719
     62718     62720     62719     62720     62721     62722     62721     62723
     62722     62723     62724     62725     62724     62726     62725     62726
     62727     62728     62727     62729     62728     62729     62730     62731
     62730     62732     62731     62732     62733     62734     62733     62735
     62734     62735     62736     62737     62736     62738     62737     62738
     62739     62740     62739     62741     62740     62741     62742     62743
     62742     62744     62743     62744     62745     62746     62745     62747
     62746     62747     62748     62749     62748     62750     62749     62750
     62751     62752     62751     62753     62752     62753     62754     62755
     62754     62756     62755     62756     62757     62758     62757     62759
     62758     62759     62760     62761     62760     62762     62761     62762
     62763     62764     62763     62765     62764     62765     62766     62767
     62766     62768     62767     62768     62769     62770     62769     62771
     62770     62771     62772     62773     62772     62774     62773     62774
     62775     62776     62775     62777     62776     62777     62778     62779
     62778     62780     62779     62780     62781     62782     62781     62783
     62782     62783     62784     62785     62784     62786     62785     62786
     62787     62788     62787     62789     62788     62789     62790     62791
     62790     62792     62791     62792     62793     62794     62793     62795
     62794     62795     62796     62797     62796     62798     62797     62798
     62799     62800     62799     62801     62800     62801     62802     62803
     62802     62804     62803     62804     62805     62806     62805     62807
     62806     62807     62808     62809     62808     62810     62809     62810
     62811     62812     62811     62813     62812     62813     62814     62815
     62814     62816     62815     62816     62817     62818     62817     62819
     62818     62819     62820     62821     62820     62822     62821     62822
     62823     62824     62823     62825     62824     62825     62826     62827
     62826     62828     62827     62828     62829     62830     62829     62831
     62830     62831     62832     62833     62832     62834     62833     62834
     62835     62836     62835     62837     62836     62837     62838     62839
     62838     62840     62839     62840     62841     62842     62841     62843
     62842     62843     62844     62845     62844     62846     62845     62846
     62847     62848     62847     62849     62848     62849     62850     62851
     62850     62852     62851     62852     62853     62854     62853     62855
     62854     62855     62856     62857     62856     62858     62857     62858
     62859     62860     62859     62861     62860     62861     62862     62863
     62862     62864     62863     62864     62865     62866     62865     62867
     62866     62867     62868     62869     62868     62870     62869     62870
     62871     62872     62871     62873     62872     62873     62874     62875
     62874     62876     62875     62876     62877     62878     62877     62879
     62878     62879     62880     62881     62880     62882     62881     62882
     62883     62884     62883     62885     62884     62885     62886     62887
     62886     62888     62887     62888     62889     62890     62889     62891
     62890     62891     62892     62893     62892     62894     62893     62894
     62895     62896     62895     62897     62896     62897     62898     62899
     62898     62900     62899     62900     62901     62902     62901     62903
     62902     62903     62904     62905     62904     62906     62905     62906
     62907     62908     62907     62909     62908     62909     62910     62911
     62910     62912     62911     62912     62913     62914     62913     62915
     62914     62915     62916     62917     62916     62918     62917     62918
     62919     62920     62919     62921     62920     62921     62922     62923
     62922     62924     62923     62924     62925     62926     62925     62927
     62926     62927     62928     62929     62928     62930     62929     62930
     62931     62932     62931     62933     62932     62933     62934     62935
     62934     62936     62935     62936     62937     62938     62937     62939
     62938     62939     62940     62941     62940     62942     62941     62942
     62943     62944     62943     62945     62944     62945     62946     62947
     62946     62948     62947     62948     62949     62950     62949     62951
     62950     62951     62952     62953     62952     62954     62953     62954
     62955     62956     62955     62957     62956     62957     62958     62959
     62958     62960     62959     62960     62961     62962     62961     62963
     62962     62963     62964     62965     62964     62966     62965     62966
     62967     62968     62967     62969     62968     62969     62970     62971
     62970     62972     62971     62972     62973     62974     62973     62975
     62974     62975     62976     62977     62976     62978     62977     62978
     62979     62980     62979     62981     62980     62981     62982     62983
     62982     62984     62983     62984     62985     62986     62985     62987
     62986     62987     62988     62989     62988     62990     62989     62990
     62991     62992     62991     62993     62992     62993     62994     62995
     62994     62996     62995     62996     62997     62998     62997     62999
     62998     62999     63000     63001     63000     63002     63001     63002
     63003     63004     63003     63005     63004     63005     63006     63007
     63006     63008     63007     63008     63009     63010     63009     63011
     63010     63011     63012     63013     63012     63014     63013     63014
     63015     63016     63015     63017     63016     63017     63018     63019
     63018     63020     63019     63020     63021     63022     63021     63023
     63022     63023     63024     63025     63024     63026     63025     63026
     63027     63028     63027     63029     63028     63029     63030     63031
     63030     63032     63031     63032     63033     63034     63033     63035
     63034     63035     63036     63037     63036     63038     63037     63038
     63039     63040     63039     63041     63040     63041     63042     63043
     63042     63044     63043     63044     63045     63046     63045     63047
     63046     63047     63048     63049     63048     63050     63049     63050
     63051     63052     63051     63053     63052     63053     63054     63055
     63054     63056     63055     63056     63057     63058     63057     63059
     63058     63059     63060     63061     63060     63062     63061     63062
     63063     63064     63063     63065     63064     63065     63066     63067
     63066     63068     63067     63068     63069     63070     63069     63071
     63070     63071     63072     63073     63072     63074     63073     63074
     63075     63076     63075     63077     63076     63077     63078     63079
     63078     63080     63079     63080     63081     63082     63081     63083
     63082     63083     63084     63085     63084     63086     63085     63086
     63087     63088     63087     63089     63088     63089     63090     63091
     63090     63092     63091     63092     63093     63094     63093     63095
     63094     63095     63096     63097     63096     63098     63097     63098
     63099     63100     63099     63101     63100     63101     63102     63103
     63102     63104     63103     63104     63105     63106     63105     63107
     63106     63107     63108     63109     63108     63110     63109     63110
     63111     63112     63111     63113     63112     63113     63114     63115
     63114     63116     63115     63116     63117     63118     63117     63119
     63118     63119     63120     63121     63120     63122     63121     63122
     63123     63124     63123     63125     63124     63125     63126     63127
     63126     63128     63127     63128     63129     63130     63129     63131
     63130     63131     63132     63133     63132     63134     63133     63134
     63135     63136     63135     63137     63136     63137     63138     63139
     63138     63140     63139     63140     63141     63142     63141     63143
     63142     63143     63144     63145     63144     63146     63145     63146
     63147     63148     63147     63149     63148     63149     63150     63151
     63150     63152     63151     63152     63153     63154     63153     63155
     63154     63155     63156     63157     63156     63158     63157     63158
     63159     63160     63159     63161     63160     63161     63162     63163
     63162     63164     63163     63164     63165     63166     63165     63167
     63166     63167     63168     63169     63168     63170     63169     63170
     63171     63172     63171     63173     63172     63173     63174     63175
     63174     63176     63175     63176     63177     63178     63177     63179
     63178     63179     63180     63181     63180     63182     63181     63182
     63183     63184     63183     63185     63184     63185     63186     63187
     63186     63188     63187     63188     63189     63190     63189     63191
     63190     63191     63192     63193     63192     63194     63193     63194
     63195     63196     63195     63197     63196     63197     63198     63199
     63198     63200     63199     63200     63201     63202     63201     63203
     63202     63203     63204     63205     63204     63206     63205     63206
     63207     63208     63207     63209     63208     63209     63210     63211
     63210     63212     63211     63212     63213     63214     63213     63215
     63214     63215     63216     63217     63216     63218     63217     63218
     63219     63220     63219     63221     63220     63221     63222     63223
     63222     63224     63223     63224     63225     63226     63225     63227
     63226     63227     63228     63229     63228     63230     63229     63230
     63231     63232     63231     63233     63232     63233     63234     63235
     63234     63236     63235     63236     63237     63238     63237     63239
     63238     63239     63240     63241     63240     63242     63241     63242
     63243     63244     63243     63245     63244     63245     63246     63247
     63246     63248     63247     63248     63249     63250     63249     63251
     63250     63251     63252     63253     63252     63254     63253     63254
     63255     63256     63255     63257     63256     63257     63258     63259
     63258     63260     63259     63260     63261     63262     63261     63263
     63262     63263     63264     63265     63264     63266     63265     63266
     63267     63268     63267     63269     63268     63269     63270     63271
     63270     63272     63271     63272     63273     63274     63273     63275
     63274     63275     63276     63277     63276     63278     63277     63278
     63279     63280     63279     63281     63280     63281     63282     63283
     63282     63284     63283     63284     63285     63286     63285     63287
     63286     63287     63288     63289     63288     63290     63289     63290
     63291     63292     63291     63293     63292     63293     63294     63295
     63294     63296     63295     63296     63297     63298     63297     63299
     63298     63299     63300     63301     63300     63302     63301     63302
     63303     63304     63303     63305     63304     63305     63306     63307
     63306     63308     63307     63308     63309     63310     63309     63311
     63310     63311     63312     63313     63312     63314     63313     63314
     63315     63316     63315     63317     63316     63317     63318     63319
     63318     63320     63319     63320     63321     63322     63321     63323
     63322     63323     63324     63325     63324     63326     63325     63326
     63327     63328     63327     63329     63328     63329     63330     63331
     63330     63332     63331     63332     63333     63334     63333     63335
     63334     63335     63336     63337     63336     63338     63337     63338
     63339     63340     63339     63341     63340     63341     63342     63343
     63342     63344     63343     63344     63345     63346     63345     63347
     63346     63347     63348     63349     63348     63350     63349     63350
     63351     63352     63351     63353     63352     63353     63354     63355
     63354     63356     63355     63356     63357     63358     63357     63359
     63358     63359     63360     63361     63360     63362     63361     63362
     63363     63364     63363     63365     63364     63365     63366     63367
     63366     63368     63367     63368     63369     63370     63369     63371
     63370     63371     63372     63373     63372     63374     63373     63374
     63375     63376     63375     63377     63376     63377     63378     63379
     63378     63380     63379     63380     63381     63382     63381     63383
     63382     63383     63384     63385     63384     63386     63385     63386
     63387     63388     63387     63389     63388     63389     63390     63391
     63390     63392     63391     63392     63393     63394     63393     63395
     63394     63395     63396     63397     63396     63398     63397     63398
     63399     63400     63399     63401     63400     63401     63402     63403
     63402     63404     63403     63404     63405     63406     63405     63407
     63406     63407     63408     63409     63408     63410     63409     63410
     63411     63412     63411     63413     63412     63413     63414     63415
     63414     63416     63415     63416     63417     63418     63417     63419
     63418     63419     63420     63421     63420     63422     63421     63422
     63423     63424     63423     63425     63424     63425     63426     63427
     63426     63428     63427     63428     63429     63430     63429     63431
     63430     63431     63432     63433     63432     63434     63433     63434
     63435     63436     63435     63437     63436     63437     63438     63439
     63438     63440     63439     63440     63441     63442     63441     63443
     63442     63443     63444     63445     63444     63446     63445     63446
     63447     63448     63447     63449     63448     63449     63450     63451
     63450     63452     63451     63452     63453     63454     63453     63455
     63454     63455     63456     63457     63456     63458     63457     63458
     63459     63460     63459     63461     63460     63461     63462     63463
     63462     63464     63463     63464     63465     63466     63465     63467
     63466     63467     63468     63469     63468     63470     63469     63470
     63471     63472     63471     63473     63472     63473     63474     63475
     63474     63476     63475     63476     63477     63478     63477     63479
     63478     63479     63480     63481     63480     63482     63481     63482
     63483     63484     63483     63485     63484     63485     63486     63487
     63486     63488     63487     63488     63489     63490     63489     63491
     63490     63491     63492     63493     63492     63494     63493     63494
     63495     63496     63495     63497     63496     63497     63498     63499
     63498     63500     63499     63500     63501     63502     63501     63503
     63502     63503     63504     63505     63504     63506     63505     63506
     63507     63508     63507     63509     63508     63509     63510     63511
     63510     63512     63511     63512     63513     63514     63513     63515
     63514     63515     63516     63517     63516     63518     63517     63518
     63519     63520     63519     63521     63520     63521     63522     63523
     63522     63524     63523     63524     63525     63526     63525     63527
     63526     63527     63528     63529     63528     63530     63529     63530
     63531     63532     63531     63533     63532     63533     63534     63535
     63534     63536     63535     63536     63537     63538     63537     63539
     63538     63539     63540     63541     63540     63542     63541     63542
     63543     63544     63543     63545     63544     63545     63546     63547
     63546     63548     63547     63548     63549     63550     63549     63551
     63550     63551     63552     63553     63552     63554     63553     63554
     63555     63556     63555     63557     63556     63557     63558     63559
     63558     63560     63559     63560     63561     63562     63561     63563
     63562     63563     63564     63565     63564     63566     63565     63566
     63567     63568     63567     63569     63568     63569     63570     63571
     63570     63572     63571     63572     63573     63574     63573     63575
     63574     63575     63576     63577     63576     63578     63577     63578
     63579     63580     63579     63581     63580     63581     63582     63583
     63582     63584     63583     63584     63585     63586     63585     63587
     63586     63587     63588     63589     63588     63590     63589     63590
     63591     63592     63591     63593     63592     63593     63594     63595
     63594     63596     63595     63596     63597     63598     63597     63599
     63598     63599     63600     63601     63600     63602     63601     63602
     63603     63604     63603     63605     63604     63605     63606     63607
     63606     63608     63607     63608     63609     63610     63609     63611
     63610     63611     63612     63613     63612     63614     63613     63614
     63615     63616     63615     63617     63616     63617     63618     63619
     63618     63620     63619     63620     63621     63622     63621     63623
     63622     63623     63624     63625     63624     63626     63625     63626
     63627     63628     63627     63629     63628     63629     63630     63631
     63630     63632     63631     63632     63633     63634     63633     63635
     63634     63635     63636     63637     63636     63638     63637     63638
     63639     63640     63639     63641     63640     63641     63642     63643
     63642     63644     63643     63644     63645     63646     63645     63647
     63646     63647     63648     63649     63648     63650     63649     63650
     63651     63652     63651     63653     63652     63653     63654     63655
     63654     63656     63655     63656     63657     63658     63657     63659
     63658     63659     63660     63661     63660     63662     63661     63662
     63663     63664     63663     63665     63664     63665     63666     63667
     63666     63668     63667     63668     63669     63670     63669     63671
     63670     63671     63672     63673     63672     63674     63673     63674
     63675     63676     63675     63677     63676     63677     63678     63679
     63678     63680     63679     63680     63681     63682     63681     63683
     63682     63683     63684     63685     63684     63686     63685     63686
     63687     63688     63687     63689     63688     63689     63690     63691
     63690     63692     63691     63692     63693     63694     63693     63695
     63694     63695     63696     63697     63696     63698     63697     63698
     63699     63700     63699     63701     63700     63701     63702     63703
     63702     63704     63703     63704     63705     63706     63705     63707
     63706     63707     63708     63709     63708     63710     63709     63710
     63711     63712     63711     63713     63712     63713     63714     63715
     63714     63716     63715     63716     63717     63718     63717     63719
     63718     63719     63720     63721     63720     63722     63721     63722
     63723     63724     63723     63725     63724     63725     63726     63727
     63726     63728     63727     63728     63729     63730     63729     63731
     63730     63731     63732     63733     63732     63734     63733     63734
     63735     63736     63735     63737     63736     63737     63738     63739
     63738     63740     63739     63740     63741     63742     63741     63743
     63742     63743     63744     63745     63744     63746     63745     63746
     63747     63748     63747     63749     63748     63749     63750     63751
     63750     63752     63751     63752     63753     63754     63753     63755
     63754     63755     63756     63757     63756     63758     63757     63758
     63759     63760     63759     63761     63760     63761     63762     63763
     63762     63764     63763     63764     63765     63766     63765     63767
     63766     63767     63768     63769     63768     63770     63769     63770
     63771     63772     63771     63773     63772     63773     63774     63775
     63774     63776     63775     63776     63777     63778     63777     63779
     63778     63779     63780     63781     63780     63782     63781     63782
     63783     63784     63783     63785     63784     63785     63786     63787
     63786     63788     63787     63788     63789     63790     63789     63791
     63790     63791     63792     63793     63792     63794     63793     63794
     63795     63796     63795     63797     63796     63797     63798     63799
     63798     63800     63799     63800     63801     63802     63801     63803
     63802     63803     63804     63805     63804     63806     63805     63806
     63807     63808     63807     63809     63808     63809     63810     63811
     63810     63812     63811     63812     63813     63814     63813     63815
     63814     63815     63816     63817     63816     63818     63817     63818
     63819     63820     63819     63821     63820     63821     63822     63823
     63822     63824     63823     63824     63825     63826     63825     63827
     63826     63827     63828     63829     63828     63830     63829     63830
     63831     63832     63831     63833     63832     63833     63834     63835
     63834     63836     63835     63836     63837     63838     63837     63839
     63838     63839     63840     63841     63840     63842     63841     63842
     63843     63844     63843     63845     63844     63845     63846     63847
     63846     63848     63847     63848     63849     63850     63849     63851
     63850     63851     63852     63853     63852     63854     63853     63854
     63855     63856     63855     63857     63856     63857     63858     63859
     63858     63860     63859     63860     63861     63862     63861     63863
     63862     63863     63864     63865     63864     63866     63865     63866
     63867     63868     63867     63869     63868     63869     63870     63871
     63870     63872     63871     63872     63873     63874     63873     63875
     63874     63875     63876     63877     63876     63878     63877     63878
     63879     63880     63879     63881     63880     63881     63882     63883
     63882     63884     63883     63884     63885     63886     63885     63887
     63886     63887     63888     63889     63888     63890     63889     63890
     63891     63892     63891     63893     63892     63893     63894     63895
     63894     63896     63895     63896     63897     63898     63897     63899
     63898     63899     63900     63901     63900     63902     63901     63902
     63903     63904     63903     63905     63904     63905     63906     63907
     63906     63908     63907     63908     63909     63910     63909     63911
     63910     63911     63912     63913     63912     63914     63913     63914
     63915     63916     63915     63917     63916     63917     63918     63919
     63918     63920     63919     63920     63921     63922     63921     63923
     63922     63923     63924     63925     63924     63926     63925     63926
     63927     63928     63927     63929     63928     63929     63930     63931
     63930     63932     63931     63932     63933     63934     63933     63935
     63934     63935     63936     63937     63936     63938     63937     63938
     63939     63940     63939     63941     63940     63941     63942     63943
     63942     63944     63943     63944     63945     63946     63945     63947
     63946     63947     63948     63949     63948     63950     63949     63950
     63951     63952     63951     63953     63952     63953     63954     63955
     63954     63956     63955     63956     63957     63958     63957     63959
     63958     63959     63960     63961     63960     63962     63961     63962
     63963     63964     63963     63965     63964     63965     63966     63967
     63966     63968     63967     63968     63969     63970     63969     63971
     63970     63971     63972     63973     63972     63974     63973     63974
     63975     63976     63975     63977     63976     63977     63978     63979
     63978     63980     63979     63980     63981     63982     63981     63983
     63982     63983     63984     63985     63984     63986     63985     63986
     63987     63988     63987     63989     63988     63989     63990     63991
     63990     63992     63991     63992     63993     63994     63993     63995
     63994     63995     63996     63997     63996     63998     63997     63998
     63999     64000     63999     64001     64000     64001     64002     64003
     64002     64004     64003     64004     64005     64006     64005     64007
     64006     64007     64008     64009     64008     64010     64009     64010
     64011     64012     64011     64013     64012     64013     64014     64015
     64014     64016     64015     64016     64017     64018     64017     64019
     64018     64019     64020     64021     64020     64022     64021     64022
     64023     64024     64023     64025     64024     64025     64026     64027
     64026     64028     64027     64028     64029     64030     64029     64031
     64030     64031     64032     64033     64032     64034     64033     64034
     64035     64036     64035     64037     64036     64037     64038     64039
     64038     64040     64039     64040     64041     64042     64041     64043
     64042     64043     64044     64045     64044     64046     64045     64046
     64047     64048     64047     64049     64048     64049     64050     64051
     64050     64052     64051     64052     64053     64054     64053     64055
     64054     64055     64056     64057     64056     64058     64057     64058
     64059     64060     64059     64061     64060     64061     64062     64063
     64062     64064     64063     64064     64065     64066     64065     64067
     64066     64067     64068     64069     64068     64070     64069     64070
     64071     64072     64071     64073     64072     64073     64074     64075
     64074     64076     64075     64076     64077     64078     64077     64079
     64078     64079     64080     64081     64080     64082     64081     64082
     64083     64084     64083     64085     64084     64085     64086     64087
     64086     64088     64087     64088     64089     64090     64089     64091
     64090     64091     64092     64093     64092     64094     64093     64094
     64095     64096     64095     64097     64096     64097     64098     64099
     64098     64100     64099     64100     64101     64102     64101     64103
     64102     64103     64104     64105     64104     64106     64105     64106
     64107     64108     64107     64109     64108     64109     64110     64111
     64110     64112     64111     64112     64113     64114     64113     64115
     64114     64115     64116     64117     64116     64118     64117     64118
     64119     64120     64119     64121     64120     64121     64122     64123
     64122     64124     64123     64124     64125     64126     64125     64127
     64126     64127     64128     64129     64128     64130     64129     64130
     64131     64132     64131     64133     64132     64133     64134     64135
     64134     64136     64135     64136     64137     64138     64137     64139
     64138     64139     64140     64141     64140     64142     64141     64142
     64143     64144     64143     64145     64144     64145     64146     64147
     64146     64148     64147     64148     64149     64150     64149     64151
     64150     64151     64152     64153     64152     64154     64153     64154
     64155     64156     64155     64157     64156     64157     64158     64159
     64158     64160     64159     64160     64161     64162     64161     64163
     64162     64163     64164     64165     64164     64166     64165     64166
     64167     64168     64167     64169     64168     64169     64170     64171
     64170     64172     64171     64172     64173     64174     64173     64175
     64174     64175     64176     64177     64176     64178     64177     64178
     64179     64180     64179     64181     64180     64181     64182     64183
     64182     64184     64183     64184     64185     64186     64185     64187
     64186     64187     64188     64189     64188     64190     64189     64190
     64191     64192     64191     64193     64192     64193     64194     64195
     64194     64196     64195     64196     64197     64198     64197     64199
     64198     64199     64200     64201     64200     64202     64201     64202
     64203     64204     64203     64205     64204     64205     64206     64207
     64206     64208     64207     64208     64209     64210     64209     64211
     64210     64211     64212     64213     64212     64214     64213     64214
     64215     64216     64215     64217     64216     64217     64218     64219
     64218     64220     64219     64220     64221     64222     64221     64223
     64222     64223     64224     64225     64224     64226     64225     64226
     64227     64228     64227     64229     64228     64229     64230     64231
     64230     64232     64231     64232     64233     64234     64233     64235
     64234     64235     64236     64237     64236     64238     64237     64238
     64239     64240     64239     64241     64240     64241     64242     64243
     64242     64244     64243     64244     64245     64246     64245     64247
     64246     64247     64248     64249     64248     64250     64249     64250
     64251     64252     64251     64253     64252     64253     64254     64255
     64254     64256     64255     64256     64257     64258     64257     64259
     64258     64259     64260     64261     64260     64262     64261     64262
     64263     64264     64263     64265     64264     64265     64266     64267
     64266     64268     64267     64268     64269     64270     64269     64271
     64270     64271     64272     64273     64272     64274     64273     64274
     64275     64276     64275     64277     64276     64277     64278     64279
     64278     64280     64279     64280     64281     64282     64281     64283
     64282     64283     64284     64285     64284     64286     64285     64286
     64287     64288     64287     64289     64288     64289     64290     64291
     64290     64292     64291     64292     64293     64294     64293     64295
     64294     64295     64296     64297     64296     64298     64297     64298
     64299     64300     64299     64301     64300     64301     64302     64303
     64302     64304     64303     64304     64305     64306     64305     64307
     64306     64307     64308     64309     64308     64310     64309     64310
     64311     64312     64311     64313     64312     64313     64314     64315
     64314     64316     64315     64316     64317     64318     64317     64319
     64318     64319     64320     64321     64320     64322     64321     64322
     64323     64324     64323     64325     64324     64325     64326     64327
     64326     64328     64327     64328     64329     64330     64329     64331
     64330     64331     64332     64333     64332     64334     64333     64334
     64335     64336     64335     64337     64336     64337     64338     64339
     64338     64340     64339     64340     64341     64342     64341     64343
     64342     64343     64344     64345     64344     64346     64345     64346
     64347     64348     64347     64349     64348     64349     64350     64351
     64350     64352     64351     64352     64353     64354     64353     64355
     64354     64355     64356     64357     64356     64358     64357     64358
     64359     64360     64359     64361     64360     64361     64362     64363
     64362     64364     64363     64364     64365     64366     64365     64367
     64366     64367     64368     64369     64368     64370     64369     64370
     64371     64372     64371     64373     64372     64373     64374     64375
     64374     64376     64375     64376     64377     64378     64377     64379
     64378     64379     64380     64381     64380     64382     64381     64382
     64383     64384     64383     64385     64384     64385     64386     64387
     64386     64388     64387     64388     64389     64390     64389     64391
     64390     64391     64392     64393     64392     64394     64393     64394
     64395     64396     64395     64397     64396     64397     64398     64399
     64398     64400     64399     64400     64401     64402     64401     64403
     64402     64403     64404     64405     64404     64406     64405     64406
     64407     64408     64407     64409     64408     64409     64410     64411
     64410     64412     64411     64412     64413     64414     64413     64415
     64414     64415     64416     64417     64416     64418     64417     64418
     64419     64420     64419     64421     64420     64421     64422     64423
     64422     64424     64423     64424     64425     64426     64425     64427
     64426     64427     64428     64429     64428     64430     64429     64430
     64431     64432     64431     64433     64432     64433     64434     64435
     64434     64436     64435     64436     64437     64438     64437     64439
     64438     64439     64440     64441     64440     64442     64441     64442
     64443     64444     64443     64445     64444     64445     64446     64447
     64446     64448     64447     64448     64449     64450     64449     64451
     64450     64451     64452     64453     64452     64454     64453     64454
     64455     64456     64455     64457     64456     64457     64458     64459
     64458     64460     64459     64460     64461     64462     64461     64463
     64462     64463     64464     64465     64464     64466     64465     64466
     64467     64468     64467     64469     64468     64469     64470     64471
     64470     64472     64471     64472     64473     64474     64473     64475
     64474     64475     64476     64477     64476     64478     64477     64478
     64479     64480     64479     64481     64480     64481     64482     64483
     64482     64484     64483     64484     64485     64486     64485     64487
     64486     64487     64488     64489     64488     64490     64489     64490
     64491     64492     64491     64493     64492     64493     64494     64495
     64494     64496     64495     64496     64497     64498     64497     64499
     64498     64499     64500     64501     64500     64502     64501     64502
     64503     64504     64503     64505     64504     64505     64506     64507
     64506     64508     64507     64508     64509     64510     64509     64511
     64510     64511     64512     64513     64512     64514     64513     64514
     64515     64516     64515     64517     64516     64517     64518     64519
     64518     64520     64519     64520     64521     64522     64521     64523
     64522     64523     64524     64525     64524     64526     64525     64526
     64527     64528     64527     64529     64528     64529     64530     64531
     64530     64532     64531     64532     64533     64534     64533     64535
     64534     64535     64536     64537     64536     64538     64537     64538
     64539     64540     64539     64541     64540     64541     64542     64543
     64542     64544     64543     64544     64545     64546     64545     64547
     64546     64547     64548     64549     64548     64550     64549     64550
     64551     64552     64551     64553     64552     64553     64554     64555
     64554     64556     64555     64556     64557     64558     64557     64559
     64558     64559     64560     64561     64560     64562     64561     64562
     64563     64564     64563     64565     64564     64565     64566     64567
     64566     64568     64567     64568     64569     64570     64569     64571
     64570     64571     64572     64573     64572     64574     64573     64574
     64575     64576     64575     64577     64576     64577     64578     64579
     64578     64580     64579     64580     64581     64582     64581     64583
     64582     64583     64584     64585     64584     64586     64585     64586
     64587     64588     64587     64589     64588     64589     64590     64591
     64590     64592     64591     64592     64593     64594     64593     64595
     64594     64595     64596     64597     64596     64598     64597     64598
     64599     64600     64599     64601     64600     64601     64602     64603
     64602     64604     64603     64604     64605     64606     64605     64607
     64606     64607     64608     64609     64608     64610     64609     64610
     64611     64612     64611     64613     64612     64613     64614     64615
     64614     64616     64615     64616     64617     64618     64617     64619
     64618     64619     64620     64621     64620     64622     64621     64622
     64623     64624     64623     64625     64624     64625     64626     64627
     64626     64628     64627     64628     64629     64630     64629     64631
     64630     64631     64632     64633     64632     64634     64633     64634
     64635     64636     64635     64637     64636     64637     64638     64639
     64638     64640     64639     64640     64641     64642     64641     64643
     64642     64643     64644     64645     64644     64646     64645     64646
     64647     64648     64647     64649     64648     64649     64650     64651
     64650     64652     64651     64652     64653     64654     64653     64655
     64654     64655     64656     64657     64656     64658     64657     64658
     64659     64660     64659     64661     64660     64661     64662     64663
     64662     64664     64663     64664     64665     64666     64665     64667
     64666     64667     64668     64669     64668     64670     64669     64670
     64671     64672     64671     64673     64672     64673     64674     64675
     64674     64676     64675     64676     64677     64678     64677     64679
     64678     64679     64680     64681     64680     64682     64681     64682
     64683     64684     64683     64685     64684     64685     64686     64687
     64686     64688     64687     64688     64689     64690     64689     64691
     64690     64691     64692     64693     64692     64694     64693     64694
     64695     64696     64695     64697     64696     64697     64698     64699
     64698     64700     64699     64700     64701     64702     64701     64703
     64702     64703     64704     64705     64704     64706     64705     64706
     64707     64708     64707     64709     64708     64709     64710     64711
     64710     64712     64711     64712     64713     64714     64713     64715
     64714     64715     64716     64717     64716     64718     64717     64718
     64719     64720     64719     64721     64720     64721     64722     64723
     64722     64724     64723     64724     64725     64726     64725     64727
     64726     64727     64728     64729     64728     64730     64729     64730
     64731     64732     64731     64733     64732     64733     64734     64735
     64734     64736     64735     64736     64737     64738     64737     64739
     64738     64739     64740     64741     64740     64742     64741     64742
     64743     64744     64743     64745     64744     64745     64746     64747
     64746     64748     64747     64748     64749     64750     64749     64751
     64750     64751     64752     64753     64752     64754     64753     64754
     64755     64756     64755     64757     64756     64757     64758     64759
     64758     64760     64759     64760     64761     64762     64761     64763
     64762     64763     64764     64765     64764     64766     64765     64766
     64767     64768     64767     64769     64768     64769     64770     64771
     64770     64772     64771     64772     64773     64774     64773     64775
     64774     64775     64776     64777     64776     64778     64777     64778
     64779     64780     64779     64781     64780     64781     64782     64783
     64782     64784     64783     64784     64785     64786     64785     64787
     64786     64787     64788     64789     64788     64790     64789     64790
     64791     64792     64791     64793     64792     64793     64794     64795
     64794     64796     64795     64796     64797     64798     64797     64799
     64798     64799     64800     64801     64800     64802     64801     64802
     64803     64804     64803     64805     64804     64805     64806     64807
     64806     64808     64807     64808     64809     64810     64809     64811
     64810     64811     64812     64813     64812     64814     64813     64814
     64815     64816     64815     64817     64816     64817     64818     64819
     64818     64820     64819     64820     64821     64822     64821     64823
     64822     64823     64824     64825     64824     64826     64825     64826
     64827     64828     64827     64829     64828     64829     64830     64831
     64830     64832     64831     64832     64833     64834     64833     64835
     64834     64835     64836     64837     64836     64838     64837     64838
     64839     64840     64839     64841     64840     64841     64842     64843
     64842     64844     64843     64844     64845     64846     64845     64847
     64846     64847     64848     64849     64848     64850     64849     64850
     64851     64852     64851     64853     64852     64853     64854     64855
     64854     64856     64855     64856     64857     64858     64857     64859
     64858     64859     64860     64861     64860     64862     64861     64862
     64863     64864     64863     64865     64864     64865     64866     64867
     64866     64868     64867     64868     64869     64870     64869     64871
     64870     64871     64872     64873     64872     64874     64873     64874
     64875     64876     64875     64877     64876     64877     64878     64879
     64878     64880     64879     64880     64881     64882     64881     64883
     64882     64883     64884     64885     64884     64886     64885     64886
     64887     64888     64887     64889     64888     64889     64890     64891
     64890     64892     64891     64892     64893     64894     64893     64895
     64894     64895     64896     64897     64896     64898     64897     64898
     64899     64900     64899     64901     64900     64901     64902     64903
     64902     64904     64903     64904     64905     64906     64905     64907
     64906     64907     64908     64909     64908     64910     64909     64910
     64911     64912     64911     64913     64912     64913     64914     64915
     64914     64916     64915     64916     64917     64918     64917     64919
     64918     64919     64920     64921     64920     64922     64921     64922
     64923     64924     64923     64925     64924     64925     64926     64927
     64926     64928     64927     64928     64929     64930     64929     64931
     64930     64931     64932     64933     64932     64934     64933     64934
     64935     64936     64935     64937     64936     64937     64938     64939
     64938     64940     64939     64940     64941     64942     64941     64943
     64942     64943     64944     64945     64944     64946     64945     64946
     64947     64948     64947     64949     64948     64949     64950     64951
     64950     64952     64951     64952     64953     64954     64953     64955
     64954     64955     64956     64957     64956     64958     64957     64958
     64959     64960     64959     64961     64960     64961     64962     64963
     64962     64964     64963     64964     64965     64966     64965     64967
     64966     64967     64968     64969     64968     64970     64969     64970
     64971     64972     64971     64973     64972     64973     64974     64975
     64974     64976     64975     64976     64977     64978     64977     64979
     64978     64979     64980     64981     64980     64982     64981     64982
     64983     64984     64983     64985     64984     64985     64986     64987
     64986     64988     64987     64988     64989     64990     64989     64991
     64990     64991     64992     64993     64992     64994     64993     64994
     64995     64996     64995     64997     64996     64997     64998     64999
     64998     65000     64999     65000     65001     65002     65001     65003
     65002     65003     65004     65005     65004     65006     65005     65006
     65007     65008     65007     65009     65008     65009     65010     65011
     65010     65012     65011     65012     65013     65014     65013     65015
     65014     65015     65016     65017     65016     65018     65017     65018
     65019     65020     65019     65021     65020     65021     65022     65023
     65022     65024     65023     65024     65025     65026     65025     65027
     65026     65027     65028     65029     65028     65030     65029     65030
     65031     65032     65031     65033     65032     65033     65034     65035
     65034     65036     65035     65036     65037     65038     65037     65039
     65038     65039     65040     65041     65040     65042     65041     65042
     65043     65044     65043     65045     65044     65045     65046     65047
     65046     65048     65047     65048     65049     65050     65049     65051
     65050     65051     65052     65053     65052     65054     65053     65054
     65055     65056     65055     65057     65056     65057     65058     65059
     65058     65060     65059     65060     65061     65062     65061     65063
     65062     65063     65064     65065     65064     65066     65065     65066
     65067     65068     65067     65069     65068     65069     65070     65071
     65070     65072     65071     65072     65073     65074     65073     65075
     65074     65075     65076     65077     65076     65078     65077     65078
     65079     65080     65079     65081     65080     65081     65082     65083
     65082     65084     65083     65084     65085     65086     65085     65087
     65086     65087     65088     65089     65088     65090     65089     65090
     65091     65092     65091     65093     65092     65093     65094     65095
     65094     65096     65095     65096     65097     65098     65097     65099
     65098     65099     65100     65101     65100     65102     65101     65102
     65103     65104     65103     65105     65104     65105     65106     65107
     65106     65108     65107     65108     65109     65110     65109     65111
     65110     65111     65112     65113     65112     65114     65113     65114
     65115     65116     65115     65117     65116     65117     65118     65119
     65118     65120     65119     65120     65121     65122     65121     65123
     65122     65123     65124     65125     65124     65126     65125     65126
     65127     65128     65127     65129     65128     65129     65130     65131
     65130     65132     65131     65132     65133     65134     65133     65135
     65134     65135     65136     65137     65136     65138     65137     65138
     65139     65140     65139     65141     65140     65141     65142     65143
     65142     65144     65143     65144     65145     65146     65145     65147
     65146     65147     65148     65149     65148     65150     65149     65150
     65151     65152     65151     65153     65152     65153     65154     65155
     65154     65156     65155     65156     65157     65158     65157     65159
     65158     65159     65160     65161     65160     65162     65161     65162
     65163     65164     65163     65165     65164     65165     65166     65167
     65166     65168     65167     65168     65169     65170     65169     65171
     65170     65171     65172     65173     65172     65174     65173     65174
     65175     65176     65175     65177     65176     65177     65178     65179
     65178     65180     65179     65180     65181     65182     65181     65183
     65182     65183     65184     65185     65184     65186     65185     65186
     65187     65188     65187     65189     65188     65189     65190     65191
     65190     65192     65191     65192     65193     65194     65193     65195
     65194     65195     65196     65197     65196     65198     65197     65198
     65199     65200     65199     65201     65200     65201     65202     65203
     65202     65204     65203     65204     65205     65206     65205     65207
     65206     65207     65208     65209     65208     65210     65209     65210
     65211     65212     65211     65213     65212     65213     65214     65215
     65214     65216     65215     65216     65217     65218     65217     65219
     65218     65219     65220     65221     65220     65222     65221     65222
     65223     65224     65223     65225     65224     65225     65226     65227
     65226     65228     65227     65228     65229     65230     65229     65231
     65230     65231     65232     65233     65232     65234     65233     65234
     65235     65236     65235     65237     65236     65237     65238     65239
     65238     65240     65239     65240     65241     65242     65241     65243
     65242     65243     65244     65245     65244     65246     65245     65246
     65247     65248     65247     65249     65248     65249     65250     65251
     65250     65252     65251     65252     65253     65254     65253     65255
     65254     65255     65256     65257     65256     65258     65257     65258
     65259     65260     65259     65261     65260     65261     65262     65263
     65262     65264     65263     65264     65265     65266     65265     65267
     65266     65267     65268     65269     65268     65270     65269     65270
     65271     65272     65271     65273     65272     65273     65274     65275
     65274     65276     65275     65276     65277     65278     65277     65279
     65278     65279     65280     65281     65280     65282     65281     65282
     65283     65284     65283     65285     65284     65285     65286     65287
     65286     65288     65287     65288     65289     65290     65289     65291
     65290     65291     65292     65293     65292     65294     65293     65294
     65295     65296     65295     65297     65296     65297     65298     65299
     65298     65300     65299     65300     65301     65302     65301     65303
     65302     65303     65304     65305     65304     65306     65305     65306
     65307     65308     65307     65309     65308     65309     65310     65311
     65310     65312     65311     65312     65313     65314     65313     65315
     65314     65315     65316     65317     65316     65318     65317     65318
     65319     65320     65319     65321     65320     65321     65322     65323
     65322     65324     65323     65324     65325     65326     65325     65327
     65326     65327     65328     65329     65328     65330     65329     65330
     65331     65332     65331     65333     65332     65333     65334     65335
     65334     65336     65335     65336     65337     65338     65337     65339
     65338     65339     65340     65341     65340     65342     65341     65342
     65343     65344     65343     65345     65344     65345     65346     65347
     65346     65348     65347     65348     65349     65350     65349     65351
     65350     65351     65352     65353     65352     65354     65353     65354
     65355     65356     65355     65357     65356     65357     65358     65359
     65358     65360     65359     65360     65361     65362     65361     65363
     65362     65363     65364     65365     65364     65366     65365     65366
     65367     65368     65367     65369     65368     65369     65370     65371
     65370     65372     65371     65372     65373     65374     65373     65375
     65374     65375     65376     65377     65376     65378     65377     65378
     65379     65380     65379     65381     65380     65381     65382     65383
     65382     65384     65383     65384     65385     65386     65385     65387
     65386     65387     65388     65389     65388     65390     65389     65390
     65391     65392     65391     65393     65392     65393     65394     65395
     65394     65396     65395     65396     65397     65398     65397     65399
     65398     65399     65400     65401     65400     65402     65401     65402
     65403     65404     65403     65405     65404     65405     65406     65407
     65406     65408     65407     65408     65409     65410     65409     65411
     65410     65411     65412     65413     65412     65414     65413     65414
     65415     65416     65415     65417     65416     65417     65418     65419
     65418     65420     65419     65420     65421     65422     65421     65423
     65422     65423     65424     65425     65424     65426     65425     65426
     65427     65428     65427     65429     65428     65429     65430     65431
     65430     65432     65431     65432     65433     65434     65433     65435
     65434     65435     65436     65437     65436     65438     65437     65438
     65439     65440     65439     65441     65440     65441     65442     65443
     65442     65444     65443     65444     65445     65446     65445     65447
     65446     65447     65448     65449     65448     65450     65449     65450
     65451     65452     65451     65453     65452     65453     65454     65455
     65454     65456     65455     65456     65457     65458     65457     65459
     65458     65459     65460     65461     65460     65462     65461     65462
     65463     65464     65463     65465     65464     65465     65466     65467
     65466     65468     65467     65468     65469     65470     65469     65471
     65470     65471     65472     65473     65472     65474     65473     65474
     65475     65476     65475     65477     65476     65477     65478     65479
     65478     65480     65479     65480     65481     65482     65481     65483
     65482     65483     65484     65485     65484     65486     65485     65486
     65487     65488     65487     65489     65488     65489     65490     65491
     65490     65492     65491     65492     65493     65494     65493     65495
     65494     65495     65496     65497     65496     65498     65497     65498
     65499     65500     65499     65501     65500     65501     65502     65503
     65502     65504     65503     65504     65505     65506     65505     65507
     65506     65507     65508     65509     65508     65510     65509     65510
     65511     65512     65511     65513     65512     65513     65514     65515
     65514     65516     65515     65516     65517     65518     65517     65519
     65518     65519     65520     65521     65520     65522     65521     65522
     65523     65524     65523     65525     65524     65525     65526     65527
     65526     65528     65527     65528     65529     65530     65529     65531
     65530     65531     65532     65533     65532     65534     65533     65534
     65535     65536     65535     65537     65536     65537     65538     65539
     65538     65540     65539     65540     65541     65542     65541     65543
     65542     65543     65544     65545     65544     65546     65545     65546
     65547     65548     65547     65549     65548     65549     65550     65551
     65550     65552     65551     65552     65553     65554     65553     65555
     65554     65555     65556     65557     65556     65558     65557     65558
     65559     65560     65559     65561     65560     65561     65562     65563
     65562     65564     65563     65564     65565     65566     65565     65567
     65566     65567     65568     65569     65568     65570     65569     65570
     65571     65572     65571     65573     65572     65573     65574     65575
     65574     65576     65575     65576     65577     65578     65577     65579
     65578     65579     65580     65581     65580     65582     65581     65582
     65583     65584     65583     65585     65584     65585     65586     65587
     65586     65588     65587     65588     65589     65590     65589     65591
     65590     65591     65592     65593     65592     65594     65593     65594
     65595     65596     65595     65597     65596     65597     65598     65599
     65598     65600     65599     65600     65601     65602     65601     65603
     65602     65603     65604     65605     65604     65606     65605     65606
     65607     65608     65607     65609     65608     65609     65610     65611
     65610     65612     65611     65612     65613     65614     65613     65615
     65614     65615     65616     65617     65616     65618     65617     65618
     65619     65620     65619     65621     65620     65621     65622     65623
     65622     65624     65623     65624     65625     65626     65625     65627
     65626     65627     65628     65629     65628     65630     65629     65630
     65631     65632     65631     65633     65632     65633     65634     65635
     65634     65636     65635     65636     65637     65638     65637     65639
     65638     65639     65640     65641     65640     65642     65641     65642
     65643     65644     65643     65645     65644     65645     65646     65647
     65646     65648     65647     65648     65649     65650     65649     65651
     65650     65651     65652     65653     65652     65654     65653     65654
     65655     65656     65655     65657     65656     65657     65658     65659
     65658     65660     65659     65660     65661     65662     65661     65663
     65662     65663     65664     65665     65664     65666     65665     65666
     65667     65668     65667     65669     65668     65669     65670     65671
     65670     65672     65671     65672     65673     65674     65673     65675
     65674     65675     65676     65677     65676     65678     65677     65678
     65679     65680     65679     65681     65680     65681     65682     65683
     65682     65684     65683     65684     65685     65686     65685     65687
     65686     65687     65688     65689     65688     65690     65689     65690
     65691     65692     65691     65693     65692     65693     65694     65695
     65694     65696     65695     65696     65697     65698     65697     65699
     65698     65699     65700     65701     65700     65702     65701     65702
     65703     65704     65703     65705     65704     65705     65706     65707
     65706     65708     65707     65708     65709     65710     65709     65711
     65710     65711     65712     65713     65712     65714     65713     65714
     65715     65716     65715     65717     65716     65717     65718     65719
     65718     65720     65719     65720     65721     65722     65721     65723
     65722     65723     65724     65725     65724     65726     65725     65726
     65727     65728     65727     65729     65728     65729     65730     65731
     65730     65732     65731     65732     65733     65734     65733     65735
     65734     65735     65736     65737     65736     65738     65737     65738
     65739     65740     65739     65741     65740     65741     65742     65743
     65742     65744     65743     65744     65745     65746     65745     65747
     65746     65747     65748     65749     65748     65750     65749     65750
     65751     65752     65751     65753     65752     65753     65754     65755
     65754     65756     65755     65756     65757     65758     65757     65759
     65758     65759     65760     65761     65760     65762     65761     65762
     65763     65764     65763     65765     65764     65765     65766     65767
     65766     65768     65767     65768     65769     65770     65769     65771
     65770     65771     65772     65773     65772     65774     65773     65774
     65775     65776     65775     65777     65776     65777     65778     65779
     65778     65780     65779     65780     65781     65782     65781     65783
     65782     65783     65784     65785     65784     65786     65785     65786
     65787     65788     65787     65789     65788     65789     65790     65791
     65790     65792     65791     65792     65793     65794     65793     65795
     65794     65795     65796     65797     65796     65798     65797     65798
     65799     65800     65799     65801     65800     65801     65802     65803
     65802     65804     65803     65804     65805     65806     65805     65807
     65806     65807     65808     65809     65808     65810     65809     65810
     65811     65812     65811     65813     65812     65813     65814     65815
     65814     65816     65815     65816     65817     65818     65817     65819
     65818     65819     65820     65821     65820     65822     65821     65822
     65823     65824     65823     65825     65824     65825     65826     65827
     65826     65828     65827     65828     65829     65830     65829     65831
     65830     65831     65832     65833     65832     65834     65833     65834
     65835     65836     65835     65837     65836     65837     65838     65839
     65838     65840     65839     65840     65841     65842     65841     65843
     65842     65843     65844     65845     65844     65846     65845     65846
     65847     65848     65847     65849     65848     65849     65850     65851
     65850     65852     65851     65852     65853     65854     65853     65855
     65854     65855     65856     65857     65856     65858     65857     65858
     65859     65860     65859     65861     65860     65861     65862     65863
     65862     65864     65863     65864     65865     65866     65865     65867
     65866     65867     65868     65869     65868     65870     65869     65870
     65871     65872     65871     65873     65872     65873     65874     65875
     65874     65876     65875     65876     65877     65878     65877     65879
     65878     65879     65880     65881     65880     65882     65881     65882
     65883     65884     65883     65885     65884     65885     65886     65887
     65886     65888     65887     65888     65889     65890     65889     65891
     65890     65891     65892     65893     65892     65894     65893     65894
     65895     65896     65895     65897     65896     65897     65898     65899
     65898     65900     65899     65900     65901     65902     65901     65903
     65902     65903     65904     65905     65904     65906     65905     65906
     65907     65908     65907     65909     65908     65909     65910     65911
     65910     65912     65911     65912     65913     65914     65913     65915
     65914     65915     65916     65917     65916     65918     65917     65918
     65919     65920     65919     65921     65920     65921     65922     65923
     65922     65924     65923     65924     65925     65926     65925     65927
     65926     65927     65928     65929     65928     65930     65929     65930
     65931     65932     65931     65933     65932     65933     65934     65935
     65934     65936     65935     65936     65937     65938     65937     65939
     65938     65939     65940     65941     65940     65942     65941     65942
     65943     65944     65943     65945     65944     65945     65946     65947
     65946     65948     65947     65948     65949     65950     65949     65951
     65950     65951     65952     65953     65952     65954     65953     65954
     65955     65956     65955     65957     65956     65957     65958     65959
     65958     65960     65959     65960     65961     65962     65961     65963
     65962     65963     65964     65965     65964     65966     65965     65966
     65967     65968     65967     65969     65968     65969     65970     65971
     65970     65972     65971     65972     65973     65974     65973     65975
     65974     65975     65976     65977     65976     65978     65977     65978
     65979     65980     65979     65981     65980     65981     65982     65983
     65982     65984     65983     65984     65985     65986     65985     65987
     65986     65987     65988     65989     65988     65990     65989     65990
     65991     65992     65991     65993     65992     65993     65994     65995
     65994     65996     65995     65996     65997     65998     65997     65999
     65998     65999     66000     66001     66000     66002     66001     66002
     66003     66004     66003     66005     66004     66005     66006     66007
     66006     66008     66007     66008     66009     66010     66009     66011
     66010     66011     66012     66013     66012     66014     66013     66014
     66015     66016     66015     66017     66016     66017     66018     66019
     66018     66020     66019     66020     66021     66022     66021     66023
     66022     66023     66024     66025     66024     66026     66025     66026
     66027     66028     66027     66029     66028     66029     66030     66031
     66030     66032     66031     66032     66033     66034     66033     66035
     66034     66035     66036     66037     66036     66038     66037     66038
     66039     66040     66039     66041     66040     66041     66042     66043
     66042     66044     66043     66044     66045     66046     66045     66047
     66046     66047     66048     66049     66048     66050     66049     66050
     66051     66052     66051     66053     66052     66053     66054     66055
     66054     66056     66055     66056     66057     66058     66057     66059
     66058     66059     66060     66061     66060     66062     66061     66062
     66063     66064     66063     66065     66064     66065     66066     66067
     66066     66068     66067     66068     66069     66070     66069     66071
     66070     66071     66072     66073     66072     66074     66073     66074
     66075     66076     66075     66077     66076     66077     66078     66079
     66078     66080     66079     66080     66081     66082     66081     66083
     66082     66083     66084     66085     66084     66086     66085     66086
     66087     66088     66087     66089     66088     66089     66090     66091
     66090     66092     66091     66092     66093     66094     66093     66095
     66094     66095     66096     66097     66096     66098     66097     66098
     66099     66100     66099     66101     66100     66101     66102     66103
     66102     66104     66103     66104     66105     66106     66105     66107
     66106     66107     66108     66109     66108     66110     66109     66110
     66111     66112     66111     66113     66112     66113     66114     66115
     66114     66116     66115     66116     66117     66118     66117     66119
     66118     66119     66120     66121     66120     66122     66121     66122
     66123     66124     66123     66125     66124     66125     66126     66127
     66126     66128     66127     66128     66129     66130     66129     66131
     66130     66131     66132     66133     66132     66134     66133     66134
     66135     66136     66135     66137     66136     66137     66138     66139
     66138     66140     66139     66140     66141     66142     66141     66143
     66142     66143     66144     66145     66144     66146     66145     66146
     66147     66148     66147     66149     66148     66149     66150     66151
     66150     66152     66151     66152     66153     66154     66153     66155
     66154     66155     66156     66157     66156     66158     66157     66158
     66159     66160     66159     66161     66160     66161     66162     66163
     66162     66164     66163     66164     66165     66166     66165     66167
     66166     66167     66168     66169     66168     66170     66169     66170
     66171     66172     66171     66173     66172     66173     66174     66175
     66174     66176     66175     66176     66177     66178     66177     66179
     66178     66179     66180     66181     66180     66182     66181     66182
     66183     66184     66183     66185     66184     66185     66186     66187
     66186     66188     66187     66188     66189     66190     66189     66191
     66190     66191     66192     66193     66192     66194     66193     66194
     66195     66196     66195     66197     66196     66197     66198     66199
     66198     66200     66199     66200     66201     66202     66201     66203
     66202     66203     66204     66205     66204     66206     66205     66206
     66207     66208     66207     66209     66208     66209     66210     66211
     66210     66212     66211     66212     66213     66214     66213     66215
     66214     66215     66216     66217     66216     66218     66217     66218
     66219     66220     66219     66221     66220     66221     66222     66223
     66222     66224     66223     66224     66225     66226     66225     66227
     66226     66227     66228     66229     66228     66230     66229     66230
     66231     66232     66231     66233     66232     66233     66234     66235
     66234     66236     66235     66236     66237     66238     66237     66239
     66238     66239     66240     66241     66240     66242     66241     66242
     66243     66244     66243     66245     66244     66245     66246     66247
     66246     66248     66247     66248     66249     66250     66249     66251
     66250     66251     66252     66253     66252     66254     66253     66254
     66255     66256     66255     66257     66256     66257     66258     66259
     66258     66260     66259     66260     66261     66262     66261     66263
     66262     66263     66264     66265     66264     66266     66265     66266
     66267     66268     66267     66269     66268     66269     66270     66271
     66270     66272     66271     66272     66273     66274     66273     66275
     66274     66275     66276     66277     66276     66278     66277     66278
     66279     66280     66279     66281     66280     66281     66282     66283
     66282     66284     66283     66284     66285     66286     66285     66287
     66286     66287     66288     66289     66288     66290     66289     66290
     66291     66292     66291     66293     66292     66293     66294     66295
     66294     66296     66295     66296     66297     66298     66297     66299
     66298     66299     66300     66301     66300     66302     66301     66302
     66303     66304     66303     66305     66304     66305     66306     66307
     66306     66308     66307     66308     66309     66310     66309     66311
     66310     66311     66312     66313     66312     66314     66313     66314
     66315     66316     66315     66317     66316     66317     66318     66319
     66318     66320     66319     66320     66321     66322     66321     66323
     66322     66323     66324     66325     66324     66326     66325     66326
     66327     66328     66327     66329     66328     66329     66330     66331
     66330     66332     66331     66332     66333     66334     66333     66335
     66334     66335     66336     66337     66336     66338     66337     66338
     66339     66340     66339     66341     66340     66341     66342     66343
     66342     66344     66343     66344     66345     66346     66345     66347
     66346     66347     66348     66349     66348     66350     66349     66350
     66351     66352     66351     66353     66352     66353     66354     66355
     66354     66356     66355     66356     66357     66358     66357     66359
     66358     66359     66360     66361     66360     66362     66361     66362
     66363     66364     66363     66365     66364     66365     66366     66367
     66366     66368     66367     66368     66369     66370     66369     66371
     66370     66371     66372     66373     66372     66374     66373     66374
     66375     66376     66375     66377     66376     66377     66378     66379
     66378     66380     66379     66380     66381     66382     66381     66383
     66382     66383     66384     66385     66384     66386     66385     66386
     66387     66388     66387     66389     66388     66389     66390     66391
     66390     66392     66391     66392     66393     66394     66393     66395
     66394     66395     66396     66397     66396     66398     66397     66398
     66399     66400     66399     66401     66400     66401     66402     66403
     66402     66404     66403     66404     66405     66406     66405     66407
     66406     66407     66408     66409     66408     66410     66409     66410
     66411     66412     66411     66413     66412     66413     66414     66415
     66414     66416     66415     66416     66417     66418     66417     66419
     66418     66419     66420     66421     66420     66422     66421     66422
     66423     66424     66423     66425     66424     66425     66426     66427
     66426     66428     66427     66428     66429     66430     66429     66431
     66430     66431     66432     66433     66432     66434     66433     66434
     66435     66436     66435     66437     66436     66437     66438     66439
     66438     66440     66439     66440     66441     66442     66441     66443
     66442     66443     66444     66445     66444     66446     66445     66446
     66447     66448     66447     66449     66448     66449     66450     66451
     66450     66452     66451     66452     66453     66454     66453     66455
     66454     66455     66456     66457     66456     66458     66457     66458
     66459     66460     66459     66461     66460     66461     66462     66463
     66462     66464     66463     66464     66465     66466     66465     66467
     66466     66467     66468     66469     66468     66470     66469     66470
     66471     66472     66471     66473     66472     66473     66474     66475
     66474     66476     66475     66476     66477     66478     66477     66479
     66478     66479     66480     66481     66480     66482     66481     66482
     66483     66484     66483     66485     66484     66485     66486     66487
     66486     66488     66487     66488     66489     66490     66489     66491
     66490     66491     66492     66493     66492     66494     66493     66494
     66495     66496     66495     66497     66496     66497     66498     66499
     66498     66500     66499     66500     66501     66502     66501     66503
     66502     66503     66504     66505     66504     66506     66505     66506
     66507     66508     66507     66509     66508     66509     66510     66511
     66510     66512     66511     66512     66513     66514     66513     66515
     66514     66515     66516     66517     66516     66518     66517     66518
     66519     66520     66519     66521     66520     66521     66522     66523
     66522     66524     66523     66524     66525     66526     66525     66527
     66526     66527     66528     66529     66528     66530     66529     66530
     66531     66532     66531     66533     66532     66533     66534     66535
     66534     66536     66535     66536     66537     66538     66537     66539
     66538     66539     66540     66541     66540     66542     66541     66542
     66543     66544     66543     66545     66544     66545     66546     66547
     66546     66548     66547     66548     66549     66550     66549     66551
     66550     66551     66552     66553     66552     66554     66553     66554
     66555     66556     66555     66557     66556     66557     66558     66559
     66558     66560     66559     66560     66561     66562     66561     66563
     66562     66563     66564     66565     66564     66566     66565     66566
     66567     66568     66567     66569     66568     66569     66570     66571
     66570     66572     66571     66572     66573     66574     66573     66575
     66574     66575     66576     66577     66576     66578     66577     66578
     66579     66580     66579     66581     66580     66581     66582     66583
     66582     66584     66583     66584     66585     66586     66585     66587
     66586     66587     66588     66589     66588     66590     66589     66590
     66591     66592     66591     66593     66592     66593     66594     66595
     66594     66596     66595     66596     66597     66598     66597     66599
     66598     66599     66600     66601     66600     66602     66601     66602
     66603     66604     66603     66605     66604     66605     66606     66607
     66606     66608     66607     66608     66609     66610     66609     66611
     66610     66611     66612     66613     66612     66614     66613     66614
     66615     66616     66615     66617     66616     66617     66618     66619
     66618     66620     66619     66620     66621     66622     66621     66623
     66622     66623     66624     66625     66624     66626     66625     66626
     66627     66628     66627     66629     66628     66629     66630     66631
     66630     66632     66631     66632     66633     66634     66633     66635
     66634     66635     66636     66637     66636     66638     66637     66638
     66639     66640     66639     66641     66640     66641     66642     66643
     66642     66644     66643     66644     66645     66646     66645     66647
     66646     66647     66648     66649     66648     66650     66649     66650
     66651     66652     66651     66653     66652     66653     66654     66655
     66654     66656     66655     66656     66657     66658     66657     66659
     66658     66659     66660     66661     66660     66662     66661     66662
     66663     66664     66663     66665     66664     66665     66666     66667
     66666     66668     66667     66668     66669     66670     66669     66671
     66670     66671     66672     66673     66672     66674     66673     66674
     66675     66676     66675     66677     66676     66677     66678     66679
     66678     66680     66679     66680     66681     66682     66681     66683
     66682     66683     66684     66685     66684     66686     66685     66686
     66687     66688     66687     66689     66688     66689     66690     66691
     66690     66692     66691     66692     66693     66694     66693     66695
     66694     66695     66696     66697     66696     66698     66697     66698
     66699     66700     66699     66701     66700     66701     66702     66703
     66702     66704     66703     66704     66705     66706     66705     66707
     66706     66707     66708     66709     66708     66710     66709     66710
     66711     66712     66711     66713     66712     66713     66714     66715
     66714     66716     66715     66716     66717     66718     66717     66719
     66718     66719     66720     66721     66720     66722     66721     66722
     66723     66724     66723     66725     66724     66725     66726     66727
     66726     66728     66727     66728     66729     66730     66729     66731
     66730     66731     66732     66733     66732     66734     66733     66734
     66735     66736     66735     66737     66736     66737     66738     66739
     66738     66740     66739     66740     66741     66742     66741     66743
     66742     66743     66744     66745     66744     66746     66745     66746
     66747     66748     66747     66749     66748     66749     66750     66751
     66750     66752     66751     66752     66753     66754     66753     66755
     66754     66755     66756     66757     66756     66758     66757     66758
     66759     66760     66759     66761     66760     66761     66762     66763
     66762     66764     66763     66764     66765     66766     66765     66767
     66766     66767     66768     66769     66768     66770     66769     66770
     66771     66772     66771     66773     66772     66773     66774     66775
     66774     66776     66775     66776     66777     66778     66777     66779
     66778     66779     66780     66781     66780     66782     66781     66782
     66783     66784     66783     66785     66784     66785     66786     66787
     66786     66788     66787     66788     66789     66790     66789     66791
     66790     66791     66792     66793     66792     66794     66793     66794
     66795     66796     66795     66797     66796     66797     66798     66799
     66798     66800     66799     66800     66801     66802     66801     66803
     66802     66803     66804     66805     66804     66806     66805     66806
     66807     66808     66807     66809     66808     66809     66810     66811
     66810     66812     66811     66812     66813     66814     66813     66815
     66814     66815     66816     66817     66816     66818     66817     66818
     66819     66820     66819     66821     66820     66821     66822     66823
     66822     66824     66823     66824     66825     66826     66825     66827
     66826     66827     66828     66829     66828     66830     66829     66830
     66831     66832     66831     66833     66832     66833     66834     66835
     66834     66836     66835     66836     66837     66838     66837     66839
     66838     66839     66840     66841     66840     66842     66841     66842
     66843     66844     66843     66845     66844     66845     66846     66847
     66846     66848     66847     66848     66849     66850     66849     66851
     66850     66851     66852     66853     66852     66854     66853     66854
     66855     66856     66855     66857     66856     66857     66858     66859
     66858     66860     66859     66860     66861     66862     66861     66863
     66862     66863     66864     66865     66864     66866     66865     66866
     66867     66868     66867     66869     66868     66869     66870     66871
     66870     66872     66871     66872     66873     66874     66873     66875
     66874     66875     66876     66877     66876     66878     66877     66878
     66879     66880     66879     66881     66880     66881     66882     66883
     66882     66884     66883     66884     66885     66886     66885     66887
     66886     66887     66888     66889     66888     66890     66889     66890
     66891     66892     66891     66893     66892     66893     66894     66895
     66894     66896     66895     66896     66897     66898     66897     66899
     66898     66899     66900     66901     66900     66902     66901     66902
     66903     66904     66903     66905     66904     66905     66906     66907
     66906     66908     66907     66908     66909     66910     66909     66911
     66910     66911     66912     66913     66912     66914     66913     66914
     66915     66916     66915     66917     66916     66917     66918     66919
     66918     66920     66919     66920     66921     66922     66921     66923
     66922     66923     66924     66925     66924     66926     66925     66926
     66927     66928     66927     66929     66928     66929     66930     66931
     66930     66932     66931     66932     66933     66934     66933     66935
     66934     66935     66936     66937     66936     66938     66937     66938
     66939     66940     66939     66941     66940     66941     66942     66943
     66942     66944     66943     66944     66945     66946     66945     66947
     66946     66947     66948     66949     66948     66950     66949     66950
     66951     66952     66951     66953     66952     66953     66954     66955
     66954     66956     66955     66956     66957     66958     66957     66959
     66958     66959     66960     66961     66960     66962     66961     66962
     66963     66964     66963     66965     66964     66965     66966     66967
     66966     66968     66967     66968     66969     66970     66969     66971
     66970     66971     66972     66973     66972     66974     66973     66974
     66975     66976     66975     66977     66976     66977     66978     66979
     66978     66980     66979     66980     66981     66982     66981     66983
     66982     66983     66984     66985     66984     66986     66985     66986
     66987     66988     66987     66989     66988     66989     66990     66991
     66990     66992     66991     66992     66993     66994     66993     66995
     66994     66995     66996     66997     66996     66998     66997     66998
     66999     67000     66999     67001     67000     67001     67002     67003
     67002     67004     67003     67004     67005     67006     67005     67007
     67006     67007     67008     67009     67008     67010     67009     67010
     67011     67012     67011     67013     67012     67013     67014     67015
     67014     67016     67015     67016     67017     67018     67017     67019
     67018     67019     67020     67021     67020     67022     67021     67022
     67023     67024     67023     67025     67024     67025     67026     67027
     67026     67028     67027     67028     67029     67030     67029     67031
     67030     67031     67032     67033     67032     67034     67033     67034
     67035     67036     67035     67037     67036     67037     67038     67039
     67038     67040     67039     67040     67041     67042     67041     67043
     67042     67043     67044     67045     67044     67046     67045     67046
     67047     67048     67047     67049     67048     67049     67050     67051
     67050     67052     67051     67052     67053     67054     67053     67055
     67054     67055     67056     67057     67056     67058     67057     67058
     67059     67060     67059     67061     67060     67061     67062     67063
     67062     67064     67063     67064     67065     67066     67065     67067
     67066     67067     67068     67069     67068     67070     67069     67070
     67071     67072     67071     67073     67072     67073     67074     67075
     67074     67076     67075     67076     67077     67078     67077     67079
     67078     67079     67080     67081     67080     67082     67081     67082
     67083     67084     67083     67085     67084     67085     67086     67087
     67086     67088     67087     67088     67089     67090     67089     67091
     67090     67091     67092     67093     67092     67094     67093     67094
     67095     67096     67095     67097     67096     67097     67098     67099
     67098     67100     67099     67100     67101     67102     67101     67103
     67102     67103     67104     67105     67104     67106     67105     67106
     67107     67108     67107     67109     67108     67109     67110     67111
     67110     67112     67111     67112     67113     67114     67113     67115
     67114     67115     67116     67117     67116     67118     67117     67118
     67119     67120     67119     67121     67120     67121     67122     67123
     67122     67124     67123     67124     67125     67126     67125     67127
     67126     67127     67128     67129     67128     67130     67129     67130
     67131     67132     67131     67133     67132     67133     67134     67135
     67134     67136     67135     67136     67137     67138     67137     67139
     67138     67139     67140     67141     67140     67142     67141     67142
     67143     67144     67143     67145     67144     67145     67146     67147
     67146     67148     67147     67148     67149     67150     67149     67151
     67150     67151     67152     67153     67152     67154     67153     67154
     67155     67156     67155     67157     67156     67157     67158     67159
     67158     67160     67159     67160     67161     67162     67161     67163
     67162     67163     67164     67165     67164     67166     67165     67166
     67167     67168     67167     67169     67168     67169     67170     67171
     67170     67172     67171     67172     67173     67174     67173     67175
     67174     67175     67176     67177     67176     67178     67177     67178
     67179     67180     67179     67181     67180     67181     67182     67183
     67182     67184     67183     67184     67185     67186     67185     67187
     67186     67187     67188     67189     67188     67190     67189     67190
     67191     67192     67191     67193     67192     67193     67194     67195
     67194     67196     67195     67196     67197     67198     67197     67199
     67198     67199     67200     67201     67200     67202     67201     67202
     67203     67204     67203     67205     67204     67205     67206     67207
     67206     67208     67207     67208     67209     67210     67209     67211
     67210     67211     67212     67213     67212     67214     67213     67214
     67215     67216     67215     67217     67216     67217     67218     67219
     67218     67220     67219     67220     67221     67222     67221     67223
     67222     67223     67224     67225     67224     67226     67225     67226
     67227     67228     67227     67229     67228     67229     67230     67231
     67230     67232     67231     67232     67233     67234     67233     67235
     67234     67235     67236     67237     67236     67238     67237     67238
     67239     67240     67239     67241     67240     67241     67242     67243
     67242     67244     67243     67244     67245     67246     67245     67247
     67246     67247     67248     67249     67248     67250     67249     67250
     67251     67252     67251     67253     67252     67253     67254     67255
     67254     67256     67255     67256     67257     67258     67257     67259
     67258     67259     67260     67261     67260     67262     67261     67262
     67263     67264     67263     67265     67264     67265     67266     67267
     67266     67268     67267     67268     67269     67270     67269     67271
     67270     67271     67272     67273     67272     67274     67273     67274
     67275     67276     67275     67277     67276     67277     67278     67279
     67278     67280     67279     67280     67281     67282     67281     67283
     67282     67283     67284     67285     67284     67286     67285     67286
     67287     67288     67287     67289     67288     67289     67290     67291
     67290     67292     67291     67292     67293     67294     67293     67295
     67294     67295     67296     67297     67296     67298     67297     67298
     67299     67300     67299     67301     67300     67301     67302     67303
     67302     67304     67303     67304     67305     67306     67305     67307
     67306     67307     67308     67309     67308     67310     67309     67310
     67311     67312     67311     67313     67312     67313     67314     67315
     67314     67316     67315     67316     67317     67318     67317     67319
     67318     67319     67320     67321     67320     67322     67321     67322
     67323     67324     67323     67325     67324     67325     67326     67327
     67326     67328     67327     67328     67329     67330     67329     67331
     67330     67331     67332     67333     67332     67334     67333     67334
     67335     67336     67335     67337     67336     67337     67338     67339
     67338     67340     67339     67340     67341     67342     67341     67343
     67342     67343     67344     67345     67344     67346     67345     67346
     67347     67348     67347     67349     67348     67349     67350     67351
     67350     67352     67351     67352     67353     67354     67353     67355
     67354     67355     67356     67357     67356     67358     67357     67358
     67359     67360     67359     67361     67360     67361     67362     67363
     67362     67364     67363     67364     67365     67366     67365     67367
     67366     67367     67368     67369     67368     67370     67369     67370
     67371     67372     67371     67373     67372     67373     67374     67375
     67374     67376     67375     67376     67377     67378     67377     67379
     67378     67379     67380     67381     67380     67382     67381     67382
     67383     67384     67383     67385     67384     67385     67386     67387
     67386     67388     67387     67388     67389     67390     67389     67391
     67390     67391     67392     67393     67392     67394     67393     67394
     67395     67396     67395     67397     67396     67397     67398     67399
     67398     67400     67399     67400     67401     67402     67401     67403
     67402     67403     67404     67405     67404     67406     67405     67406
     67407     67408     67407     67409     67408     67409     67410     67411
     67410     67412     67411     67412     67413     67414     67413     67415
     67414     67415     67416     67417     67416     67418     67417     67418
     67419     67420     67419     67421     67420     67421     67422     67423
     67422     67424     67423     67424     67425     67426     67425     67427
     67426     67427     67428     67429     67428     67430     67429     67430
     67431     67432     67431     67433     67432     67433     67434     67435
     67434     67436     67435     67436     67437     67438     67437     67439
     67438     67439     67440     67441     67440     67442     67441     67442
     67443     67444     67443     67445     67444     67445     67446     67447
     67446     67448     67447     67448     67449     67450     67449     67451
     67450     67451     67452     67453     67452     67454     67453     67454
     67455     67456     67455     67457     67456     67457     67458     67459
     67458     67460     67459     67460     67461     67462     67461     67463
     67462     67463     67464     67465     67464     67466     67465     67466
     67467     67468     67467     67469     67468     67469     67470     67471
     67470     67472     67471     67472     67473     67474     67473     67475
     67474     67475     67476     67477     67476     67478     67477     67478
     67479     67480     67479     67481     67480     67481     67482     67483
     67482     67484     67483     67484     67485     67486     67485     67487
     67486     67487     67488     67489     67488     67490     67489     67490
     67491     67492     67491     67493     67492     67493     67494     67495
     67494     67496     67495     67496     67497     67498     67497     67499
     67498     67499     67500     67501     67500     67502     67501     67502
     67503     67504     67503     67505     67504     67505     67506     67507
     67506     67508     67507     67508     67509     67510     67509     67511
     67510     67511     67512     67513     67512     67514     67513     67514
     67515     67516     67515     67517     67516     67517     67518     67519
     67518     67520     67519     67520     67521     67522     67521     67523
     67522     67523     67524     67525     67524     67526     67525     67526
     67527     67528     67527     67529     67528     67529     67530     67531
     67530     67532     67531     67532     67533     67534     67533     67535
     67534     67535     67536     67537     67536     67538     67537     67538
     67539     67540     67539     67541     67540     67541     67542     67543
     67542     67544     67543     67544     67545     67546     67545     67547
     67546     67547     67548     67549     67548     67550     67549     67550
     67551     67552     67551     67553     67552     67553     67554     67555
     67554     67556     67555     67556     67557     67558     67557     67559
     67558     67559     67560     67561     67560     67562     67561     67562
     67563     67564     67563     67565     67564     67565     67566     67567
     67566     67568     67567     67568     67569     67570     67569     67571
     67570     67571     67572     67573     67572     67574     67573     67574
     67575     67576     67575     67577     67576     67577     67578     67579
     67578     67580     67579     67580     67581     67582     67581     67583
     67582     67583     67584     67585     67584     67586     67585     67586
     67587     67588     67587     67589     67588     67589     67590     67591
     67590     67592     67591     67592     67593     67594     67593     67595
     67594     67595     67596     67597     67596     67598     67597     67598
     67599     67600     67599     67601     67600     67601     67602     67603
     67602     67604     67603     67604     67605     67606     67605     67607
     67606     67607     67608     67609     67608     67610     67609     67610
     67611     67612     67611     67613     67612     67613     67614     67615
     67614     67616     67615     67616     67617     67618     67617     67619
     67618     67619     67620     67621     67620     67622     67621     67622
     67623     67624     67623     67625     67624     67625     67626     67627
     67626     67628     67627     67628     67629     67630     67629     67631
     67630     67631     67632     67633     67632     67634     67633     67634
     67635     67636     67635     67637     67636     67637     67638     67639
     67638     67640     67639     67640     67641     67642     67641     67643
     67642     67643     67644     67645     67644     67646     67645     67646
     67647     67648     67647     67649     67648     67649     67650     67651
     67650     67652     67651     67652     67653     67654     67653     67655
     67654     67655     67656     67657     67656     67658     67657     67658
     67659     67660     67659     67661     67660     67661     67662     67663
     67662     67664     67663     67664     67665     67666     67665     67667
     67666     67667     67668     67669     67668     67670     67669     67670
     67671     67672     67671     67673     67672     67673     67674     67675
     67674     67676     67675     67676     67677     67678     67677     67679
     67678     67679     67680     67681     67680     67682     67681     67682
     67683     67684     67683     67685     67684     67685     67686     67687
     67686     67688     67687     67688     67689     67690     67689     67691
     67690     67691     67692     67693     67692     67694     67693     67694
     67695     67696     67695     67697     67696     67697     67698     67699
     67698     67700     67699     67700     67701     67702     67701     67703
     67702     67703     67704     67705     67704     67706     67705     67706
     67707     67708     67707     67709     67708     67709     67710     67711
     67710     67712     67711     67712     67713     67714     67713     67715
     67714     67715     67716     67717     67716     67718     67717     67718
     67719     67720     67719     67721     67720     67721     67722     67723
     67722     67724     67723     67724     67725     67726     67725     67727
     67726     67727     67728     67729     67728     67730     67729     67730
     67731     67732     67731     67733     67732     67733     67734     67735
     67734     67736     67735     67736     67737     67738     67737     67739
     67738     67739     67740     67741     67740     67742     67741     67742
     67743     67744     67743     67745     67744     67745     67746     67747
     67746     67748     67747     67748     67749     67750     67749     67751
     67750     67751     67752     67753     67752     67754     67753     67754
     67755     67756     67755     67757     67756     67757     67758     67759
     67758     67760     67759     67760     67761     67762     67761     67763
     67762     67763     67764     67765     67764     67766     67765     67766
     67767     67768     67767     67769     67768     67769     67770     67771
     67770     67772     67771     67772     67773     67774     67773     67775
     67774     67775     67776     67777     67776     67778     67777     67778
     67779     67780     67779     67781     67780     67781     67782     67783
     67782     67784     67783     67784     67785     67786     67785     67787
     67786     67787     67788     67789     67788     67790     67789     67790
     67791     67792     67791     67793     67792     67793     67794     67795
     67794     67796     67795     67796     67797     67798     67797     67799
     67798     67799     67800     67801     67800     67802     67801     67802
     67803     67804     67803     67805     67804     67805     67806     67807
     67806     67808     67807     67808     67809     67810     67809     67811
     67810     67811     67812     67813     67812     67814     67813     67814
     67815     67816     67815     67817     67816     67817     67818     67819
     67818     67820     67819     67820     67821     67822     67821     67823
     67822     67823     67824     67825     67824     67826     67825     67826
     67827     67828     67827     67829     67828     67829     67830     67831
     67830     67832     67831     67832     67833     67834     67833     67835
     67834     67835     67836     67837     67836     67838     67837     67838
     67839     67840     67839     67841     67840     67841     67842     67843
     67842     67844     67843     67844     67845     67846     67845     67847
     67846     67847     67848     67849     67848     67850     67849     67850
     67851     67852     67851     67853     67852     67853     67854     67855
     67854     67856     67855     67856     67857     67858     67857     67859
     67858     67859     67860     67861     67860     67862     67861     67862
     67863     67864     67863     67865     67864     67865     67866     67867
     67866     67868     67867     67868     67869     67870     67869     67871
     67870     67871     67872     67873     67872     67874     67873     67874
     67875     67876     67875     67877     67876     67877     67878     67879
     67878     67880     67879     67880     67881     67882     67881     67883
     67882     67883     67884     67885     67884     67886     67885     67886
     67887     67888     67887     67889     67888     67889     67890     67891
     67890     67892     67891     67892     67893     67894     67893     67895
     67894     67895     67896     67897     67896     67898     67897     67898
     67899     67900     67899     67901     67900     67901     67902     67903
     67902     67904     67903     67904     67905     67906     67905     67907
     67906     67907     67908     67909     67908     67910     67909     67910
     67911     67912     67911     67913     67912     67913     67914     67915
     67914     67916     67915     67916     67917     67918     67917     67919
     67918     67919     67920     67921     67920     67922     67921     67922
     67923     67924     67923     67925     67924     67925     67926     67927
     67926     67928     67927     67928     67929     67930     67929     67931
     67930     67931     67932     67933     67932     67934     67933     67934
     67935     67936     67935     67937     67936     67937     67938     67939
     67938     67940     67939     67940     67941     67942     67941     67943
     67942     67943     67944     67945     67944     67946     67945     67946
     67947     67948     67947     67949     67948     67949     67950     67951
     67950     67952     67951     67952     67953     67954     67953     67955
     67954     67955     67956     67957     67956     67958     67957     67958
     67959     67960     67959     67961     67960     67961     67962     67963
     67962     67964     67963     67964     67965     67966     67965     67967
     67966     67967     67968     67969     67968     67970     67969     67970
     67971     67972     67971     67973     67972     67973     67974     67975
     67974     67976     67975     67976     67977     67978     67977     67979
     67978     67979     67980     67981     67980     67982     67981     67982
     67983     67984     67983     67985     67984     67985     67986     67987
     67986     67988     67987     67988     67989     67990     67989     67991
     67990     67991     67992     67993     67992     67994     67993     67994
     67995     67996     67995     67997     67996     67997     67998     67999
     67998     68000     67999     68000     68001     68002     68001     68003
     68002     68003     68004     68005     68004     68006     68005     68006
     68007     68008     68007     68009     68008     68009     68010     68011
     68010     68012     68011     68012     68013     68014     68013     68015
     68014     68015     68016     68017     68016     68018     68017     68018
     68019     68020     68019     68021     68020     68021     68022     68023
     68022     68024     68023     68024     68025     68026     68025     68027
     68026     68027     68028     68029     68028     68030     68029     68030
     68031     68032     68031     68033     68032     68033     68034     68035
     68034     68036     68035     68036     68037     68038     68037     68039
     68038     68039     68040     68041     68040     68042     68041     68042
     68043     68044     68043     68045     68044     68045     68046     68047
     68046     68048     68047     68048     68049     68050     68049     68051
     68050     68051     68052     68053     68052     68054     68053     68054
     68055     68056     68055     68057     68056     68057     68058     68059
     68058     68060     68059     68060     68061     68062     68061     68063
     68062     68063     68064     68065     68064     68066     68065     68066
     68067     68068     68067     68069     68068     68069     68070     68071
     68070     68072     68071     68072     68073     68074     68073     68075
     68074     68075     68076     68077     68076     68078     68077     68078
     68079     68080     68079     68081     68080     68081     68082     68083
     68082     68084     68083     68084     68085     68086     68085     68087
     68086     68087     68088     68089     68088     68090     68089     68090
     68091     68092     68091     68093     68092     68093     68094     68095
     68094     68096     68095     68096     68097     68098     68097     68099
     68098     68099     68100     68101     68100     68102     68101     68102
     68103     68104     68103     68105     68104     68105     68106     68107
     68106     68108     68107     68108     68109     68110     68109     68111
     68110     68111     68112     68113     68112     68114     68113     68114
     68115     68116     68115     68117     68116     68117     68118     68119
     68118     68120     68119     68120     68121     68122     68121     68123
     68122     68123     68124     68125     68124     68126     68125     68126
     68127     68128     68127     68129     68128     68129     68130     68131
     68130     68132     68131     68132     68133     68134     68133     68135
     68134     68135     68136     68137     68136     68138     68137     68138
     68139     68140     68139     68141     68140     68141     68142     68143
     68142     68144     68143     68144     68145     68146     68145     68147
     68146     68147     68148     68149     68148     68150     68149     68150
     68151     68152     68151     68153     68152     68153     68154     68155
     68154     68156     68155     68156     68157     68158     68157     68159
     68158     68159     68160     68161     68160     68162     68161     68162
     68163     68164     68163     68165     68164     68165     68166     68167
     68166     68168     68167     68168     68169     68170     68169     68171
     68170     68171     68172     68173     68172     68174     68173     68174
     68175     68176     68175     68177     68176     68177     68178     68179
     68178     68180     68179     68180     68181     68182     68181     68183
     68182     68183     68184     68185     68184     68186     68185     68186
     68187     68188     68187     68189     68188     68189     68190     68191
     68190     68192     68191     68192     68193     68194     68193     68195
     68194     68195     68196     68197     68196     68198     68197     68198
     68199     68200     68199     68201     68200     68201     68202     68203
     68202     68204     68203     68204     68205     68206     68205     68207
     68206     68207     68208     68209     68208     68210     68209     68210
     68211     68212     68211     68213     68212     68213     68214     68215
     68214     68216     68215     68216     68217     68218     68217     68219
     68218     68219     68220     68221     68220     68222     68221     68222
     68223     68224     68223     68225     68224     68225     68226     68227
     68226     68228     68227     68228     68229     68230     68229     68231
     68230     68231     68232     68233     68232     68234     68233     68234
     68235     68236     68235     68237     68236     68237     68238     68239
     68238     68240     68239     68240     68241     68242     68241     68243
     68242     68243     68244     68245     68244     68246     68245     68246
     68247     68248     68247     68249     68248     68249     68250     68251
     68250     68252     68251     68252     68253     68254     68253     68255
     68254     68255     68256     68257     68256     68258     68257     68258
     68259     68260     68259     68261     68260     68261     68262     68263
     68262     68264     68263     68264     68265     68266     68265     68267
     68266     68267     68268     68269     68268     68270     68269     68270
     68271     68272     68271     68273     68272     68273     68274     68275
     68274     68276     68275     68276     68277     68278     68277     68279
     68278     68279     68280     68281     68280     68282     68281     68282
     68283     68284     68283     68285     68284     68285     68286     68287
     68286     68288     68287     68288     68289     68290     68289     68291
     68290     68291     68292     68293     68292     68294     68293     68294
     68295     68296     68295     68297     68296     68297     68298     68299
     68298     68300     68299     68300     68301     68302     68301     68303
     68302     68303     68304     68305     68304     68306     68305     68306
     68307     68308     68307     68309     68308     68309     68310     68311
     68310     68312     68311     68312     68313     68314     68313     68315
     68314     68315     68316     68317     68316     68318     68317     68318
     68319     68320     68319     68321     68320     68321     68322     68323
     68322     68324     68323     68324     68325     68326     68325     68327
     68326     68327     68328     68329     68328     68330     68329     68330
     68331     68332     68331     68333     68332     68333     68334     68335
     68334     68336     68335     68336     68337     68338     68337     68339
     68338     68339     68340     68341     68340     68342     68341     68342
     68343     68344     68343     68345     68344     68345     68346     68347
     68346     68348     68347     68348     68349     68350     68349     68351
     68350     68351     68352     68353     68352     68354     68353     68354
     68355     68356     68355     68357     68356     68357     68358     68359
     68358     68360     68359     68360     68361     68362     68361     68363
     68362     68363     68364     68365     68364     68366     68365     68366
     68367     68368     68367     68369     68368     68369     68370     68371
     68370     68372     68371     68372     68373     68374     68373     68375
     68374     68375     68376     68377     68376     68378     68377     68378
     68379     68380     68379     68381     68380     68381     68382     68383
     68382     68384     68383     68384     68385     68386     68385     68387
     68386     68387     68388     68389     68388     68390     68389     68390
     68391     68392     68391     68393     68392     68393     68394     68395
     68394     68396     68395     68396     68397     68398     68397     68399
     68398     68399     68400     68401     68400     68402     68401     68402
     68403     68404     68403     68405     68404     68405     68406     68407
     68406     68408     68407     68408     68409     68410     68409     68411
     68410     68411     68412     68413     68412     68414     68413     68414
     68415     68416     68415     68417     68416     68417     68418     68419
     68418     68420     68419     68420     68421     68422     68421     68423
     68422     68423     68424     68425     68424     68426     68425     68426
     68427     68428     68427     68429     68428     68429     68430     68431
     68430     68432     68431     68432     68433     68434     68433     68435
     68434     68435     68436     68437     68436     68438     68437     68438
     68439     68440     68439     68441     68440     68441     68442     68443
     68442     68444     68443     68444     68445     68446     68445     68447
     68446     68447     68448     68449     68448     68450     68449     68450
     68451     68452     68451     68453     68452     68453     68454     68455
     68454     68456     68455     68456     68457     68458     68457     68459
     68458     68459     68460     68461     68460     68462     68461     68462
     68463     68464     68463     68465     68464     68465     68466     68467
     68466     68468     68467     68468     68469     68470     68469     68471
     68470     68471     68472     68473     68472     68474     68473     68474
     68475     68476     68475     68477     68476     68477     68478     68479
     68478     68480     68479     68480     68481     68482     68481     68483
     68482     68483     68484     68485     68484     68486     68485     68486
     68487     68488     68487     68489     68488     68489     68490     68491
     68490     68492     68491     68492     68493     68494     68493     68495
     68494     68495     68496     68497     68496     68498     68497     68498
     68499     68500     68499     68501     68500     68501     68502     68503
     68502     68504     68503     68504     68505     68506     68505     68507
     68506     68507     68508     68509     68508     68510     68509     68510
     68511     68512     68511     68513     68512     68513     68514     68515
     68514     68516     68515     68516     68517     68518     68517     68519
     68518     68519     68520     68521     68520     68522     68521     68522
     68523     68524     68523     68525     68524     68525     68526     68527
     68526     68528     68527     68528     68529     68530     68529     68531
     68530     68531     68532     68533     68532     68534     68533     68534
     68535     68536     68535     68537     68536     68537     68538     68539
     68538     68540     68539     68540     68541     68542     68541     68543
     68542     68543     68544     68545     68544     68546     68545     68546
     68547     68548     68547     68549     68548     68549     68550     68551
     68550     68552     68551     68552     68553     68554     68553     68555
     68554     68555     68556     68557     68556     68558     68557     68558
     68559     68560     68559     68561     68560     68561     68562     68563
     68562     68564     68563     68564     68565     68566     68565     68567
     68566     68567     68568     68569     68568     68570     68569     68570
     68571     68572     68571     68573     68572     68573     68574     68575
     68574     68576     68575     68576     68577     68578     68577     68579
     68578     68579     68580     68581     68580     68582     68581     68582
     68583     68584     68583     68585     68584     68585     68586     68587
     68586     68588     68587     68588     68589     68590     68589     68591
     68590     68591     68592     68593     68592     68594     68593     68594
     68595     68596     68595     68597     68596     68597     68598     68599
     68598     68600     68599     68600     68601     68602     68601     68603
     68602     68603     68604     68605     68604     68606     68605     68606
     68607     68608     68607     68609     68608     68609     68610     68611
     68610     68612     68611     68612     68613     68614     68613     68615
     68614     68615     68616     68617     68616     68618     68617     68618
     68619     68620     68619     68621     68620     68621     68622     68623
     68622     68624     68623     68624     68625     68626     68625     68627
     68626     68627     68628     68629     68628     68630     68629     68630
     68631     68632     68631     68633     68632     68633     68634     68635
     68634     68636     68635     68636     68637     68638     68637     68639
     68638     68639     68640     68641     68640     68642     68641     68642
     68643     68644     68643     68645     68644     68645     68646     68647
     68646     68648     68647     68648     68649     68650     68649     68651
     68650     68651     68652     68653     68652     68654     68653     68654
     68655     68656     68655     68657     68656     68657     68658     68659
     68658     68660     68659     68660     68661     68662     68661     68663
     68662     68663     68664     68665     68664     68666     68665     68666
     68667     68668     68667     68669     68668     68669     68670     68671
     68670     68672     68671     68672     68673     68674     68673     68675
     68674     68675     68676     68677     68676     68678     68677     68678
     68679     68680     68679     68681     68680     68681     68682     68683
     68682     68684     68683     68684     68685     68686     68685     68687
     68686     68687     68688     68689     68688     68690     68689     68690
     68691     68692     68691     68693     68692     68693     68694     68695
     68694     68696     68695     68696     68697     68698     68697     68699
     68698     68699     68700     68701     68700     68702     68701     68702
     68703     68704     68703     68705     68704     68705     68706     68707
     68706     68708     68707     68708     68709     68710     68709     68711
     68710     68711     68712     68713     68712     68714     68713     68714
     68715     68716     68715     68717     68716     68717     68718     68719
     68718     68720     68719     68720     68721     68722     68721     68723
     68722     68723     68724     68725     68724     68726     68725     68726
     68727     68728     68727     68729     68728     68729     68730     68731
     68730     68732     68731     68732     68733     68734     68733     68735
     68734     68735     68736     68737     68736     68738     68737     68738
     68739     68740     68739     68741     68740     68741     68742     68743
     68742     68744     68743     68744     68745     68746     68745     68747
     68746     68747     68748     68749     68748     68750     68749     68750
     68751     68752     68751     68753     68752     68753     68754     68755
     68754     68756     68755     68756     68757     68758     68757     68759
     68758     68759     68760     68761     68760     68762     68761     68762
     68763     68764     68763     68765     68764     68765     68766     68767
     68766     68768     68767     68768     68769     68770     68769     68771
     68770     68771     68772     68773     68772     68774     68773     68774
     68775     68776     68775     68777     68776     68777     68778     68779
     68778     68780     68779     68780     68781     68782     68781     68783
     68782     68783     68784     68785     68784     68786     68785     68786
     68787     68788     68787     68789     68788     68789     68790     68791
     68790     68792     68791     68792     68793     68794     68793     68795
     68794     68795     68796     68797     68796     68798     68797     68798
     68799     68800     68799     68801     68800     68801     68802     68803
     68802     68804     68803     68804     68805     68806     68805     68807
     68806     68807     68808     68809     68808     68810     68809     68810
     68811     68812     68811     68813     68812     68813     68814     68815
     68814     68816     68815     68816     68817     68818     68817     68819
     68818     68819     68820     68821     68820     68822     68821     68822
     68823     68824     68823     68825     68824     68825     68826     68827
     68826     68828     68827     68828     68829     68830     68829     68831
     68830     68831     68832     68833     68832     68834     68833     68834
     68835     68836     68835     68837     68836     68837     68838     68839
     68838     68840     68839     68840     68841     68842     68841     68843
     68842     68843     68844     68845     68844     68846     68845     68846
     68847     68848     68847     68849     68848     68849     68850     68851
     68850     68852     68851     68852     68853     68854     68853     68855
     68854     68855     68856     68857     68856     68858     68857     68858
     68859     68860     68859     68861     68860     68861     68862     68863
     68862     68864     68863     68864     68865     68866     68865     68867
     68866     68867     68868     68869     68868     68870     68869     68870
     68871     68872     68871     68873     68872     68873     68874     68875
     68874     68876     68875     68876     68877     68878     68877     68879
     68878     68879     68880     68881     68880     68882     68881     68882
     68883     68884     68883     68885     68884     68885     68886     68887
     68886     68888     68887     68888     68889     68890     68889     68891
     68890     68891     68892     68893     68892     68894     68893     68894
     68895     68896     68895     68897     68896     68897     68898     68899
     68898     68900     68899     68900     68901     68902     68901     68903
     68902     68903     68904     68905     68904     68906     68905     68906
     68907     68908     68907     68909     68908     68909     68910     68911
     68910     68912     68911     68912     68913     68914     68913     68915
     68914     68915     68916     68917     68916     68918     68917     68918
     68919     68920     68919     68921     68920     68921     68922     68923
     68922     68924     68923     68924     68925     68926     68925     68927
     68926     68927     68928     68929     68928     68930     68929     68930
     68931     68932     68931     68933     68932     68933     68934     68935
     68934     68936     68935     68936     68937     68938     68937     68939
     68938     68939     68940     68941     68940     68942     68941     68942
     68943     68944     68943     68945     68944     68945     68946     68947
     68946     68948     68947     68948     68949     68950     68949     68951
     68950     68951     68952     68953     68952     68954     68953     68954
     68955     68956     68955     68957     68956     68957     68958     68959
     68958     68960     68959     68960     68961     68962     68961     68963
     68962     68963     68964     68965     68964     68966     68965     68966
     68967     68968     68967     68969     68968     68969     68970     68971
     68970     68972     68971     68972     68973     68974     68973     68975
     68974     68975     68976     68977     68976     68978     68977     68978
     68979     68980     68979     68981     68980     68981     68982     68983
     68982     68984     68983     68984     68985     68986     68985     68987
     68986     68987     68988     68989     68988     68990     68989     68990
     68991     68992     68991     68993     68992     68993     68994     68995
     68994     68996     68995     68996     68997     68998     68997     68999
     68998     68999     69000     69001     69000     69002     69001     69002
     69003     69004     69003     69005     69004     69005     69006     69007
     69006     69008     69007     69008     69009     69010     69009     69011
     69010     69011     69012     69013     69012     69014     69013     69014
     69015     69016     69015     69017     69016     69017     69018     69019
     69018     69020     69019     69020     69021     69022     69021     69023
     69022     69023     69024     69025     69024     69026     69025     69026
     69027     69028     69027     69029     69028     69029     69030     69031
     69030     69032     69031     69032     69033     69034     69033     69035
     69034     69035     69036     69037     69036     69038     69037     69038
     69039     69040     69039     69041     69040     69041     69042     69043
     69042     69044     69043     69044     69045     69046     69045     69047
     69046     69047     69048     69049     69048     69050     69049     69050
     69051     69052     69051     69053     69052     69053     69054     69055
     69054     69056     69055     69056     69057     69058     69057     69059
     69058     69059     69060     69061     69060     69062     69061     69062
     69063     69064     69063     69065     69064     69065     69066     69067
     69066     69068     69067     69068     69069     69070     69069     69071
     69070     69071     69072     69073     69072     69074     69073     69074
     69075     69076     69075     69077     69076     69077     69078     69079
     69078     69080     69079     69080     69081     69082     69081     69083
     69082     69083     69084     69085     69084     69086     69085     69086
     69087     69088     69087     69089     69088     69089     69090     69091
     69090     69092     69091     69092     69093     69094     69093     69095
     69094     69095     69096     69097     69096     69098     69097     69098
     69099     69100     69099     69101     69100     69101     69102     69103
     69102     69104     69103     69104     69105     69106     69105     69107
     69106     69107     69108     69109     69108     69110     69109     69110
     69111     69112     69111     69113     69112     69113     69114     69115
     69114     69116     69115     69116     69117     69118     69117     69119
     69118     69119     69120     69121     69120     69122     69121     69122
     69123     69124     69123     69125     69124     69125     69126     69127
     69126     69128     69127     69128     69129     69130     69129     69131
     69130     69131     69132     69133     69132     69134     69133     69134
     69135     69136     69135     69137     69136     69137     69138     69139
     69138     69140     69139     69140     69141     69142     69141     69143
     69142     69143     69144     69145     69144     69146     69145     69146
     69147     69148     69147     69149     69148     69149     69150     69151
     69150     69152     69151     69152     69153     69154     69153     69155
     69154     69155     69156     69157     69156     69158     69157     69158
     69159     69160     69159     69161     69160     69161     69162     69163
     69162     69164     69163     69164     69165     69166     69165     69167
     69166     69167     69168     69169     69168     69170     69169     69170
     69171     69172     69171     69173     69172     69173     69174     69175
     69174     69176     69175     69176     69177     69178     69177     69179
     69178     69179     69180     69181     69180     69182     69181     69182
     69183     69184     69183     69185     69184     69185     69186     69187
     69186     69188     69187     69188     69189     69190     69189     69191
     69190     69191     69192     69193     69192     69194     69193     69194
     69195     69196     69195     69197     69196     69197     69198     69199
     69198     69200     69199     69200     69201     69202     69201     69203
     69202     69203     69204     69205     69204     69206     69205     69206
     69207     69208     69207     69209     69208     69209     69210     69211
     69210     69212     69211     69212     69213     69214     69213     69215
     69214     69215     69216     69217     69216     69218     69217     69218
     69219     69220     69219     69221     69220     69221     69222     69223
     69222     69224     69223     69224     69225     69226     69225     69227
     69226     69227     69228     69229     69228     69230     69229     69230
     69231     69232     69231     69233     69232     69233     69234     69235
     69234     69236     69235     69236     69237     69238     69237     69239
     69238     69239     69240     69241     69240     69242     69241     69242
     69243     69244     69243     69245     69244     69245     69246     69247
     69246     69248     69247     69248     69249     69250     69249     69251
     69250     69251     69252     69253     69252     69254     69253     69254
     69255     69256     69255     69257     69256     69257     69258     69259
     69258     69260     69259     69260     69261     69262     69261     69263
     69262     69263     69264     69265     69264     69266     69265     69266
     69267     69268     69267     69269     69268     69269     69270     69271
     69270     69272     69271     69272     69273     69274     69273     69275
     69274     69275     69276     69277     69276     69278     69277     69278
     69279     69280     69279     69281     69280     69281     69282     69283
     69282     69284     69283     69284     69285     69286     69285     69287
     69286     69287     69288     69289     69288     69290     69289     69290
     69291     69292     69291     69293     69292     69293     69294     69295
     69294     69296     69295     69296     69297     69298     69297     69299
     69298     69299     69300     69301     69300     69302     69301     69302
     69303     69304     69303     69305     69304     69305     69306     69307
     69306     69308     69307     69308     69309     69310     69309     69311
     69310     69311     69312     69313     69312     69314     69313     69314
     69315     69316     69315     69317     69316     69317     69318     69319
     69318     69320     69319     69320     69321     69322     69321     69323
     69322     69323     69324     69325     69324     69326     69325     69326
     69327     69328     69327     69329     69328     69329     69330     69331
     69330     69332     69331     69332     69333     69334     69333     69335
     69334     69335     69336     69337     69336     69338     69337     69338
     69339     69340     69339     69341     69340     69341     69342     69343
     69342     69344     69343     69344     69345     69346     69345     69347
     69346     69347     69348     69349     69348     69350     69349     69350
     69351     69352     69351     69353     69352     69353     69354     69355
     69354     69356     69355     69356     69357     69358     69357     69359
     69358     69359     69360     69361     69360     69362     69361     69362
     69363     69364     69363     69365     69364     69365     69366     69367
     69366     69368     69367     69368     69369     69370     69369     69371
     69370     69371     69372     69373     69372     69374     69373     69374
     69375     69376     69375     69377     69376     69377     69378     69379
     69378     69380     69379     69380     69381     69382     69381     69383
     69382     69383     69384     69385     69384     69386     69385     69386
     69387     69388     69387     69389     69388     69389     69390     69391
     69390     69392     69391     69392     69393     69394     69393     69395
     69394     69395     69396     69397     69396     69398     69397     69398
     69399     69400     69399     69401     69400     69401     69402     69403
     69402     69404     69403     69404     69405     69406     69405     69407
     69406     69407     69408     69409     69408     69410     69409     69410
     69411     69412     69411     69413     69412     69413     69414     69415
     69414     69416     69415     69416     69417     69418     69417     69419
     69418     69419     69420     69421     69420     69422     69421     69422
     69423     69424     69423     69425     69424     69425     69426     69427
     69426     69428     69427     69428     69429     69430     69429     69431
     69430     69431     69432     69433     69432     69434     69433     69434
     69435     69436     69435     69437     69436     69437     69438     69439
     69438     69440     69439     69440     69441     69442     69441     69443
     69442     69443     69444     69445     69444     69446     69445     69446
     69447     69448     69447     69449     69448     69449     69450     69451
     69450     69452     69451     69452     69453     69454     69453     69455
     69454     69455     69456     69457     69456     69458     69457     69458
     69459     69460     69459     69461     69460     69461     69462     69463
     69462     69464     69463     69464     69465     69466     69465     69467
     69466     69467     69468     69469     69468     69470     69469     69470
     69471     69472     69471     69473     69472     69473     69474     69475
     69474     69476     69475     69476     69477     69478     69477     69479
     69478     69479     69480     69481     69480     69482     69481     69482
     69483     69484     69483     69485     69484     69485     69486     69487
     69486     69488     69487     69488     69489     69490     69489     69491
     69490     69491     69492     69493     69492     69494     69493     69494
     69495     69496     69495     69497     69496     69497     69498     69499
     69498     69500     69499     69500     69501     69502     69501     69503
     69502     69503     69504     69505     69504     69506     69505     69506
     69507     69508     69507     69509     69508     69509     69510     69511
     69510     69512     69511     69512     69513     69514     69513     69515
     69514     69515     69516     69517     69516     69518     69517     69518
     69519     69520     69519     69521     69520     69521     69522     69523
     69522     69524     69523     69524     69525     69526     69525     69527
     69526     69527     69528     69529     69528     69530     69529     69530
     69531     69532     69531     69533     69532     69533     69534     69535
     69534     69536     69535     69536     69537     69538     69537     69539
     69538     69539     69540     69541     69540     69542     69541     69542
     69543     69544     69543     69545     69544     69545     69546     69547
     69546     69548     69547     69548     69549     69550     69549     69551
     69550     69551     69552     69553     69552     69554     69553     69554
     69555     69556     69555     69557     69556     69557     69558     69559
     69558     69560     69559     69560     69561     69562     69561     69563
     69562     69563     69564     69565     69564     69566     69565     69566
     69567     69568     69567     69569     69568     69569     69570     69571
     69570     69572     69571     69572     69573     69574     69573     69575
     69574     69575     69576     69577     69576     69578     69577     69578
     69579     69580     69579     69581     69580     69581     69582     69583
     69582     69584     69583     69584     69585     69586     69585     69587
     69586     69587     69588     69589     69588     69590     69589     69590
     69591     69592     69591     69593     69592     69593     69594     69595
     69594     69596     69595     69596     69597     69598     69597     69599
     69598     69599     69600     69601     69600     69602     69601     69602
     69603     69604     69603     69605     69604     69605     69606     69607
     69606     69608     69607     69608     69609     69610     69609     69611
     69610     69611     69612     69613     69612     69614     69613     69614
     69615     69616     69615     69617     69616     69617     69618     69619
     69618     69620     69619     69620     69621     69622     69621     69623
     69622     69623     69624     69625     69624     69626     69625     69626
     69627     69628     69627     69629     69628     69629     69630     69631
     69630     69632     69631     69632     69633     69634     69633     69635
     69634     69635     69636     69637     69636     69638     69637     69638
     69639     69640     69639     69641     69640     69641     69642     69643
     69642     69644     69643     69644     69645     69646     69645     69647
     69646     69647     69648     69649     69648     69650     69649     69650
     69651     69652     69651     69653     69652     69653     69654     69655
     69654     69656     69655     69656     69657     69658     69657     69659
     69658     69659     69660     69661     69660     69662     69661     69662
     69663     69664     69663     69665     69664     69665     69666     69667
     69666     69668     69667     69668     69669     69670     69669     69671
     69670     69671     69672     69673     69672     69674     69673     69674
     69675     69676     69675     69677     69676     69677     69678     69679
     69678     69680     69679     69680     69681     69682     69681     69683
     69682     69683     69684     69685     69684     69686     69685     69686
     69687     69688     69687     69689     69688     69689     69690     69691
     69690     69692     69691     69692     69693     69694     69693     69695
     69694     69695     69696     69697     69696     69698     69697     69698
     69699     69700     69699     69701     69700     69701     69702     69703
     69702     69704     69703     69704     69705     69706     69705     69707
     69706     69707     69708     69709     69708     69710     69709     69710
     69711     69712     69711     69713     69712     69713     69714     69715
     69714     69716     69715     69716     69717     69718     69717     69719
     69718     69719     69720     69721     69720     69722     69721     69722
     69723     69724     69723     69725     69724     69725     69726     69727
     69726     69728     69727     69728     69729     69730     69729     69731
     69730     69731     69732     69733     69732     69734     69733     69734
     69735     69736     69735     69737     69736     69737     69738     69739
     69738     69740     69739     69740     69741     69742     69741     69743
     69742     69743     69744     69745     69744     69746     69745     69746
     69747     69748     69747     69749     69748     69749     69750     69751
     69750     69752     69751     69752     69753     69754     69753     69755
     69754     69755     69756     69757     69756     69758     69757     69758
     69759     69760     69759     69761     69760     69761     69762     69763
     69762     69764     69763     69764     69765     69766     69765     69767
     69766     69767     69768     69769     69768     69770     69769     69770
     69771     69772     69771     69773     69772     69773     69774     69775
     69774     69776     69775     69776     69777     69778     69777     69779
     69778     69779     69780     69781     69780     69782     69781     69782
     69783     69784     69783     69785     69784     69785     69786     69787
     69786     69788     69787     69788     69789     69790     69789     69791
     69790     69791     69792     69793     69792     69794     69793     69794
     69795     69796     69795     69797     69796     69797     69798     69799
     69798     69800     69799     69800     69801     69802     69801     69803
     69802     69803     69804     69805     69804     69806     69805     69806
     69807     69808     69807     69809     69808     69809     69810     69811
     69810     69812     69811     69812     69813     69814     69813     69815
     69814     69815     69816     69817     69816     69818     69817     69818
     69819     69820     69819     69821     69820     69821     69822     69823
     69822     69824     69823     69824     69825     69826     69825     69827
     69826     69827     69828     69829     69828     69830     69829     69830
     69831     69832     69831     69833     69832     69833     69834     69835
     69834     69836     69835     69836     69837     69838     69837     69839
     69838     69839     69840     69841     69840     69842     69841     69842
     69843     69844     69843     69845     69844     69845     69846     69847
     69846     69848     69847     69848     69849     69850     69849     69851
     69850     69851     69852     69853     69852     69854     69853     69854
     69855     69856     69855     69857     69856     69857     69858     69859
     69858     69860     69859     69860     69861     69862     69861     69863
     69862     69863     69864     69865     69864     69866     69865     69866
     69867     69868     69867     69869     69868     69869     69870     69871
     69870     69872     69871     69872     69873     69874     69873     69875
     69874     69875     69876     69877     69876     69878     69877     69878
     69879     69880     69879     69881     69880     69881     69882     69883
     69882     69884     69883     69884     69885     69886     69885     69887
     69886     69887     69888     69889     69888     69890     69889     69890
     69891     69892     69891     69893     69892     69893     69894     69895
     69894     69896     69895     69896     69897     69898     69897     69899
     69898     69899     69900     69901     69900     69902     69901     69902
     69903     69904     69903     69905     69904     69905     69906     69907
     69906     69908     69907     69908     69909     69910     69909     69911
     69910     69911     69912     69913     69912     69914     69913     69914
     69915     69916     69915     69917     69916     69917     69918     69919
     69918     69920     69919     69920     69921     69922     69921     69923
     69922     69923     69924     69925     69924     69926     69925     69926
     69927     69928     69927     69929     69928     69929     69930     69931
     69930     69932     69931     69932     69933     69934     69933     69935
     69934     69935     69936     69937     69936     69938     69937     69938
     69939     69940     69939     69941     69940     69941     69942     69943
     69942     69944     69943     69944     69945     69946     69945     69947
     69946     69947     69948     69949     69948     69950     69949     69950
     69951     69952     69951     69953     69952     69953     69954     69955
     69954     69956     69955     69956     69957     69958     69957     69959
     69958     69959     69960     69961     69960     69962     69961     69962
     69963     69964     69963     69965     69964     69965     69966     69967
     69966     69968     69967     69968     69969     69970     69969     69971
     69970     69971     69972     69973     69972     69974     69973     69974
     69975     69976     69975     69977     69976     69977     69978     69979
     69978     69980     69979     69980     69981     69982     69981     69983
     69982     69983     69984     69985     69984     69986     69985     69986
     69987     69988     69987     69989     69988     69989     69990     69991
     69990     69992     69991     69992     69993     69994     69993     69995
     69994     69995     69996     69997     69996     69998     69997     69998
     69999     70000     69999     70001     70000     70001     70002     70003
     70002     70004     70003     70004     70005     70006     70005     70007
     70006     70007     70008     70009     70008     70010     70009     70010
     70011     70012     70011     70013     70012     70013     70014     70015
     70014     70016     70015     70016     70017     70018     70017     70019
     70018     70019     70020     70021     70020     70022     70021     70022
     70023     70024     70023     70025     70024     70025     70026     70027
     70026     70028     70027     70028     70029     70030     70029     70031
     70030     70031     70032     70033     70032     70034     70033     70034
     70035     70036     70035     70037     70036     70037     70038     70039
     70038     70040     70039     70040     70041     70042     70041     70043
     70042     70043     70044     70045     70044     70046     70045     70046
     70047     70048     70047     70049     70048     70049     70050     70051
     70050     70052     70051     70052     70053     70054     70053     70055
     70054     70055     70056     70057     70056     70058     70057     70058
     70059     70060     70059     70061     70060     70061     70062     70063
     70062     70064     70063     70064     70065     70066     70065     70067
     70066     70067     70068     70069     70068     70070     70069     70070
     70071     70072     70071     70073     70072     70073     70074     70075
     70074     70076     70075     70076     70077     70078     70077     70079
     70078     70079     70080     70081     70080     70082     70081     70082
     70083     70084     70083     70085     70084     70085     70086     70087
     70086     70088     70087     70088     70089     70090     70089     70091
     70090     70091     70092     70093     70092     70094     70093     70094
     70095     70096     70095     70097     70096     70097     70098     70099
     70098     70100     70099     70100     70101     70102     70101     70103
     70102     70103     70104     70105     70104     70106     70105     70106
     70107     70108     70107     70109     70108     70109     70110     70111
     70110     70112     70111     70112     70113     70114     70113     70115
     70114     70115     70116     70117     70116     70118     70117     70118
     70119     70120     70119     70121     70120     70121     70122     70123
     70122     70124     70123     70124     70125     70126     70125     70127
     70126     70127     70128     70129     70128     70130     70129     70130
     70131     70132     70131     70133     70132     70133     70134     70135
     70134     70136     70135     70136     70137     70138     70137     70139
     70138     70139     70140     70141     70140     70142     70141     70142
     70143     70144     70143     70145     70144     70145     70146     70147
     70146     70148     70147     70148     70149     70150     70149     70151
     70150     70151     70152     70153     70152     70154     70153     70154
     70155     70156     70155     70157     70156     70157     70158     70159
     70158     70160     70159     70160     70161     70162     70161     70163
     70162     70163     70164     70165     70164     70166     70165     70166
     70167     70168     70167     70169     70168     70169     70170     70171
     70170     70172     70171     70172     70173     70174     70173     70175
     70174     70175     70176     70177     70176     70178     70177     70178
     70179     70180     70179     70181     70180     70181     70182     70183
     70182     70184     70183     70184     70185     70186     70185     70187
     70186     70187     70188     70189     70188     70190     70189     70190
     70191     70192     70191     70193     70192     70193     70194     70195
     70194     70196     70195     70196     70197     70198     70197     70199
     70198     70199     70200     70201     70200     70202     70201     70202
     70203     70204     70203     70205     70204     70205     70206     70207
     70206     70208     70207     70208     70209     70210     70209     70211
     70210     70211     70212     70213     70212     70214     70213     70214
     70215     70216     70215     70217     70216     70217     70218     70219
     70218     70220     70219     70220     70221     70222     70221     70223
     70222     70223     70224     70225     70224     70226     70225     70226
     70227     70228     70227     70229     70228     70229     70230     70231
     70230     70232     70231     70232     70233     70234     70233     70235
     70234     70235     70236     70237     70236     70238     70237     70238
     70239     70240     70239     70241     70240     70241     70242     70243
     70242     70244     70243     70244     70245     70246     70245     70247
     70246     70247     70248     70249     70248     70250     70249     70250
     70251     70252     70251     70253     70252     70253     70254     70255
     70254     70256     70255     70256     70257     70258     70257     70259
     70258     70259     70260     70261     70260     70262     70261     70262
     70263     70264     70263     70265     70264     70265     70266     70267
     70266     70268     70267     70268     70269     70270     70269     70271
     70270     70271     70272     70273     70272     70274     70273     70274
     70275     70276     70275     70277     70276     70277     70278     70279
     70278     70280     70279     70280     70281     70282     70281     70283
     70282     70283     70284     70285     70284     70286     70285     70286
     70287     70288     70287     70289     70288     70289     70290     70291
     70290     70292     70291     70292     70293     70294     70293     70295
     70294     70295     70296     70297     70296     70298     70297     70298
     70299     70300     70299     70301     70300     70301     70302     70303
     70302     70304     70303     70304     70305     70306     70305     70307
     70306     70307     70308     70309     70308     70310     70309     70310
     70311     70312     70311     70313     70312     70313     70314     70315
     70314     70316     70315     70316     70317     70318     70317     70319
     70318     70319     70320     70321     70320     70322     70321     70322
     70323     70324     70323     70325     70324     70325     70326     70327
     70326     70328     70327     70328     70329     70330     70329     70331
     70330     70331     70332     70333     70332     70334     70333     70334
     70335     70336     70335     70337     70336     70337     70338     70339
     70338     70340     70339     70340     70341     70342     70341     70343
     70342     70343     70344     70345     70344     70346     70345     70346
     70347     70348     70347     70349     70348     70349     70350     70351
     70350     70352     70351     70352     70353     70354     70353     70355
     70354     70355     70356     70357     70356     70358     70357     70358
     70359     70360     70359     70361     70360     70361     70362     70363
     70362     70364     70363     70364     70365     70366     70365     70367
     70366     70367     70368     70369     70368     70370     70369     70370
     70371     70372     70371     70373     70372     70373     70374     70375
     70374     70376     70375     70376     70377     70378     70377     70379
     70378     70379     70380     70381     70380     70382     70381     70382
     70383     70384     70383     70385     70384     70385     70386     70387
     70386     70388     70387     70388     70389     70390     70389     70391
     70390     70391     70392     70393     70392     70394     70393     70394
     70395     70396     70395     70397     70396     70397     70398     70399
     70398     70400     70399     70400     70401     70402     70401     70403
     70402     70403     70404     70405     70404     70406     70405     70406
     70407     70408     70407     70409     70408     70409     70410     70411
     70410     70412     70411     70412     70413     70414     70413     70415
     70414     70415     70416     70417     70416     70418     70417     70418
     70419     70420     70419     70421     70420     70421     70422     70423
     70422     70424     70423     70424     70425     70426     70425     70427
     70426     70427     70428     70429     70428     70430     70429     70430
     70431     70432     70431     70433     70432     70433     70434     70435
     70434     70436     70435     70436     70437     70438     70437     70439
     70438     70439     70440     70441     70440     70442     70441     70442
     70443     70444     70443     70445     70444     70445     70446     70447
     70446     70448     70447     70448     70449     70450     70449     70451
     70450     70451     70452     70453     70452     70454     70453     70454
     70455     70456     70455     70457     70456     70457     70458     70459
     70458     70460     70459     70460     70461     70462     70461     70463
     70462     70463     70464     70465     70464     70466     70465     70466
     70467     70468     70467     70469     70468     70469     70470     70471
     70470     70472     70471     70472     70473     70474     70473     70475
     70474     70475     70476     70477     70476     70478     70477     70478
     70479     70480     70479     70481     70480     70481     70482     70483
     70482     70484     70483     70484     70485     70486     70485     70487
     70486     70487     70488     70489     70488     70490     70489     70490
     70491     70492     70491     70493     70492     70493     70494     70495
     70494     70496     70495     70496     70497     70498     70497     70499
     70498     70499     70500     70501     70500     70502     70501     70502
     70503     70504     70503     70505     70504     70505     70506     70507
     70506     70508     70507     70508     70509     70510     70509     70511
     70510     70511     70512     70513     70512     70514     70513     70514
     70515     70516     70515     70517     70516     70517     70518     70519
     70518     70520     70519     70520     70521     70522     70521     70523
     70522     70523     70524     70525     70524     70526     70525     70526
     70527     70528     70527     70529     70528     70529     70530     70531
     70530     70532     70531     70532     70533     70534     70533     70535
     70534     70535     70536     70537     70536     70538     70537     70538
     70539     70540     70539     70541     70540     70541     70542     70543
     70542     70544     70543     70544     70545     70546     70545     70547
     70546     70547     70548     70549     70548     70550     70549     70550
     70551     70552     70551     70553     70552     70553     70554     70555
     70554     70556     70555     70556     70557     70558     70557     70559
     70558     70559     70560     70561     70560     70562     70561     70562
     70563     70564     70563     70565     70564     70565     70566     70567
     70566     70568     70567     70568     70569     70570     70569     70571
     70570     70571     70572     70573     70572     70574     70573     70574
     70575     70576     70575     70577     70576     70577     70578     70579
     70578     70580     70579     70580     70581     70582     70581     70583
     70582     70583     70584     70585     70584     70586     70585     70586
     70587     70588     70587     70589     70588     70589     70590     70591
     70590     70592     70591     70592     70593     70594     70593     70595
     70594     70595     70596     70597     70596     70598     70597     70598
     70599     70600     70599     70601     70600     70601     70602     70603
     70602     70604     70603     70604     70605     70606     70605     70607
     70606     70607     70608     70609     70608     70610     70609     70610
     70611     70612     70611     70613     70612     70613     70614     70615
     70614     70616     70615     70616     70617     70618     70617     70619
     70618     70619     70620     70621     70620     70622     70621     70622
     70623     70624     70623     70625     70624     70625     70626     70627
     70626     70628     70627     70628     70629     70630     70629     70631
     70630     70631     70632     70633     70632     70634     70633     70634
     70635     70636     70635     70637     70636     70637     70638     70639
     70638     70640     70639     70640     70641     70642     70641     70643
     70642     70643     70644     70645     70644     70646     70645     70646
     70647     70648     70647     70649     70648     70649     70650     70651
     70650     70652     70651     70652     70653     70654     70653     70655
     70654     70655     70656     70657     70656     70658     70657     70658
     70659     70660     70659     70661     70660     70661     70662     70663
     70662     70664     70663     70664     70665     70666     70665     70667
     70666     70667     70668     70669     70668     70670     70669     70670
     70671     70672     70671     70673     70672     70673     70674     70675
     70674     70676     70675     70676     70677     70678     70677     70679
     70678     70679     70680     70681     70680     70682     70681     70682
     70683     70684     70683     70685     70684     70685     70686     70687
     70686     70688     70687     70688     70689     70690     70689     70691
     70690     70691     70692     70693     70692     70694     70693     70694
     70695     70696     70695     70697     70696     70697     70698     70699
     70698     70700     70699     70700     70701     70702     70701     70703
     70702     70703     70704     70705     70704     70706     70705     70706
     70707     70708     70707     70709     70708     70709     70710     70711
     70710     70712     70711     70712     70713     70714     70713     70715
     70714     70715     70716     70717     70716     70718     70717     70718
     70719     70720     70719     70721     70720     70721     70722     70723
     70722     70724     70723     70724     70725     70726     70725     70727
     70726     70727     70728     70729     70728     70730     70729     70730
     70731     70732     70731     70733     70732     70733     70734     70735
     70734     70736     70735     70736     70737     70738     70737     70739
     70738     70739     70740     70741     70740     70742     70741     70742
     70743     70744     70743     70745     70744     70745     70746     70747
     70746     70748     70747     70748     70749     70750     70749     70751
     70750     70751     70752     70753     70752     70754     70753     70754
     70755     70756     70755     70757     70756     70757     70758     70759
     70758     70760     70759     70760     70761     70762     70761     70763
     70762     70763     70764     70765     70764     70766     70765     70766
     70767     70768     70767     70769     70768     70769     70770     70771
     70770     70772     70771     70772     70773     70774     70773     70775
     70774     70775     70776     70777     70776     70778     70777     70778
     70779     70780     70779     70781     70780     70781     70782     70783
     70782     70784     70783     70784     70785     70786     70785     70787
     70786     70787     70788     70789     70788     70790     70789     70790
     70791     70792     70791     70793     70792     70793     70794     70795
     70794     70796     70795     70796     70797     70798     70797     70799
     70798     70799     70800     70801     70800     70802     70801     70802
     70803     70804     70803     70805     70804     70805     70806     70807
     70806     70808     70807     70808     70809     70810     70809     70811
     70810     70811     70812     70813     70812     70814     70813     70814
     70815     70816     70815     70817     70816     70817     70818     70819
     70818     70820     70819     70820     70821     70822     70821     70823
     70822     70823     70824     70825     70824     70826     70825     70826
     70827     70828     70827     70829     70828     70829     70830     70831
     70830     70832     70831     70832     70833     70834     70833     70835
     70834     70835     70836     70837     70836     70838     70837     70838
     70839     70840     70839     70841     70840     70841     70842     70843
     70842     70844     70843     70844     70845     70846     70845     70847
     70846     70847     70848     70849     70848     70850     70849     70850
     70851     70852     70851     70853     70852     70853     70854     70855
     70854     70856     70855     70856     70857     70858     70857     70859
     70858     70859     70860     70861     70860     70862     70861     70862
     70863     70864     70863     70865     70864     70865     70866     70867
     70866     70868     70867     70868     70869     70870     70869     70871
     70870     70871     70872     70873     70872     70874     70873     70874
     70875     70876     70875     70877     70876     70877     70878     70879
     70878     70880     70879     70880     70881     70882     70881     70883
     70882     70883     70884     70885     70884     70886     70885     70886
     70887     70888     70887     70889     70888     70889     70890     70891
     70890     70892     70891     70892     70893     70894     70893     70895
     70894     70895     70896     70897     70896     70898     70897     70898
     70899     70900     70899     70901     70900     70901     70902     70903
     70902     70904     70903     70904     70905     70906     70905     70907
     70906     70907     70908     70909     70908     70910     70909     70910
     70911     70912     70911     70913     70912     70913     70914     70915
     70914     70916     70915     70916     70917     70918     70917     70919
     70918     70919     70920     70921     70920     70922     70921     70922
     70923     70924     70923     70925     70924     70925     70926     70927
     70926     70928     70927     70928     70929     70930     70929     70931
     70930     70931     70932     70933     70932     70934     70933     70934
     70935     70936     70935     70937     70936     70937     70938     70939
     70938     70940     70939     70940     70941     70942     70941     70943
     70942     70943     70944     70945     70944     70946     70945     70946
     70947     70948     70947     70949     70948     70949     70950     70951
     70950     70952     70951     70952     70953     70954     70953     70955
     70954     70955     70956     70957     70956     70958     70957     70958
     70959     70960     70959     70961     70960     70961     70962     70963
     70962     70964     70963     70964     70965     70966     70965     70967
     70966     70967     70968     70969     70968     70970     70969     70970
     70971     70972     70971     70973     70972     70973     70974     70975
     70974     70976     70975     70976     70977     70978     70977     70979
     70978     70979     70980     70981     70980     70982     70981     70982
     70983     70984     70983     70985     70984     70985     70986     70987
     70986     70988     70987     70988     70989     70990     70989     70991
     70990     70991     70992     70993     70992     70994     70993     70994
     70995     70996     70995     70997     70996     70997     70998     70999
     70998     71000     70999     71000     71001     71002     71001     71003
     71002     71003     71004     71005     71004     71006     71005     71006
     71007     71008     71007     71009     71008     71009     71010     71011
     71010     71012     71011     71012     71013     71014     71013     71015
     71014     71015     71016     71017     71016     71018     71017     71018
     71019     71020     71019     71021     71020     71021     71022     71023
     71022     71024     71023     71024     71025     71026     71025     71027
     71026     71027     71028     71029     71028     71030     71029     71030
     71031     71032     71031     71033     71032     71033     71034     71035
     71034     71036     71035     71036     71037     71038     71037     71039
     71038     71039     71040     71041     71040     71042     71041     71042
     71043     71044     71043     71045     71044     71045     71046     71047
     71046     71048     71047     71048     71049     71050     71049     71051
     71050     71051     71052     71053     71052     71054     71053     71054
     71055     71056     71055     71057     71056     71057     71058     71059
     71058     71060     71059     71060     71061     71062     71061     71063
     71062     71063     71064     71065     71064     71066     71065     71066
     71067     71068     71067     71069     71068     71069     71070     71071
     71070     71072     71071     71072     71073     71074     71073     71075
     71074     71075     71076     71077     71076     71078     71077     71078
     71079     71080     71079     71081     71080     71081     71082     71083
     71082     71084     71083     71084     71085     71086     71085     71087
     71086     71087     71088     71089     71088     71090     71089     71090
     71091     71092     71091     71093     71092     71093     71094     71095
     71094     71096     71095     71096     71097     71098     71097     71099
     71098     71099     71100     71101     71100     71102     71101     71102
     71103     71104     71103     71105     71104     71105     71106     71107
     71106     71108     71107     71108     71109     71110     71109     71111
     71110     71111     71112     71113     71112     71114     71113     71114
     71115     71116     71115     71117     71116     71117     71118     71119
     71118     71120     71119     71120     71121     71122     71121     71123
     71122     71123     71124     71125     71124     71126     71125     71126
     71127     71128     71127     71129     71128     71129     71130     71131
     71130     71132     71131     71132     71133     71134     71133     71135
     71134     71135     71136     71137     71136     71138     71137     71138
     71139     71140     71139     71141     71140     71141     71142     71143
     71142     71144     71143     71144     71145     71146     71145     71147
     71146     71147     71148     71149     71148     71150     71149     71150
     71151     71152     71151     71153     71152     71153     71154     71155
     71154     71156     71155     71156     71157     71158     71157     71159
     71158     71159     71160     71161     71160     71162     71161     71162
     71163     71164     71163     71165     71164     71165     71166     71167
     71166     71168     71167     71168     71169     71170     71169     71171
     71170     71171     71172     71173     71172     71174     71173     71174
     71175     71176     71175     71177     71176     71177     71178     71179
     71178     71180     71179     71180     71181     71182     71181     71183
     71182     71183     71184     71185     71184     71186     71185     71186
     71187     71188     71187     71189     71188     71189     71190     71191
     71190     71192     71191     71192     71193     71194     71193     71195
     71194     71195     71196     71197     71196     71198     71197     71198
     71199     71200     71199     71201     71200     71201     71202     71203
     71202     71204     71203     71204     71205     71206     71205     71207
     71206     71207     71208     71209     71208     71210     71209     71210
     71211     71212     71211     71213     71212     71213     71214     71215
     71214     71216     71215     71216     71217     71218     71217     71219
     71218     71219     71220     71221     71220     71222     71221     71222
     71223     71224     71223     71225     71224     71225     71226     71227
     71226     71228     71227     71228     71229     71230     71229     71231
     71230     71231     71232     71233     71232     71234     71233     71234
     71235     71236     71235     71237     71236     71237     71238     71239
     71238     71240     71239     71240     71241     71242     71241     71243
     71242     71243     71244     71245     71244     71246     71245     71246
     71247     71248     71247     71249     71248     71249     71250     71251
     71250     71252     71251     71252     71253     71254     71253     71255
     71254     71255     71256     71257     71256     71258     71257     71258
     71259     71260     71259     71261     71260     71261     71262     71263
     71262     71264     71263     71264     71265     71266     71265     71267
     71266     71267     71268     71269     71268     71270     71269     71270
     71271     71272     71271     71273     71272     71273     71274     71275
     71274     71276     71275     71276     71277     71278     71277     71279
     71278     71279     71280     71281     71280     71282     71281     71282
     71283     71284     71283     71285     71284     71285     71286     71287
     71286     71288     71287     71288     71289     71290     71289     71291
     71290     71291     71292     71293     71292     71294     71293     71294
     71295     71296     71295     71297     71296     71297     71298     71299
     71298     71300     71299     71300     71301     71302     71301     71303
     71302     71303     71304     71305     71304     71306     71305     71306
     71307     71308     71307     71309     71308     71309     71310     71311
     71310     71312     71311     71312     71313     71314     71313     71315
     71314     71315     71316     71317     71316     71318     71317     71318
     71319     71320     71319     71321     71320     71321     71322     71323
     71322     71324     71323     71324     71325     71326     71325     71327
     71326     71327     71328     71329     71328     71330     71329     71330
     71331     71332     71331     71333     71332     71333     71334     71335
     71334     71336     71335     71336     71337     71338     71337     71339
     71338     71339     71340     71341     71340     71342     71341     71342
     71343     71344     71343     71345     71344     71345     71346     71347
     71346     71348     71347     71348     71349     71350     71349     71351
     71350     71351     71352     71353     71352     71354     71353     71354
     71355     71356     71355     71357     71356     71357     71358     71359
     71358     71360     71359     71360     71361     71362     71361     71363
     71362     71363     71364     71365     71364     71366     71365     71366
     71367     71368     71367     71369     71368     71369     71370     71371
     71370     71372     71371     71372     71373     71374     71373     71375
     71374     71375     71376     71377     71376     71378     71377     71378
     71379     71380     71379     71381     71380     71381     71382     71383
     71382     71384     71383     71384     71385     71386     71385     71387
     71386     71387     71388     71389     71388     71390     71389     71390
     71391     71392     71391     71393     71392     71393     71394     71395
     71394     71396     71395     71396     71397     71398     71397     71399
     71398     71399     71400     71401     71400     71402     71401     71402
     71403     71404     71403     71405     71404     71405     71406     71407
     71406     71408     71407     71408     71409     71410     71409     71411
     71410     71411     71412     71413     71412     71414     71413     71414
     71415     71416     71415     71417     71416     71417     71418     71419
     71418     71420     71419     71420     71421     71422     71421     71423
     71422     71423     71424     71425     71424     71426     71425     71426
     71427     71428     71427     71429     71428     71429     71430     71431
     71430     71432     71431     71432     71433     71434     71433     71435
     71434     71435     71436     71437     71436     71438     71437     71438
     71439     71440     71439     71441     71440     71441     71442     71443
     71442     71444     71443     71444     71445     71446     71445     71447
     71446     71447     71448     71449     71448     71450     71449     71450
     71451     71452     71451     71453     71452     71453     71454     71455
     71454     71456     71455     71456     71457     71458     71457     71459
     71458     71459     71460     71461     71460     71462     71461     71462
     71463     71464     71463     71465     71464     71465     71466     71467
     71466     71468     71467     71468     71469     71470     71469     71471
     71470     71471     71472     71473     71472     71474     71473     71474
     71475     71476     71475     71477     71476     71477     71478     71479
     71478     71480     71479     71480     71481     71482     71481     71483
     71482     71483     71484     71485     71484     71486     71485     71486
     71487     71488     71487     71489     71488     71489     71490     71491
     71490     71492     71491     71492     71493     71494     71493     71495
     71494     71495     71496     71497     71496     71498     71497     71498
     71499     71500     71499     71501     71500     71501     71502     71503
     71502     71504     71503     71504     71505     71506     71505     71507
     71506     71507     71508     71509     71508     71510     71509     71510
     71511     71512     71511     71513     71512     71513     71514     71515
     71514     71516     71515     71516     71517     71518     71517     71519
     71518     71519     71520     71521     71520     71522     71521     71522
     71523     71524     71523     71525     71524     71525     71526     71527
     71526     71528     71527     71528     71529     71530     71529     71531
     71530     71531     71532     71533     71532     71534     71533     71534
     71535     71536     71535     71537     71536     71537     71538     71539
     71538     71540     71539     71540     71541     71542     71541     71543
     71542     71543     71544     71545     71544     71546     71545     71546
     71547     71548     71547     71549     71548     71549     71550     71551
     71550     71552     71551     71552     71553     71554     71553     71555
     71554     71555     71556     71557     71556     71558     71557     71558
     71559     71560     71559     71561     71560     71561     71562     71563
     71562     71564     71563     71564     71565     71566     71565     71567
     71566     71567     71568     71569     71568     71570     71569     71570
     71571     71572     71571     71573     71572     71573     71574     71575
     71574     71576     71575     71576     71577     71578     71577     71579
     71578     71579     71580     71581     71580     71582     71581     71582
     71583     71584     71583     71585     71584     71585     71586     71587
     71586     71588     71587     71588     71589     71590     71589     71591
     71590     71591     71592     71593     71592     71594     71593     71594
     71595     71596     71595     71597     71596     71597     71598     71599
     71598     71600     71599     71600     71601     71602     71601     71603
     71602     71603     71604     71605     71604     71606     71605     71606
     71607     71608     71607     71609     71608     71609     71610     71611
     71610     71612     71611     71612     71613     71614     71613     71615
     71614     71615     71616     71617     71616     71618     71617     71618
     71619     71620     71619     71621     71620     71621     71622     71623
     71622     71624     71623     71624     71625     71626     71625     71627
     71626     71627     71628     71629     71628     71630     71629     71630
     71631     71632     71631     71633     71632     71633     71634     71635
     71634     71636     71635     71636     71637     71638     71637     71639
     71638     71639     71640     71641     71640     71642     71641     71642
     71643     71644     71643     71645     71644     71645     71646     71647
     71646     71648     71647     71648     71649     71650     71649     71651
     71650     71651     71652     71653     71652     71654     71653     71654
     71655     71656     71655     71657     71656     71657     71658     71659
     71658     71660     71659     71660     71661     71662     71661     71663
     71662     71663     71664     71665     71664     71666     71665     71666
     71667     71668     71667     71669     71668     71669     71670     71671
     71670     71672     71671     71672     71673     71674     71673     71675
     71674     71675     71676     71677     71676     71678     71677     71678
     71679     71680     71679     71681     71680     71681     71682     71683
     71682     71684     71683     71684     71685     71686     71685     71687
     71686     71687     71688     71689     71688     71690     71689     71690
     71691     71692     71691     71693     71692     71693     71694     71695
     71694     71696     71695     71696     71697     71698     71697     71699
     71698     71699     71700     71701     71700     71702     71701     71702
     71703     71704     71703     71705     71704     71705     71706     71707
     71706     71708     71707     71708     71709     71710     71709     71711
     71710     71711     71712     71713     71712     71714     71713     71714
     71715     71716     71715     71717     71716     71717     71718     71719
     71718     71720     71719     71720     71721     71722     71721     71723
     71722     71723     71724     71725     71724     71726     71725     71726
     71727     71728     71727     71729     71728     71729     71730     71731
     71730     71732     71731     71732     71733     71734     71733     71735
     71734     71735     71736     71737     71736     71738     71737     71738
     71739     71740     71739     71741     71740     71741     71742     71743
     71742     71744     71743     71744     71745     71746     71745     71747
     71746     71747     71748     71749     71748     71750     71749     71750
     71751     71752     71751     71753     71752     71753     71754     71755
     71754     71756     71755     71756     71757     71758     71757     71759
     71758     71759     71760     71761     71760     71762     71761     71762
     71763     71764     71763     71765     71764     71765     71766     71767
     71766     71768     71767     71768     71769     71770     71769     71771
     71770     71771     71772     71773     71772     71774     71773     71774
     71775     71776     71775     71777     71776     71777     71778     71779
     71778     71780     71779     71780     71781     71782     71781     71783
     71782     71783     71784     71785     71784     71786     71785     71786
     71787     71788     71787     71789     71788     71789     71790     71791
     71790     71792     71791     71792     71793     71794     71793     71795
     71794     71795     71796     71797     71796     71798     71797     71798
     71799     71800     71799     71801     71800     71801     71802     71803
     71802     71804     71803     71804     71805     71806     71805     71807
     71806     71807     71808     71809     71808     71810     71809     71810
     71811     71812     71811     71813     71812     71813     71814     71815
     71814     71816     71815     71816     71817     71818     71817     71819
     71818     71819     71820     71821     71820     71822     71821     71822
     71823     71824     71823     71825     71824     71825     71826     71827
     71826     71828     71827     71828     71829     71830     71829     71831
     71830     71831     71832     71833     71832     71834     71833     71834
     71835     71836     71835     71837     71836     71837     71838     71839
     71838     71840     71839     71840     71841     71842     71841     71843
     71842     71843     71844     71845     71844     71846     71845     71846
     71847     71848     71847     71849     71848     71849     71850     71851
     71850     71852     71851     71852     71853     71854     71853     71855
     71854     71855     71856     71857     71856     71858     71857     71858
     71859     71860     71859     71861     71860     71861     71862     71863
     71862     71864     71863     71864     71865     71866     71865     71867
     71866     71867     71868     71869     71868     71870     71869     71870
     71871     71872     71871     71873     71872     71873     71874     71875
     71874     71876     71875     71876     71877     71878     71877     71879
     71878     71879     71880     71881     71880     71882     71881     71882
     71883     71884     71883     71885     71884     71885     71886     71887
     71886     71888     71887     71888     71889     71890     71889     71891
     71890     71891     71892     71893     71892     71894     71893     71894
     71895     71896     71895     71897     71896     71897     71898     71899
     71898     71900     71899     71900     71901     71902     71901     71903
     71902     71903     71904     71905     71904     71906     71905     71906
     71907     71908     71907     71909     71908     71909     71910     71911
     71910     71912     71911     71912     71913     71914     71913     71915
     71914     71915     71916     71917     71916     71918     71917     71918
     71919     71920     71919     71921     71920     71921     71922     71923
     71922     71924     71923     71924     71925     71926     71925     71927
     71926     71927     71928     71929     71928     71930     71929     71930
     71931     71932     71931     71933     71932     71933     71934     71935
     71934     71936     71935     71936     71937     71938     71937     71939
     71938     71939     71940     71941     71940     71942     71941     71942
     71943     71944     71943     71945     71944     71945     71946     71947
     71946     71948     71947     71948     71949     71950     71949     71951
     71950     71951     71952     71953     71952     71954     71953     71954
     71955     71956     71955     71957     71956     71957     71958     71959
     71958     71960     71959     71960     71961     71962     71961     71963
     71962     71963     71964     71965     71964     71966     71965     71966
     71967     71968     71967     71969     71968     71969     71970     71971
     71970     71972     71971     71972     71973     71974     71973     71975
     71974     71975     71976     71977     71976     71978     71977     71978
     71979     71980     71979     71981     71980     71981     71982     71983
     71982     71984     71983     71984     71985     71986     71985     71987
     71986     71987     71988     71989     71988     71990     71989     71990
     71991     71992     71991     71993     71992     71993     71994     71995
     71994     71996     71995     71996     71997     71998     71997     71999
     71998     71999     72000     72001     72000     72002     72001     72002
     72003     72004     72003     72005     72004     72005     72006     72007
     72006     72008     72007     72008     72009     72010     72009     72011
     72010     72011     72012     72013     72012     72014     72013     72014
     72015     72016     72015     72017     72016     72017     72018     72019
     72018     72020     72019     72020     72021     72022     72021     72023
     72022     72023     72024     72025     72024     72026     72025     72026
     72027     72028     72027     72029     72028     72029     72030     72031
     72030     72032     72031     72032     72033     72034     72033     72035
     72034     72035     72036     72037     72036     72038     72037     72038
     72039     72040     72039     72041     72040     72041     72042     72043
     72042     72044     72043     72044     72045     72046     72045     72047
     72046     72047     72048     72049     72048     72050     72049     72050
     72051     72052     72051     72053     72052     72053     72054     72055
     72054     72056     72055     72056     72057     72058     72057     72059
     72058     72059     72060     72061     72060     72062     72061     72062
     72063     72064     72063     72065     72064     72065     72066     72067
     72066     72068     72067     72068     72069     72070     72069     72071
     72070     72071     72072     72073     72072     72074     72073     72074
     72075     72076     72075     72077     72076     72077     72078     72079
     72078     72080     72079     72080     72081     72082     72081     72083
     72082     72083     72084     72085     72084     72086     72085     72086
     72087     72088     72087     72089     72088     72089     72090     72091
     72090     72092     72091     72092     72093     72094     72093     72095
     72094     72095     72096     72097     72096     72098     72097     72098
     72099     72100     72099     72101     72100     72101     72102     72103
     72102     72104     72103     72104     72105     72106     72105     72107
     72106     72107     72108     72109     72108     72110     72109     72110
     72111     72112     72111     72113     72112     72113     72114     72115
     72114     72116     72115     72116     72117     72118     72117     72119
     72118     72119     72120     72121     72120     72122     72121     72122
     72123     72124     72123     72125     72124     72125     72126     72127
     72126     72128     72127     72128     72129     72130     72129     72131
     72130     72131     72132     72133     72132     72134     72133     72134
     72135     72136     72135     72137     72136     72137     72138     72139
     72138     72140     72139     72140     72141     72142     72141     72143
     72142     72143     72144     72145     72144     72146     72145     72146
     72147     72148     72147     72149     72148     72149     72150     72151
     72150     72152     72151     72152     72153     72154     72153     72155
     72154     72155     72156     72157     72156     72158     72157     72158
     72159     72160     72159     72161     72160     72161     72162     72163
     72162     72164     72163     72164     72165     72166     72165     72167
     72166     72167     72168     72169     72168     72170     72169     72170
     72171     72172     72171     72173     72172     72173     72174     72175
     72174     72176     72175     72176     72177     72178     72177     72179
     72178     72179     72180     72181     72180     72182     72181     72182
     72183     72184     72183     72185     72184     72185     72186     72187
     72186     72188     72187     72188     72189     72190     72189     72191
     72190     72191     72192     72193     72192     72194     72193     72194
     72195     72196     72195     72197     72196     72197     72198     72199
     72198     72200     72199     72200     72201     72202     72201     72203
     72202     72203     72204     72205     72204     72206     72205     72206
     72207     72208     72207     72209     72208     72209     72210     72211
     72210     72212     72211     72212     72213     72214     72213     72215
     72214     72215     72216     72217     72216     72218     72217     72218
     72219     72220     72219     72221     72220     72221     72222     72223
     72222     72224     72223     72224     72225     72226     72225     72227
     72226     72227     72228     72229     72228     72230     72229     72230
     72231     72232     72231     72233     72232     72233     72234     72235
     72234     72236     72235     72236     72237     72238     72237     72239
     72238     72239     72240     72241     72240     72242     72241     72242
     72243     72244     72243     72245     72244     72245     72246     72247
     72246     72248     72247     72248     72249     72250     72249     72251
     72250     72251     72252     72253     72252     72254     72253     72254
     72255     72256     72255     72257     72256     72257     72258     72259
     72258     72260     72259     72260     72261     72262     72261     72263
     72262     72263     72264     72265     72264     72266     72265     72266
     72267     72268     72267     72269     72268     72269     72270     72271
     72270     72272     72271     72272     72273     72274     72273     72275
     72274     72275     72276     72277     72276     72278     72277     72278
     72279     72280     72279     72281     72280     72281     72282     72283
     72282     72284     72283     72284     72285     72286     72285     72287
     72286     72287     72288     72289     72288     72290     72289     72290
     72291     72292     72291     72293     72292     72293     72294     72295
     72294     72296     72295     72296     72297     72298     72297     72299
     72298     72299     72300     72301     72300     72302     72301     72302
     72303     72304     72303     72305     72304     72305     72306     72307
     72306     72308     72307     72308     72309     72310     72309     72311
     72310     72311     72312     72313     72312     72314     72313     72314
     72315     72316     72315     72317     72316     72317     72318     72319
     72318     72320     72319     72320     72321     72322     72321     72323
     72322     72323     72324     72325     72324     72326     72325     72326
     72327     72328     72327     72329     72328     72329     72330     72331
     72330     72332     72331     72332     72333     72334     72333     72335
     72334     72335     72336     72337     72336     72338     72337     72338
     72339     72340     72339     72341     72340     72341     72342     72343
     72342     72344     72343     72344     72345     72346     72345     72347
     72346     72347     72348     72349     72348     72350     72349     72350
     72351     72352     72351     72353     72352     72353     72354     72355
     72354     72356     72355     72356     72357     72358     72357     72359
     72358     72359     72360     72361     72360     72362     72361     72362
     72363     72364     72363     72365     72364     72365     72366     72367
     72366     72368     72367     72368     72369     72370     72369     72371
     72370     72371     72372     72373     72372     72374     72373     72374
     72375     72376     72375     72377     72376     72377     72378     72379
     72378     72380     72379     72380     72381     72382     72381     72383
     72382     72383     72384     72385     72384     72386     72385     72386
     72387     72388     72387     72389     72388     72389     72390     72391
     72390     72392     72391     72392     72393     72394     72393     72395
     72394     72395     72396     72397     72396     72398     72397     72398
     72399     72400     72399     72401     72400     72401     72402     72403
     72402     72404     72403     72404     72405     72406     72405     72407
     72406     72407     72408     72409     72408     72410     72409     72410
     72411     72412     72411     72413     72412     72413     72414     72415
     72414     72416     72415     72416     72417     72418     72417     72419
     72418     72419     72420     72421     72420     72422     72421     72422
     72423     72424     72423     72425     72424     72425     72426     72427
     72426     72428     72427     72428     72429     72430     72429     72431
     72430     72431     72432     72433     72432     72434     72433     72434
     72435     72436     72435     72437     72436     72437     72438     72439
     72438     72440     72439     72440     72441     72442     72441     72443
     72442     72443     72444     72445     72444     72446     72445     72446
     72447     72448     72447     72449     72448     72449     72450     72451
     72450     72452     72451     72452     72453     72454     72453     72455
     72454     72455     72456     72457     72456     72458     72457     72458
     72459     72460     72459     72461     72460     72461     72462     72463
     72462     72464     72463     72464     72465     72466     72465     72467
     72466     72467     72468     72469     72468     72470     72469     72470
     72471     72472     72471     72473     72472     72473     72474     72475
     72474     72476     72475     72476     72477     72478     72477     72479
     72478     72479     72480     72481     72480     72482     72481     72482
     72483     72484     72483     72485     72484     72485     72486     72487
     72486     72488     72487     72488     72489     72490     72489     72491
     72490     72491     72492     72493     72492     72494     72493     72494
     72495     72496     72495     72497     72496     72497     72498     72499
     72498     72500     72499     72500     72501     72502     72501     72503
     72502     72503     72504     72505     72504     72506     72505     72506
     72507     72508     72507     72509     72508     72509     72510     72511
     72510     72512     72511     72512     72513     72514     72513     72515
     72514     72515     72516     72517     72516     72518     72517     72518
     72519     72520     72519     72521     72520     72521     72522     72523
     72522     72524     72523     72524     72525     72526     72525     72527
     72526     72527     72528     72529     72528     72530     72529     72530
     72531     72532     72531     72533     72532     72533     72534     72535
     72534     72536     72535     72536     72537     72538     72537     72539
     72538     72539     72540     72541     72540     72542     72541     72542
     72543     72544     72543     72545     72544     72545     72546     72547
     72546     72548     72547     72548     72549     72550     72549     72551
     72550     72551     72552     72553     72552     72554     72553     72554
     72555     72556     72555     72557     72556     72557     72558     72559
     72558     72560     72559     72560     72561     72562     72561     72563
     72562     72563     72564     72565     72564     72566     72565     72566
     72567     72568     72567     72569     72568     72569     72570     72571
     72570     72572     72571     72572     72573     72574     72573     72575
     72574     72575     72576     72577     72576     72578     72577     72578
     72579     72580     72579     72581     72580     72581     72582     72583
     72582     72584     72583     72584     72585     72586     72585     72587
     72586     72587     72588     72589     72588     72590     72589     72590
     72591     72592     72591     72593     72592     72593     72594     72595
     72594     72596     72595     72596     72597     72598     72597     72599
     72598     72599     72600     72601     72600     72602     72601     72602
     72603     72604     72603     72605     72604     72605     72606     72607
     72606     72608     72607     72608     72609     72610     72609     72611
     72610     72611     72612     72613     72612     72614     72613     72614
     72615     72616     72615     72617     72616     72617     72618     72619
     72618     72620     72619     72620     72621     72622     72621     72623
     72622     72623     72624     72625     72624     72626     72625     72626
     72627     72628     72627     72629     72628     72629     72630     72631
     72630     72632     72631     72632     72633     72634     72633     72635
     72634     72635     72636     72637     72636     72638     72637     72638
     72639     72640     72639     72641     72640     72641     72642     72643
     72642     72644     72643     72644     72645     72646     72645     72647
     72646     72647     72648     72649     72648     72650     72649     72650
     72651     72652     72651     72653     72652     72653     72654     72655
     72654     72656     72655     72656     72657     72658     72657     72659
     72658     72659     72660     72661     72660     72662     72661     72662
     72663     72664     72663     72665     72664     72665     72666     72667
     72666     72668     72667     72668     72669     72670     72669     72671
     72670     72671     72672     72673     72672     72674     72673     72674
     72675     72676     72675     72677     72676     72677     72678     72679
     72678     72680     72679     72680     72681     72682     72681     72683
     72682     72683     72684     72685     72684     72686     72685     72686
     72687     72688     72687     72689     72688     72689     72690     72691
     72690     72692     72691     72692     72693     72694     72693     72695
     72694     72695     72696     72697     72696     72698     72697     72698
     72699     72700     72699     72701     72700     72701     72702     72703
     72702     72704     72703     72704     72705     72706     72705     72707
     72706     72707     72708     72709     72708     72710     72709     72710
     72711     72712     72711     72713     72712     72713     72714     72715
     72714     72716     72715     72716     72717     72718     72717     72719
     72718     72719     72720     72721     72720     72722     72721     72722
     72723     72724     72723     72725     72724     72725     72726     72727
     72726     72728     72727     72728     72729     72730     72729     72731
     72730     72731     72732     72733     72732     72734     72733     72734
     72735     72736     72735     72737     72736     72737     72738     72739
     72738     72740     72739     72740     72741     72742     72741     72743
     72742     72743     72744     72745     72744     72746     72745     72746
     72747     72748     72747     72749     72748     72749     72750     72751
     72750     72752     72751     72752     72753     72754     72753     72755
     72754     72755     72756     72757     72756     72758     72757     72758
     72759     72760     72759     72761     72760     72761     72762     72763
     72762     72764     72763     72764     72765     72766     72765     72767
     72766     72767     72768     72769     72768     72770     72769     72770
     72771     72772     72771     72773     72772     72773     72774     72775
     72774     72776     72775     72776     72777     72778     72777     72779
     72778     72779     72780     72781     72780     72782     72781     72782
     72783     72784     72783     72785     72784     72785     72786     72787
     72786     72788     72787     72788     72789     72790     72789     72791
     72790     72791     72792     72793     72792     72794     72793     72794
     72795     72796     72795     72797     72796     72797     72798     72799
     72798     72800     72799     72800     72801     72802     72801     72803
     72802     72803     72804     72805     72804     72806     72805     72806
     72807     72808     72807     72809     72808     72809     72810     72811
     72810     72812     72811     72812     72813     72814     72813     72815
     72814     72815     72816     72817     72816     72818     72817     72818
     72819     72820     72819     72821     72820     72821     72822     72823
     72822     72824     72823     72824     72825     72826     72825     72827
     72826     72827     72828     72829     72828     72830     72829     72830
     72831     72832     72831     72833     72832     72833     72834     72835
     72834     72836     72835     72836     72837     72838     72837     72839
     72838     72839     72840     72841     72840     72842     72841     72842
     72843     72844     72843     72845     72844     72845     72846     72847
     72846     72848     72847     72848     72849     72850     72849     72851
     72850     72851     72852     72853     72852     72854     72853     72854
     72855     72856     72855     72857     72856     72857     72858     72859
     72858     72860     72859     72860     72861     72862     72861     72863
     72862     72863     72864     72865     72864     72866     72865     72866
     72867     72868     72867     72869     72868     72869     72870     72871
     72870     72872     72871     72872     72873     72874     72873     72875
     72874     72875     72876     72877     72876     72878     72877     72878
     72879     72880     72879     72881     72880     72881     72882     72883
     72882     72884     72883     72884     72885     72886     72885     72887
     72886     72887     72888     72889     72888     72890     72889     72890
     72891     72892     72891     72893     72892     72893     72894     72895
     72894     72896     72895     72896     72897     72898     72897     72899
     72898     72899     72900     72901     72900     72902     72901     72902
     72903     72904     72903     72905     72904     72905     72906     72907
     72906     72908     72907     72908     72909     72910     72909     72911
     72910     72911     72912     72913     72912     72914     72913     72914
     72915     72916     72915     72917     72916     72917     72918     72919
     72918     72920     72919     72920     72921     72922     72921     72923
     72922     72923     72924     72925     72924     72926     72925     72926
     72927     72928     72927     72929     72928     72929     72930     72931
     72930     72932     72931     72932     72933     72934     72933     72935
     72934     72935     72936     72937     72936     72938     72937     72938
     72939     72940     72939     72941     72940     72941     72942     72943
     72942     72944     72943     72944     72945     72946     72945     72947
     72946     72947     72948     72949     72948     72950     72949     72950
     72951     72952     72951     72953     72952     72953     72954     72955
     72954     72956     72955     72956     72957     72958     72957     72959
     72958     72959     72960     72961     72960     72962     72961     72962
     72963     72964     72963     72965     72964     72965     72966     72967
     72966     72968     72967     72968     72969     72970     72969     72971
     72970     72971     72972     72973     72972     72974     72973     72974
     72975     72976     72975     72977     72976     72977     72978     72979
     72978     72980     72979     72980     72981     72982     72981     72983
     72982     72983     72984     72985     72984     72986     72985     72986
     72987     72988     72987     72989     72988     72989     72990     72991
     72990     72992     72991     72992     72993     72994     72993     72995
     72994     72995     72996     72997     72996     72998     72997     72998
     72999     73000     72999     73001     73000     73001     73002     73003
     73002     73004     73003     73004     73005     73006     73005     73007
     73006     73007     73008     73009     73008     73010     73009     73010
     73011     73012     73011     73013     73012     73013     73014     73015
     73014     73016     73015     73016     73017     73018     73017     73019
     73018     73019     73020     73021     73020     73022     73021     73022
     73023     73024     73023     73025     73024     73025     73026     73027
     73026     73028     73027     73028     73029     73030     73029     73031
     73030     73031     73032     73033     73032     73034     73033     73034
     73035     73036     73035     73037     73036     73037     73038     73039
     73038     73040     73039     73040     73041     73042     73041     73043
     73042     73043     73044     73045     73044     73046     73045     73046
     73047     73048     73047     73049     73048     73049     73050     73051
     73050     73052     73051     73052     73053     73054     73053     73055
     73054     73055     73056     73057     73056     73058     73057     73058
     73059     73060     73059     73061     73060     73061     73062     73063
     73062     73064     73063     73064     73065     73066     73065     73067
     73066     73067     73068     73069     73068     73070     73069     73070
     73071     73072     73071     73073     73072     73073     73074     73075
     73074     73076     73075     73076     73077     73078     73077     73079
     73078     73079     73080     73081     73080     73082     73081     73082
     73083     73084     73083     73085     73084     73085     73086     73087
     73086     73088     73087     73088     73089     73090     73089     73091
     73090     73091     73092     73093     73092     73094     73093     73094
     73095     73096     73095     73097     73096     73097     73098     73099
     73098     73100     73099     73100     73101     73102     73101     73103
     73102     73103     73104     73105     73104     73106     73105     73106
     73107     73108     73107     73109     73108     73109     73110     73111
     73110     73112     73111     73112     73113     73114     73113     73115
     73114     73115     73116     73117     73116     73118     73117     73118
     73119     73120     73119     73121     73120     73121     73122     73123
     73122     73124     73123     73124     73125     73126     73125     73127
     73126     73127     73128     73129     73128     73130     73129     73130
     73131     73132     73131     73133     73132     73133     73134     73135
     73134     73136     73135     73136     73137     73138     73137     73139
     73138     73139     73140     73141     73140     73142     73141     73142
     73143     73144     73143     73145     73144     73145     73146     73147
     73146     73148     73147     73148     73149     73150     73149     73151
     73150     73151     73152     73153     73152     73154     73153     73154
     73155     73156     73155     73157     73156     73157     73158     73159
     73158     73160     73159     73160     73161     73162     73161     73163
     73162     73163     73164     73165     73164     73166     73165     73166
     73167     73168     73167     73169     73168     73169     73170     73171
     73170     73172     73171     73172     73173     73174     73173     73175
     73174     73175     73176     73177     73176     73178     73177     73178
     73179     73180     73179     73181     73180     73181     73182     73183
     73182     73184     73183     73184     73185     73186     73185     73187
     73186     73187     73188     73189     73188     73190     73189     73190
     73191     73192     73191     73193     73192     73193     73194     73195
     73194     73196     73195     73196     73197     73198     73197     73199
     73198     73199     73200     73201     73200     73202     73201     73202
     73203     73204     73203     73205     73204     73205     73206     73207
     73206     73208     73207     73208     73209     73210     73209     73211
     73210     73211     73212     73213     73212     73214     73213     73214
     73215     73216     73215     73217     73216     73217     73218     73219
     73218     73220     73219     73220     73221     73222     73221     73223
     73222     73223     73224     73225     73224     73226     73225     73226
     73227     73228     73227     73229     73228     73229     73230     73231
     73230     73232     73231     73232     73233     73234     73233     73235
     73234     73235     73236     73237     73236     73238     73237     73238
     73239     73240     73239     73241     73240     73241     73242     73243
     73242     73244     73243     73244     73245     73246     73245     73247
     73246     73247     73248     73249     73248     73250     73249     73250
     73251     73252     73251     73253     73252     73253     73254     73255
     73254     73256     73255     73256     73257     73258     73257     73259
     73258     73259     73260     73261     73260     73262     73261     73262
     73263     73264     73263     73265     73264     73265     73266     73267
     73266     73268     73267     73268     73269     73270     73269     73271
     73270     73271     73272     73273     73272     73274     73273     73274
     73275     73276     73275     73277     73276     73277     73278     73279
     73278     73280     73279     73280     73281     73282     73281     73283
     73282     73283     73284     73285     73284     73286     73285     73286
     73287     73288     73287     73289     73288     73289     73290     73291
     73290     73292     73291     73292     73293     73294     73293     73295
     73294     73295     73296     73297     73296     73298     73297     73298
     73299     73300     73299     73301     73300     73301     73302     73303
     73302     73304     73303     73304     73305     73306     73305     73307
     73306     73307     73308     73309     73308     73310     73309     73310
     73311     73312     73311     73313     73312     73313     73314     73315
     73314     73316     73315     73316     73317     73318     73317     73319
     73318     73319     73320     73321     73320     73322     73321     73322
     73323     73324     73323     73325     73324     73325     73326     73327
     73326     73328     73327     73328     73329     73330     73329     73331
     73330     73331     73332     73333     73332     73334     73333     73334
     73335     73336     73335     73337     73336     73337     73338     73339
     73338     73340     73339     73340     73341     73342     73341     73343
     73342     73343     73344     73345     73344     73346     73345     73346
     73347     73348     73347     73349     73348     73349     73350     73351
     73350     73352     73351     73352     73353     73354     73353     73355
     73354     73355     73356     73357     73356     73358     73357     73358
     73359     73360     73359     73361     73360     73361     73362     73363
     73362     73364     73363     73364     73365     73366     73365     73367
     73366     73367     73368     73369     73368     73370     73369     73370
     73371     73372     73371     73373     73372     73373     73374     73375
     73374     73376     73375     73376     73377     73378     73377     73379
     73378     73379     73380     73381     73380     73382     73381     73382
     73383     73384     73383     73385     73384     73385     73386     73387
     73386     73388     73387     73388     73389     73390     73389     73391
     73390     73391     73392     73393     73392     73394     73393     73394
     73395     73396     73395     73397     73396     73397     73398     73399
     73398     73400     73399     73400     73401     73402     73401     73403
     73402     73403     73404     73405     73404     73406     73405     73406
     73407     73408     73407     73409     73408     73409     73410     73411
     73410     73412     73411     73412     73413     73414     73413     73415
     73414     73415     73416     73417     73416     73418     73417     73418
     73419     73420     73419     73421     73420     73421     73422     73423
     73422     73424     73423     73424     73425     73426     73425     73427
     73426     73427     73428     73429     73428     73430     73429     73430
     73431     73432     73431     73433     73432     73433     73434     73435
     73434     73436     73435     73436     73437     73438     73437     73439
     73438     73439     73440     73441     73440     73442     73441     73442
     73443     73444     73443     73445     73444     73445     73446     73447
     73446     73448     73447     73448     73449     73450     73449     73451
     73450     73451     73452     73453     73452     73454     73453     73454
     73455     73456     73455     73457     73456     73457     73458     73459
     73458     73460     73459     73460     73461     73462     73461     73463
     73462     73463     73464     73465     73464     73466     73465     73466
     73467     73468     73467     73469     73468     73469     73470     73471
     73470     73472     73471     73472     73473     73474     73473     73475
     73474     73475     73476     73477     73476     73478     73477     73478
     73479     73480     73479     73481     73480     73481     73482     73483
     73482     73484     73483     73484     73485     73486     73485     73487
     73486     73487     73488     73489     73488     73490     73489     73490
     73491     73492     73491     73493     73492     73493     73494     73495
     73494     73496     73495     73496     73497     73498     73497     73499
     73498     73499     73500     73501     73500     73502     73501     73502
     73503     73504     73503     73505     73504     73505     73506     73507
     73506     73508     73507     73508     73509     73510     73509     73511
     73510     73511     73512     73513     73512     73514     73513     73514
     73515     73516     73515     73517     73516     73517     73518     73519
     73518     73520     73519     73520     73521     73522     73521     73523
     73522     73523     73524     73525     73524     73526     73525     73526
     73527     73528     73527     73529     73528     73529     73530     73531
     73530     73532     73531     73532     73533     73534     73533     73535
     73534     73535     73536     73537     73536     73538     73537     73538
     73539     73540     73539     73541     73540     73541     73542     73543
     73542     73544     73543     73544     73545     73546     73545     73547
     73546     73547     73548     73549     73548     73550     73549     73550
     73551     73552     73551     73553     73552     73553     73554     73555
     73554     73556     73555     73556     73557     73558     73557     73559
     73558     73559     73560     73561     73560     73562     73561     73562
     73563     73564     73563     73565     73564     73565     73566     73567
     73566     73568     73567     73568     73569     73570     73569     73571
     73570     73571     73572     73573     73572     73574     73573     73574
     73575     73576     73575     73577     73576     73577     73578     73579
     73578     73580     73579     73580     73581     73582     73581     73583
     73582     73583     73584     73585     73584     73586     73585     73586
     73587     73588     73587     73589     73588     73589     73590     73591
     73590     73592     73591     73592     73593     73594     73593     73595
     73594     73595     73596     73597     73596     73598     73597     73598
     73599     73600     73599     73601     73600     73601     73602     73603
     73602     73604     73603     73604     73605     73606     73605     73607
     73606     73607     73608     73609     73608     73610     73609     73610
     73611     73612     73611     73613     73612     73613     73614     73615
     73614     73616     73615     73616     73617     73618     73617     73619
     73618     73619     73620     73621     73620     73622     73621     73622
     73623     73624     73623     73625     73624     73625     73626     73627
     73626     73628     73627     73628     73629     73630     73629     73631
     73630     73631     73632     73633     73632     73634     73633     73634
     73635     73636     73635     73637     73636     73637     73638     73639
     73638     73640     73639     73640     73641     73642     73641     73643
     73642     73643     73644     73645     73644     73646     73645     73646
     73647     73648     73647     73649     73648     73649     73650     73651
     73650     73652     73651     73652     73653     73654     73653     73655
     73654     73655     73656     73657     73656     73658     73657     73658
     73659     73660     73659     73661     73660     73661     73662     73663
     73662     73664     73663     73664     73665     73666     73665     73667
     73666     73667     73668     73669     73668     73670     73669     73670
     73671     73672     73671     73673     73672     73673     73674     73675
     73674     73676     73675     73676     73677     73678     73677     73679
     73678     73679     73680     73681     73680     73682     73681     73682
     73683     73684     73683     73685     73684     73685     73686     73687
     73686     73688     73687     73688     73689     73690     73689     73691
     73690     73691     73692     73693     73692     73694     73693     73694
     73695     73696     73695     73697     73696     73697     73698     73699
     73698     73700     73699     73700     73701     73702     73701     73703
     73702     73703     73704     73705     73704     73706     73705     73706
     73707     73708     73707     73709     73708     73709     73710     73711
     73710     73712     73711     73712     73713     73714     73713     73715
     73714     73715     73716     73717     73716     73718     73717     73718
     73719     73720     73719     73721     73720     73721     73722     73723
     73722     73724     73723     73724     73725     73726     73725     73727
     73726     73727     73728     73729     73728     73730     73729     73730
     73731     73732     73731     73733     73732     73733     73734     73735
     73734     73736     73735     73736     73737     73738     73737     73739
     73738     73739     73740     73741     73740     73742     73741     73742
     73743     73744     73743     73745     73744     73745     73746     73747
     73746     73748     73747     73748     73749     73750     73749     73751
     73750     73751     73752     73753     73752     73754     73753     73754
     73755     73756     73755     73757     73756     73757     73758     73759
     73758     73760     73759     73760     73761     73762     73761     73763
     73762     73763     73764     73765     73764     73766     73765     73766
     73767     73768     73767     73769     73768     73769     73770     73771
     73770     73772     73771     73772     73773     73774     73773     73775
     73774     73775     73776     73777     73776     73778     73777     73778
     73779     73780     73779     73781     73780     73781     73782     73783
     73782     73784     73783     73784     73785     73786     73785     73787
     73786     73787     73788     73789     73788     73790     73789     73790
     73791     73792     73791     73793     73792     73793     73794     73795
     73794     73796     73795     73796     73797     73798     73797     73799
     73798     73799     73800     73801     73800     73802     73801     73802
     73803     73804     73803     73805     73804     73805     73806     73807
     73806     73808     73807     73808     73809     73810     73809     73811
     73810     73811     73812     73813     73812     73814     73813     73814
     73815     73816     73815     73817     73816     73817     73818     73819
     73818     73820     73819     73820     73821     73822     73821     73823
     73822     73823     73824     73825     73824     73826     73825     73826
     73827     73828     73827     73829     73828     73829     73830     73831
     73830     73832     73831     73832     73833     73834     73833     73835
     73834     73835     73836     73837     73836     73838     73837     73838
     73839     73840     73839     73841     73840     73841     73842     73843
     73842     73844     73843     73844     73845     73846     73845     73847
     73846     73847     73848     73849     73848     73850     73849     73850
     73851     73852     73851     73853     73852     73853     73854     73855
     73854     73856     73855     73856     73857     73858     73857     73859
     73858     73859     73860     73861     73860     73862     73861     73862
     73863     73864     73863     73865     73864     73865     73866     73867
     73866     73868     73867     73868     73869     73870     73869     73871
     73870     73871     73872     73873     73872     73874     73873     73874
     73875     73876     73875     73877     73876     73877     73878     73879
     73878     73880     73879     73880     73881     73882     73881     73883
     73882     73883     73884     73885     73884     73886     73885     73886
     73887     73888     73887     73889     73888     73889     73890     73891
     73890     73892     73891     73892     73893     73894     73893     73895
     73894     73895     73896     73897     73896     73898     73897     73898
     73899     73900     73899     73901     73900     73901     73902     73903
     73902     73904     73903     73904     73905     73906     73905     73907
     73906     73907     73908     73909     73908     73910     73909     73910
     73911     73912     73911     73913     73912     73913     73914     73915
     73914     73916     73915     73916     73917     73918     73917     73919
     73918     73919     73920     73921     73920     73922     73921     73922
     73923     73924     73923     73925     73924     73925     73926     73927
     73926     73928     73927     73928     73929     73930     73929     73931
     73930     73931     73932     73933     73932     73934     73933     73934
     73935     73936     73935     73937     73936     73937     73938     73939
     73938     73940     73939     73940     73941     73942     73941     73943
     73942     73943     73944     73945     73944     73946     73945     73946
     73947     73948     73947     73949     73948     73949     73950     73951
     73950     73952     73951     73952     73953     73954     73953     73955
     73954     73955     73956     73957     73956     73958     73957     73958
     73959     73960     73959     73961     73960     73961     73962     73963
     73962     73964     73963     73964     73965     73966     73965     73967
     73966     73967     73968     73969     73968     73970     73969     73970
     73971     73972     73971     73973     73972     73973     73974     73975
     73974     73976     73975     73976     73977     73978     73977     73979
     73978     73979     73980     73981     73980     73982     73981     73982
     73983     73984     73983     73985     73984     73985     73986     73987
     73986     73988     73987     73988     73989     73990     73989     73991
     73990     73991     73992     73993     73992     73994     73993     73994
     73995     73996     73995     73997     73996     73997     73998     73999
     73998     74000     73999     74000     74001     74002     74001     74003
     74002     74003     74004     74005     74004     74006     74005     74006
     74007     74008     74007     74009     74008     74009     74010     74011
     74010     74012     74011     74012     74013     74014     74013     74015
     74014     74015     74016     74017     74016     74018     74017     74018
     74019     74020     74019     74021     74020     74021     74022     74023
     74022     74024     74023     74024     74025     74026     74025     74027
     74026     74027     74028     74029     74028     74030     74029     74030
     74031     74032     74031     74033     74032     74033     74034     74035
     74034     74036     74035     74036     74037     74038     74037     74039
     74038     74039     74040     74041     74040     74042     74041     74042
     74043     74044     74043     74045     74044     74045     74046     74047
     74046     74048     74047     74048     74049     74050     74049     74051
     74050     74051     74052     74053     74052     74054     74053     74054
     74055     74056     74055     74057     74056     74057     74058     74059
     74058     74060     74059     74060     74061     74062     74061     74063
     74062     74063     74064     74065     74064     74066     74065     74066
     74067     74068     74067     74069     74068     74069     74070     74071
     74070     74072     74071     74072     74073     74074     74073     74075
     74074     74075     74076     74077     74076     74078     74077     74078
     74079     74080     74079     74081     74080     74081     74082     74083
     74082     74084     74083     74084     74085     74086     74085     74087
     74086     74087     74088     74089     74088     74090     74089     74090
     74091     74092     74091     74093     74092     74093     74094     74095
     74094     74096     74095     74096     74097     74098     74097     74099
     74098     74099     74100     74101     74100     74102     74101     74102
     74103     74104     74103     74105     74104     74105     74106     74107
     74106     74108     74107     74108     74109     74110     74109     74111
     74110     74111     74112     74113     74112     74114     74113     74114
     74115     74116     74115     74117     74116     74117     74118     74119
     74118     74120     74119     74120     74121     74122     74121     74123
     74122     74123     74124     74125     74124     74126     74125     74126
     74127     74128     74127     74129     74128     74129     74130     74131
     74130     74132     74131     74132     74133     74134     74133     74135
     74134     74135     74136     74137     74136     74138     74137     74138
     74139     74140     74139     74141     74140     74141     74142     74143
     74142     74144     74143     74144     74145     74146     74145     74147
     74146     74147     74148     74149     74148     74150     74149     74150
     74151     74152     74151     74153     74152     74153     74154     74155
     74154     74156     74155     74156     74157     74158     74157     74159
     74158     74159     74160     74161     74160     74162     74161     74162
     74163     74164     74163     74165     74164     74165     74166     74167
     74166     74168     74167     74168     74169     74170     74169     74171
     74170     74171     74172     74173     74172     74174     74173     74174
     74175     74176     74175     74177     74176     74177     74178     74179
     74178     74180     74179     74180     74181     74182     74181     74183
     74182     74183     74184     74185     74184     74186     74185     74186
     74187     74188     74187     74189     74188     74189     74190     74191
     74190     74192     74191     74192     74193     74194     74193     74195
     74194     74195     74196     74197     74196     74198     74197     74198
     74199     74200     74199     74201     74200     74201     74202     74203
     74202     74204     74203     74204     74205     74206     74205     74207
     74206     74207     74208     74209     74208     74210     74209     74210
     74211     74212     74211     74213     74212     74213     74214     74215
     74214     74216     74215     74216     74217     74218     74217     74219
     74218     74219     74220     74221     74220     74222     74221     74222
     74223     74224     74223     74225     74224     74225     74226     74227
     74226     74228     74227     74228     74229     74230     74229     74231
     74230     74231     74232     74233     74232     74234     74233     74234
     74235     74236     74235     74237     74236     74237     74238     74239
     74238     74240     74239     74240     74241     74242     74241     74243
     74242     74243     74244     74245     74244     74246     74245     74246
     74247     74248     74247     74249     74248     74249     74250     74251
     74250     74252     74251     74252     74253     74254     74253     74255
     74254     74255     74256     74257     74256     74258     74257     74258
     74259     74260     74259     74261     74260     74261     74262     74263
     74262     74264     74263     74264     74265     74266     74265     74267
     74266     74267     74268     74269     74268     74270     74269     74270
     74271     74272     74271     74273     74272     74273     74274     74275
     74274     74276     74275     74276     74277     74278     74277     74279
     74278     74279     74280     74281     74280     74282     74281     74282
     74283     74284     74283     74285     74284     74285     74286     74287
     74286     74288     74287     74288     74289     74290     74289     74291
     74290     74291     74292     74293     74292     74294     74293     74294
     74295     74296     74295     74297     74296     74297     74298     74299
     74298     74300     74299     74300     74301     74302     74301     74303
     74302     74303     74304     74305     74304     74306     74305     74306
     74307     74308     74307     74309     74308     74309     74310     74311
     74310     74312     74311     74312     74313     74314     74313     74315
     74314     74315     74316     74317     74316     74318     74317     74318
     74319     74320     74319     74321     74320     74321     74322     74323
     74322     74324     74323     74324     74325     74326     74325     74327
     74326     74327     74328     74329     74328     74330     74329     74330
     74331     74332     74331     74333     74332     74333     74334     74335
     74334     74336     74335     74336     74337     74338     74337     74339
     74338     74339     74340     74341     74340     74342     74341     74342
     74343     74344     74343     74345     74344     74345     74346     74347
     74346     74348     74347     74348     74349     74350     74349     74351
     74350     74351     74352     74353     74352     74354     74353     74354
     74355     74356     74355     74357     74356     74357     74358     74359
     74358     74360     74359     74360     74361     74362     74361     74363
     74362     74363     74364     74365     74364     74366     74365     74366
     74367     74368     74367     74369     74368     74369     74370     74371
     74370     74372     74371     74372     74373     74374     74373     74375
     74374     74375     74376     74377     74376     74378     74377     74378
     74379     74380     74379     74381     74380     74381     74382     74383
     74382     74384     74383     74384     74385     74386     74385     74387
     74386     74387     74388     74389     74388     74390     74389     74390
     74391     74392     74391     74393     74392     74393     74394     74395
     74394     74396     74395     74396     74397     74398     74397     74399
     74398     74399     74400     74401     74400     74402     74401     74402
     74403     74404     74403     74405     74404     74405     74406     74407
     74406     74408     74407     74408     74409     74410     74409     74411
     74410     74411     74412     74413     74412     74414     74413     74414
     74415     74416     74415     74417     74416     74417     74418     74419
     74418     74420     74419     74420     74421     74422     74421     74423
     74422     74423     74424     74425     74424     74426     74425     74426
     74427     74428     74427     74429     74428     74429     74430     74431
     74430     74432     74431     74432     74433     74434     74433     74435
     74434     74435     74436     74437     74436     74438     74437     74438
     74439     74440     74439     74441     74440     74441     74442     74443
     74442     74444     74443     74444     74445     74446     74445     74447
     74446     74447     74448     74449     74448     74450     74449     74450
     74451     74452     74451     74453     74452     74453     74454     74455
     74454     74456     74455     74456     74457     74458     74457     74459
     74458     74459     74460     74461     74460     74462     74461     74462
     74463     74464     74463     74465     74464     74465     74466     74467
     74466     74468     74467     74468     74469     74470     74469     74471
     74470     74471     74472     74473     74472     74474     74473     74474
     74475     74476     74475     74477     74476     74477     74478     74479
     74478     74480     74479     74480     74481     74482     74481     74483
     74482     74483     74484     74485     74484     74486     74485     74486
     74487     74488     74487     74489     74488     74489     74490     74491
     74490     74492     74491     74492     74493     74494     74493     74495
     74494     74495     74496     74497     74496     74498     74497     74498
     74499     74500     74499     74501     74500     74501     74502     74503
     74502     74504     74503     74504     74505     74506     74505     74507
     74506     74507     74508     74509     74508     74510     74509     74510
     74511     74512     74511     74513     74512     74513     74514     74515
     74514     74516     74515     74516     74517     74518     74517     74519
     74518     74519     74520     74521     74520     74522     74521     74522
     74523     74524     74523     74525     74524     74525     74526     74527
     74526     74528     74527     74528     74529     74530     74529     74531
     74530     74531     74532     74533     74532     74534     74533     74534
     74535     74536     74535     74537     74536     74537     74538     74539
     74538     74540     74539     74540     74541     74542     74541     74543
     74542     74543     74544     74545     74544     74546     74545     74546
     74547     74548     74547     74549     74548     74549     74550     74551
     74550     74552     74551     74552     74553     74554     74553     74555
     74554     74555     74556     74557     74556     74558     74557     74558
     74559     74560     74559     74561     74560     74561     74562     74563
     74562     74564     74563     74564     74565     74566     74565     74567
     74566     74567     74568     74569     74568     74570     74569     74570
     74571     74572     74571     74573     74572     74573     74574     74575
     74574     74576     74575     74576     74577     74578     74577     74579
     74578     74579     74580     74581     74580     74582     74581     74582
     74583     74584     74583     74585     74584     74585     74586     74587
     74586     74588     74587     74588     74589     74590     74589     74591
     74590     74591     74592     74593     74592     74594     74593     74594
     74595     74596     74595     74597     74596     74597     74598     74599
     74598     74600     74599     74600     74601     74602     74601     74603
     74602     74603     74604     74605     74604     74606     74605     74606
     74607     74608     74607     74609     74608     74609     74610     74611
     74610     74612     74611     74612     74613     74614     74613     74615
     74614     74615     74616     74617     74616     74618     74617     74618
     74619     74620     74619     74621     74620     74621     74622     74623
     74622     74624     74623     74624     74625     74626     74625     74627
     74626     74627     74628     74629     74628     74630     74629     74630
     74631     74632     74631     74633     74632     74633     74634     74635
     74634     74636     74635     74636     74637     74638     74637     74639
     74638     74639     74640     74641     74640     74642     74641     74642
     74643     74644     74643     74645     74644     74645     74646     74647
     74646     74648     74647     74648     74649     74650     74649     74651
     74650     74651     74652     74653     74652     74654     74653     74654
     74655     74656     74655     74657     74656     74657     74658     74659
     74658     74660     74659     74660     74661     74662     74661     74663
     74662     74663     74664     74665     74664     74666     74665     74666
     74667     74668     74667     74669     74668     74669     74670     74671
     74670     74672     74671     74672     74673     74674     74673     74675
     74674     74675     74676     74677     74676     74678     74677     74678
     74679     74680     74679     74681     74680     74681     74682     74683
     74682     74684     74683     74684     74685     74686     74685     74687
     74686     74687     74688     74689     74688     74690     74689     74690
     74691     74692     74691     74693     74692     74693     74694     74695
     74694     74696     74695     74696     74697     74698     74697     74699
     74698     74699     74700     74701     74700     74702     74701     74702
     74703     74704     74703     74705     74704     74705     74706     74707
     74706     74708     74707     74708     74709     74710     74709     74711
     74710     74711     74712     74713     74712     74714     74713     74714
     74715     74716     74715     74717     74716     74717     74718     74719
     74718     74720     74719     74720     74721     74722     74721     74723
     74722     74723     74724     74725     74724     74726     74725     74726
     74727     74728     74727     74729     74728     74729     74730     74731
     74730     74732     74731     74732     74733     74734     74733     74735
     74734     74735     74736     74737     74736     74738     74737     74738
     74739     74740     74739     74741     74740     74741     74742     74743
     74742     74744     74743     74744     74745     74746     74745     74747
     74746     74747     74748     74749     74748     74750     74749     74750
     74751     74752     74751     74753     74752     74753     74754     74755
     74754     74756     74755     74756     74757     74758     74757     74759
     74758     74759     74760     74761     74760     74762     74761     74762
     74763     74764     74763     74765     74764     74765     74766     74767
     74766     74768     74767     74768     74769     74770     74769     74771
     74770     74771     74772     74773     74772     74774     74773     74774
     74775     74776     74775     74777     74776     74777     74778     74779
     74778     74780     74779     74780     74781     74782     74781     74783
     74782     74783     74784     74785     74784     74786     74785     74786
     74787     74788     74787     74789     74788     74789     74790     74791
     74790     74792     74791     74792     74793     74794     74793     74795
     74794     74795     74796     74797     74796     74798     74797     74798
     74799     74800     74799     74801     74800     74801     74802     74803
     74802     74804     74803     74804     74805     74806     74805     74807
     74806     74807     74808     74809     74808     74810     74809     74810
     74811     74812     74811     74813     74812     74813     74814     74815
     74814     74816     74815     74816     74817     74818     74817     74819
     74818     74819     74820     74821     74820     74822     74821     74822
     74823     74824     74823     74825     74824     74825     74826     74827
     74826     74828     74827     74828     74829     74830     74829     74831
     74830     74831     74832     74833     74832     74834     74833     74834
     74835     74836     74835     74837     74836     74837     74838     74839
     74838     74840     74839     74840     74841     74842     74841     74843
     74842     74843     74844     74845     74844     74846     74845     74846
     74847     74848     74847     74849     74848     74849     74850     74851
     74850     74852     74851     74852     74853     74854     74853     74855
     74854     74855     74856     74857     74856     74858     74857     74858
     74859     74860     74859     74861     74860     74861     74862     74863
     74862     74864     74863     74864     74865     74866     74865     74867
     74866     74867     74868     74869     74868     74870     74869     74870
     74871     74872     74871     74873     74872     74873     74874     74875
     74874     74876     74875     74876     74877     74878     74877     74879
     74878     74879     74880     74881     74880     74882     74881     74882
     74883     74884     74883     74885     74884     74885     74886     74887
     74886     74888     74887     74888     74889     74890     74889     74891
     74890     74891     74892     74893     74892     74894     74893     74894
     74895     74896     74895     74897     74896     74897     74898     74899
     74898     74900     74899     74900     74901     74902     74901     74903
     74902     74903     74904     74905     74904     74906     74905     74906
     74907     74908     74907     74909     74908     74909     74910     74911
     74910     74912     74911     74912     74913     74914     74913     74915
     74914     74915     74916     74917     74916     74918     74917     74918
     74919     74920     74919     74921     74920     74921     74922     74923
     74922     74924     74923     74924     74925     74926     74925     74927
     74926     74927     74928     74929     74928     74930     74929     74930
     74931     74932     74931     74933     74932     74933     74934     74935
     74934     74936     74935     74936     74937     74938     74937     74939
     74938     74939     74940     74941     74940     74942     74941     74942
     74943     74944     74943     74945     74944     74945     74946     74947
     74946     74948     74947     74948     74949     74950     74949     74951
     74950     74951     74952     74953     74952     74954     74953     74954
     74955     74956     74955     74957     74956     74957     74958     74959
     74958     74960     74959     74960     74961     74962     74961     74963
     74962     74963     74964     74965     74964     74966     74965     74966
     74967     74968     74967     74969     74968     74969     74970     74971
     74970     74972     74971     74972     74973     74974     74973     74975
     74974     74975     74976     74977     74976     74978     74977     74978
     74979     74980     74979     74981     74980     74981     74982     74983
     74982     74984     74983     74984     74985     74986     74985     74987
     74986     74987     74988     74989     74988     74990     74989     74990
     74991     74992     74991     74993     74992     74993     74994     74995
     74994     74996     74995     74996     74997     74998     74997     74999
     74998     74999     75000     75001     75000     75002     75001     75002
     75003     75004     75003     75005     75004     75005     75006     75007
     75006     75008     75007     75008     75009     75010     75009     75011
     75010     75011     75012     75013     75012     75014     75013     75014
     75015     75016     75015     75017     75016     75017     75018     75019
     75018     75020     75019     75020     75021     75022     75021     75023
     75022     75023     75024     75025     75024     75026     75025     75026
     75027     75028     75027     75029     75028     75029     75030     75031
     75030     75032     75031     75032     75033     75034     75033     75035
     75034     75035     75036     75037     75036     75038     75037     75038
     75039     75040     75039     75041     75040     75041     75042     75043
     75042     75044     75043     75044     75045     75046     75045     75047
     75046     75047     75048     75049     75048     75050     75049     75050
     75051     75052     75051     75053     75052     75053     75054     75055
     75054     75056     75055     75056     75057     75058     75057     75059
     75058     75059     75060     75061     75060     75062     75061     75062
     75063     75064     75063     75065     75064     75065     75066     75067
     75066     75068     75067     75068     75069     75070     75069     75071
     75070     75071     75072     75073     75072     75074     75073     75074
     75075     75076     75075     75077     75076     75077     75078     75079
     75078     75080     75079     75080     75081     75082     75081     75083
     75082     75083     75084     75085     75084     75086     75085     75086
     75087     75088     75087     75089     75088     75089     75090     75091
     75090     75092     75091     75092     75093     75094     75093     75095
     75094     75095     75096     75097     75096     75098     75097     75098
     75099     75100     75099     75101     75100     75101     75102     75103
     75102     75104     75103     75104     75105     75106     75105     75107
     75106     75107     75108     75109     75108     75110     75109     75110
     75111     75112     75111     75113     75112     75113     75114     75115
     75114     75116     75115     75116     75117     75118     75117     75119
     75118     75119     75120     75121     75120     75122     75121     75122
     75123     75124     75123     75125     75124     75125     75126     75127
     75126     75128     75127     75128     75129     75130     75129     75131
     75130     75131     75132     75133     75132     75134     75133     75134
     75135     75136     75135     75137     75136     75137     75138     75139
     75138     75140     75139     75140     75141     75142     75141     75143
     75142     75143     75144     75145     75144     75146     75145     75146
     75147     75148     75147     75149     75148     75149     75150     75151
     75150     75152     75151     75152     75153     75154     75153     75155
     75154     75155     75156     75157     75156     75158     75157     75158
     75159     75160     75159     75161     75160     75161     75162     75163
     75162     75164     75163     75164     75165     75166     75165     75167
     75166     75167     75168     75169     75168     75170     75169     75170
     75171     75172     75171     75173     75172     75173     75174     75175
     75174     75176     75175     75176     75177     75178     75177     75179
     75178     75179     75180     75181     75180     75182     75181     75182
     75183     75184     75183     75185     75184     75185     75186     75187
     75186     75188     75187     75188     75189     75190     75189     75191
     75190     75191     75192     75193     75192     75194     75193     75194
     75195     75196     75195     75197     75196     75197     75198     75199
     75198     75200     75199     75200     75201     75202     75201     75203
     75202     75203     75204     75205     75204     75206     75205     75206
     75207     75208     75207     75209     75208     75209     75210     75211
     75210     75212     75211     75212     75213     75214     75213     75215
     75214     75215     75216     75217     75216     75218     75217     75218
     75219     75220     75219     75221     75220     75221     75222     75223
     75222     75224     75223     75224     75225     75226     75225     75227
     75226     75227     75228     75229     75228     75230     75229     75230
     75231     75232     75231     75233     75232     75233     75234     75235
     75234     75236     75235     75236     75237     75238     75237     75239
     75238     75239     75240     75241     75240     75242     75241     75242
     75243     75244     75243     75245     75244     75245     75246     75247
     75246     75248     75247     75248     75249     75250     75249     75251
     75250     75251     75252     75253     75252     75254     75253     75254
     75255     75256     75255     75257     75256     75257     75258     75259
     75258     75260     75259     75260     75261     75262     75261     75263
     75262     75263     75264     75265     75264     75266     75265     75266
     75267     75268     75267     75269     75268     75269     75270     75271
     75270     75272     75271     75272     75273     75274     75273     75275
     75274     75275     75276     75277     75276     75278     75277     75278
     75279     75280     75279     75281     75280     75281     75282     75283
     75282     75284     75283     75284     75285     75286     75285     75287
     75286     75287     75288     75289     75288     75290     75289     75290
     75291     75292     75291     75293     75292     75293     75294     75295
     75294     75296     75295     75296     75297     75298     75297     75299
     75298     75299     75300     75301     75300     75302     75301     75302
     75303     75304     75303     75305     75304     75305     75306     75307
     75306     75308     75307     75308     75309     75310     75309     75311
     75310     75311     75312     75313     75312     75314     75313     75314
     75315     75316     75315     75317     75316     75317     75318     75319
     75318     75320     75319     75320     75321     75322     75321     75323
     75322     75323     75324     75325     75324     75326     75325     75326
     75327     75328     75327     75329     75328     75329     75330     75331
     75330     75332     75331     75332     75333     75334     75333     75335
     75334     75335     75336     75337     75336     75338     75337     75338
     75339     75340     75339     75341     75340     75341     75342     75343
     75342     75344     75343     75344     75345     75346     75345     75347
     75346     75347     75348     75349     75348     75350     75349     75350
     75351     75352     75351     75353     75352     75353     75354     75355
     75354     75356     75355     75356     75357     75358     75357     75359
     75358     75359     75360     75361     75360     75362     75361     75362
     75363     75364     75363     75365     75364     75365     75366     75367
     75366     75368     75367     75368     75369     75370     75369     75371
     75370     75371     75372     75373     75372     75374     75373     75374
     75375     75376     75375     75377     75376     75377     75378     75379
     75378     75380     75379     75380     75381     75382     75381     75383
     75382     75383     75384     75385     75384     75386     75385     75386
     75387     75388     75387     75389     75388     75389     75390     75391
     75390     75392     75391     75392     75393     75394     75393     75395
     75394     75395     75396     75397     75396     75398     75397     75398
     75399     75400     75399     75401     75400     75401     75402     75403
     75402     75404     75403     75404     75405     75406     75405     75407
     75406     75407     75408     75409     75408     75410     75409     75410
     75411     75412     75411     75413     75412     75413     75414     75415
     75414     75416     75415     75416     75417     75418     75417     75419
     75418     75419     75420     75421     75420     75422     75421     75422
     75423     75424     75423     75425     75424     75425     75426     75427
     75426     75428     75427     75428     75429     75430     75429     75431
     75430     75431     75432     75433     75432     75434     75433     75434
     75435     75436     75435     75437     75436     75437     75438     75439
     75438     75440     75439     75440     75441     75442     75441     75443
     75442     75443     75444     75445     75444     75446     75445     75446
     75447     75448     75447     75449     75448     75449     75450     75451
     75450     75452     75451     75452     75453     75454     75453     75455
     75454     75455     75456     75457     75456     75458     75457     75458
     75459     75460     75459     75461     75460     75461     75462     75463
     75462     75464     75463     75464     75465     75466     75465     75467
     75466     75467     75468     75469     75468     75470     75469     75470
     75471     75472     75471     75473     75472     75473     75474     75475
     75474     75476     75475     75476     75477     75478     75477     75479
     75478     75479     75480     75481     75480     75482     75481     75482
     75483     75484     75483     75485     75484     75485     75486     75487
     75486     75488     75487     75488     75489     75490     75489     75491
     75490     75491     75492     75493     75492     75494     75493     75494
     75495     75496     75495     75497     75496     75497     75498     75499
     75498     75500     75499     75500     75501     75502     75501     75503
     75502     75503     75504     75505     75504     75506     75505     75506
     75507     75508     75507     75509     75508     75509     75510     75511
     75510     75512     75511     75512     75513     75514     75513     75515
     75514     75515     75516     75517     75516     75518     75517     75518
     75519     75520     75519     75521     75520     75521     75522     75523
     75522     75524     75523     75524     75525     75526     75525     75527
     75526     75527     75528     75529     75528     75530     75529     75530
     75531     75532     75531     75533     75532     75533     75534     75535
     75534     75536     75535     75536     75537     75538     75537     75539
     75538     75539     75540     75541     75540     75542     75541     75542
     75543     75544     75543     75545     75544     75545     75546     75547
     75546     75548     75547     75548     75549     75550     75549     75551
     75550     75551     75552     75553     75552     75554     75553     75554
     75555     75556     75555     75557     75556     75557     75558     75559
     75558     75560     75559     75560     75561     75562     75561     75563
     75562     75563     75564     75565     75564     75566     75565     75566
     75567     75568     75567     75569     75568     75569     75570     75571
     75570     75572     75571     75572     75573     75574     75573     75575
     75574     75575     75576     75577     75576     75578     75577     75578
     75579     75580     75579     75581     75580     75581     75582     75583
     75582     75584     75583     75584     75585     75586     75585     75587
     75586     75587     75588     75589     75588     75590     75589     75590
     75591     75592     75591     75593     75592     75593     75594     75595
     75594     75596     75595     75596     75597     75598     75597     75599
     75598     75599     75600     75601     75600     75602     75601     75602
     75603     75604     75603     75605     75604     75605     75606     75607
     75606     75608     75607     75608     75609     75610     75609     75611
     75610     75611     75612     75613     75612     75614     75613     75614
     75615     75616     75615     75617     75616     75617     75618     75619
     75618     75620     75619     75620     75621     75622     75621     75623
     75622     75623     75624     75625     75624     75626     75625     75626
     75627     75628     75627     75629     75628     75629     75630     75631
     75630     75632     75631     75632     75633     75634     75633     75635
     75634     75635     75636     75637     75636     75638     75637     75638
     75639     75640     75639     75641     75640     75641     75642     75643
     75642     75644     75643     75644     75645     75646     75645     75647
     75646     75647     75648     75649     75648     75650     75649     75650
     75651     75652     75651     75653     75652     75653     75654     75655
     75654     75656     75655     75656     75657     75658     75657     75659
     75658     75659     75660     75661     75660     75662     75661     75662
     75663     75664     75663     75665     75664     75665     75666     75667
     75666     75668     75667     75668     75669     75670     75669     75671
     75670     75671     75672     75673     75672     75674     75673     75674
     75675     75676     75675     75677     75676     75677     75678     75679
     75678     75680     75679     75680     75681     75682     75681     75683
     75682     75683     75684     75685     75684     75686     75685     75686
     75687     75688     75687     75689     75688     75689     75690     75691
     75690     75692     75691     75692     75693     75694     75693     75695
     75694     75695     75696     75697     75696     75698     75697     75698
     75699     75700     75699     75701     75700     75701     75702     75703
     75702     75704     75703     75704     75705     75706     75705     75707
     75706     75707     75708     75709     75708     75710     75709     75710
     75711     75712     75711     75713     75712     75713     75714     75715
     75714     75716     75715     75716     75717     75718     75717     75719
     75718     75719     75720     75721     75720     75722     75721     75722
     75723     75724     75723     75725     75724     75725     75726     75727
     75726     75728     75727     75728     75729     75730     75729     75731
     75730     75731     75732     75733     75732     75734     75733     75734
     75735     75736     75735     75737     75736     75737     75738     75739
     75738     75740     75739     75740     75741     75742     75741     75743
     75742     75743     75744     75745     75744     75746     75745     75746
     75747     75748     75747     75749     75748     75749     75750     75751
     75750     75752     75751     75752     75753     75754     75753     75755
     75754     75755     75756     75757     75756     75758     75757     75758
     75759     75760     75759     75761     75760     75761     75762     75763
     75762     75764     75763     75764     75765     75766     75765     75767
     75766     75767     75768     75769     75768     75770     75769     75770
     75771     75772     75771     75773     75772     75773     75774     75775
     75774     75776     75775     75776     75777     75778     75777     75779
     75778     75779     75780     75781     75780     75782     75781     75782
     75783     75784     75783     75785     75784     75785     75786     75787
     75786     75788     75787     75788     75789     75790     75789     75791
     75790     75791     75792     75793     75792     75794     75793     75794
     75795     75796     75795     75797     75796     75797     75798     75799
     75798     75800     75799     75800     75801     75802     75801     75803
     75802     75803     75804     75805     75804     75806     75805     75806
     75807     75808     75807     75809     75808     75809     75810     75811
     75810     75812     75811     75812     75813     75814     75813     75815
     75814     75815     75816     75817     75816     75818     75817     75818
     75819     75820     75819     75821     75820     75821     75822     75823
     75822     75824     75823     75824     75825     75826     75825     75827
     75826     75827     75828     75829     75828     75830     75829     75830
     75831     75832     75831     75833     75832     75833     75834     75835
     75834     75836     75835     75836     75837     75838     75837     75839
     75838     75839     75840     75841     75840     75842     75841     75842
     75843     75844     75843     75845     75844     75845     75846     75847
     75846     75848     75847     75848     75849     75850     75849     75851
     75850     75851     75852     75853     75852     75854     75853     75854
     75855     75856     75855     75857     75856     75857     75858     75859
     75858     75860     75859     75860     75861     75862     75861     75863
     75862     75863     75864     75865     75864     75866     75865     75866
     75867     75868     75867     75869     75868     75869     75870     75871
     75870     75872     75871     75872     75873     75874     75873     75875
     75874     75875     75876     75877     75876     75878     75877     75878
     75879     75880     75879     75881     75880     75881     75882     75883
     75882     75884     75883     75884     75885     75886     75885     75887
     75886     75887     75888     75889     75888     75890     75889     75890
     75891     75892     75891     75893     75892     75893     75894     75895
     75894     75896     75895     75896     75897     75898     75897     75899
     75898     75899     75900     75901     75900     75902     75901     75902
     75903     75904     75903     75905     75904     75905     75906     75907
     75906     75908     75907     75908     75909     75910     75909     75911
     75910     75911     75912     75913     75912     75914     75913     75914
     75915     75916     75915     75917     75916     75917     75918     75919
     75918     75920     75919     75920     75921     75922     75921     75923
     75922     75923     75924     75925     75924     75926     75925     75926
     75927     75928     75927     75929     75928     75929     75930     75931
     75930     75932     75931     75932     75933     75934     75933     75935
     75934     75935     75936     75937     75936     75938     75937     75938
     75939     75940     75939     75941     75940     75941     75942     75943
     75942     75944     75943     75944     75945     75946     75945     75947
     75946     75947     75948     75949     75948     75950     75949     75950
     75951     75952     75951     75953     75952     75953     75954     75955
     75954     75956     75955     75956     75957     75958     75957     75959
     75958     75959     75960     75961     75960     75962     75961     75962
     75963     75964     75963     75965     75964     75965     75966     75967
     75966     75968     75967     75968     75969     75970     75969     75971
     75970     75971     75972     75973     75972     75974     75973     75974
     75975     75976     75975     75977     75976     75977     75978     75979
     75978     75980     75979     75980     75981     75982     75981     75983
     75982     75983     75984     75985     75984     75986     75985     75986
     75987     75988     75987     75989     75988     75989     75990     75991
     75990     75992     75991     75992     75993     75994     75993     75995
     75994     75995     75996     75997     75996     75998     75997     75998
     75999     76000     75999     76001     76000     76001     76002     76003
     76002     76004     76003     76004     76005     76006     76005     76007
     76006     76007     76008     76009     76008     76010     76009     76010
     76011     76012     76011     76013     76012     76013     76014     76015
     76014     76016     76015     76016     76017     76018     76017     76019
     76018     76019     76020     76021     76020     76022     76021     76022
     76023     76024     76023     76025     76024     76025     76026     76027
     76026     76028     76027     76028     76029     76030     76029     76031
     76030     76031     76032     76033     76032     76034     76033     76034
     76035     76036     76035     76037     76036     76037     76038     76039
     76038     76040     76039     76040     76041     76042     76041     76043
     76042     76043     76044     76045     76044     76046     76045     76046
     76047     76048     76047     76049     76048     76049     76050     76051
     76050     76052     76051     76052     76053     76054     76053     76055
     76054     76055     76056     76057     76056     76058     76057     76058
     76059     76060     76059     76061     76060     76061     76062     76063
     76062     76064     76063     76064     76065     76066     76065     76067
     76066     76067     76068     76069     76068     76070     76069     76070
     76071     76072     76071     76073     76072     76073     76074     76075
     76074     76076     76075     76076     76077     76078     76077     76079
     76078     76079     76080     76081     76080     76082     76081     76082
     76083     76084     76083     76085     76084     76085     76086     76087
     76086     76088     76087     76088     76089     76090     76089     76091
     76090     76091     76092     76093     76092     76094     76093     76094
     76095     76096     76095     76097     76096     76097     76098     76099
     76098     76100     76099     76100     76101     76102     76101     76103
     76102     76103     76104     76105     76104     76106     76105     76106
     76107     76108     76107     76109     76108     76109     76110     76111
     76110     76112     76111     76112     76113     76114     76113     76115
     76114     76115     76116     76117     76116     76118     76117     76118
     76119     76120     76119     76121     76120     76121     76122     76123
     76122     76124     76123     76124     76125     76126     76125     76127
     76126     76127     76128     76129     76128     76130     76129     76130
     76131     76132     76131     76133     76132     76133     76134     76135
     76134     76136     76135     76136     76137     76138     76137     76139
     76138     76139     76140     76141     76140     76142     76141     76142
     76143     76144     76143     76145     76144     76145     76146     76147
     76146     76148     76147     76148     76149     76150     76149     76151
     76150     76151     76152     76153     76152     76154     76153     76154
     76155     76156     76155     76157     76156     76157     76158     76159
     76158     76160     76159     76160     76161     76162     76161     76163
     76162     76163     76164     76165     76164     76166     76165     76166
     76167     76168     76167     76169     76168     76169     76170     76171
     76170     76172     76171     76172     76173     76174     76173     76175
     76174     76175     76176     76177     76176     76178     76177     76178
     76179     76180     76179     76181     76180     76181     76182     76183
     76182     76184     76183     76184     76185     76186     76185     76187
     76186     76187     76188     76189     76188     76190     76189     76190
     76191     76192     76191     76193     76192     76193     76194     76195
     76194     76196     76195     76196     76197     76198     76197     76199
     76198     76199     76200     76201     76200     76202     76201     76202
     76203     76204     76203     76205     76204     76205     76206     76207
     76206     76208     76207     76208     76209     76210     76209     76211
     76210     76211     76212     76213     76212     76214     76213     76214
     76215     76216     76215     76217     76216     76217     76218     76219
     76218     76220     76219     76220     76221     76222     76221     76223
     76222     76223     76224     76225     76224     76226     76225     76226
     76227     76228     76227     76229     76228     76229     76230     76231
     76230     76232     76231     76232     76233     76234     76233     76235
     76234     76235     76236     76237     76236     76238     76237     76238
     76239     76240     76239     76241     76240     76241     76242     76243
     76242     76244     76243     76244     76245     76246     76245     76247
     76246     76247     76248     76249     76248     76250     76249     76250
     76251     76252     76251     76253     76252     76253     76254     76255
     76254     76256     76255     76256     76257     76258     76257     76259
     76258     76259     76260     76261     76260     76262     76261     76262
     76263     76264     76263     76265     76264     76265     76266     76267
     76266     76268     76267     76268     76269     76270     76269     76271
     76270     76271     76272     76273     76272     76274     76273     76274
     76275     76276     76275     76277     76276     76277     76278     76279
     76278     76280     76279     76280     76281     76282     76281     76283
     76282     76283     76284     76285     76284     76286     76285     76286
     76287     76288     76287     76289     76288     76289     76290     76291
     76290     76292     76291     76292     76293     76294     76293     76295
     76294     76295     76296     76297     76296     76298     76297     76298
     76299     76300     76299     76301     76300     76301     76302     76303
     76302     76304     76303     76304     76305     76306     76305     76307
     76306     76307     76308     76309     76308     76310     76309     76310
     76311     76312     76311     76313     76312     76313     76314     76315
     76314     76316     76315     76316     76317     76318     76317     76319
     76318     76319     76320     76321     76320     76322     76321     76322
     76323     76324     76323     76325     76324     76325     76326     76327
     76326     76328     76327     76328     76329     76330     76329     76331
     76330     76331     76332     76333     76332     76334     76333     76334
     76335     76336     76335     76337     76336     76337     76338     76339
     76338     76340     76339     76340     76341     76342     76341     76343
     76342     76343     76344     76345     76344     76346     76345     76346
     76347     76348     76347     76349     76348     76349     76350     76351
     76350     76352     76351     76352     76353     76354     76353     76355
     76354     76355     76356     76357     76356     76358     76357     76358
     76359     76360     76359     76361     76360     76361     76362     76363
     76362     76364     76363     76364     76365     76366     76365     76367
     76366     76367     76368     76369     76368     76370     76369     76370
     76371     76372     76371     76373     76372     76373     76374     76375
     76374     76376     76375     76376     76377     76378     76377     76379
     76378     76379     76380     76381     76380     76382     76381     76382
     76383     76384     76383     76385     76384     76385     76386     76387
     76386     76388     76387     76388     76389     76390     76389     76391
     76390     76391     76392     76393     76392     76394     76393     76394
     76395     76396     76395     76397     76396     76397     76398     76399
     76398     76400     76399     76400     76401     76402     76401     76403
     76402     76403     76404     76405     76404     76406     76405     76406
     76407     76408     76407     76409     76408     76409     76410     76411
     76410     76412     76411     76412     76413     76414     76413     76415
     76414     76415     76416     76417     76416     76418     76417     76418
     76419     76420     76419     76421     76420     76421     76422     76423
     76422     76424     76423     76424     76425     76426     76425     76427
     76426     76427     76428     76429     76428     76430     76429     76430
     76431     76432     76431     76433     76432     76433     76434     76435
     76434     76436     76435     76436     76437     76438     76437     76439
     76438     76439     76440     76441     76440     76442     76441     76442
     76443     76444     76443     76445     76444     76445     76446     76447
     76446     76448     76447     76448     76449     76450     76449     76451
     76450     76451     76452     76453     76452     76454     76453     76454
     76455     76456     76455     76457     76456     76457     76458     76459
     76458     76460     76459     76460     76461     76462     76461     76463
     76462     76463     76464     76465     76464     76466     76465     76466
     76467     76468     76467     76469     76468     76469     76470     76471
     76470     76472     76471     76472     76473     76474     76473     76475
     76474     76475     76476     76477     76476     76478     76477     76478
     76479     76480     76479     76481     76480     76481     76482     76483
     76482     76484     76483     76484     76485     76486     76485     76487
     76486     76487     76488     76489     76488     76490     76489     76490
     76491     76492     76491     76493     76492     76493     76494     76495
     76494     76496     76495     76496     76497     76498     76497     76499
     76498     76499     76500     76501     76500     76502     76501     76502
     76503     76504     76503     76505     76504     76505     76506     76507
     76506     76508     76507     76508     76509     76510     76509     76511
     76510     76511     76512     76513     76512     76514     76513     76514
     76515     76516     76515     76517     76516     76517     76518     76519
     76518     76520     76519     76520     76521     76522     76521     76523
     76522     76523     76524     76525     76524     76526     76525     76526
     76527     76528     76527     76529     76528     76529     76530     76531
     76530     76532     76531     76532     76533     76534     76533     76535
     76534     76535     76536     76537     76536     76538     76537     76538
     76539     76540     76539     76541     76540     76541     76542     76543
     76542     76544     76543     76544     76545     76546     76545     76547
     76546     76547     76548     76549     76548     76550     76549     76550
     76551     76552     76551     76553     76552     76553     76554     76555
     76554     76556     76555     76556     76557     76558     76557     76559
     76558     76559     76560     76561     76560     76562     76561     76562
     76563     76564     76563     76565     76564     76565     76566     76567
     76566     76568     76567     76568     76569     76570     76569     76571
     76570     76571     76572     76573     76572     76574     76573     76574
     76575     76576     76575     76577     76576     76577     76578     76579
     76578     76580     76579     76580     76581     76582     76581     76583
     76582     76583     76584     76585     76584     76586     76585     76586
     76587     76588     76587     76589     76588     76589     76590     76591
     76590     76592     76591     76592     76593     76594     76593     76595
     76594     76595     76596     76597     76596     76598     76597     76598
     76599     76600     76599     76601     76600     76601     76602     76603
     76602     76604     76603     76604     76605     76606     76605     76607
     76606     76607     76608     76609     76608     76610     76609     76610
     76611     76612     76611     76613     76612     76613     76614     76615
     76614     76616     76615     76616     76617     76618     76617     76619
     76618     76619     76620     76621     76620     76622     76621     76622
     76623     76624     76623     76625     76624     76625     76626     76627
     76626     76628     76627     76628     76629     76630     76629     76631
     76630     76631     76632     76633     76632     76634     76633     76634
     76635     76636     76635     76637     76636     76637     76638     76639
     76638     76640     76639     76640     76641     76642     76641     76643
     76642     76643     76644     76645     76644     76646     76645     76646
     76647     76648     76647     76649     76648     76649     76650     76651
     76650     76652     76651     76652     76653     76654     76653     76655
     76654     76655     76656     76657     76656     76658     76657     76658
     76659     76660     76659     76661     76660     76661     76662     76663
     76662     76664     76663     76664     76665     76666     76665     76667
     76666     76667     76668     76669     76668     76670     76669     76670
     76671     76672     76671     76673     76672     76673     76674     76675
     76674     76676     76675     76676     76677     76678     76677     76679
     76678     76679     76680     76681     76680     76682     76681     76682
     76683     76684     76683     76685     76684     76685     76686     76687
     76686     76688     76687     76688     76689     76690     76689     76691
     76690     76691     76692     76693     76692     76694     76693     76694
     76695     76696     76695     76697     76696     76697     76698     76699
     76698     76700     76699     76700     76701     76702     76701     76703
     76702     76703     76704     76705     76704     76706     76705     76706
     76707     76708     76707     76709     76708     76709     76710     76711
     76710     76712     76711     76712     76713     76714     76713     76715
     76714     76715     76716     76717     76716     76718     76717     76718
     76719     76720     76719     76721     76720     76721     76722     76723
     76722     76724     76723     76724     76725     76726     76725     76727
     76726     76727     76728     76729     76728     76730     76729     76730
     76731     76732     76731     76733     76732     76733     76734     76735
     76734     76736     76735     76736     76737     76738     76737     76739
     76738     76739     76740     76741     76740     76742     76741     76742
     76743     76744     76743     76745     76744     76745     76746     76747
     76746     76748     76747     76748     76749     76750     76749     76751
     76750     76751     76752     76753     76752     76754     76753     76754
     76755     76756     76755     76757     76756     76757     76758     76759
     76758     76760     76759     76760     76761     76762     76761     76763
     76762     76763     76764     76765     76764     76766     76765     76766
     76767     76768     76767     76769     76768     76769     76770     76771
     76770     76772     76771     76772     76773     76774     76773     76775
     76774     76775     76776     76777     76776     76778     76777     76778
     76779     76780     76779     76781     76780     76781     76782     76783
     76782     76784     76783     76784     76785     76786     76785     76787
     76786     76787     76788     76789     76788     76790     76789     76790
     76791     76792     76791     76793     76792     76793     76794     76795
     76794     76796     76795     76796     76797     76798     76797     76799
     76798     76799     76800     76801     76800     76802     76801     76802
     76803     76804     76803     76805     76804     76805     76806     76807
     76806     76808     76807     76808     76809     76810     76809     76811
     76810     76811     76812     76813     76812     76814     76813     76814
     76815     76816     76815     76817     76816     76817     76818     76819
     76818     76820     76819     76820     76821     76822     76821     76823
     76822     76823     76824     76825     76824     76826     76825     76826
     76827     76828     76827     76829     76828     76829     76830     76831
     76830     76832     76831     76832     76833     76834     76833     76835
     76834     76835     76836     76837     76836     76838     76837     76838
     76839     76840     76839     76841     76840     76841     76842     76843
     76842     76844     76843     76844     76845     76846     76845     76847
     76846     76847     76848     76849     76848     76850     76849     76850
     76851     76852     76851     76853     76852     76853     76854     76855
     76854     76856     76855     76856     76857     76858     76857     76859
     76858     76859     76860     76861     76860     76862     76861     76862
     76863     76864     76863     76865     76864     76865     76866     76867
     76866     76868     76867     76868     76869     76870     76869     76871
     76870     76871     76872     76873     76872     76874     76873     76874
     76875     76876     76875     76877     76876     76877     76878     76879
     76878     76880     76879     76880     76881     76882     76881     76883
     76882     76883     76884     76885     76884     76886     76885     76886
     76887     76888     76887     76889     76888     76889     76890     76891
     76890     76892     76891     76892     76893     76894     76893     76895
     76894     76895     76896     76897     76896     76898     76897     76898
     76899     76900     76899     76901     76900     76901     76902     76903
     76902     76904     76903     76904     76905     76906     76905     76907
     76906     76907     76908     76909     76908     76910     76909     76910
     76911     76912     76911     76913     76912     76913     76914     76915
     76914     76916     76915     76916     76917     76918     76917     76919
     76918     76919     76920     76921     76920     76922     76921     76922
     76923     76924     76923     76925     76924     76925     76926     76927
     76926     76928     76927     76928     76929     76930     76929     76931
     76930     76931     76932     76933     76932     76934     76933     76934
     76935     76936     76935     76937     76936     76937     76938     76939
     76938     76940     76939     76940     76941     76942     76941     76943
     76942     76943     76944     76945     76944     76946     76945     76946
     76947     76948     76947     76949     76948     76949     76950     76951
     76950     76952     76951     76952     76953     76954     76953     76955
     76954     76955     76956     76957     76956     76958     76957     76958
     76959     76960     76959     76961     76960     76961     76962     76963
     76962     76964     76963     76964     76965     76966     76965     76967
     76966     76967     76968     76969     76968     76970     76969     76970
     76971     76972     76971     76973     76972     76973     76974     76975
     76974     76976     76975     76976     76977     76978     76977     76979
     76978     76979     76980     76981     76980     76982     76981     76982
     76983     76984     76983     76985     76984     76985     76986     76987
     76986     76988     76987     76988     76989     76990     76989     76991
     76990     76991     76992     76993     76992     76994     76993     76994
     76995     76996     76995     76997     76996     76997     76998     76999
     76998     77000     76999     77000     77001     77002     77001     77003
     77002     77003     77004     77005     77004     77006     77005     77006
     77007     77008     77007     77009     77008     77009     77010     77011
     77010     77012     77011     77012     77013     77014     77013     77015
     77014     77015     77016     77017     77016     77018     77017     77018
     77019     77020     77019     77021     77020     77021     77022     77023
     77022     77024     77023     77024     77025     77026     77025     77027
     77026     77027     77028     77029     77028     77030     77029     77030
     77031     77032     77031     77033     77032     77033     77034     77035
     77034     77036     77035     77036     77037     77038     77037     77039
     77038     77039     77040     77041     77040     77042     77041     77042
     77043     77044     77043     77045     77044     77045     77046     77047
     77046     77048     77047     77048     77049     77050     77049     77051
     77050     77051     77052     77053     77052     77054     77053     77054
     77055     77056     77055     77057     77056     77057     77058     77059
     77058     77060     77059     77060     77061     77062     77061     77063
     77062     77063     77064     77065     77064     77066     77065     77066
     77067     77068     77067     77069     77068     77069     77070     77071
     77070     77072     77071     77072     77073     77074     77073     77075
     77074     77075     77076     77077     77076     77078     77077     77078
     77079     77080     77079     77081     77080     77081     77082     77083
     77082     77084     77083     77084     77085     77086     77085     77087
     77086     77087     77088     77089     77088     77090     77089     77090
     77091     77092     77091     77093     77092     77093     77094     77095
     77094     77096     77095     77096     77097     77098     77097     77099
     77098     77099     77100     77101     77100     77102     77101     77102
     77103     77104     77103     77105     77104     77105     77106     77107
     77106     77108     77107     77108     77109     77110     77109     77111
     77110     77111     77112     77113     77112     77114     77113     77114
     77115     77116     77115     77117     77116     77117     77118     77119
     77118     77120     77119     77120     77121     77122     77121     77123
     77122     77123     77124     77125     77124     77126     77125     77126
     77127     77128     77127     77129     77128     77129     77130     77131
     77130     77132     77131     77132     77133     77134     77133     77135
     77134     77135     77136     77137     77136     77138     77137     77138
     77139     77140     77139     77141     77140     77141     77142     77143
     77142     77144     77143     77144     77145     77146     77145     77147
     77146     77147     77148     77149     77148     77150     77149     77150
     77151     77152     77151     77153     77152     77153     77154     77155
     77154     77156     77155     77156     77157     77158     77157     77159
     77158     77159     77160     77161     77160     77162     77161     77162
     77163     77164     77163     77165     77164     77165     77166     77167
     77166     77168     77167     77168     77169     77170     77169     77171
     77170     77171     77172     77173     77172     77174     77173     77174
     77175     77176     77175     77177     77176     77177     77178     77179
     77178     77180     77179     77180     77181     77182     77181     77183
     77182     77183     77184     77185     77184     77186     77185     77186
     77187     77188     77187     77189     77188     77189     77190     77191
     77190     77192     77191     77192     77193     77194     77193     77195
     77194     77195     77196     77197     77196     77198     77197     77198
     77199     77200     77199     77201     77200     77201     77202     77203
     77202     77204     77203     77204     77205     77206     77205     77207
     77206     77207     77208     77209     77208     77210     77209     77210
     77211     77212     77211     77213     77212     77213     77214     77215
     77214     77216     77215     77216     77217     77218     77217     77219
     77218     77219     77220     77221     77220     77222     77221     77222
     77223     77224     77223     77225     77224     77225     77226     77227
     77226     77228     77227     77228     77229     77230     77229     77231
     77230     77231     77232     77233     77232     77234     77233     77234
     77235     77236     77235     77237     77236     77237     77238     77239
     77238     77240     77239     77240     77241     77242     77241     77243
     77242     77243     77244     77245     77244     77246     77245     77246
     77247     77248     77247     77249     77248     77249     77250     77251
     77250     77252     77251     77252     77253     77254     77253     77255
     77254     77255     77256     77257     77256     77258     77257     77258
     77259     77260     77259     77261     77260     77261     77262     77263
     77262     77264     77263     77264     77265     77266     77265     77267
     77266     77267     77268     77269     77268     77270     77269     77270
     77271     77272     77271     77273     77272     77273     77274     77275
     77274     77276     77275     77276     77277     77278     77277     77279
     77278     77279     77280     77281     77280     77282     77281     77282
     77283     77284     77283     77285     77284     77285     77286     77287
     77286     77288     77287     77288     77289     77290     77289     77291
     77290     77291     77292     77293     77292     77294     77293     77294
     77295     77296     77295     77297     77296     77297     77298     77299
     77298     77300     77299     77300     77301     77302     77301     77303
     77302     77303     77304     77305     77304     77306     77305     77306
     77307     77308     77307     77309     77308     77309     77310     77311
     77310     77312     77311     77312     77313     77314     77313     77315
     77314     77315     77316     77317     77316     77318     77317     77318
     77319     77320     77319     77321     77320     77321     77322     77323
     77322     77324     77323     77324     77325     77326     77325     77327
     77326     77327     77328     77329     77328     77330     77329     77330
     77331     77332     77331     77333     77332     77333     77334     77335
     77334     77336     77335     77336     77337     77338     77337     77339
     77338     77339     77340     77341     77340     77342     77341     77342
     77343     77344     77343     77345     77344     77345     77346     77347
     77346     77348     77347     77348     77349     77350     77349     77351
     77350     77351     77352     77353     77352     77354     77353     77354
     77355     77356     77355     77357     77356     77357     77358     77359
     77358     77360     77359     77360     77361     77362     77361     77363
     77362     77363     77364     77365     77364     77366     77365     77366
     77367     77368     77367     77369     77368     77369     77370     77371
     77370     77372     77371     77372     77373     77374     77373     77375
     77374     77375     77376     77377     77376     77378     77377     77378
     77379     77380     77379     77381     77380     77381     77382     77383
     77382     77384     77383     77384     77385     77386     77385     77387
     77386     77387     77388     77389     77388     77390     77389     77390
     77391     77392     77391     77393     77392     77393     77394     77395
     77394     77396     77395     77396     77397     77398     77397     77399
     77398     77399     77400     77401     77400     77402     77401     77402
     77403     77404     77403     77405     77404     77405     77406     77407
     77406     77408     77407     77408     77409     77410     77409     77411
     77410     77411     77412     77413     77412     77414     77413     77414
     77415     77416     77415     77417     77416     77417     77418     77419
     77418     77420     77419     77420     77421     77422     77421     77423
     77422     77423     77424     77425     77424     77426     77425     77426
     77427     77428     77427     77429     77428     77429     77430     77431
     77430     77432     77431     77432     77433     77434     77433     77435
     77434     77435     77436     77437     77436     77438     77437     77438
     77439     77440     77439     77441     77440     77441     77442     77443
     77442     77444     77443     77444     77445     77446     77445     77447
     77446     77447     77448     77449     77448     77450     77449     77450
     77451     77452     77451     77453     77452     77453     77454     77455
     77454     77456     77455     77456     77457     77458     77457     77459
     77458     77459     77460     77461     77460     77462     77461     77462
     77463     77464     77463     77465     77464     77465     77466     77467
     77466     77468     77467     77468     77469     77470     77469     77471
     77470     77471     77472     77473     77472     77474     77473     77474
     77475     77476     77475     77477     77476     77477     77478     77479
     77478     77480     77479     77480     77481     77482     77481     77483
     77482     77483     77484     77485     77484     77486     77485     77486
     77487     77488     77487     77489     77488     77489     77490     77491
     77490     77492     77491     77492     77493     77494     77493     77495
     77494     77495     77496     77497     77496     77498     77497     77498
     77499     77500     77499     77501     77500     77501     77502     77503
     77502     77504     77503     77504     77505     77506     77505     77507
     77506     77507     77508     77509     77508     77510     77509     77510
     77511     77512     77511     77513     77512     77513     77514     77515
     77514     77516     77515     77516     77517     77518     77517     77519
     77518     77519     77520     77521     77520     77522     77521     77522
     77523     77524     77523     77525     77524     77525     77526     77527
     77526     77528     77527     77528     77529     77530     77529     77531
     77530     77531     77532     77533     77532     77534     77533     77534
     77535     77536     77535     77537     77536     77537     77538     77539
     77538     77540     77539     77540     77541     77542     77541     77543
     77542     77543     77544     77545     77544     77546     77545     77546
     77547     77548     77547     77549     77548     77549     77550     77551
     77550     77552     77551     77552     77553     77554     77553     77555
     77554     77555     77556     77557     77556     77558     77557     77558
     77559     77560     77559     77561     77560     77561     77562     77563
     77562     77564     77563     77564     77565     77566     77565     77567
     77566     77567     77568     77569     77568     77570     77569     77570
     77571     77572     77571     77573     77572     77573     77574     77575
     77574     77576     77575     77576     77577     77578     77577     77579
     77578     77579     77580     77581     77580     77582     77581     77582
     77583     77584     77583     77585     77584     77585     77586     77587
     77586     77588     77587     77588     77589     77590     77589     77591
     77590     77591     77592     77593     77592     77594     77593     77594
     77595     77596     77595     77597     77596     77597     77598     77599
     77598     77600     77599     77600     77601     77602     77601     77603
     77602     77603     77604     77605     77604     77606     77605     77606
     77607     77608     77607     77609     77608     77609     77610     77611
     77610     77612     77611     77612     77613     77614     77613     77615
     77614     77615     77616     77617     77616     77618     77617     77618
     77619     77620     77619     77621     77620     77621     77622     77623
     77622     77624     77623     77624     77625     77626     77625     77627
     77626     77627     77628     77629     77628     77630     77629     77630
     77631     77632     77631     77633     77632     77633     77634     77635
     77634     77636     77635     77636     77637     77638     77637     77639
     77638     77639     77640     77641     77640     77642     77641     77642
     77643     77644     77643     77645     77644     77645     77646     77647
     77646     77648     77647     77648     77649     77650     77649     77651
     77650     77651     77652     77653     77652     77654     77653     77654
     77655     77656     77655     77657     77656     77657     77658     77659
     77658     77660     77659     77660     77661     77662     77661     77663
     77662     77663     77664     77665     77664     77666     77665     77666
     77667     77668     77667     77669     77668     77669     77670     77671
     77670     77672     77671     77672     77673     77674     77673     77675
     77674     77675     77676     77677     77676     77678     77677     77678
     77679     77680     77679     77681     77680     77681     77682     77683
     77682     77684     77683     77684     77685     77686     77685     77687
     77686     77687     77688     77689     77688     77690     77689     77690
     77691     77692     77691     77693     77692     77693     77694     77695
     77694     77696     77695     77696     77697     77698     77697     77699
     77698     77699     77700     77701     77700     77702     77701     77702
     77703     77704     77703     77705     77704     77705     77706     77707
     77706     77708     77707     77708     77709     77710     77709     77711
     77710     77711     77712     77713     77712     77714     77713     77714
     77715     77716     77715     77717     77716     77717     77718     77719
     77718     77720     77719     77720     77721     77722     77721     77723
     77722     77723     77724     77725     77724     77726     77725     77726
     77727     77728     77727     77729     77728     77729     77730     77731
     77730     77732     77731     77732     77733     77734     77733     77735
     77734     77735     77736     77737     77736     77738     77737     77738
     77739     77740     77739     77741     77740     77741     77742     77743
     77742     77744     77743     77744     77745     77746     77745     77747
     77746     77747     77748     77749     77748     77750     77749     77750
     77751     77752     77751     77753     77752     77753     77754     77755
     77754     77756     77755     77756     77757     77758     77757     77759
     77758     77759     77760     77761     77760     77762     77761     77762
     77763     77764     77763     77765     77764     77765     77766     77767
     77766     77768     77767     77768     77769     77770     77769     77771
     77770     77771     77772     77773     77772     77774     77773     77774
     77775     77776     77775     77777     77776     77777     77778     77779
     77778     77780     77779     77780     77781     77782     77781     77783
     77782     77783     77784     77785     77784     77786     77785     77786
     77787     77788     77787     77789     77788     77789     77790     77791
     77790     77792     77791     77792     77793     77794     77793     77795
     77794     77795     77796     77797     77796     77798     77797     77798
     77799     77800     77799     77801     77800     77801     77802     77803
     77802     77804     77803     77804     77805     77806     77805     77807
     77806     77807     77808     77809     77808     77810     77809     77810
     77811     77812     77811     77813     77812     77813     77814     77815
     77814     77816     77815     77816     77817     77818     77817     77819
     77818     77819     77820     77821     77820     77822     77821     77822
     77823     77824     77823     77825     77824     77825     77826     77827
     77826     77828     77827     77828     77829     77830     77829     77831
     77830     77831     77832     77833     77832     77834     77833     77834
     77835     77836     77835     77837     77836     77837     77838     77839
     77838     77840     77839     77840     77841     77842     77841     77843
     77842     77843     77844     77845     77844     77846     77845     77846
     77847     77848     77847     77849     77848     77849     77850     77851
     77850     77852     77851     77852     77853     77854     77853     77855
     77854     77855     77856     77857     77856     77858     77857     77858
     77859     77860     77859     77861     77860     77861     77862     77863
     77862     77864     77863     77864     77865     77866     77865     77867
     77866     77867     77868     77869     77868     77870     77869     77870
     77871     77872     77871     77873     77872     77873     77874     77875
     77874     77876     77875     77876     77877     77878     77877     77879
     77878     77879     77880     77881     77880     77882     77881     77882
     77883     77884     77883     77885     77884     77885     77886     77887
     77886     77888     77887     77888     77889     77890     77889     77891
     77890     77891     77892     77893     77892     77894     77893     77894
     77895     77896     77895     77897     77896     77897     77898     77899
     77898     77900     77899     77900     77901     77902     77901     77903
     77902     77903     77904     77905     77904     77906     77905     77906
     77907     77908     77907     77909     77908     77909     77910     77911
     77910     77912     77911     77912     77913     77914     77913     77915
     77914     77915     77916     77917     77916     77918     77917     77918
     77919     77920     77919     77921     77920     77921     77922     77923
     77922     77924     77923     77924     77925     77926     77925     77927
     77926     77927     77928     77929     77928     77930     77929     77930
     77931     77932     77931     77933     77932     77933     77934     77935
     77934     77936     77935     77936     77937     77938     77937     77939
     77938     77939     77940     77941     77940     77942     77941     77942
     77943     77944     77943     77945     77944     77945     77946     77947
     77946     77948     77947     77948     77949     77950     77949     77951
     77950     77951     77952     77953     77952     77954     77953     77954
     77955     77956     77955     77957     77956     77957     77958     77959
     77958     77960     77959     77960     77961     77962     77961     77963
     77962     77963     77964     77965     77964     77966     77965     77966
     77967     77968     77967     77969     77968     77969     77970     77971
     77970     77972     77971     77972     77973     77974     77973     77975
     77974     77975     77976     77977     77976     77978     77977     77978
     77979     77980     77979     77981     77980     77981     77982     77983
     77982     77984     77983     77984     77985     77986     77985     77987
     77986     77987     77988     77989     77988     77990     77989     77990
     77991     77992     77991     77993     77992     77993     77994     77995
     77994     77996     77995     77996     77997     77998     77997     77999
     77998     77999     78000     78001     78000     78002     78001     78002
     78003     78004     78003     78005     78004     78005     78006     78007
     78006     78008     78007     78008     78009     78010     78009     78011
     78010     78011     78012     78013     78012     78014     78013     78014
     78015     78016     78015     78017     78016     78017     78018     78019
     78018     78020     78019     78020     78021     78022     78021     78023
     78022     78023     78024     78025     78024     78026     78025     78026
     78027     78028     78027     78029     78028     78029     78030     78031
     78030     78032     78031     78032     78033     78034     78033     78035
     78034     78035     78036     78037     78036     78038     78037     78038
     78039     78040     78039     78041     78040     78041     78042     78043
     78042     78044     78043     78044     78045     78046     78045     78047
     78046     78047     78048     78049     78048     78050     78049     78050
     78051     78052     78051     78053     78052     78053     78054     78055
     78054     78056     78055     78056     78057     78058     78057     78059
     78058     78059     78060     78061     78060     78062     78061     78062
     78063     78064     78063     78065     78064     78065     78066     78067
     78066     78068     78067     78068     78069     78070     78069     78071
     78070     78071     78072     78073     78072     78074     78073     78074
     78075     78076     78075     78077     78076     78077     78078     78079
     78078     78080     78079     78080     78081     78082     78081     78083
     78082     78083     78084     78085     78084     78086     78085     78086
     78087     78088     78087     78089     78088     78089     78090     78091
     78090     78092     78091     78092     78093     78094     78093     78095
     78094     78095     78096     78097     78096     78098     78097     78098
     78099     78100     78099     78101     78100     78101     78102     78103
     78102     78104     78103     78104     78105     78106     78105     78107
     78106     78107     78108     78109     78108     78110     78109     78110
     78111     78112     78111     78113     78112     78113     78114     78115
     78114     78116     78115     78116     78117     78118     78117     78119
     78118     78119     78120     78121     78120     78122     78121     78122
     78123     78124     78123     78125     78124     78125     78126     78127
     78126     78128     78127     78128     78129     78130     78129     78131
     78130     78131     78132     78133     78132     78134     78133     78134
     78135     78136     78135     78137     78136     78137     78138     78139
     78138     78140     78139     78140     78141     78142     78141     78143
     78142     78143     78144     78145     78144     78146     78145     78146
     78147     78148     78147     78149     78148     78149     78150     78151
     78150     78152     78151     78152     78153     78154     78153     78155
     78154     78155     78156     78157     78156     78158     78157     78158
     78159     78160     78159     78161     78160     78161     78162     78163
     78162     78164     78163     78164     78165     78166     78165     78167
     78166     78167     78168     78169     78168     78170     78169     78170
     78171     78172     78171     78173     78172     78173     78174     78175
     78174     78176     78175     78176     78177     78178     78177     78179
     78178     78179     78180     78181     78180     78182     78181     78182
     78183     78184     78183     78185     78184     78185     78186     78187
     78186     78188     78187     78188     78189     78190     78189     78191
     78190     78191     78192     78193     78192     78194     78193     78194
     78195     78196     78195     78197     78196     78197     78198     78199
     78198     78200     78199     78200     78201     78202     78201     78203
     78202     78203     78204     78205     78204     78206     78205     78206
     78207     78208     78207     78209     78208     78209     78210     78211
     78210     78212     78211     78212     78213     78214     78213     78215
     78214     78215     78216     78217     78216     78218     78217     78218
     78219     78220     78219     78221     78220     78221     78222     78223
     78222     78224     78223     78224     78225     78226     78225     78227
     78226     78227     78228     78229     78228     78230     78229     78230
     78231     78232     78231     78233     78232     78233     78234     78235
     78234     78236     78235     78236     78237     78238     78237     78239
     78238     78239     78240     78241     78240     78242     78241     78242
     78243     78244     78243     78245     78244     78245     78246     78247
     78246     78248     78247     78248     78249     78250     78249     78251
     78250     78251     78252     78253     78252     78254     78253     78254
     78255     78256     78255     78257     78256     78257     78258     78259
     78258     78260     78259     78260     78261     78262     78261     78263
     78262     78263     78264     78265     78264     78266     78265     78266
     78267     78268     78267     78269     78268     78269     78270     78271
     78270     78272     78271     78272     78273     78274     78273     78275
     78274     78275     78276     78277     78276     78278     78277     78278
     78279     78280     78279     78281     78280     78281     78282     78283
     78282     78284     78283     78284     78285     78286     78285     78287
     78286     78287     78288     78289     78288     78290     78289     78290
     78291     78292     78291     78293     78292     78293     78294     78295
     78294     78296     78295     78296     78297     78298     78297     78299
     78298     78299     78300     78301     78300     78302     78301     78302
     78303     78304     78303     78305     78304     78305     78306     78307
     78306     78308     78307     78308     78309     78310     78309     78311
     78310     78311     78312     78313     78312     78314     78313     78314
     78315     78316     78315     78317     78316     78317     78318     78319
     78318     78320     78319     78320     78321     78322     78321     78323
     78322     78323     78324     78325     78324     78326     78325     78326
     78327     78328     78327     78329     78328     78329     78330     78331
     78330     78332     78331     78332     78333     78334     78333     78335
     78334     78335     78336     78337     78336     78338     78337     78338
     78339     78340     78339     78341     78340     78341     78342     78343
     78342     78344     78343     78344     78345     78346     78345     78347
     78346     78347     78348     78349     78348     78350     78349     78350
     78351     78352     78351     78353     78352     78353     78354     78355
     78354     78356     78355     78356     78357     78358     78357     78359
     78358     78359     78360     78361     78360     78362     78361     78362
     78363     78364     78363     78365     78364     78365     78366     78367
     78366     78368     78367     78368     78369     78370     78369     78371
     78370     78371     78372     78373     78372     78374     78373     78374
     78375     78376     78375     78377     78376     78377     78378     78379
     78378     78380     78379     78380     78381     78382     78381     78383
     78382     78383     78384     78385     78384     78386     78385     78386
     78387     78388     78387     78389     78388     78389     78390     78391
     78390     78392     78391     78392     78393     78394     78393     78395
     78394     78395     78396     78397     78396     78398     78397     78398
     78399     78400     78399     78401     78400     78401     78402     78403
     78402     78404     78403     78404     78405     78406     78405     78407
     78406     78407     78408     78409     78408     78410     78409     78410
     78411     78412     78411     78413     78412     78413     78414     78415
     78414     78416     78415     78416     78417     78418     78417     78419
     78418     78419     78420     78421     78420     78422     78421     78422
     78423     78424     78423     78425     78424     78425     78426     78427
     78426     78428     78427     78428     78429     78430     78429     78431
     78430     78431     78432     78433     78432     78434     78433     78434
     78435     78436     78435     78437     78436     78437     78438     78439
     78438     78440     78439     78440     78441     78442     78441     78443
     78442     78443     78444     78445     78444     78446     78445     78446
     78447     78448     78447     78449     78448     78449     78450     78451
     78450     78452     78451     78452     78453     78454     78453     78455
     78454     78455     78456     78457     78456     78458     78457     78458
     78459     78460     78459     78461     78460     78461     78462     78463
     78462     78464     78463     78464     78465     78466     78465     78467
     78466     78467     78468     78469     78468     78470     78469     78470
     78471     78472     78471     78473     78472     78473     78474     78475
     78474     78476     78475     78476     78477     78478     78477     78479
     78478     78479     78480     78481     78480     78482     78481     78482
     78483     78484     78483     78485     78484     78485     78486     78487
     78486     78488     78487     78488     78489     78490     78489     78491
     78490     78491     78492     78493     78492     78494     78493     78494
     78495     78496     78495     78497     78496     78497     78498     78499
     78498     78500     78499     78500     78501     78502     78501     78503
     78502     78503     78504     78505     78504     78506     78505     78506
     78507     78508     78507     78509     78508     78509     78510     78511
     78510     78512     78511     78512     78513     78514     78513     78515
     78514     78515     78516     78517     78516     78518     78517     78518
     78519     78520     78519     78521     78520     78521     78522     78523
     78522     78524     78523     78524     78525     78526     78525     78527
     78526     78527     78528     78529     78528     78530     78529     78530
     78531     78532     78531     78533     78532     78533     78534     78535
     78534     78536     78535     78536     78537     78538     78537     78539
     78538     78539     78540     78541     78540     78542     78541     78542
     78543     78544     78543     78545     78544     78545     78546     78547
     78546     78548     78547     78548     78549     78550     78549     78551
     78550     78551     78552     78553     78552     78554     78553     78554
     78555     78556     78555     78557     78556     78557     78558     78559
     78558     78560     78559     78560     78561     78562     78561     78563
     78562     78563     78564     78565     78564     78566     78565     78566
     78567     78568     78567     78569     78568     78569     78570     78571
     78570     78572     78571     78572     78573     78574     78573     78575
     78574     78575     78576     78577     78576     78578     78577     78578
     78579     78580     78579     78581     78580     78581     78582     78583
     78582     78584     78583     78584     78585     78586     78585     78587
     78586     78587     78588     78589     78588     78590     78589     78590
     78591     78592     78591     78593     78592     78593     78594     78595
     78594     78596     78595     78596     78597     78598     78597     78599
     78598     78599     78600     78601     78600     78602     78601     78602
     78603     78604     78603     78605     78604     78605     78606     78607
     78606     78608     78607     78608     78609     78610     78609     78611
     78610     78611     78612     78613     78612     78614     78613     78614
     78615     78616     78615     78617     78616     78617     78618     78619
     78618     78620     78619     78620     78621     78622     78621     78623
     78622     78623     78624     78625     78624     78626     78625     78626
     78627     78628     78627     78629     78628     78629     78630     78631
     78630     78632     78631     78632     78633     78634     78633     78635
     78634     78635     78636     78637     78636     78638     78637     78638
     78639     78640     78639     78641     78640     78641     78642     78643
     78642     78644     78643     78644     78645     78646     78645     78647
     78646     78647     78648     78649     78648     78650     78649     78650
     78651     78652     78651     78653     78652     78653     78654     78655
     78654     78656     78655     78656     78657     78658     78657     78659
     78658     78659     78660     78661     78660     78662     78661     78662
     78663     78664     78663     78665     78664     78665     78666     78667
     78666     78668     78667     78668     78669     78670     78669     78671
     78670     78671     78672     78673     78672     78674     78673     78674
     78675     78676     78675     78677     78676     78677     78678     78679
     78678     78680     78679     78680     78681     78682     78681     78683
     78682     78683     78684     78685     78684     78686     78685     78686
     78687     78688     78687     78689     78688     78689     78690     78691
     78690     78692     78691     78692     78693     78694     78693     78695
     78694     78695     78696     78697     78696     78698     78697     78698
     78699     78700     78699     78701     78700     78701     78702     78703
     78702     78704     78703     78704     78705     78706     78705     78707
     78706     78707     78708     78709     78708     78710     78709     78710
     78711     78712     78711     78713     78712     78713     78714     78715
     78714     78716     78715     78716     78717     78718     78717     78719
     78718     78719     78720     78721     78720     78722     78721     78722
     78723     78724     78723     78725     78724     78725     78726     78727
     78726     78728     78727     78728     78729     78730     78729     78731
     78730     78731     78732     78733     78732     78734     78733     78734
     78735     78736     78735     78737     78736     78737     78738     78739
     78738     78740     78739     78740     78741     78742     78741     78743
     78742     78743     78744     78745     78744     78746     78745     78746
     78747     78748     78747     78749     78748     78749     78750     78751
     78750     78752     78751     78752     78753     78754     78753     78755
     78754     78755     78756     78757     78756     78758     78757     78758
     78759     78760     78759     78761     78760     78761     78762     78763
     78762     78764     78763     78764     78765     78766     78765     78767
     78766     78767     78768     78769     78768     78770     78769     78770
     78771     78772     78771     78773     78772     78773     78774     78775
     78774     78776     78775     78776     78777     78778     78777     78779
     78778     78779     78780     78781     78780     78782     78781     78782
     78783     78784     78783     78785     78784     78785     78786     78787
     78786     78788     78787     78788     78789     78790     78789     78791
     78790     78791     78792     78793     78792     78794     78793     78794
     78795     78796     78795     78797     78796     78797     78798     78799
     78798     78800     78799     78800     78801     78802     78801     78803
     78802     78803     78804     78805     78804     78806     78805     78806
     78807     78808     78807     78809     78808     78809     78810     78811
     78810     78812     78811     78812     78813     78814     78813     78815
     78814     78815     78816     78817     78816     78818     78817     78818
     78819     78820     78819     78821     78820     78821     78822     78823
     78822     78824     78823     78824     78825     78826     78825     78827
     78826     78827     78828     78829     78828     78830     78829     78830
     78831     78832     78831     78833     78832     78833     78834     78835
     78834     78836     78835     78836     78837     78838     78837     78839
     78838     78839     78840     78841     78840     78842     78841     78842
     78843     78844     78843     78845     78844     78845     78846     78847
     78846     78848     78847     78848     78849     78850     78849     78851
     78850     78851     78852     78853     78852     78854     78853     78854
     78855     78856     78855     78857     78856     78857     78858     78859
     78858     78860     78859     78860     78861     78862     78861     78863
     78862     78863     78864     78865     78864     78866     78865     78866
     78867     78868     78867     78869     78868     78869     78870     78871
     78870     78872     78871     78872     78873     78874     78873     78875
     78874     78875     78876     78877     78876     78878     78877     78878
     78879     78880     78879     78881     78880     78881     78882     78883
     78882     78884     78883     78884     78885     78886     78885     78887
     78886     78887     78888     78889     78888     78890     78889     78890
     78891     78892     78891     78893     78892     78893     78894     78895
     78894     78896     78895     78896     78897     78898     78897     78899
     78898     78899     78900     78901     78900     78902     78901     78902
     78903     78904     78903     78905     78904     78905     78906     78907
     78906     78908     78907     78908     78909     78910     78909     78911
     78910     78911     78912     78913     78912     78914     78913     78914
     78915     78916     78915     78917     78916     78917     78918     78919
     78918     78920     78919     78920     78921     78922     78921     78923
     78922     78923     78924     78925     78924     78926     78925     78926
     78927     78928     78927     78929     78928     78929     78930     78931
     78930     78932     78931     78932     78933     78934     78933     78935
     78934     78935     78936     78937     78936     78938     78937     78938
     78939     78940     78939     78941     78940     78941     78942     78943
     78942     78944     78943     78944     78945     78946     78945     78947
     78946     78947     78948     78949     78948     78950     78949     78950
     78951     78952     78951     78953     78952     78953     78954     78955
     78954     78956     78955     78956     78957     78958     78957     78959
     78958     78959     78960     78961     78960     78962     78961     78962
     78963     78964     78963     78965     78964     78965     78966     78967
     78966     78968     78967     78968     78969     78970     78969     78971
     78970     78971     78972     78973     78972     78974     78973     78974
     78975     78976     78975     78977     78976     78977     78978     78979
     78978     78980     78979     78980     78981     78982     78981     78983
     78982     78983     78984     78985     78984     78986     78985     78986
     78987     78988     78987     78989     78988     78989     78990     78991
     78990     78992     78991     78992     78993     78994     78993     78995
     78994     78995     78996     78997     78996     78998     78997     78998
     78999     79000     78999     79001     79000     79001     79002     79003
     79002     79004     79003     79004     79005     79006     79005     79007
     79006     79007     79008     79009     79008     79010     79009     79010
     79011     79012     79011     79013     79012     79013     79014     79015
     79014     79016     79015     79016     79017     79018     79017     79019
     79018     79019     79020     79021     79020     79022     79021     79022
     79023     79024     79023     79025     79024     79025     79026     79027
     79026     79028     79027     79028     79029     79030     79029     79031
     79030     79031     79032     79033     79032     79034     79033     79034
     79035     79036     79035     79037     79036     79037     79038     79039
     79038     79040     79039     79040     79041     79042     79041     79043
     79042     79043     79044     79045     79044     79046     79045     79046
     79047     79048     79047     79049     79048     79049     79050     79051
     79050     79052     79051     79052     79053     79054     79053     79055
     79054     79055     79056     79057     79056     79058     79057     79058
     79059     79060     79059     79061     79060     79061     79062     79063
     79062     79064     79063     79064     79065     79066     79065     79067
     79066     79067     79068     79069     79068     79070     79069     79070
     79071     79072     79071     79073     79072     79073     79074     79075
     79074     79076     79075     79076     79077     79078     79077     79079
     79078     79079     79080     79081     79080     79082     79081     79082
     79083     79084     79083     79085     79084     79085     79086     79087
     79086     79088     79087     79088     79089     79090     79089     79091
     79090     79091     79092     79093     79092     79094     79093     79094
     79095     79096     79095     79097     79096     79097     79098     79099
     79098     79100     79099     79100     79101     79102     79101     79103
     79102     79103     79104     79105     79104     79106     79105     79106
     79107     79108     79107     79109     79108     79109     79110     79111
     79110     79112     79111     79112     79113     79114     79113     79115
     79114     79115     79116     79117     79116     79118     79117     79118
     79119     79120     79119     79121     79120     79121     79122     79123
     79122     79124     79123     79124     79125     79126     79125     79127
     79126     79127     79128     79129     79128     79130     79129     79130
     79131     79132     79131     79133     79132     79133     79134     79135
     79134     79136     79135     79136     79137     79138     79137     79139
     79138     79139     79140     79141     79140     79142     79141     79142
     79143     79144     79143     79145     79144     79145     79146     79147
     79146     79148     79147     79148     79149     79150     79149     79151
     79150     79151     79152     79153     79152     79154     79153     79154
     79155     79156     79155     79157     79156     79157     79158     79159
     79158     79160     79159     79160     79161     79162     79161     79163
     79162     79163     79164     79165     79164     79166     79165     79166
     79167     79168     79167     79169     79168     79169     79170     79171
     79170     79172     79171     79172     79173     79174     79173     79175
     79174     79175     79176     79177     79176     79178     79177     79178
     79179     79180     79179     79181     79180     79181     79182     79183
     79182     79184     79183     79184     79185     79186     79185     79187
     79186     79187     79188     79189     79188     79190     79189     79190
     79191     79192     79191     79193     79192     79193     79194     79195
     79194     79196     79195     79196     79197     79198     79197     79199
     79198     79199     79200     79201     79200     79202     79201     79202
     79203     79204     79203     79205     79204     79205     79206     79207
     79206     79208     79207     79208     79209     79210     79209     79211
     79210     79211     79212     79213     79212     79214     79213     79214
     79215     79216     79215     79217     79216     79217     79218     79219
     79218     79220     79219     79220     79221     79222     79221     79223
     79222     79223     79224     79225     79224     79226     79225     79226
     79227     79228     79227     79229     79228     79229     79230     79231
     79230     79232     79231     79232     79233     79234     79233     79235
     79234     79235     79236     79237     79236     79238     79237     79238
     79239     79240     79239     79241     79240     79241     79242     79243
     79242     79244     79243     79244     79245     79246     79245     79247
     79246     79247     79248     79249     79248     79250     79249     79250
     79251     79252     79251     79253     79252     79253     79254     79255
     79254     79256     79255     79256     79257     79258     79257     79259
     79258     79259     79260     79261     79260     79262     79261     79262
     79263     79264     79263     79265     79264     79265     79266     79267
     79266     79268     79267     79268     79269     79270     79269     79271
     79270     79271     79272     79273     79272     79274     79273     79274
     79275     79276     79275     79277     79276     79277     79278     79279
     79278     79280     79279     79280     79281     79282     79281     79283
     79282     79283     79284     79285     79284     79286     79285     79286
     79287     79288     79287     79289     79288     79289     79290     79291
     79290     79292     79291     79292     79293     79294     79293     79295
     79294     79295     79296     79297     79296     79298     79297     79298
     79299     79300     79299     79301     79300     79301     79302     79303
     79302     79304     79303     79304     79305     79306     79305     79307
     79306     79307     79308     79309     79308     79310     79309     79310
     79311     79312     79311     79313     79312     79313     79314     79315
     79314     79316     79315     79316     79317     79318     79317     79319
     79318     79319     79320     79321     79320     79322     79321     79322
     79323     79324     79323     79325     79324     79325     79326     79327
     79326     79328     79327     79328     79329     79330     79329     79331
     79330     79331     79332     79333     79332     79334     79333     79334
     79335     79336     79335     79337     79336     79337     79338     79339
     79338     79340     79339     79340     79341     79342     79341     79343
     79342     79343     79344     79345     79344     79346     79345     79346
     79347     79348     79347     79349     79348     79349     79350     79351
     79350     79352     79351     79352     79353     79354     79353     79355
     79354     79355     79356     79357     79356     79358     79357     79358
     79359     79360     79359     79361     79360     79361     79362     79363
     79362     79364     79363     79364     79365     79366     79365     79367
     79366     79367     79368     79369     79368     79370     79369     79370
     79371     79372     79371     79373     79372     79373     79374     79375
     79374     79376     79375     79376     79377     79378     79377     79379
     79378     79379     79380     79381     79380     79382     79381     79382
     79383     79384     79383     79385     79384     79385     79386     79387
     79386     79388     79387     79388     79389     79390     79389     79391
     79390     79391     79392     79393     79392     79394     79393     79394
     79395     79396     79395     79397     79396     79397     79398     79399
     79398     79400     79399     79400     79401     79402     79401     79403
     79402     79403     79404     79405     79404     79406     79405     79406
     79407     79408     79407     79409     79408     79409     79410     79411
     79410     79412     79411     79412     79413     79414     79413     79415
     79414     79415     79416     79417     79416     79418     79417     79418
     79419     79420     79419     79421     79420     79421     79422     79423
     79422     79424     79423     79424     79425     79426     79425     79427
     79426     79427     79428     79429     79428     79430     79429     79430
     79431     79432     79431     79433     79432     79433     79434     79435
     79434     79436     79435     79436     79437     79438     79437     79439
     79438     79439     79440     79441     79440     79442     79441     79442
     79443     79444     79443     79445     79444     79445     79446     79447
     79446     79448     79447     79448     79449     79450     79449     79451
     79450     79451     79452     79453     79452     79454     79453     79454
     79455     79456     79455     79457     79456     79457     79458     79459
     79458     79460     79459     79460     79461     79462     79461     79463
     79462     79463     79464     79465     79464     79466     79465     79466
     79467     79468     79467     79469     79468     79469     79470     79471
     79470     79472     79471     79472     79473     79474     79473     79475
     79474     79475     79476     79477     79476     79478     79477     79478
     79479     79480     79479     79481     79480     79481     79482     79483
     79482     79484     79483     79484     79485     79486     79485     79487
     79486     79487     79488     79489     79488     79490     79489     79490
     79491     79492     79491     79493     79492     79493     79494     79495
     79494     79496     79495     79496     79497     79498     79497     79499
     79498     79499     79500     79501     79500     79502     79501     79502
     79503     79504     79503     79505     79504     79505     79506     79507
     79506     79508     79507     79508     79509     79510     79509     79511
     79510     79511     79512     79513     79512     79514     79513     79514
     79515     79516     79515     79517     79516     79517     79518     79519
     79518     79520     79519     79520     79521     79522     79521     79523
     79522     79523     79524     79525     79524     79526     79525     79526
     79527     79528     79527     79529     79528     79529     79530     79531
     79530     79532     79531     79532     79533     79534     79533     79535
     79534     79535     79536     79537     79536     79538     79537     79538
     79539     79540     79539     79541     79540     79541     79542     79543
     79542     79544     79543     79544     79545     79546     79545     79547
     79546     79547     79548     79549     79548     79550     79549     79550
     79551     79552     79551     79553     79552     79553     79554     79555
     79554     79556     79555     79556     79557     79558     79557     79559
     79558     79559     79560     79561     79560     79562     79561     79562
     79563     79564     79563     79565     79564     79565     79566     79567
     79566     79568     79567     79568     79569     79570     79569     79571
     79570     79571     79572     79573     79572     79574     79573     79574
     79575     79576     79575     79577     79576     79577     79578     79579
     79578     79580     79579     79580     79581     79582     79581     79583
     79582     79583     79584     79585     79584     79586     79585     79586
     79587     79588     79587     79589     79588     79589     79590     79591
     79590     79592     79591     79592     79593     79594     79593     79595
     79594     79595     79596     79597     79596     79598     79597     79598
     79599     79600     79599     79601     79600     79601     79602     79603
     79602     79604     79603     79604     79605     79606     79605     79607
     79606     79607     79608     79609     79608     79610     79609     79610
     79611     79612     79611     79613     79612     79613     79614     79615
     79614     79616     79615     79616     79617     79618     79617     79619
     79618     79619     79620     79621     79620     79622     79621     79622
     79623     79624     79623     79625     79624     79625     79626     79627
     79626     79628     79627     79628     79629     79630     79629     79631
     79630     79631     79632     79633     79632     79634     79633     79634
     79635     79636     79635     79637     79636     79637     79638     79639
     79638     79640     79639     79640     79641     79642     79641     79643
     79642     79643     79644     79645     79644     79646     79645     79646
     79647     79648     79647     79649     79648     79649     79650     79651
     79650     79652     79651     79652     79653     79654     79653     79655
     79654     79655     79656     79657     79656     79658     79657     79658
     79659     79660     79659     79661     79660     79661     79662     79663
     79662     79664     79663     79664     79665     79666     79665     79667
     79666     79667     79668     79669     79668     79670     79669     79670
     79671     79672     79671     79673     79672     79673     79674     79675
     79674     79676     79675     79676     79677     79678     79677     79679
     79678     79679     79680     79681     79680     79682     79681     79682
     79683     79684     79683     79685     79684     79685     79686     79687
     79686     79688     79687     79688     79689     79690     79689     79691
     79690     79691     79692     79693     79692     79694     79693     79694
     79695     79696     79695     79697     79696     79697     79698     79699
     79698     79700     79699     79700     79701     79702     79701     79703
     79702     79703     79704     79705     79704     79706     79705     79706
     79707     79708     79707     79709     79708     79709     79710     79711
     79710     79712     79711     79712     79713     79714     79713     79715
     79714     79715     79716     79717     79716     79718     79717     79718
     79719     79720     79719     79721     79720     79721     79722     79723
     79722     79724     79723     79724     79725     79726     79725     79727
     79726     79727     79728     79729     79728     79730     79729     79730
     79731     79732     79731     79733     79732     79733     79734     79735
     79734     79736     79735     79736     79737     79738     79737     79739
     79738     79739     79740     79741     79740     79742     79741     79742
     79743     79744     79743     79745     79744     79745     79746     79747
     79746     79748     79747     79748     79749     79750     79749     79751
     79750     79751     79752     79753     79752     79754     79753     79754
     79755     79756     79755     79757     79756     79757     79758     79759
     79758     79760     79759     79760     79761     79762     79761     79763
     79762     79763     79764     79765     79764     79766     79765     79766
     79767     79768     79767     79769     79768     79769     79770     79771
     79770     79772     79771     79772     79773     79774     79773     79775
     79774     79775     79776     79777     79776     79778     79777     79778
     79779     79780     79779     79781     79780     79781     79782     79783
     79782     79784     79783     79784     79785     79786     79785     79787
     79786     79787     79788     79789     79788     79790     79789     79790
     79791     79792     79791     79793     79792     79793     79794     79795
     79794     79796     79795     79796     79797     79798     79797     79799
     79798     79799     79800     79801     79800     79802     79801     79802
     79803     79804     79803     79805     79804     79805     79806     79807
     79806     79808     79807     79808     79809     79810     79809     79811
     79810     79811     79812     79813     79812     79814     79813     79814
     79815     79816     79815     79817     79816     79817     79818     79819
     79818     79820     79819     79820     79821     79822     79821     79823
     79822     79823     79824     79825     79824     79826     79825     79826
     79827     79828     79827     79829     79828     79829     79830     79831
     79830     79832     79831     79832     79833     79834     79833     79835
     79834     79835     79836     79837     79836     79838     79837     79838
     79839     79840     79839     79841     79840     79841     79842     79843
     79842     79844     79843     79844     79845     79846     79845     79847
     79846     79847     79848     79849     79848     79850     79849     79850
     79851     79852     79851     79853     79852     79853     79854     79855
     79854     79856     79855     79856     79857     79858     79857     79859
     79858     79859     79860     79861     79860     79862     79861     79862
     79863     79864     79863     79865     79864     79865     79866     79867
     79866     79868     79867     79868     79869     79870     79869     79871
     79870     79871     79872     79873     79872     79874     79873     79874
     79875     79876     79875     79877     79876     79877     79878     79879
     79878     79880     79879     79880     79881     79882     79881     79883
     79882     79883     79884     79885     79884     79886     79885     79886
     79887     79888     79887     79889     79888     79889     79890     79891
     79890     79892     79891     79892     79893     79894     79893     79895
     79894     79895     79896     79897     79896     79898     79897     79898
     79899     79900     79899     79901     79900     79901     79902     79903
     79902     79904     79903     79904     79905     79906     79905     79907
     79906     79907     79908     79909     79908     79910     79909     79910
     79911     79912     79911     79913     79912     79913     79914     79915
     79914     79916     79915     79916     79917     79918     79917     79919
     79918     79919     79920     79921     79920     79922     79921     79922
     79923     79924     79923     79925     79924     79925     79926     79927
     79926     79928     79927     79928     79929     79930     79929     79931
     79930     79931     79932     79933     79932     79934     79933     79934
     79935     79936     79935     79937     79936     79937     79938     79939
     79938     79940     79939     79940     79941     79942     79941     79943
     79942     79943     79944     79945     79944     79946     79945     79946
     79947     79948     79947     79949     79948     79949     79950     79951
     79950     79952     79951     79952     79953     79954     79953     79955
     79954     79955     79956     79957     79956     79958     79957     79958
     79959     79960     79959     79961     79960     79961     79962     79963
     79962     79964     79963     79964     79965     79966     79965     79967
     79966     79967     79968     79969     79968     79970     79969     79970
     79971     79972     79971     79973     79972     79973     79974     79975
     79974     79976     79975     79976     79977     79978     79977     79979
     79978     79979     79980     79981     79980     79982     79981     79982
     79983     79984     79983     79985     79984     79985     79986     79987
     79986     79988     79987     79988     79989     79990     79989     79991
     79990     79991     79992     79993     79992     79994     79993     79994
     79995     79996     79995     79997     79996     79997     79998     79999
     79998     80000     79999     80000     80001     80002     80001     80003
     80002     80003     80004     80005     80004     80006     80005     80006
     80007     80008     80007     80009     80008     80009     80010     80011
     80010     80012     80011     80012     80013     80014     80013     80015
     80014     80015     80016     80017     80016     80018     80017     80018
     80019     80020     80019     80021     80020     80021     80022     80023
     80022     80024     80023     80024     80025     80026     80025     80027
     80026     80027     80028     80029     80028     80030     80029     80030
     80031     80032     80031     80033     80032     80033     80034     80035
     80034     80036     80035     80036     80037     80038     80037     80039
     80038     80039     80040     80041     80040     80042     80041     80042
     80043     80044     80043     80045     80044     80045     80046     80047
     80046     80048     80047     80048     80049     80050     80049     80051
     80050     80051     80052     80053     80052     80054     80053     80054
     80055     80056     80055     80057     80056     80057     80058     80059
     80058     80060     80059     80060     80061     80062     80061     80063
     80062     80063     80064     80065     80064     80066     80065     80066
     80067     80068     80067     80069     80068     80069     80070     80071
     80070     80072     80071     80072     80073     80074     80073     80075
     80074     80075     80076     80077     80076     80078     80077     80078
     80079     80080     80079     80081     80080     80081     80082     80083
     80082     80084     80083     80084     80085     80086     80085     80087
     80086     80087     80088     80089     80088     80090     80089     80090
     80091     80092     80091     80093     80092     80093     80094     80095
     80094     80096     80095     80096     80097     80098     80097     80099
     80098     80099     80100     80101     80100     80102     80101     80102
     80103     80104     80103     80105     80104     80105     80106     80107
     80106     80108     80107     80108     80109     80110     80109     80111
     80110     80111     80112     80113     80112     80114     80113     80114
     80115     80116     80115     80117     80116     80117     80118     80119
     80118     80120     80119     80120     80121     80122     80121     80123
     80122     80123     80124     80125     80124     80126     80125     80126
     80127     80128     80127     80129     80128     80129     80130     80131
     80130     80132     80131     80132     80133     80134     80133     80135
     80134     80135     80136     80137     80136     80138     80137     80138
     80139     80140     80139     80141     80140     80141     80142     80143
     80142     80144     80143     80144     80145     80146     80145     80147
     80146     80147     80148     80149     80148     80150     80149     80150
     80151     80152     80151     80153     80152     80153     80154     80155
     80154     80156     80155     80156     80157     80158     80157     80159
     80158     80159     80160     80161     80160     80162     80161     80162
     80163     80164     80163     80165     80164     80165     80166     80167
     80166     80168     80167     80168     80169     80170     80169     80171
     80170     80171     80172     80173     80172     80174     80173     80174
     80175     80176     80175     80177     80176     80177     80178     80179
     80178     80180     80179     80180     80181     80182     80181     80183
     80182     80183     80184     80185     80184     80186     80185     80186
     80187     80188     80187     80189     80188     80189     80190     80191
     80190     80192     80191     80192     80193     80194     80193     80195
     80194     80195     80196     80197     80196     80198     80197     80198
     80199     80200     80199     80201     80200     80201     80202     80203
     80202     80204     80203     80204     80205     80206     80205     80207
     80206     80207     80208     80209     80208     80210     80209     80210
     80211     80212     80211     80213     80212     80213     80214     80215
     80214     80216     80215     80216     80217     80218     80217     80219
     80218     80219     80220     80221     80220     80222     80221     80222
     80223     80224     80223     80225     80224     80225     80226     80227
     80226     80228     80227     80228     80229     80230     80229     80231
     80230     80231     80232     80233     80232     80234     80233     80234
     80235     80236     80235     80237     80236     80237     80238     80239
     80238     80240     80239     80240     80241     80242     80241     80243
     80242     80243     80244     80245     80244     80246     80245     80246
     80247     80248     80247     80249     80248     80249     80250     80251
     80250     80252     80251     80252     80253     80254     80253     80255
     80254     80255     80256     80257     80256     80258     80257     80258
     80259     80260     80259     80261     80260     80261     80262     80263
     80262     80264     80263     80264     80265     80266     80265     80267
     80266     80267     80268     80269     80268     80270     80269     80270
     80271     80272     80271     80273     80272     80273     80274     80275
     80274     80276     80275     80276     80277     80278     80277     80279
     80278     80279     80280     80281     80280     80282     80281     80282
     80283     80284     80283     80285     80284     80285     80286     80287
     80286     80288     80287     80288     80289     80290     80289     80291
     80290     80291     80292     80293     80292     80294     80293     80294
     80295     80296     80295     80297     80296     80297     80298     80299
     80298     80300     80299     80300     80301     80302     80301     80303
     80302     80303     80304     80305     80304     80306     80305     80306
     80307     80308     80307     80309     80308     80309     80310     80311
     80310     80312     80311     80312     80313     80314     80313     80315
     80314     80315     80316     80317     80316     80318     80317     80318
     80319     80320     80319     80321     80320     80321     80322     80323
     80322     80324     80323     80324     80325     80326     80325     80327
     80326     80327     80328     80329     80328     80330     80329     80330
     80331     80332     80331     80333     80332     80333     80334     80335
     80334     80336     80335     80336     80337     80338     80337     80339
     80338     80339     80340     80341     80340     80342     80341     80342
     80343     80344     80343     80345     80344     80345     80346     80347
     80346     80348     80347     80348     80349     80350     80349     80351
     80350     80351     80352     80353     80352     80354     80353     80354
     80355     80356     80355     80357     80356     80357     80358     80359
     80358     80360     80359     80360     80361     80362     80361     80363
     80362     80363     80364     80365     80364     80366     80365     80366
     80367     80368     80367     80369     80368     80369     80370     80371
     80370     80372     80371     80372     80373     80374     80373     80375
     80374     80375     80376     80377     80376     80378     80377     80378
     80379     80380     80379     80381     80380     80381     80382     80383
     80382     80384     80383     80384     80385     80386     80385     80387
     80386     80387     80388     80389     80388     80390     80389     80390
     80391     80392     80391     80393     80392     80393     80394     80395
     80394     80396     80395     80396     80397     80398     80397     80399
     80398     80399     80400     80401     80400     80402     80401     80402
     80403     80404     80403     80405     80404     80405     80406     80407
     80406     80408     80407     80408     80409     80410     80409     80411
     80410     80411     80412     80413     80412     80414     80413     80414
     80415     80416     80415     80417     80416     80417     80418     80419
     80418     80420     80419     80420     80421     80422     80421     80423
     80422     80423     80424     80425     80424     80426     80425     80426
     80427     80428     80427     80429     80428     80429     80430     80431
     80430     80432     80431     80432     80433     80434     80433     80435
     80434     80435     80436     80437     80436     80438     80437     80438
     80439     80440     80439     80441     80440     80441     80442     80443
     80442     80444     80443     80444     80445     80446     80445     80447
     80446     80447     80448     80449     80448     80450     80449     80450
     80451     80452     80451     80453     80452     80453     80454     80455
     80454     80456     80455     80456     80457     80458     80457     80459
     80458     80459     80460     80461     80460     80462     80461     80462
     80463     80464     80463     80465     80464     80465     80466     80467
     80466     80468     80467     80468     80469     80470     80469     80471
     80470     80471     80472     80473     80472     80474     80473     80474
     80475     80476     80475     80477     80476     80477     80478     80479
     80478     80480     80479     80480     80481     80482     80481     80483
     80482     80483     80484     80485     80484     80486     80485     80486
     80487     80488     80487     80489     80488     80489     80490     80491
     80490     80492     80491     80492     80493     80494     80493     80495
     80494     80495     80496     80497     80496     80498     80497     80498
     80499     80500     80499     80501     80500     80501     80502     80503
     80502     80504     80503     80504     80505     80506     80505     80507
     80506     80507     80508     80509     80508     80510     80509     80510
     80511     80512     80511     80513     80512     80513     80514     80515
     80514     80516     80515     80516     80517     80518     80517     80519
     80518     80519     80520     80521     80520     80522     80521     80522
     80523     80524     80523     80525     80524     80525     80526     80527
     80526     80528     80527     80528     80529     80530     80529     80531
     80530     80531     80532     80533     80532     80534     80533     80534
     80535     80536     80535     80537     80536     80537     80538     80539
     80538     80540     80539     80540     80541     80542     80541     80543
     80542     80543     80544     80545     80544     80546     80545     80546
     80547     80548     80547     80549     80548     80549     80550     80551
     80550     80552     80551     80552     80553     80554     80553     80555
     80554     80555     80556     80557     80556     80558     80557     80558
     80559     80560     80559     80561     80560     80561     80562     80563
     80562     80564     80563     80564     80565     80566     80565     80567
     80566     80567     80568     80569     80568     80570     80569     80570
     80571     80572     80571     80573     80572     80573     80574     80575
     80574     80576     80575     80576     80577     80578     80577     80579
     80578     80579     80580     80581     80580     80582     80581     80582
     80583     80584     80583     80585     80584     80585     80586     80587
     80586     80588     80587     80588     80589     80590     80589     80591
     80590     80591     80592     80593     80592     80594     80593     80594
     80595     80596     80595     80597     80596     80597     80598     80599
     80598     80600     80599     80600     80601     80602     80601     80603
     80602     80603     80604     80605     80604     80606     80605     80606
     80607     80608     80607     80609     80608     80609     80610     80611
     80610     80612     80611     80612     80613     80614     80613     80615
     80614     80615     80616     80617     80616     80618     80617     80618
     80619     80620     80619     80621     80620     80621     80622     80623
     80622     80624     80623     80624     80625     80626     80625     80627
     80626     80627     80628     80629     80628     80630     80629     80630
     80631     80632     80631     80633     80632     80633     80634     80635
     80634     80636     80635     80636     80637     80638     80637     80639
     80638     80639     80640     80641     80640     80642     80641     80642
     80643     80644     80643     80645     80644     80645     80646     80647
     80646     80648     80647     80648     80649     80650     80649     80651
     80650     80651     80652     80653     80652     80654     80653     80654
     80655     80656     80655     80657     80656     80657     80658     80659
     80658     80660     80659     80660     80661     80662     80661     80663
     80662     80663     80664     80665     80664     80666     80665     80666
     80667     80668     80667     80669     80668     80669     80670     80671
     80670     80672     80671     80672     80673     80674     80673     80675
     80674     80675     80676     80677     80676     80678     80677     80678
     80679     80680     80679     80681     80680     80681     80682     80683
     80682     80684     80683     80684     80685     80686     80685     80687
     80686     80687     80688     80689     80688     80690     80689     80690
     80691     80692     80691     80693     80692     80693     80694     80695
     80694     80696     80695     80696     80697     80698     80697     80699
     80698     80699     80700     80701     80700     80702     80701     80702
     80703     80704     80703     80705     80704     80705     80706     80707
     80706     80708     80707     80708     80709     80710     80709     80711
     80710     80711     80712     80713     80712     80714     80713     80714
     80715     80716     80715     80717     80716     80717     80718     80719
     80718     80720     80719     80720     80721     80722     80721     80723
     80722     80723     80724     80725     80724     80726     80725     80726
     80727     80728     80727     80729     80728     80729     80730     80731
     80730     80732     80731     80732     80733     80734     80733     80735
     80734     80735     80736     80737     80736     80738     80737     80738
     80739     80740     80739     80741     80740     80741     80742     80743
     80742     80744     80743     80744     80745     80746     80745     80747
     80746     80747     80748     80749     80748     80750     80749     80750
     80751     80752     80751     80753     80752     80753     80754     80755
     80754     80756     80755     80756     80757     80758     80757     80759
     80758     80759     80760     80761     80760     80762     80761     80762
     80763     80764     80763     80765     80764     80765     80766     80767
     80766     80768     80767     80768     80769     80770     80769     80771
     80770     80771     80772     80773     80772     80774     80773     80774
     80775     80776     80775     80777     80776     80777     80778     80779
     80778     80780     80779     80780     80781     80782     80781     80783
     80782     80783     80784     80785     80784     80786     80785     80786
     80787     80788     80787     80789     80788     80789     80790     80791
     80790     80792     80791     80792     80793     80794     80793     80795
     80794     80795     80796     80797     80796     80798     80797     80798
     80799     80800     80799     80801     80800     80801     80802     80803
     80802     80804     80803     80804     80805     80806     80805     80807
     80806     80807     80808     80809     80808     80810     80809     80810
     80811     80812     80811     80813     80812     80813     80814     80815
     80814     80816     80815     80816     80817     80818     80817     80819
     80818     80819     80820     80821     80820     80822     80821     80822
     80823     80824     80823     80825     80824     80825     80826     80827
     80826     80828     80827     80828     80829     80830     80829     80831
     80830     80831     80832     80833     80832     80834     80833     80834
     80835     80836     80835     80837     80836     80837     80838     80839
     80838     80840     80839     80840     80841     80842     80841     80843
     80842     80843     80844     80845     80844     80846     80845     80846
     80847     80848     80847     80849     80848     80849     80850     80851
     80850     80852     80851     80852     80853     80854     80853     80855
     80854     80855     80856     80857     80856     80858     80857     80858
     80859     80860     80859     80861     80860     80861     80862     80863
     80862     80864     80863     80864     80865     80866     80865     80867
     80866     80867     80868     80869     80868     80870     80869     80870
     80871     80872     80871     80873     80872     80873     80874     80875
     80874     80876     80875     80876     80877     80878     80877     80879
     80878     80879     80880     80881     80880     80882     80881     80882
     80883     80884     80883     80885     80884     80885     80886     80887
     80886     80888     80887     80888     80889     80890     80889     80891
     80890     80891     80892     80893     80892     80894     80893     80894
     80895     80896     80895     80897     80896     80897     80898     80899
     80898     80900     80899     80900     80901     80902     80901     80903
     80902     80903     80904     80905     80904     80906     80905     80906
     80907     80908     80907     80909     80908     80909     80910     80911
     80910     80912     80911     80912     80913     80914     80913     80915
     80914     80915     80916     80917     80916     80918     80917     80918
     80919     80920     80919     80921     80920     80921     80922     80923
     80922     80924     80923     80924     80925     80926     80925     80927
     80926     80927     80928     80929     80928     80930     80929     80930
     80931     80932     80931     80933     80932     80933     80934     80935
     80934     80936     80935     80936     80937     80938     80937     80939
     80938     80939     80940     80941     80940     80942     80941     80942
     80943     80944     80943     80945     80944     80945     80946     80947
     80946     80948     80947     80948     80949     80950     80949     80951
     80950     80951     80952     80953     80952     80954     80953     80954
     80955     80956     80955     80957     80956     80957     80958     80959
     80958     80960     80959     80960     80961     80962     80961     80963
     80962     80963     80964     80965     80964     80966     80965     80966
     80967     80968     80967     80969     80968     80969     80970     80971
     80970     80972     80971     80972     80973     80974     80973     80975
     80974     80975     80976     80977     80976     80978     80977     80978
     80979     80980     80979     80981     80980     80981     80982     80983
     80982     80984     80983     80984     80985     80986     80985     80987
     80986     80987     80988     80989     80988     80990     80989     80990
     80991     80992     80991     80993     80992     80993     80994     80995
     80994     80996     80995     80996     80997     80998     80997     80999
     80998     80999     81000     81001     81000     81002     81001     81002
     81003     81004     81003     81005     81004     81005     81006     81007
     81006     81008     81007     81008     81009     81010     81009     81011
     81010     81011     81012     81013     81012     81014     81013     81014
     81015     81016     81015     81017     81016     81017     81018     81019
     81018     81020     81019     81020     81021     81022     81021     81023
     81022     81023     81024     81025     81024     81026     81025     81026
     81027     81028     81027     81029     81028     81029     81030     81031
     81030     81032     81031     81032     81033     81034     81033     81035
     81034     81035     81036     81037     81036     81038     81037     81038
     81039     81040     81039     81041     81040     81041     81042     81043
     81042     81044     81043     81044     81045     81046     81045     81047
     81046     81047     81048     81049     81048     81050     81049     81050
     81051     81052     81051     81053     81052     81053     81054     81055
     81054     81056     81055     81056     81057     81058     81057     81059
     81058     81059     81060     81061     81060     81062     81061     81062
     81063     81064     81063     81065     81064     81065     81066     81067
     81066     81068     81067     81068     81069     81070     81069     81071
     81070     81071     81072     81073     81072     81074     81073     81074
     81075     81076     81075     81077     81076     81077     81078     81079
     81078     81080     81079     81080     81081     81082     81081     81083
     81082     81083     81084     81085     81084     81086     81085     81086
     81087     81088     81087     81089     81088     81089     81090     81091
     81090     81092     81091     81092     81093     81094     81093     81095
     81094     81095     81096     81097     81096     81098     81097     81098
     81099     81100     81099     81101     81100     81101     81102     81103
     81102     81104     81103     81104     81105     81106     81105     81107
     81106     81107     81108     81109     81108     81110     81109     81110
     81111     81112     81111     81113     81112     81113     81114     81115
     81114     81116     81115     81116     81117     81118     81117     81119
     81118     81119     81120     81121     81120     81122     81121     81122
     81123     81124     81123     81125     81124     81125     81126     81127
     81126     81128     81127     81128     81129     81130     81129     81131
     81130     81131     81132     81133     81132     81134     81133     81134
     81135     81136     81135     81137     81136     81137     81138     81139
     81138     81140     81139     81140     81141     81142     81141     81143
     81142     81143     81144     81145     81144     81146     81145     81146
     81147     81148     81147     81149     81148     81149     81150     81151
     81150     81152     81151     81152     81153     81154     81153     81155
     81154     81155     81156     81157     81156     81158     81157     81158
     81159     81160     81159     81161     81160     81161     81162     81163
     81162     81164     81163     81164     81165     81166     81165     81167
     81166     81167     81168     81169     81168     81170     81169     81170
     81171     81172     81171     81173     81172     81173     81174     81175
     81174     81176     81175     81176     81177     81178     81177     81179
     81178     81179     81180     81181     81180     81182     81181     81182
     81183     81184     81183     81185     81184     81185     81186     81187
     81186     81188     81187     81188     81189     81190     81189     81191
     81190     81191     81192     81193     81192     81194     81193     81194
     81195     81196     81195     81197     81196     81197     81198     81199
     81198     81200     81199     81200     81201     81202     81201     81203
     81202     81203     81204     81205     81204     81206     81205     81206
     81207     81208     81207     81209     81208     81209     81210     81211
     81210     81212     81211     81212     81213     81214     81213     81215
     81214     81215     81216     81217     81216     81218     81217     81218
     81219     81220     81219     81221     81220     81221     81222     81223
     81222     81224     81223     81224     81225     81226     81225     81227
     81226     81227     81228     81229     81228     81230     81229     81230
     81231     81232     81231     81233     81232     81233     81234     81235
     81234     81236     81235     81236     81237     81238     81237     81239
     81238     81239     81240     81241     81240     81242     81241     81242
     81243     81244     81243     81245     81244     81245     81246     81247
     81246     81248     81247     81248     81249     81250     81249     81251
     81250     81251     81252     81253     81252     81254     81253     81254
     81255     81256     81255     81257     81256     81257     81258     81259
     81258     81260     81259     81260     81261     81262     81261     81263
     81262     81263     81264     81265     81264     81266     81265     81266
     81267     81268     81267     81269     81268     81269     81270     81271
     81270     81272     81271     81272     81273     81274     81273     81275
     81274     81275     81276     81277     81276     81278     81277     81278
     81279     81280     81279     81281     81280     81281     81282     81283
     81282     81284     81283     81284     81285     81286     81285     81287
     81286     81287     81288     81289     81288     81290     81289     81290
     81291     81292     81291     81293     81292     81293     81294     81295
     81294     81296     81295     81296     81297     81298     81297     81299
     81298     81299     81300     81301     81300     81302     81301     81302
     81303     81304     81303     81305     81304     81305     81306     81307
     81306     81308     81307     81308     81309     81310     81309     81311
     81310     81311     81312     81313     81312     81314     81313     81314
     81315     81316     81315     81317     81316     81317     81318     81319
     81318     81320     81319     81320     81321     81322     81321     81323
     81322     81323     81324     81325     81324     81326     81325     81326
     81327     81328     81327     81329     81328     81329     81330     81331
     81330     81332     81331     81332     81333     81334     81333     81335
     81334     81335     81336     81337     81336     81338     81337     81338
     81339     81340     81339     81341     81340     81341     81342     81343
     81342     81344     81343     81344     81345     81346     81345     81347
     81346     81347     81348     81349     81348     81350     81349     81350
     81351     81352     81351     81353     81352     81353     81354     81355
     81354     81356     81355     81356     81357     81358     81357     81359
     81358     81359     81360     81361     81360     81362     81361     81362
     81363     81364     81363     81365     81364     81365     81366     81367
     81366     81368     81367     81368     81369     81370     81369     81371
     81370     81371     81372     81373     81372     81374     81373     81374
     81375     81376     81375     81377     81376     81377     81378     81379
     81378     81380     81379     81380     81381     81382     81381     81383
     81382     81383     81384     81385     81384     81386     81385     81386
     81387     81388     81387     81389     81388     81389     81390     81391
     81390     81392     81391     81392     81393     81394     81393     81395
     81394     81395     81396     81397     81396     81398     81397     81398
     81399     81400     81399     81401     81400     81401     81402     81403
     81402     81404     81403     81404

     62574 !NTHETA: angles
         2         1         3         2         1         5         2         1        47
         3         1         5         3         1        47         5         1        47
         1         3         4         1         5         6         1         5         7
         1         5         8         6         5         7         6         5         8
         7         5         8         5         8         9         5         8        39
         9         8        39         8         9        10         8         9        11
        10         9        11         9        11        12         9        11        13
         9        11        14        12        11        13        12        11        14
        13        11        14        11        14        15        11        14        16
        11        14        37        15        14        16        15        14        37
        16        14        37        14        16        17        14        16        18
        14        16        26        17        16        18        17        16        26
        18        16        26        16        18        19        16        18        20
        16        18        21        19        18        20        19        18        21
        20        18        21        18        21        22        18        21        23
        18        21        24        22        21        23        22        21        24
        23        21        24        21        24        25        21        24        26
        21        24        50        25        24        26        25        24        50
        26        24        50        16        26        24        16        26        27
        16        26        31        24        26        27        24        26        31
        27        26        31        26        27        28        26        27        29
        26        27        30        28        27        29        28        27        30
        29        27        30        26        31        32        26        31        33
        26        31        34        32        31        33        32        31        34
        33        31        34        31        34        35        31        34        36
        31        34        37        35        34        36        35        34        37
        36        34        37        14        37        34        14        37        38
        14        37        39        34        37        38        34        37        39
        38        37        39         8        39        37         8        39        40
         8        39        44        37        39        40        37        39        44
        40        39        44        39        40        41        39        40        42
        39        40        43        41        40        42        41        40        43
        42        40        43        39        44        45        39        44        46
        39        44        47        45        44        46        45        44        47
        46        44        47         1        47        44         1        47        48
         1        47        49        44        47        48        44        47        49
        48        47        49        24        50        51        24        50        52
        24        50        56        51        50        52        51        50        56
        52        50        56        50        52        53        50        52        54
        50        52        55        53        52        54        53        52        55
        54        52        55        50        56        57        50        56        58
        50        56        59        57        56        58        57        56        59
        58        56        59        56        59        60        56        59        61
        56        59        62        60        59        61        60        59        62
        61        59        62        59        62        63        59        62        64
        59        62        65        63        62        64        63        62        65
        64        62        65        62        65        66        62        65        67
        62        65        71        66        65        67        66        65        71
        67        65        71        65        67        68        65        67        69
        65        67        70        68        67        69        68        67        70
        69        67        70        65        71        72        65        71        73
        65        71        74        72        71        73        72        71        74
        73        71        74      4146      4145      4149      4146      4145      4153
      4146      4145      4157      4149      4145      4153      4149      4145      4157
      4153      4145      4157      4145      4146      4147      4145      4146      4148
      4145      4146      4161      4147      4146      4148      4147      4146      4161
      4148      4146      4161      4145      4149      4150      4145      4149      4151
      4145      4149      4152      4150      4149      4151      4150      4149      4152
      4151      4149      4152      4145      4153      4154      4145      4153      4155
      4145      4153      4156      4154      4153      4155      4154      4153      4156
      4155      4153      4156      4145      4157      4158      4145      4157      4159
      4145      4157      4160      4158      4157      4159      4158      4157      4160
      4159      4157      4160      4146      4161      4162      4146      4161      4163
      4146      4161      4167      4162      4161      4163      4162      4161      4167
      4163      4161      4167      4165      4164      4166      4165      4164      4167
      4165      4164      4168      4166      4164      4167      4166      4164      4168
      4167      4164      4168      4161      4167      4164      4164      4168      4169
      4168      4169      4170      4168      4169      4171      4168      4169      4172
      4170      4169      4171      4170      4169      4172      4171      4169      4172
      4169      4172      4173      4169      4172      4174      4169      4172      4180
      4173      4172      4174      4173      4172      4180      4174      4172      4180
      4172      4174      4175      4174      4175      4176      4174      4175      4177
      4176      4175      4177      4175      4177      4178      4175      4177      4179
      4175      4177      4189      4178      4177      4179      4178      4177      4189
      4179      4177      4189      4172      4180      4181      4172      4180      4182
      4172      4180      4183      4181      4180      4182      4181      4180      4183
      4182      4180      4183      4180      4183      4184      4183      4184      4185
      4183      4184      4186      4185      4184      4186      4184      4186      4187
      4184      4186      4188      4184      4186      4236      4187      4186      4188
      4187      4186      4236      4188      4186      4236      4177      4189      4190
      4177      4189      4191      4177      4189      4192      4190      4189      4191
      4190      4189      4192      4191      4189      4192      4189      4192      4193
      4189      4192      4194      4189      4192      4195      4193      4192      4194
      4193      4192      4195      4194      4192      4195      4192      4195      4196
      4192      4195      4197      4196      4195      4197      4195      4197      4198
      4195      4197      4199      4198      4197      4199      4197      4199      4200
      4197      4199      4201      4197      4199      4202      4200      4199      4201
      4200      4199      4202      4201      4199      4202      4199      4202      4203
      4199      4202      4204      4203      4202      4204      4202      4204      4205
      4202      4204      4206      4205      4204      4206      4204      4206      4207
      4204      4206      4208      4204      4206      4209      4207      4206      4208
      4207      4206      4209      4208      4206      4209      4206      4209      4210
      4206      4209      4211      4210      4209      4211      4209      4211      4212
      4209      4211      4213      4212      4211      4213      4211      4213      4214
      4211      4213      4215      4211      4213      4216      4214      4213      4215
      4214      4213      4216      4215      4213      4216      4213      4216      4217
      4213      4216      4218      4217      4216      4218      4216      4218      4219
      4216      4218      4220      4219      4218      4220      4218      4220      4221
      4218      4220      4222      4218      4220      4223      4221      4220      4222
      4221      4220      4223      4222      4220      4223      4220      4223      4224
      4220      4223      4225      4220      4223      4226      4224      4223      4225
      4224      4223      4226      4225      4223      4226      4223      4226      4227
      4223      4226      4228      4223      4226      4229      4227      4226      4228
      4227      4226      4229      4228      4226      4229      4226      4229      4230
      4226      4229      4231      4226      4229      4232      4230      4229      4231
      4230      4229      4232      4231      4229      4232      4229      4232      4233
      4229      4232      4234      4229      4232      4235      4233      4232      4234
      4233      4232      4235      4234      4232      4235      4186      4236      4237
      4186      4236      4238      4186      4236      4239      4237      4236      4238
      4237      4236      4239      4238      4236      4239      4236      4239      4240
      4236      4239      4241      4236      4239      4242      4240      4239      4241
      4240      4239      4242      4241      4239      4242      4239      4242      4243
      4239      4242      4244      4239      4242      4245      4243      4242      4244
      4243      4242      4245      4244      4242      4245      4242      4245      4246
      4242      4245      4247      4242      4245      4248      4246      4245      4247
      4246      4245      4248      4247      4245      4248      4245      4248      4249
      4245      4248      4250      4245      4248      4251      4249      4248      4250
      4249      4248      4251      4250      4248      4251      4248      4251      4252
      4248      4251      4253      4248      4251      4254      4252      4251      4253
      4252      4251      4254      4253      4251      4254      4251      4254      4255
      4251      4254      4256      4251      4254      4257      4255      4254      4256
      4255      4254      4257      4256      4254      4257      4254      4257      4258
      4254      4257      4259      4254      4257      4260      4258      4257      4259
      4258      4257      4260      4259      4257      4260      4257      4260      4261
      4257      4260      4262      4257      4260      4263      4261      4260      4262
      4261      4260      4263      4262      4260      4263      4260      4263      4264
      4260      4263      4265      4260      4263      4266      4264      4263      4265
      4264      4263      4266      4265      4263      4266      4263      4266      4267
      4263      4266      4268      4263      4266      4269      4267      4266      4268
      4267      4266      4269      4268      4266      4269      4266      4269      4270
      4266      4269      4271      4266      4269      4272      4270      4269      4271
      4270      4269      4272      4271      4269      4272      4269      4272      4273
      4269      4272      4274      4269      4272      4275      4273      4272      4274
      4273      4272      4275      4274      4272      4275      4272      4275      4276
      4272      4275      4277      4272      4275      4278      4276      4275      4277
      4276      4275      4278      4277      4275      4278      4275      4278      4279
      4275      4278      4280      4275      4278      4281      4279      4278      4280
      4279      4278      4281      4280      4278      4281      4278      4281      4282
      4278      4281      4283      4278      4281      4284      4282      4281      4283
      4282      4281      4284      4283      4281      4284      5826      5825      5830
      5826      5825      5834      5826      5825      5838      5830      5825      5834
      5830      5825      5838      5834      5825      5838      5825      5826      5827
      5825      5826      5828      5825      5826      5829      5827      5826      5828
      5827      5826      5829      5828      5826      5829      5825      5830      5831
      5825      5830      5832      5825      5830      5833      5831      5830      5832
      5831      5830      5833      5832      5830      5833      5825      5834      5835
      5825      5834      5836      5825      5834      5837      5835      5834      5836
      5835      5834      5837      5836      5834      5837      5825      5838      5839
      5825      5838      5840      5825      5838      5841      5839      5838      5840
      5839      5838      5841      5840      5838      5841      5838      5841      5842
      5838      5841      5843      5838      5841      5847      5842      5841      5843
      5842      5841      5847      5843      5841      5847      5845      5844      5846
      5845      5844      5847      5845      5844      5848      5846      5844      5847
      5846      5844      5848      5847      5844      5848      5841      5847      5844
      5844      5848      5849      5848      5849      5850      5848      5849      5851
      5848      5849      5852      5850      5849      5851      5850      5849      5852
      5851      5849      5852      5849      5852      5853      5849      5852      5854
      5849      5852      5860      5853      5852      5854      5853      5852      5860
      5854      5852      5860      5852      5854      5855      5854      5855      5856
      5854      5855      5857      5856      5855      5857      5855      5857      5858
      5855      5857      5859      5855      5857      5869      5858      5857      5859
      5858      5857      5869      5859      5857      5869      5852      5860      5861
      5852      5860      5862      5852      5860      5863      5861      5860      5862
      5861      5860      5863      5862      5860      5863      5860      5863      5864
      5863      5864      5865      5863      5864      5866      5865      5864      5866
      5864      5866      5867      5864      5866      5868      5864      5866      5914
      5867      5866      5868      5867      5866      5914      5868      5866      5914
      5857      5869      5870      5857      5869      5871      5857      5869      5872
      5870      5869      5871      5870      5869      5872      5871      5869      5872
      5869      5872      5873      5869      5872      5874      5869      5872      5875
      5873      5872      5874      5873      5872      5875      5874      5872      5875
      5872      5875      5876      5872      5875      5877      5872      5875      5878
      5876      5875      5877      5876      5875      5878      5877      5875      5878
      5875      5878      5879      5875      5878      5880      5875      5878      5881
      5879      5878      5880      5879      5878      5881      5880      5878      5881
      5878      5881      5882      5878      5881      5883      5878      5881      5884
      5882      5881      5883      5882      5881      5884      5883      5881      5884
      5881      5884      5885      5881      5884      5886      5881      5884      5887
      5885      5884      5886      5885      5884      5887      5886      5884      5887
      5884      5887      5888      5884      5887      5889      5888      5887      5889
      5887      5889      5890      5887      5889      5891      5890      5889      5891
      5889      5891      5892      5889      5891      5893      5889      5891      5894
      5892      5891      5893      5892      5891      5894      5893      5891      5894
      5891      5894      5895      5891      5894      5896      5895      5894      5896
      5894      5896      5897      5894      5896      5898      5897      5896      5898
      5896      5898      5899      5896      5898      5900      5896      5898      5901
      5899      5898      5900      5899      5898      5901      5900      5898      5901
      5898      5901      5902      5898      5901      5903      5898      5901      5904
      5902      5901      5903      5902      5901      5904      5903      5901      5904
      5901      5904      5905      5901      5904      5906      5901      5904      5907
      5905      5904      5906      5905      5904      5907      5906      5904      5907
      5904      5907      5908      5904      5907      5909      5904      5907      5910
      5908      5907      5909      5908      5907      5910      5909      5907      5910
      5907      5910      5911      5907      5910      5912      5907      5910      5913
      5911      5910      5912      5911      5910      5913      5912      5910      5913
      5866      5914      5915      5866      5914      5916      5866      5914      5917
      5915      5914      5916      5915      5914      5917      5916      5914      5917
      5914      5917      5918      5914      5917      5919      5914      5917      5920
      5918      5917      5919      5918      5917      5920      5919      5917      5920
      5917      5920      5921      5917      5920      5922      5917      5920      5923
      5921      5920      5922      5921      5920      5923      5922      5920      5923
      5920      5923      5924      5920      5923      5925      5920      5923      5926
      5924      5923      5925      5924      5923      5926      5925      5923      5926
      5923      5926      5927      5923      5926      5928      5923      5926      5929
      5927      5926      5928      5927      5926      5929      5928      5926      5929
      5926      5929      5930      5926      5929      5931      5926      5929      5932
      5930      5929      5931      5930      5929      5932      5931      5929      5932
      5929      5932      5933      5929      5932      5934      5929      5932      5935
      5933      5932      5934      5933      5932      5935      5934      5932      5935
      5932      5935      5936      5932      5935      5937      5932      5935      5938
      5936      5935      5937      5936      5935      5938      5937      5935      5938
      5935      5938      5939      5935      5938      5940      5935      5938      5941
      5939      5938      5940      5939      5938      5941      5940      5938      5941
      5938      5941      5942      5938      5941      5943      5938      5941      5944
      5942      5941      5943      5942      5941      5944      5943      5941      5944
      5941      5944      5945      5941      5944      5946      5941      5944      5947
      5945      5944      5946      5945      5944      5947      5946      5944      5947
      5944      5947      5948      5944      5947      5949      5944      5947      5950
      5948      5947      5949      5948      5947      5950      5949      5947      5950
      5947      5950      5951      5947      5950      5952      5947      5950      5953
      5951      5950      5952      5951      5950      5953      5952      5950      5953
      5950      5953      5954      5950      5953      5955      5950      5953      5956
      5954      5953      5955      5954      5953      5956      5955      5953      5956
      5953      5956      5957      5953      5956      5958      5953      5956      5959
      5957      5956      5958      5957      5956      5959      5958      5956      5959
      5956      5959      5960      5956      5959      5961      5956      5959      5962
      5960      5959      5961      5960      5959      5962      5961      5959      5962
      7482      7481      7483      7482      7481      7484      7482      7481      7485
      7483      7481      7484      7483      7481      7485      7484      7481      7485
      7481      7485      7486      7481      7485      7487      7481      7485      7490
      7486      7485      7487      7486      7485      7490      7487      7485      7490
      7485      7487      7488      7485      7487      7489      7488      7487      7489
      7485      7490      7491      7485      7490      7492      7485      7490      7496
      7491      7490      7492      7491      7490      7496      7492      7490      7496
      7494      7493      7495      7494      7493      7496      7494      7493      7497
      7495      7493      7496      7495      7493      7497      7496      7493      7497
      7490      7496      7493      7493      7497      7498      7497      7498      7499
      7497      7498      7500      7497      7498      7501      7499      7498      7500
      7499      7498      7501      7500      7498      7501      7498      7501      7502
      7498      7501      7503      7498      7501      7509      7502      7501      7503
      7502      7501      7509      7503      7501      7509      7501      7503      7504
      7503      7504      7505      7503      7504      7506      7505      7504      7506
      7504      7506      7507      7504      7506      7508      7504      7506      7518
      7507      7506      7508      7507      7506      7518      7508      7506      7518
      7501      7509      7510      7501      7509      7511      7501      7509      7512
      7510      7509      7511      7510      7509      7512      7511      7509      7512
      7509      7512      7513      7512      7513      7514      7512      7513      7515
      7514      7513      7515      7513      7515      7516      7513      7515      7517
      7513      7515      7565      7516      7515      7517      7516      7515      7565
      7517      7515      7565      7506      7518      7519      7506      7518      7520
      7506      7518      7521      7519      7518      7520      7519      7518      7521
      7520      7518      7521      7518      7521      7522      7518      7521      7523
      7518      7521      7524      7522      7521      7523      7522      7521      7524
      7523      7521      7524      7521      7524      7525      7521      7524      7526
      7525      7524      7526      7524      7526      7527      7524      7526      7528
      7527      7526      7528      7526      7528      7529      7526      7528      7530
      7526      7528      7531      7529      7528      7530      7529      7528      7531
      7530      7528      7531      7528      7531      7532      7528      7531      7533
      7532      7531      7533      7531      7533      7534      7531      7533      7535
      7534      7533      7535      7533      7535      7536      7533      7535      7537
      7533      7535      7538      7536      7535      7537      7536      7535      7538
      7537      7535      7538      7535      7538      7539      7535      7538      7540
      7539      7538      7540      7538      7540      7541      7538      7540      7542
      7541      7540      7542      7540      7542      7543      7540      7542      7544
      7540      7542      7545      7543      7542      7544      7543      7542      7545
      7544      7542      7545      7542      7545      7546      7542      7545      7547
      7546      7545      7547      7545      7547      7548      7545      7547      7549
      7548      7547      7549      7547      7549      7550      7547      7549      7551
      7547      7549      7552      7550      7549      7551      7550      7549      7552
      7551      7549      7552      7549      7552      7553      7549      7552      7554
      7549      7552      7555      7553      7552      7554      7553      7552      7555
      7554      7552      7555      7552      7555      7556      7552      7555      7557
      7552      7555      7558      7556      7555      7557      7556      7555      7558
      7557      7555      7558      7555      7558      7559      7555      7558      7560
      7555      7558      7561      7559      7558      7560      7559      7558      7561
      7560      7558      7561      7558      7561      7562      7558      7561      7563
      7558      7561      7564      7562      7561      7563      7562      7561      7564
      7563      7561      7564      7515      7565      7566      7515      7565      7567
      7515      7565      7568      7566      7565      7567      7566      7565      7568
      7567      7565      7568      7565      7568      7569      7565      7568      7570
      7565      7568      7571      7569      7568      7570      7569      7568      7571
      7570      7568      7571      7568      7571      7572      7568      7571      7573
      7568      7571      7574      7572      7571      7573      7572      7571      7574
      7573      7571      7574      7571      7574      7575      7571      7574      7576
      7571      7574      7577      7575      7574      7576      7575      7574      7577
      7576      7574      7577      7574      7577      7578      7574      7577      7579
      7574      7577      7580      7578      7577      7579      7578      7577      7580
      7579      7577      7580      7577      7580      7581      7577      7580      7582
      7577      7580      7583      7581      7580      7582      7581      7580      7583
      7582      7580      7583      7580      7583      7584      7580      7583      7585
      7580      7583      7586      7584      7583      7585      7584      7583      7586
      7585      7583      7586      7583      7586      7587      7583      7586      7588
      7583      7586      7589      7587      7586      7588      7587      7586      7589
      7588      7586      7589      7586      7589      7590      7586      7589      7591
      7586      7589      7592      7590      7589      7591      7590      7589      7592
      7591      7589      7592      7589      7592      7593      7589      7592      7594
      7589      7592      7595      7593      7592      7594      7593      7592      7595
      7594      7592      7595      7592      7595      7596      7592      7595      7597
      7592      7595      7598      7596      7595      7597      7596      7595      7598
      7597      7595      7598      7595      7598      7599      7595      7598      7600
      7595      7598      7601      7599      7598      7600      7599      7598      7601
      7600      7598      7601      7598      7601      7602      7598      7601      7603
      7598      7601      7604      7602      7601      7603      7602      7601      7604
      7603      7601      7604      7601      7604      7605      7601      7604      7606
      7601      7604      7607      7605      7604      7606      7605      7604      7607
      7606      7604      7607      7604      7607      7608      7604      7607      7609
      7604      7607      7610      7608      7607      7609      7608      7607      7610
      7609      7607      7610      7607      7610      7611      7607      7610      7612
      7607      7610      7613      7611      7610      7612      7611      7610      7613
      7612      7610      7613      7615      7614      7616      7615      7614      7617
      7615      7614      7618      7616      7614      7617      7616      7614      7618
      7617      7614      7618      7614      7618      7619      7614      7618      7620
      7614      7618      7623      7619      7618      7620      7619      7618      7623
      7620      7618      7623      7618      7620      7621      7618      7620      7622
      7621      7620      7622      7618      7623      7624      7618      7623      7625
      7618      7623      7629      7624      7623      7625      7624      7623      7629
      7625      7623      7629      7627      7626      7628      7627      7626      7629
      7627      7626      7630      7628      7626      7629      7628      7626      7630
      7629      7626      7630      7623      7629      7626      7626      7630      7631
      7630      7631      7632      7630      7631      7633      7630      7631      7634
      7632      7631      7633      7632      7631      7634      7633      7631      7634
      7631      7634      7635      7631      7634      7636      7631      7634      7642
      7635      7634      7636      7635      7634      7642      7636      7634      7642
      7634      7636      7637      7636      7637      7638      7636      7637      7639
      7638      7637      7639      7637      7639      7640      7637      7639      7641
      7637      7639      7651      7640      7639      7641      7640      7639      7651
      7641      7639      7651      7634      7642      7643      7634      7642      7644
      7634      7642      7645      7643      7642      7644      7643      7642      7645
      7644      7642      7645      7642      7645      7646      7645      7646      7647
      7645      7646      7648      7647      7646      7648      7646      7648      7649
      7646      7648      7650      7646      7648      7698      7649      7648      7650
      7649      7648      7698      7650      7648      7698      7639      7651      7652
      7639      7651      7653      7639      7651      7654      7652      7651      7653
      7652      7651      7654      7653      7651      7654      7651      7654      7655
      7651      7654      7656      7651      7654      7657      7655      7654      7656
      7655      7654      7657      7656      7654      7657      7654      7657      7658
      7654      7657      7659      7658      7657      7659      7657      7659      7660
      7657      7659      7661      7660      7659      7661      7659      7661      7662
      7659      7661      7663      7659      7661      7664      7662      7661      7663
      7662      7661      7664      7663      7661      7664      7661      7664      7665
      7661      7664      7666      7665      7664      7666      7664      7666      7667
      7664      7666      7668      7667      7666      7668      7666      7668      7669
      7666      7668      7670      7666      7668      7671      7669      7668      7670
      7669      7668      7671      7670      7668      7671      7668      7671      7672
      7668      7671      7673      7672      7671      7673      7671      7673      7674
      7671      7673      7675      7674      7673      7675      7673      7675      7676
      7673      7675      7677      7673      7675      7678      7676      7675      7677
      7676      7675      7678      7677      7675      7678      7675      7678      7679
      7675      7678      7680      7679      7678      7680      7678      7680      7681
      7678      7680      7682      7681      7680      7682      7680      7682      7683
      7680      7682      7684      7680      7682      7685      7683      7682      7684
      7683      7682      7685      7684      7682      7685      7682      7685      7686
      7682      7685      7687      7682      7685      7688      7686      7685      7687
      7686      7685      7688      7687      7685      7688      7685      7688      7689
      7685      7688      7690      7685      7688      7691      7689      7688      7690
      7689      7688      7691      7690      7688      7691      7688      7691      7692
      7688      7691      7693      7688      7691      7694      7692      7691      7693
      7692      7691      7694      7693      7691      7694      7691      7694      7695
      7691      7694      7696      7691      7694      7697      7695      7694      7696
      7695      7694      7697      7696      7694      7697      7648      7698      7699
      7648      7698      7700      7648      7698      7701      7699      7698      7700
      7699      7698      7701      7700      7698      7701      7698      7701      7702
      7698      7701      7703      7698      7701      7704      7702      7701      7703
      7702      7701      7704      7703      7701      7704      7701      7704      7705
      7701      7704      7706      7701      7704      7707      7705      7704      7706
      7705      7704      7707      7706      7704      7707      7704      7707      7708
      7704      7707      7709      7704      7707      7710      7708      7707      7709
      7708      7707      7710      7709      7707      7710      7707      7710      7711
      7707      7710      7712      7707      7710      7713      7711      7710      7712
      7711      7710      7713      7712      7710      7713      7710      7713      7714
      7710      7713      7715      7710      7713      7716      7714      7713      7715
      7714      7713      7716      7715      7713      7716      7713      7716      7717
      7713      7716      7718      7713      7716      7719      7717      7716      7718
      7717      7716      7719      7718      7716      7719      7716      7719      7720
      7716      7719      7721      7716      7719      7722      7720      7719      7721
      7720      7719      7722      7721      7719      7722      7719      7722      7723
      7719      7722      7724      7719      7722      7725      7723      7722      7724
      7723      7722      7725      7724      7722      7725      7722      7725      7726
      7722      7725      7727      7722      7725      7728      7726      7725      7727
      7726      7725      7728      7727      7725      7728      7725      7728      7729
      7725      7728      7730      7725      7728      7731      7729      7728      7730
      7729      7728      7731      7730      7728      7731      7728      7731      7732
      7728      7731      7733      7728      7731      7734      7732      7731      7733
      7732      7731      7734      7733      7731      7734      7731      7734      7735
      7731      7734      7736      7731      7734      7737      7735      7734      7736
      7735      7734      7737      7736      7734      7737      7734      7737      7738
      7734      7737      7739      7734      7737      7740      7738      7737      7739
      7738      7737      7740      7739      7737      7740      7737      7740      7741
      7737      7740      7742      7737      7740      7743      7741      7740      7742
      7741      7740      7743      7742      7740      7743      7740      7743      7744
      7740      7743      7745      7740      7743      7746      7744      7743      7745
      7744      7743      7746      7745      7743      7746        76        75        77
        76        75        79        76        75       121        77        75        79
        77        75       121        79        75       121        75        77        78
        75        79        80        75        79        81        75        79        82
        80        79        81        80        79        82        81        79        82
        79        82        83        79        82       113        83        82       113
        82        83        84        82        83        85        84        83        85
        83        85        86        83        85        87        83        85        88
        86        85        87        86        85        88        87        85        88
        85        88        89        85        88        90        85        88       111
        89        88        90        89        88       111        90        88       111
        88        90        91        88        90        92        88        90       100
        91        90        92        91        90       100        92        90       100
        90        92        93        90        92        94        90        92        95
        93        92        94        93        92        95        94        92        95
        92        95        96        92        95        97        92        95        98
        96        95        97        96        95        98        97        95        98
        95        98        99        95        98       100        95        98       124
        99        98       100        99        98       124       100        98       124
        90       100        98        90       100       101        90       100       105
        98       100       101        98       100       105       101       100       105
       100       101       102       100       101       103       100       101       104
       102       101       103       102       101       104       103       101       104
       100       105       106       100       105       107       100       105       108
       106       105       107       106       105       108       107       105       108
       105       108       109       105       108       110       105       108       111
       109       108       110       109       108       111       110       108       111
        88       111       108        88       111       112        88       111       113
       108       111       112       108       111       113       112       111       113
        82       113       111        82       113       114        82       113       118
       111       113       114       111       113       118       114       113       118
       113       114       115       113       114       116       113       114       117
       115       114       116       115       114       117       116       114       117
       113       118       119       113       118       120       113       118       121
       119       118       120       119       118       121       120       118       121
        75       121       118        75       121       122        75       121       123
       118       121       122       118       121       123       122       121       123
        98       124       125        98       124       126        98       124       130
       125       124       126       125       124       130       126       124       130
       124       126       127       124       126       128       124       126       129
       127       126       128       127       126       129       128       126       129
       124       130       131       124       130       132       124       130       133
       131       130       132       131       130       133       132       130       133
       130       133       134       130       133       135       130       133       136
       134       133       135       134       133       136       135       133       136
       133       136       137       133       136       138       133       136       139
       137       136       138       137       136       139       138       136       139
       136       139       140       136       139       141       136       139       145
       140       139       141       140       139       145       141       139       145
       139       141       142       139       141       143       139       141       144
       142       141       143       142       141       144       143       141       144
       139       145       146       139       145       147       139       145       148
       146       145       147       146       145       148       147       145       148
      5964      5963      5968      5964      5963      5972      5964      5963      5976
      5968      5963      5972      5968      5963      5976      5972      5963      5976
      5963      5964      5965      5963      5964      5966      5963      5964      5967
      5965      5964      5966      5965      5964      5967      5966      5964      5967
      5963      5968      5969      5963      5968      5970      5963      5968      5971
      5969      5968      5970      5969      5968      5971      5970      5968      5971
      5963      5972      5973      5963      5972      5974      5963      5972      5975
      5973      5972      5974      5973      5972      5975      5974      5972      5975
      5963      5976      5977      5963      5976      5978      5963      5976      5979
      5977      5976      5978      5977      5976      5979      5978      5976      5979
      5976      5979      5980      5976      5979      5981      5976      5979      5985
      5980      5979      5981      5980      5979      5985      5981      5979      5985
      5983      5982      5984      5983      5982      5985      5983      5982      5986
      5984      5982      5985      5984      5982      5986      5985      5982      5986
      5979      5985      5982      5982      5986      5987      5986      5987      5988
      5986      5987      5989      5986      5987      5990      5988      5987      5989
      5988      5987      5990      5989      5987      5990      5987      5990      5991
      5987      5990      5992      5987      5990      5998      5991      5990      5992
      5991      5990      5998      5992      5990      5998      5990      5992      5993
      5992      5993      5994      5992      5993      5995      5994      5993      5995
      5993      5995      5996      5993      5995      5997      5993      5995      6007
      5996      5995      5997      5996      5995      6007      5997      5995      6007
      5990      5998      5999      5990      5998      6000      5990      5998      6001
      5999      5998      6000      5999      5998      6001      6000      5998      6001
      5998      6001      6002      6001      6002      6003      6001      6002      6004
      6003      6002      6004      6002      6004      6005      6002      6004      6006
      6002      6004      6052      6005      6004      6006      6005      6004      6052
      6006      6004      6052      5995      6007      6008      5995      6007      6009
      5995      6007      6010      6008      6007      6009      6008      6007      6010
      6009      6007      6010      6007      6010      6011      6007      6010      6012
      6007      6010      6013      6011      6010      6012      6011      6010      6013
      6012      6010      6013      6010      6013      6014      6010      6013      6015
      6010      6013      6016      6014      6013      6015      6014      6013      6016
      6015      6013      6016      6013      6016      6017      6013      6016      6018
      6013      6016      6019      6017      6016      6018      6017      6016      6019
      6018      6016      6019      6016      6019      6020      6016      6019      6021
      6016      6019      6022      6020      6019      6021      6020      6019      6022
      6021      6019      6022      6019      6022      6023      6019      6022      6024
      6019      6022      6025      6023      6022      6024      6023      6022      6025
      6024      6022      6025      6022      6025      6026      6022      6025      6027
      6026      6025      6027      6025      6027      6028      6025      6027      6029
      6028      6027      6029      6027      6029      6030      6027      6029      6031
      6027      6029      6032      6030      6029      6031      6030      6029      6032
      6031      6029      6032      6029      6032      6033      6029      6032      6034
      6033      6032      6034      6032      6034      6035      6032      6034      6036
      6035      6034      6036      6034      6036      6037      6034      6036      6038
      6034      6036      6039      6037      6036      6038      6037      6036      6039
      6038      6036      6039      6036      6039      6040      6036      6039      6041
      6036      6039      6042      6040      6039      6041      6040      6039      6042
      6041      6039      6042      6039      6042      6043      6039      6042      6044
      6039      6042      6045      6043      6042      6044      6043      6042      6045
      6044      6042      6045      6042      6045      6046      6042      6045      6047
      6042      6045      6048      6046      6045      6047      6046      6045      6048
      6047      6045      6048      6045      6048      6049      6045      6048      6050
      6045      6048      6051      6049      6048      6050      6049      6048      6051
      6050      6048      6051      6004      6052      6053      6004      6052      6054
      6004      6052      6055      6053      6052      6054      6053      6052      6055
      6054      6052      6055      6052      6055      6056      6052      6055      6057
      6052      6055      6058      6056      6055      6057      6056      6055      6058
      6057      6055      6058      6055      6058      6059      6055      6058      6060
      6055      6058      6061      6059      6058      6060      6059      6058      6061
      6060      6058      6061      6058      6061      6062      6058      6061      6063
      6058      6061      6064      6062      6061      6063      6062      6061      6064
      6063      6061      6064      6061      6064      6065      6061      6064      6066
      6061      6064      6067      6065      6064      6066      6065      6064      6067
      6066      6064      6067      6064      6067      6068      6064      6067      6069
      6064      6067      6070      6068      6067      6069      6068      6067      6070
      6069      6067      6070      6067      6070      6071      6067      6070      6072
      6067      6070      6073      6071      6070      6072      6071      6070      6073
      6072      6070      6073      6070      6073      6074      6070      6073      6075
      6070      6073      6076      6074      6073      6075      6074      6073      6076
      6075      6073      6076      6073      6076      6077      6073      6076      6078
      6073      6076      6079      6077      6076      6078      6077      6076      6079
      6078      6076      6079      6076      6079      6080      6076      6079      6081
      6076      6079      6082      6080      6079      6081      6080      6079      6082
      6081      6079      6082      6079      6082      6083      6079      6082      6084
      6079      6082      6085      6083      6082      6084      6083      6082      6085
      6084      6082      6085      6082      6085      6086      6082      6085      6087
      6082      6085      6088      6086      6085      6087      6086      6085      6088
      6087      6085      6088      6085      6088      6089      6085      6088      6090
      6085      6088      6091      6089      6088      6090      6089      6088      6091
      6090      6088      6091      6088      6091      6092      6088      6091      6093
      6088      6091      6094      6092      6091      6093      6092      6091      6094
      6093      6091      6094      6091      6094      6095      6091      6094      6096
      6091      6094      6097      6095      6094      6096      6095      6094      6097
      6096      6094      6097      6094      6097      6098      6094      6097      6099
      6094      6097      6100      6098      6097      6099      6098      6097      6100
      6099      6097      6100     10142     10141     10146     10142     10141     10150
     10142     10141     10154     10146     10141     10150     10146     10141     10154
     10150     10141     10154     10141     10142     10143     10141     10142     10144
     10141     10142     10145     10143     10142     10144     10143     10142     10145
     10144     10142     10145     10141     10146     10147     10141     10146     10148
     10141     10146     10149     10147     10146     10148     10147     10146     10149
     10148     10146     10149     10141     10150     10151     10141     10150     10152
     10141     10150     10153     10151     10150     10152     10151     10150     10153
     10152     10150     10153     10141     10154     10155     10141     10154     10156
     10141     10154     10157     10155     10154     10156     10155     10154     10157
     10156     10154     10157     10154     10157     10158     10154     10157     10159
     10154     10157     10164     10158     10157     10159     10158     10157     10164
     10159     10157     10164     10161     10160     10162     10161     10160     10163
     10161     10160     10164     10162     10160     10163     10162     10160     10164
     10163     10160     10164     10160     10163     10165     10157     10164     10160
     10163     10165     10166     10163     10165     10167     10163     10165     10170
     10166     10165     10167     10166     10165     10170     10167     10165     10170
     10169     10168     10170     10169     10168     10220     10170     10168     10220
     10165     10170     10168     10165     10170     10171     10165     10170     10172
     10168     10170     10171     10168     10170     10172     10171     10170     10172
     10170     10172     10173     10170     10172     10174     10170     10172     10176
     10173     10172     10174     10173     10172     10176     10174     10172     10176
     10172     10174     10175     10172     10176     10177     10172     10176     10178
     10177     10176     10178     10176     10178     10179     10176     10178     10180
     10179     10178     10180     10178     10180     10181     10178     10180     10182
     10178     10180     10183     10181     10180     10182     10181     10180     10183
     10182     10180     10183     10180     10183     10184     10180     10183     10185
     10180     10183     10186     10184     10183     10185     10184     10183     10186
     10185     10183     10186     10183     10186     10187     10183     10186     10188
     10183     10186     10189     10187     10186     10188     10187     10186     10189
     10188     10186     10189     10186     10189     10190     10186     10189     10191
     10186     10189     10192     10190     10189     10191     10190     10189     10192
     10191     10189     10192     10189     10192     10193     10189     10192     10194
     10189     10192     10195     10193     10192     10194     10193     10192     10195
     10194     10192     10195     10192     10195     10196     10192     10195     10197
     10192     10195     10198     10196     10195     10197     10196     10195     10198
     10197     10195     10198     10195     10198     10199     10195     10198     10200
     10195     10198     10201     10199     10198     10200     10199     10198     10201
     10200     10198     10201     10198     10201     10202     10198     10201     10203
     10198     10201     10204     10202     10201     10203     10202     10201     10204
     10203     10201     10204     10201     10204     10205     10201     10204     10206
     10201     10204     10207     10205     10204     10206     10205     10204     10207
     10206     10204     10207     10204     10207     10208     10204     10207     10209
     10204     10207     10210     10208     10207     10209     10208     10207     10210
     10209     10207     10210     10207     10210     10211     10207     10210     10212
     10207     10210     10213     10211     10210     10212     10211     10210     10213
     10212     10210     10213     10210     10213     10214     10210     10213     10215
     10210     10213     10216     10214     10213     10215     10214     10213     10216
     10215     10213     10216     10213     10216     10217     10213     10216     10218
     10213     10216     10219     10217     10216     10218     10217     10216     10219
     10218     10216     10219     10168     10220     10221     10168     10220     10222
     10221     10220     10222     10220     10222     10223     10220     10222     10224
     10220     10222     10225     10223     10222     10224     10223     10222     10225
     10224     10222     10225     10222     10225     10226     10222     10225     10227
     10222     10225     10228     10226     10225     10227     10226     10225     10228
     10227     10225     10228     10225     10228     10229     10225     10228     10230
     10225     10228     10231     10229     10228     10230     10229     10228     10231
     10230     10228     10231     10228     10231     10232     10228     10231     10233
     10228     10231     10234     10232     10231     10233     10232     10231     10234
     10233     10231     10234     10231     10234     10235     10231     10234     10236
     10231     10234     10237     10235     10234     10236     10235     10234     10237
     10236     10234     10237     10234     10237     10238     10234     10237     10239
     10234     10237     10240     10238     10237     10239     10238     10237     10240
     10239     10237     10240     10237     10240     10241     10237     10240     10242
     10237     10240     10243     10241     10240     10242     10241     10240     10243
     10242     10240     10243     10240     10243     10244     10240     10243     10245
     10244     10243     10245     10243     10245     10246     10243     10245     10247
     10246     10245     10247     10245     10247     10248     10245     10247     10249
     10245     10247     10250     10248     10247     10249     10248     10247     10250
     10249     10247     10250     10247     10250     10251     10247     10250     10252
     10247     10250     10253     10251     10250     10252     10251     10250     10253
     10252     10250     10253     10250     10253     10254     10250     10253     10255
     10250     10253     10256     10254     10253     10255     10254     10253     10256
     10255     10253     10256     10253     10256     10257     10253     10256     10258
     10253     10256     10259     10257     10256     10258     10257     10256     10259
     10258     10256     10259     10256     10259     10260     10256     10259     10261
     10256     10259     10262     10260     10259     10261     10260     10259     10262
     10261     10259     10262     10259     10262     10263     10259     10262     10264
     10259     10262     10265     10263     10262     10264     10263     10262     10265
     10264     10262     10265     10262     10265     10266     10262     10265     10267
     10262     10265     10268     10266     10265     10267     10266     10265     10268
     10267     10265     10268     10265     10268     10269     10265     10268     10270
     10265     10268     10271     10269     10268     10270     10269     10268     10271
     10270     10268     10271     15906     15905     15907     15906     15905     15908
     15906     15905     15909     15907     15905     15908     15907     15905     15909
     15908     15905     15909     15905     15909     15910     15905     15909     15911
     15905     15909     15912     15910     15909     15911     15910     15909     15912
     15911     15909     15912     15909     15912     15913     15909     15912     15914
     15909     15912     15918     15913     15912     15914     15913     15912     15918
     15914     15912     15918     15916     15915     15917     15916     15915     15918
     15916     15915     15919     15917     15915     15918     15917     15915     15919
     15918     15915     15919     15912     15918     15915     15915     15919     15920
     15919     15920     15921     15919     15920     15922     15919     15920     15923
     15921     15920     15922     15921     15920     15923     15922     15920     15923
     15920     15923     15924     15920     15923     15925     15920     15923     15931
     15924     15923     15925     15924     15923     15931     15925     15923     15931
     15923     15925     15926     15925     15926     15927     15925     15926     15928
     15927     15926     15928     15926     15928     15929     15926     15928     15930
     15926     15928     15940     15929     15928     15930     15929     15928     15940
     15930     15928     15940     15923     15931     15932     15923     15931     15933
     15923     15931     15934     15932     15931     15933     15932     15931     15934
     15933     15931     15934     15931     15934     15935     15934     15935     15936
     15934     15935     15937     15936     15935     15937     15935     15937     15938
     15935     15937     15939     15935     15937     15987     15938     15937     15939
     15938     15937     15987     15939     15937     15987     15928     15940     15941
     15928     15940     15942     15928     15940     15943     15941     15940     15942
     15941     15940     15943     15942     15940     15943     15940     15943     15944
     15940     15943     15945     15940     15943     15946     15944     15943     15945
     15944     15943     15946     15945     15943     15946     15943     15946     15947
     15943     15946     15948     15947     15946     15948     15946     15948     15949
     15946     15948     15950     15949     15948     15950     15948     15950     15951
     15948     15950     15952     15948     15950     15953     15951     15950     15952
     15951     15950     15953     15952     15950     15953     15950     15953     15954
     15950     15953     15955     15954     15953     15955     15953     15955     15956
     15953     15955     15957     15956     15955     15957     15955     15957     15958
     15955     15957     15959     15955     15957     15960     15958     15957     15959
     15958     15957     15960     15959     15957     15960     15957     15960     15961
     15957     15960     15962     15961     15960     15962     15960     15962     15963
     15960     15962     15964     15963     15962     15964     15962     15964     15965
     15962     15964     15966     15962     15964     15967     15965     15964     15966
     15965     15964     15967     15966     15964     15967     15964     15967     15968
     15964     15967     15969     15968     15967     15969     15967     15969     15970
     15967     15969     15971     15970     15969     15971     15969     15971     15972
     15969     15971     15973     15969     15971     15974     15972     15971     15973
     15972     15971     15974     15973     15971     15974     15971     15974     15975
     15971     15974     15976     15971     15974     15977     15975     15974     15976
     15975     15974     15977     15976     15974     15977     15974     15977     15978
     15974     15977     15979     15974     15977     15980     15978     15977     15979
     15978     15977     15980     15979     15977     15980     15977     15980     15981
     15977     15980     15982     15977     15980     15983     15981     15980     15982
     15981     15980     15983     15982     15980     15983     15980     15983     15984
     15980     15983     15985     15980     15983     15986     15984     15983     15985
     15984     15983     15986     15985     15983     15986     15937     15987     15988
     15937     15987     15989     15937     15987     15990     15988     15987     15989
     15988     15987     15990     15989     15987     15990     15987     15990     15991
     15987     15990     15992     15987     15990     15993     15991     15990     15992
     15991     15990     15993     15992     15990     15993     15990     15993     15994
     15990     15993     15995     15990     15993     15996     15994     15993     15995
     15994     15993     15996     15995     15993     15996     15993     15996     15997
     15993     15996     15998     15993     15996     15999     15997     15996     15998
     15997     15996     15999     15998     15996     15999     15996     15999     16000
     15996     15999     16001     15996     15999     16002     16000     15999     16001
     16000     15999     16002     16001     15999     16002     15999     16002     16003
     15999     16002     16004     15999     16002     16005     16003     16002     16004
     16003     16002     16005     16004     16002     16005     16002     16005     16006
     16002     16005     16007     16002     16005     16008     16006     16005     16007
     16006     16005     16008     16007     16005     16008     16005     16008     16009
     16005     16008     16010     16005     16008     16011     16009     16008     16010
     16009     16008     16011     16010     16008     16011     16008     16011     16012
     16008     16011     16013     16008     16011     16014     16012     16011     16013
     16012     16011     16014     16013     16011     16014     16011     16014     16015
     16011     16014     16016     16011     16014     16017     16015     16014     16016
     16015     16014     16017     16016     16014     16017     16014     16017     16018
     16014     16017     16019     16014     16017     16020     16018     16017     16019
     16018     16017     16020     16019     16017     16020     16017     16020     16021
     16017     16020     16022     16017     16020     16023     16021     16020     16022
     16021     16020     16023     16022     16020     16023     16020     16023     16024
     16020     16023     16025     16020     16023     16026     16024     16023     16025
     16024     16023     16026     16025     16023     16026     16023     16026     16027
     16023     16026     16028     16023     16026     16029     16027     16026     16028
     16027     16026     16029     16028     16026     16029     16026     16029     16030
     16026     16029     16031     16026     16029     16032     16030     16029     16031
     16030     16029     16032     16031     16029     16032     16029     16032     16033
     16029     16032     16034     16029     16032     16035     16033     16032     16034
     16033     16032     16035     16034     16032     16035     10273     10272     10277
     10273     10272     10281     10273     10272     10285     10277     10272     10281
     10277     10272     10285     10281     10272     10285     10272     10273     10274
     10272     10273     10275     10272     10273     10276     10274     10273     10275
     10274     10273     10276     10275     10273     10276     10272     10277     10278
     10272     10277     10279     10272     10277     10280     10278     10277     10279
     10278     10277     10280     10279     10277     10280     10272     10281     10282
     10272     10281     10283     10272     10281     10284     10282     10281     10283
     10282     10281     10284     10283     10281     10284     10272     10285     10286
     10272     10285     10287     10272     10285     10288     10286     10285     10287
     10286     10285     10288     10287     10285     10288     10285     10288     10289
     10285     10288     10290     10285     10288     10295     10289     10288     10290
     10289     10288     10295     10290     10288     10295     10292     10291     10293
     10292     10291     10294     10292     10291     10295     10293     10291     10294
     10293     10291     10295     10294     10291     10295     10291     10294     10296
     10288     10295     10291     10294     10296     10297     10294     10296     10298
     10294     10296     10301     10297     10296     10298     10297     10296     10301
     10298     10296     10301     10300     10299     10301     10300     10299     10351
     10301     10299     10351     10296     10301     10299     10296     10301     10302
     10296     10301     10303     10299     10301     10302     10299     10301     10303
     10302     10301     10303     10301     10303     10304     10301     10303     10305
     10301     10303     10307     10304     10303     10305     10304     10303     10307
     10305     10303     10307     10303     10305     10306     10303     10307     10308
     10303     10307     10309     10308     10307     10309     10307     10309     10310
     10307     10309     10311     10310     10309     10311     10309     10311     10312
     10309     10311     10313     10309     10311     10314     10312     10311     10313
     10312     10311     10314     10313     10311     10314     10311     10314     10315
     10311     10314     10316     10311     10314     10317     10315     10314     10316
     10315     10314     10317     10316     10314     10317     10314     10317     10318
     10314     10317     10319     10314     10317     10320     10318     10317     10319
     10318     10317     10320     10319     10317     10320     10317     10320     10321
     10317     10320     10322     10317     10320     10323     10321     10320     10322
     10321     10320     10323     10322     10320     10323     10320     10323     10324
     10320     10323     10325     10320     10323     10326     10324     10323     10325
     10324     10323     10326     10325     10323     10326     10323     10326     10327
     10323     10326     10328     10323     10326     10329     10327     10326     10328
     10327     10326     10329     10328     10326     10329     10326     10329     10330
     10326     10329     10331     10326     10329     10332     10330     10329     10331
     10330     10329     10332     10331     10329     10332     10329     10332     10333
     10329     10332     10334     10329     10332     10335     10333     10332     10334
     10333     10332     10335     10334     10332     10335     10332     10335     10336
     10332     10335     10337     10332     10335     10338     10336     10335     10337
     10336     10335     10338     10337     10335     10338     10335     10338     10339
     10335     10338     10340     10335     10338     10341     10339     10338     10340
     10339     10338     10341     10340     10338     10341     10338     10341     10342
     10338     10341     10343     10338     10341     10344     10342     10341     10343
     10342     10341     10344     10343     10341     10344     10341     10344     10345
     10341     10344     10346     10341     10344     10347     10345     10344     10346
     10345     10344     10347     10346     10344     10347     10344     10347     10348
     10344     10347     10349     10344     10347     10350     10348     10347     10349
     10348     10347     10350     10349     10347     10350     10299     10351     10352
     10299     10351     10353     10352     10351     10353     10351     10353     10354
     10351     10353     10355     10351     10353     10356     10354     10353     10355
     10354     10353     10356     10355     10353     10356     10353     10356     10357
     10353     10356     10358     10353     10356     10359     10357     10356     10358
     10357     10356     10359     10358     10356     10359     10356     10359     10360
     10356     10359     10361     10356     10359     10362     10360     10359     10361
     10360     10359     10362     10361     10359     10362     10359     10362     10363
     10359     10362     10364     10359     10362     10365     10363     10362     10364
     10363     10362     10365     10364     10362     10365     10362     10365     10366
     10362     10365     10367     10362     10365     10368     10366     10365     10367
     10366     10365     10368     10367     10365     10368     10365     10368     10369
     10365     10368     10370     10365     10368     10371     10369     10368     10370
     10369     10368     10371     10370     10368     10371     10368     10371     10372
     10368     10371     10373     10368     10371     10374     10372     10371     10373
     10372     10371     10374     10373     10371     10374     10371     10374     10375
     10371     10374     10376     10375     10374     10376     10374     10376     10377
     10374     10376     10378     10377     10376     10378     10376     10378     10379
     10376     10378     10380     10376     10378     10381     10379     10378     10380
     10379     10378     10381     10380     10378     10381     10378     10381     10382
     10378     10381     10383     10378     10381     10384     10382     10381     10383
     10382     10381     10384     10383     10381     10384     10381     10384     10385
     10381     10384     10386     10381     10384     10387     10385     10384     10386
     10385     10384     10387     10386     10384     10387     10384     10387     10388
     10384     10387     10389     10384     10387     10390     10388     10387     10389
     10388     10387     10390     10389     10387     10390     10387     10390     10391
     10387     10390     10392     10387     10390     10393     10391     10390     10392
     10391     10390     10393     10392     10390     10393     10390     10393     10394
     10390     10393     10395     10390     10393     10396     10394     10393     10395
     10394     10393     10396     10395     10393     10396     10393     10396     10397
     10393     10396     10398     10393     10396     10399     10397     10396     10398
     10397     10396     10399     10398     10396     10399     10396     10399     10400
     10396     10399     10401     10396     10399     10402     10400     10399     10401
     10400     10399     10402     10401     10399     10402     19574     19573     19575
     19574     19573     19576     19574     19573     19577     19575     19573     19576
     19575     19573     19577     19576     19573     19577     19573     19577     19578
     19573     19577     19579     19573     19577     19580     19578     19577     19579
     19578     19577     19580     19579     19577     19580     19577     19580     19581
     19577     19580     19582     19577     19580     19586     19581     19580     19582
     19581     19580     19586     19582     19580     19586     19584     19583     19585
     19584     19583     19586     19584     19583     19587     19585     19583     19586
     19585     19583     19587     19586     19583     19587     19580     19586     19583
     19583     19587     19588     19587     19588     19589     19587     19588     19590
     19587     19588     19591     19589     19588     19590     19589     19588     19591
     19590     19588     19591     19588     19591     19592     19588     19591     19593
     19588     19591     19599     19592     19591     19593     19592     19591     19599
     19593     19591     19599     19591     19593     19594     19593     19594     19595
     19593     19594     19596     19595     19594     19596     19594     19596     19597
     19594     19596     19598     19594     19596     19608     19597     19596     19598
     19597     19596     19608     19598     19596     19608     19591     19599     19600
     19591     19599     19601     19591     19599     19602     19600     19599     19601
     19600     19599     19602     19601     19599     19602     19599     19602     19603
     19602     19603     19604     19602     19603     19605     19604     19603     19605
     19603     19605     19606     19603     19605     19607     19603     19605     19655
     19606     19605     19607     19606     19605     19655     19607     19605     19655
     19596     19608     19609     19596     19608     19610     19596     19608     19611
     19609     19608     19610     19609     19608     19611     19610     19608     19611
     19608     19611     19612     19608     19611     19613     19608     19611     19614
     19612     19611     19613     19612     19611     19614     19613     19611     19614
     19611     19614     19615     19611     19614     19616     19611     19614     19617
     19615     19614     19616     19615     19614     19617     19616     19614     19617
     19614     19617     19618     19614     19617     19619     19614     19617     19620
     19618     19617     19619     19618     19617     19620     19619     19617     19620
     19617     19620     19621     19617     19620     19622     19617     19620     19623
     19621     19620     19622     19621     19620     19623     19622     19620     19623
     19620     19623     19624     19620     19623     19625     19620     19623     19626
     19624     19623     19625     19624     19623     19626     19625     19623     19626
     19623     19626     19627     19623     19626     19628     19627     19626     19628
     19626     19628     19629     19626     19628     19630     19629     19628     19630
     19628     19630     19631     19628     19630     19632     19628     19630     19633
     19631     19630     19632     19631     19630     19633     19632     19630     19633
     19630     19633     19634     19630     19633     19635     19630     19633     19636
     19634     19633     19635     19634     19633     19636     19635     19633     19636
     19633     19636     19637     19633     19636     19638     19633     19636     19639
     19637     19636     19638     19637     19636     19639     19638     19636     19639
     19636     19639     19640     19636     19639     19641     19636     19639     19642
     19640     19639     19641     19640     19639     19642     19641     19639     19642
     19639     19642     19643     19639     19642     19644     19639     19642     19645
     19643     19642     19644     19643     19642     19645     19644     19642     19645
     19642     19645     19646     19642     19645     19647     19642     19645     19648
     19646     19645     19647     19646     19645     19648     19647     19645     19648
     19645     19648     19649     19645     19648     19650     19645     19648     19651
     19649     19648     19650     19649     19648     19651     19650     19648     19651
     19648     19651     19652     19648     19651     19653     19648     19651     19654
     19652     19651     19653     19652     19651     19654     19653     19651     19654
     19605     19655     19656     19605     19655     19657     19605     19655     19658
     19656     19655     19657     19656     19655     19658     19657     19655     19658
     19655     19658     19659     19655     19658     19660     19655     19658     19661
     19659     19658     19660     19659     19658     19661     19660     19658     19661
     19658     19661     19662     19658     19661     19663     19658     19661     19664
     19662     19661     19663     19662     19661     19664     19663     19661     19664
     19661     19664     19665     19661     19664     19666     19661     19664     19667
     19665     19664     19666     19665     19664     19667     19666     19664     19667
     19664     19667     19668     19664     19667     19669     19664     19667     19670
     19668     19667     19669     19668     19667     19670     19669     19667     19670
     19667     19670     19671     19667     19670     19672     19667     19670     19673
     19671     19670     19672     19671     19670     19673     19672     19670     19673
     19670     19673     19674     19670     19673     19675     19670     19673     19676
     19674     19673     19675     19674     19673     19676     19675     19673     19676
     19673     19676     19677     19673     19676     19678     19673     19676     19679
     19677     19676     19678     19677     19676     19679     19678     19676     19679
     19676     19679     19680     19676     19679     19681     19676     19679     19682
     19680     19679     19681     19680     19679     19682     19681     19679     19682
     19679     19682     19683     19679     19682     19684     19679     19682     19685
     19683     19682     19684     19683     19682     19685     19684     19682     19685
     19682     19685     19686     19682     19685     19687     19682     19685     19688
     19686     19685     19687     19686     19685     19688     19687     19685     19688
     19685     19688     19689     19685     19688     19690     19685     19688     19691
     19689     19688     19690     19689     19688     19691     19690     19688     19691
     19688     19691     19692     19688     19691     19693     19688     19691     19694
     19692     19691     19693     19692     19691     19694     19693     19691     19694
     19691     19694     19695     19691     19694     19696     19691     19694     19697
     19695     19694     19696     19695     19694     19697     19696     19694     19697
     19694     19697     19698     19694     19697     19699     19694     19697     19700
     19698     19697     19699     19698     19697     19700     19699     19697     19700
     19697     19700     19701     19697     19700     19702     19697     19700     19703
     19701     19700     19702     19701     19700     19703     19702     19700     19703
     10404     10403     10408     10404     10403     10412     10404     10403     10416
     10408     10403     10412     10408     10403     10416     10412     10403     10416
     10403     10404     10405     10403     10404     10406     10403     10404     10407
     10405     10404     10406     10405     10404     10407     10406     10404     10407
     10403     10408     10409     10403     10408     10410     10403     10408     10411
     10409     10408     10410     10409     10408     10411     10410     10408     10411
     10403     10412     10413     10403     10412     10414     10403     10412     10415
     10413     10412     10414     10413     10412     10415     10414     10412     10415
     10403     10416     10417     10403     10416     10418     10403     10416     10419
     10417     10416     10418     10417     10416     10419     10418     10416     10419
     10416     10419     10420     10416     10419     10421     10416     10419     10426
     10420     10419     10421     10420     10419     10426     10421     10419     10426
     10423     10422     10424     10423     10422     10425     10423     10422     10426
     10424     10422     10425     10424     10422     10426     10425     10422     10426
     10422     10425     10427     10419     10426     10422     10425     10427     10428
     10425     10427     10429     10425     10427     10432     10428     10427     10429
     10428     10427     10432     10429     10427     10432     10431     10430     10432
     10431     10430     10482     10432     10430     10482     10427     10432     10430
     10427     10432     10433     10427     10432     10434     10430     10432     10433
     10430     10432     10434     10433     10432     10434     10432     10434     10435
     10432     10434     10436     10432     10434     10438     10435     10434     10436
     10435     10434     10438     10436     10434     10438     10434     10436     10437
     10434     10438     10439     10434     10438     10440     10439     10438     10440
     10438     10440     10441     10438     10440     10442     10441     10440     10442
     10440     10442     10443     10440     10442     10444     10440     10442     10445
     10443     10442     10444     10443     10442     10445     10444     10442     10445
     10442     10445     10446     10442     10445     10447     10442     10445     10448
     10446     10445     10447     10446     10445     10448     10447     10445     10448
     10445     10448     10449     10445     10448     10450     10445     10448     10451
     10449     10448     10450     10449     10448     10451     10450     10448     10451
     10448     10451     10452     10448     10451     10453     10448     10451     10454
     10452     10451     10453     10452     10451     10454     10453     10451     10454
     10451     10454     10455     10451     10454     10456     10451     10454     10457
     10455     10454     10456     10455     10454     10457     10456     10454     10457
     10454     10457     10458     10454     10457     10459     10454     10457     10460
     10458     10457     10459     10458     10457     10460     10459     10457     10460
     10457     10460     10461     10457     10460     10462     10457     10460     10463
     10461     10460     10462     10461     10460     10463     10462     10460     10463
     10460     10463     10464     10460     10463     10465     10460     10463     10466
     10464     10463     10465     10464     10463     10466     10465     10463     10466
     10463     10466     10467     10463     10466     10468     10463     10466     10469
     10467     10466     10468     10467     10466     10469     10468     10466     10469
     10466     10469     10470     10466     10469     10471     10466     10469     10472
     10470     10469     10471     10470     10469     10472     10471     10469     10472
     10469     10472     10473     10469     10472     10474     10469     10472     10475
     10473     10472     10474     10473     10472     10475     10474     10472     10475
     10472     10475     10476     10472     10475     10477     10472     10475     10478
     10476     10475     10477     10476     10475     10478     10477     10475     10478
     10475     10478     10479     10475     10478     10480     10475     10478     10481
     10479     10478     10480     10479     10478     10481     10480     10478     10481
     10430     10482     10483     10430     10482     10484     10483     10482     10484
     10482     10484     10485     10482     10484     10486     10482     10484     10487
     10485     10484     10486     10485     10484     10487     10486     10484     10487
     10484     10487     10488     10484     10487     10489     10484     10487     10490
     10488     10487     10489     10488     10487     10490     10489     10487     10490
     10487     10490     10491     10487     10490     10492     10487     10490     10493
     10491     10490     10492     10491     10490     10493     10492     10490     10493
     10490     10493     10494     10490     10493     10495     10490     10493     10496
     10494     10493     10495     10494     10493     10496     10495     10493     10496
     10493     10496     10497     10493     10496     10498     10493     10496     10499
     10497     10496     10498     10497     10496     10499     10498     10496     10499
     10496     10499     10500     10496     10499     10501     10496     10499     10502
     10500     10499     10501     10500     10499     10502     10501     10499     10502
     10499     10502     10503     10499     10502     10504     10499     10502     10505
     10503     10502     10504     10503     10502     10505     10504     10502     10505
     10502     10505     10506     10502     10505     10507     10506     10505     10507
     10505     10507     10508     10505     10507     10509     10508     10507     10509
     10507     10509     10510     10507     10509     10511     10507     10509     10512
     10510     10509     10511     10510     10509     10512     10511     10509     10512
     10509     10512     10513     10509     10512     10514     10509     10512     10515
     10513     10512     10514     10513     10512     10515     10514     10512     10515
     10512     10515     10516     10512     10515     10517     10512     10515     10518
     10516     10515     10517     10516     10515     10518     10517     10515     10518
     10515     10518     10519     10515     10518     10520     10515     10518     10521
     10519     10518     10520     10519     10518     10521     10520     10518     10521
     10518     10521     10522     10518     10521     10523     10518     10521     10524
     10522     10521     10523     10522     10521     10524     10523     10521     10524
     10521     10524     10525     10521     10524     10526     10521     10524     10527
     10525     10524     10526     10525     10524     10527     10526     10524     10527
     10524     10527     10528     10524     10527     10529     10524     10527     10530
     10528     10527     10529     10528     10527     10530     10529     10527     10530
     10527     10530     10531     10527     10530     10532     10527     10530     10533
     10531     10530     10532     10531     10530     10533     10532     10530     10533
     10535     10534     10539     10535     10534     10543     10535     10534     10547
     10539     10534     10543     10539     10534     10547     10543     10534     10547
     10534     10535     10536     10534     10535     10537     10534     10535     10538
     10536     10535     10537     10536     10535     10538     10537     10535     10538
     10534     10539     10540     10534     10539     10541     10534     10539     10542
     10540     10539     10541     10540     10539     10542     10541     10539     10542
     10534     10543     10544     10534     10543     10545     10534     10543     10546
     10544     10543     10545     10544     10543     10546     10545     10543     10546
     10534     10547     10548     10534     10547     10549     10534     10547     10550
     10548     10547     10549     10548     10547     10550     10549     10547     10550
     10547     10550     10551     10547     10550     10552     10547     10550     10557
     10551     10550     10552     10551     10550     10557     10552     10550     10557
     10554     10553     10555     10554     10553     10556     10554     10553     10557
     10555     10553     10556     10555     10553     10557     10556     10553     10557
     10553     10556     10558     10550     10557     10553     10556     10558     10559
     10556     10558     10560     10556     10558     10563     10559     10558     10560
     10559     10558     10563     10560     10558     10563     10562     10561     10563
     10562     10561     10613     10563     10561     10613     10558     10563     10561
     10558     10563     10564     10558     10563     10565     10561     10563     10564
     10561     10563     10565     10564     10563     10565     10563     10565     10566
     10563     10565     10567     10563     10565     10569     10566     10565     10567
     10566     10565     10569     10567     10565     10569     10565     10567     10568
     10565     10569     10570     10565     10569     10571     10570     10569     10571
     10569     10571     10572     10569     10571     10573     10572     10571     10573
     10571     10573     10574     10571     10573     10575     10571     10573     10576
     10574     10573     10575     10574     10573     10576     10575     10573     10576
     10573     10576     10577     10573     10576     10578     10573     10576     10579
     10577     10576     10578     10577     10576     10579     10578     10576     10579
     10576     10579     10580     10576     10579     10581     10576     10579     10582
     10580     10579     10581     10580     10579     10582     10581     10579     10582
     10579     10582     10583     10579     10582     10584     10579     10582     10585
     10583     10582     10584     10583     10582     10585     10584     10582     10585
     10582     10585     10586     10582     10585     10587     10582     10585     10588
     10586     10585     10587     10586     10585     10588     10587     10585     10588
     10585     10588     10589     10585     10588     10590     10585     10588     10591
     10589     10588     10590     10589     10588     10591     10590     10588     10591
     10588     10591     10592     10588     10591     10593     10588     10591     10594
     10592     10591     10593     10592     10591     10594     10593     10591     10594
     10591     10594     10595     10591     10594     10596     10591     10594     10597
     10595     10594     10596     10595     10594     10597     10596     10594     10597
     10594     10597     10598     10594     10597     10599     10594     10597     10600
     10598     10597     10599     10598     10597     10600     10599     10597     10600
     10597     10600     10601     10597     10600     10602     10597     10600     10603
     10601     10600     10602     10601     10600     10603     10602     10600     10603
     10600     10603     10604     10600     10603     10605     10600     10603     10606
     10604     10603     10605     10604     10603     10606     10605     10603     10606
     10603     10606     10607     10603     10606     10608     10603     10606     10609
     10607     10606     10608     10607     10606     10609     10608     10606     10609
     10606     10609     10610     10606     10609     10611     10606     10609     10612
     10610     10609     10611     10610     10609     10612     10611     10609     10612
     10561     10613     10614     10561     10613     10615     10614     10613     10615
     10613     10615     10616     10613     10615     10617     10613     10615     10618
     10616     10615     10617     10616     10615     10618     10617     10615     10618
     10615     10618     10619     10615     10618     10620     10615     10618     10621
     10619     10618     10620     10619     10618     10621     10620     10618     10621
     10618     10621     10622     10618     10621     10623     10618     10621     10624
     10622     10621     10623     10622     10621     10624     10623     10621     10624
     10621     10624     10625     10621     10624     10626     10621     10624     10627
     10625     10624     10626     10625     10624     10627     10626     10624     10627
     10624     10627     10628     10624     10627     10629     10624     10627     10630
     10628     10627     10629     10628     10627     10630     10629     10627     10630
     10627     10630     10631     10627     10630     10632     10627     10630     10633
     10631     10630     10632     10631     10630     10633     10632     10630     10633
     10630     10633     10634     10630     10633     10635     10630     10633     10636
     10634     10633     10635     10634     10633     10636     10635     10633     10636
     10633     10636     10637     10633     10636     10638     10637     10636     10638
     10636     10638     10639     10636     10638     10640     10639     10638     10640
     10638     10640     10641     10638     10640     10642     10638     10640     10643
     10641     10640     10642     10641     10640     10643     10642     10640     10643
     10640     10643     10644     10640     10643     10645     10640     10643     10646
     10644     10643     10645     10644     10643     10646     10645     10643     10646
     10643     10646     10647     10643     10646     10648     10643     10646     10649
     10647     10646     10648     10647     10646     10649     10648     10646     10649
     10646     10649     10650     10646     10649     10651     10646     10649     10652
     10650     10649     10651     10650     10649     10652     10651     10649     10652
     10649     10652     10653     10649     10652     10654     10649     10652     10655
     10653     10652     10654     10653     10652     10655     10654     10652     10655
     10652     10655     10656     10652     10655     10657     10652     10655     10658
     10656     10655     10657     10656     10655     10658     10657     10655     10658
     10655     10658     10659     10655     10658     10660     10655     10658     10661
     10659     10658     10660     10659     10658     10661     10660     10658     10661
     10658     10661     10662     10658     10661     10663     10658     10661     10664
     10662     10661     10663     10662     10661     10664     10663     10661     10664
     19705     19704     19706     19705     19704     19707     19705     19704     19708
     19706     19704     19707     19706     19704     19708     19707     19704     19708
     19704     19708     19709     19704     19708     19710     19704     19708     19711
     19709     19708     19710     19709     19708     19711     19710     19708     19711
     19708     19711     19712     19708     19711     19713     19708     19711     19717
     19712     19711     19713     19712     19711     19717     19713     19711     19717
     19715     19714     19716     19715     19714     19717     19715     19714     19718
     19716     19714     19717     19716     19714     19718     19717     19714     19718
     19711     19717     19714     19714     19718     19719     19718     19719     19720
     19718     19719     19721     19718     19719     19722     19720     19719     19721
     19720     19719     19722     19721     19719     19722     19719     19722     19723
     19719     19722     19724     19719     19722     19730     19723     19722     19724
     19723     19722     19730     19724     19722     19730     19722     19724     19725
     19724     19725     19726     19724     19725     19727     19726     19725     19727
     19725     19727     19728     19725     19727     19729     19725     19727     19739
     19728     19727     19729     19728     19727     19739     19729     19727     19739
     19722     19730     19731     19722     19730     19732     19722     19730     19733
     19731     19730     19732     19731     19730     19733     19732     19730     19733
     19730     19733     19734     19733     19734     19735     19733     19734     19736
     19735     19734     19736     19734     19736     19737     19734     19736     19738
     19734     19736     19786     19737     19736     19738     19737     19736     19786
     19738     19736     19786     19727     19739     19740     19727     19739     19741
     19727     19739     19742     19740     19739     19741     19740     19739     19742
     19741     19739     19742     19739     19742     19743     19739     19742     19744
     19739     19742     19745     19743     19742     19744     19743     19742     19745
     19744     19742     19745     19742     19745     19746     19742     19745     19747
     19742     19745     19748     19746     19745     19747     19746     19745     19748
     19747     19745     19748     19745     19748     19749     19745     19748     19750
     19745     19748     19751     19749     19748     19750     19749     19748     19751
     19750     19748     19751     19748     19751     19752     19748     19751     19753
     19748     19751     19754     19752     19751     19753     19752     19751     19754
     19753     19751     19754     19751     19754     19755     19751     19754     19756
     19751     19754     19757     19755     19754     19756     19755     19754     19757
     19756     19754     19757     19754     19757     19758     19754     19757     19759
     19758     19757     19759     19757     19759     19760     19757     19759     19761
     19760     19759     19761     19759     19761     19762     19759     19761     19763
     19759     19761     19764     19762     19761     19763     19762     19761     19764
     19763     19761     19764     19761     19764     19765     19761     19764     19766
     19761     19764     19767     19765     19764     19766     19765     19764     19767
     19766     19764     19767     19764     19767     19768     19764     19767     19769
     19764     19767     19770     19768     19767     19769     19768     19767     19770
     19769     19767     19770     19767     19770     19771     19767     19770     19772
     19767     19770     19773     19771     19770     19772     19771     19770     19773
     19772     19770     19773     19770     19773     19774     19770     19773     19775
     19770     19773     19776     19774     19773     19775     19774     19773     19776
     19775     19773     19776     19773     19776     19777     19773     19776     19778
     19773     19776     19779     19777     19776     19778     19777     19776     19779
     19778     19776     19779     19776     19779     19780     19776     19779     19781
     19776     19779     19782     19780     19779     19781     19780     19779     19782
     19781     19779     19782     19779     19782     19783     19779     19782     19784
     19779     19782     19785     19783     19782     19784     19783     19782     19785
     19784     19782     19785     19736     19786     19787     19736     19786     19788
     19736     19786     19789     19787     19786     19788     19787     19786     19789
     19788     19786     19789     19786     19789     19790     19786     19789     19791
     19786     19789     19792     19790     19789     19791     19790     19789     19792
     19791     19789     19792     19789     19792     19793     19789     19792     19794
     19789     19792     19795     19793     19792     19794     19793     19792     19795
     19794     19792     19795     19792     19795     19796     19792     19795     19797
     19792     19795     19798     19796     19795     19797     19796     19795     19798
     19797     19795     19798     19795     19798     19799     19795     19798     19800
     19795     19798     19801     19799     19798     19800     19799     19798     19801
     19800     19798     19801     19798     19801     19802     19798     19801     19803
     19798     19801     19804     19802     19801     19803     19802     19801     19804
     19803     19801     19804     19801     19804     19805     19801     19804     19806
     19801     19804     19807     19805     19804     19806     19805     19804     19807
     19806     19804     19807     19804     19807     19808     19804     19807     19809
     19804     19807     19810     19808     19807     19809     19808     19807     19810
     19809     19807     19810     19807     19810     19811     19807     19810     19812
     19807     19810     19813     19811     19810     19812     19811     19810     19813
     19812     19810     19813     19810     19813     19814     19810     19813     19815
     19810     19813     19816     19814     19813     19815     19814     19813     19816
     19815     19813     19816     19813     19816     19817     19813     19816     19818
     19813     19816     19819     19817     19816     19818     19817     19816     19819
     19818     19816     19819     19816     19819     19820     19816     19819     19821
     19816     19819     19822     19820     19819     19821     19820     19819     19822
     19821     19819     19822     19819     19822     19823     19819     19822     19824
     19819     19822     19825     19823     19822     19824     19823     19822     19825
     19824     19822     19825     19822     19825     19826     19822     19825     19827
     19822     19825     19828     19826     19825     19827     19826     19825     19828
     19827     19825     19828     19825     19828     19829     19825     19828     19830
     19825     19828     19831     19829     19828     19830     19829     19828     19831
     19830     19828     19831     19828     19831     19832     19828     19831     19833
     19828     19831     19834     19832     19831     19833     19832     19831     19834
     19833     19831     19834      7748      7747      7749      7748      7747      7750
      7748      7747      7751      7749      7747      7750      7749      7747      7751
      7750      7747      7751      7747      7751      7752      7747      7751      7753
      7747      7751      7756      7752      7751      7753      7752      7751      7756
      7753      7751      7756      7751      7753      7754      7751      7753      7755
      7754      7753      7755      7751      7756      7757      7751      7756      7758
      7751      7756      7762      7757      7756      7758      7757      7756      7762
      7758      7756      7762      7760      7759      7761      7760      7759      7762
      7760      7759      7763      7761      7759      7762      7761      7759      7763
      7762      7759      7763      7756      7762      7759      7759      7763      7764
      7763      7764      7765      7763      7764      7766      7763      7764      7767
      7765      7764      7766      7765      7764      7767      7766      7764      7767
      7764      7767      7768      7764      7767      7769      7764      7767      7775
      7768      7767      7769      7768      7767      7775      7769      7767      7775
      7767      7769      7770      7769      7770      7771      7769      7770      7772
      7771      7770      7772      7770      7772      7773      7770      7772      7774
      7770      7772      7784      7773      7772      7774      7773      7772      7784
      7774      7772      7784      7767      7775      7776      7767      7775      7777
      7767      7775      7778      7776      7775      7777      7776      7775      7778
      7777      7775      7778      7775      7778      7779      7778      7779      7780
      7778      7779      7781      7780      7779      7781      7779      7781      7782
      7779      7781      7783      7779      7781      7831      7782      7781      7783
      7782      7781      7831      7783      7781      7831      7772      7784      7785
      7772      7784      7786      7772      7784      7787      7785      7784      7786
      7785      7784      7787      7786      7784      7787      7784      7787      7788
      7784      7787      7789      7784      7787      7790      7788      7787      7789
      7788      7787      7790      7789      7787      7790      7787      7790      7791
      7787      7790      7792      7791      7790      7792      7790      7792      7793
      7790      7792      7794      7793      7792      7794      7792      7794      7795
      7792      7794      7796      7792      7794      7797      7795      7794      7796
      7795      7794      7797      7796      7794      7797      7794      7797      7798
      7794      7797      7799      7798      7797      7799      7797      7799      7800
      7797      7799      7801      7800      7799      7801      7799      7801      7802
      7799      7801      7803      7799      7801      7804      7802      7801      7803
      7802      7801      7804      7803      7801      7804      7801      7804      7805
      7801      7804      7806      7805      7804      7806      7804      7806      7807
      7804      7806      7808      7807      7806      7808      7806      7808      7809
      7806      7808      7810      7806      7808      7811      7809      7808      7810
      7809      7808      7811      7810      7808      7811      7808      7811      7812
      7808      7811      7813      7812      7811      7813      7811      7813      7814
      7811      7813      7815      7814      7813      7815      7813      7815      7816
      7813      7815      7817      7813      7815      7818      7816      7815      7817
      7816      7815      7818      7817      7815      7818      7815      7818      7819
      7815      7818      7820      7815      7818      7821      7819      7818      7820
      7819      7818      7821      7820      7818      7821      7818      7821      7822
      7818      7821      7823      7818      7821      7824      7822      7821      7823
      7822      7821      7824      7823      7821      7824      7821      7824      7825
      7821      7824      7826      7821      7824      7827      7825      7824      7826
      7825      7824      7827      7826      7824      7827      7824      7827      7828
      7824      7827      7829      7824      7827      7830      7828      7827      7829
      7828      7827      7830      7829      7827      7830      7781      7831      7832
      7781      7831      7833      7781      7831      7834      7832      7831      7833
      7832      7831      7834      7833      7831      7834      7831      7834      7835
      7831      7834      7836      7831      7834      7837      7835      7834      7836
      7835      7834      7837      7836      7834      7837      7834      7837      7838
      7834      7837      7839      7834      7837      7840      7838      7837      7839
      7838      7837      7840      7839      7837      7840      7837      7840      7841
      7837      7840      7842      7837      7840      7843      7841      7840      7842
      7841      7840      7843      7842      7840      7843      7840      7843      7844
      7840      7843      7845      7840      7843      7846      7844      7843      7845
      7844      7843      7846      7845      7843      7846      7843      7846      7847
      7843      7846      7848      7843      7846      7849      7847      7846      7848
      7847      7846      7849      7848      7846      7849      7846      7849      7850
      7846      7849      7851      7846      7849      7852      7850      7849      7851
      7850      7849      7852      7851      7849      7852      7849      7852      7853
      7849      7852      7854      7849      7852      7855      7853      7852      7854
      7853      7852      7855      7854      7852      7855      7852      7855      7856
      7852      7855      7857      7852      7855      7858      7856      7855      7857
      7856      7855      7858      7857      7855      7858      7855      7858      7859
      7855      7858      7860      7855      7858      7861      7859      7858      7860
      7859      7858      7861      7860      7858      7861      7858      7861      7862
      7858      7861      7863      7858      7861      7864      7862      7861      7863
      7862      7861      7864      7863      7861      7864      7861      7864      7865
      7861      7864      7866      7861      7864      7867      7865      7864      7866
      7865      7864      7867      7866      7864      7867      7864      7867      7868
      7864      7867      7869      7864      7867      7870      7868      7867      7869
      7868      7867      7870      7869      7867      7870      7867      7870      7871
      7867      7870      7872      7867      7870      7873      7871      7870      7872
      7871      7870      7873      7872      7870      7873      7870      7873      7874
      7870      7873      7875      7870      7873      7876      7874      7873      7875
      7874      7873      7876      7875      7873      7876      7873      7876      7877
      7873      7876      7878      7873      7876      7879      7877      7876      7878
      7877      7876      7879      7878      7876      7879      4286      4285      4289
      4286      4285      4293      4286      4285      4297      4289      4285      4293
      4289      4285      4297      4293      4285      4297      4285      4286      4287
      4285      4286      4288      4285      4286      4301      4287      4286      4288
      4287      4286      4301      4288      4286      4301      4285      4289      4290
      4285      4289      4291      4285      4289      4292      4290      4289      4291
      4290      4289      4292      4291      4289      4292      4285      4293      4294
      4285      4293      4295      4285      4293      4296      4294      4293      4295
      4294      4293      4296      4295      4293      4296      4285      4297      4298
      4285      4297      4299      4285      4297      4300      4298      4297      4299
      4298      4297      4300      4299      4297      4300      4286      4301      4302
      4286      4301      4303      4286      4301      4307      4302      4301      4303
      4302      4301      4307      4303      4301      4307      4305      4304      4306
      4305      4304      4307      4305      4304      4308      4306      4304      4307
      4306      4304      4308      4307      4304      4308      4301      4307      4304
      4304      4308      4309      4308      4309      4310      4308      4309      4311
      4308      4309      4312      4310      4309      4311      4310      4309      4312
      4311      4309      4312      4309      4312      4313      4309      4312      4314
      4309      4312      4320      4313      4312      4314      4313      4312      4320
      4314      4312      4320      4312      4314      4315      4314      4315      4316
      4314      4315      4317      4316      4315      4317      4315      4317      4318
      4315      4317      4319      4315      4317      4329      4318      4317      4319
      4318      4317      4329      4319      4317      4329      4312      4320      4321
      4312      4320      4322      4312      4320      4323      4321      4320      4322
      4321      4320      4323      4322      4320      4323      4320      4323      4324
      4323      4324      4325      4323      4324      4326      4325      4324      4326
      4324      4326      4327      4324      4326      4328      4324      4326      4376
      4327      4326      4328      4327      4326      4376      4328      4326      4376
      4317      4329      4330      4317      4329      4331      4317      4329      4332
      4330      4329      4331      4330      4329      4332      4331      4329      4332
      4329      4332      4333      4329      4332      4334      4329      4332      4335
      4333      4332      4334      4333      4332      4335      4334      4332      4335
      4332      4335      4336      4332      4335      4337      4336      4335      4337
      4335      4337      4338      4335      4337      4339      4338      4337      4339
      4337      4339      4340      4337      4339      4341      4337      4339      4342
      4340      4339      4341      4340      4339      4342      4341      4339      4342
      4339      4342      4343      4339      4342      4344      4343      4342      4344
      4342      4344      4345      4342      4344      4346      4345      4344      4346
      4344      4346      4347      4344      4346      4348      4344      4346      4349
      4347      4346      4348      4347      4346      4349      4348      4346      4349
      4346      4349      4350      4346      4349      4351      4350      4349      4351
      4349      4351      4352      4349      4351      4353      4352      4351      4353
      4351      4353      4354      4351      4353      4355      4351      4353      4356
      4354      4353      4355      4354      4353      4356      4355      4353      4356
      4353      4356      4357      4353      4356      4358      4357      4356      4358
      4356      4358      4359      4356      4358      4360      4359      4358      4360
      4358      4360      4361      4358      4360      4362      4358      4360      4363
      4361      4360      4362      4361      4360      4363      4362      4360      4363
      4360      4363      4364      4360      4363      4365      4360      4363      4366
      4364      4363      4365      4364      4363      4366      4365      4363      4366
      4363      4366      4367      4363      4366      4368      4363      4366      4369
      4367      4366      4368      4367      4366      4369      4368      4366      4369
      4366      4369      4370      4366      4369      4371      4366      4369      4372
      4370      4369      4371      4370      4369      4372      4371      4369      4372
      4369      4372      4373      4369      4372      4374      4369      4372      4375
      4373      4372      4374      4373      4372      4375      4374      4372      4375
      4326      4376      4377      4326      4376      4378      4326      4376      4379
      4377      4376      4378      4377      4376      4379      4378      4376      4379
      4376      4379      4380      4376      4379      4381      4376      4379      4382
      4380      4379      4381      4380      4379      4382      4381      4379      4382
      4379      4382      4383      4379      4382      4384      4379      4382      4385
      4383      4382      4384      4383      4382      4385      4384      4382      4385
      4382      4385      4386      4382      4385      4387      4382      4385      4388
      4386      4385      4387      4386      4385      4388      4387      4385      4388
      4385      4388      4389      4385      4388      4390      4385      4388      4391
      4389      4388      4390      4389      4388      4391      4390      4388      4391
      4388      4391      4392      4388      4391      4393      4388      4391      4394
      4392      4391      4393      4392      4391      4394      4393      4391      4394
      4391      4394      4395      4391      4394      4396      4391      4394      4397
      4395      4394      4396      4395      4394      4397      4396      4394      4397
      4394      4397      4398      4394      4397      4399      4394      4397      4400
      4398      4397      4399      4398      4397      4400      4399      4397      4400
      4397      4400      4401      4397      4400      4402      4397      4400      4403
      4401      4400      4402      4401      4400      4403      4402      4400      4403
      4400      4403      4404      4400      4403      4405      4400      4403      4406
      4404      4403      4405      4404      4403      4406      4405      4403      4406
      4403      4406      4407      4403      4406      4408      4403      4406      4409
      4407      4406      4408      4407      4406      4409      4408      4406      4409
      4406      4409      4410      4406      4409      4411      4406      4409      4412
      4410      4409      4411      4410      4409      4412      4411      4409      4412
      4409      4412      4413      4409      4412      4414      4409      4412      4415
      4413      4412      4414      4413      4412      4415      4414      4412      4415
      4412      4415      4416      4412      4415      4417      4412      4415      4418
      4416      4415      4417      4416      4415      4418      4417      4415      4418
      4415      4418      4419      4415      4418      4420      4415      4418      4421
      4419      4418      4420      4419      4418      4421      4420      4418      4421
      4418      4421      4422      4418      4421      4423      4418      4421      4424
      4422      4421      4423      4422      4421      4424      4423      4421      4424
       150       149       151       150       149       153       150       149       195
       151       149       153       151       149       195       153       149       195
       149       151       152       149       153       154       149       153       155
       149       153       156       154       153       155       154       153       156
       155       153       156       153       156       157       153       156       187
       157       156       187       156       157       158       156       157       159
       158       157       159       157       159       160       157       159       161
       157       159       162       160       159       161       160       159       162
       161       159       162       159       162       163       159       162       164
       159       162       185       163       162       164       163       162       185
       164       162       185       162       164       165       162       164       166
       162       164       174       165       164       166       165       164       174
       166       164       174       164       166       167       164       166       168
       164       166       169       167       166       168       167       166       169
       168       166       169       166       169       170       166       169       171
       166       169       172       170       169       171       170       169       172
       171       169       172       169       172       173       169       172       174
       169       172       198       173       172       174       173       172       198
       174       172       198       164       174       172       164       174       175
       164       174       179       172       174       175       172       174       179
       175       174       179       174       175       176       174       175       177
       174       175       178       176       175       177       176       175       178
       177       175       178       174       179       180       174       179       181
       174       179       182       180       179       181       180       179       182
       181       179       182       179       182       183       179       182       184
       179       182       185       183       182       184       183       182       185
       184       182       185       162       185       182       162       185       186
       162       185       187       182       185       186       182       185       187
       186       185       187       156       187       185       156       187       188
       156       187       192       185       187       188       185       187       192
       188       187       192       187       188       189       187       188       190
       187       188       191       189       188       190       189       188       191
       190       188       191       187       192       193       187       192       194
       187       192       195       193       192       194       193       192       195
       194       192       195       149       195       192       149       195       196
       149       195       197       192       195       196       192       195       197
       196       195       197       172       198       199       172       198       200
       172       198       204       199       198       200       199       198       204
       200       198       204       198       200       201       198       200       202
       198       200       203       201       200       202       201       200       203
       202       200       203       198       204       205       198       204       206
       198       204       207       205       204       206       205       204       207
       206       204       207       204       207       208       204       207       209
       204       207       210       208       207       209       208       207       210
       209       207       210       207       210       211       207       210       212
       207       210       213       211       210       212       211       210       213
       212       210       213       210       213       214       210       213       215
       210       213       219       214       213       215       214       213       219
       215       213       219       213       215       216       213       215       217
       213       215       218       216       215       217       216       215       218
       217       215       218       213       219       220       213       219       221
       213       219       222       220       219       221       220       219       222
       221       219       222     10666     10665     10670     10666     10665     10674
     10666     10665     10678     10670     10665     10674     10670     10665     10678
     10674     10665     10678     10665     10666     10667     10665     10666     10668
     10665     10666     10669     10667     10666     10668     10667     10666     10669
     10668     10666     10669     10665     10670     10671     10665     10670     10672
     10665     10670     10673     10671     10670     10672     10671     10670     10673
     10672     10670     10673     10665     10674     10675     10665     10674     10676
     10665     10674     10677     10675     10674     10676     10675     10674     10677
     10676     10674     10677     10665     10678     10679     10665     10678     10680
     10665     10678     10681     10679     10678     10680     10679     10678     10681
     10680     10678     10681     10678     10681     10682     10678     10681     10683
     10678     10681     10688     10682     10681     10683     10682     10681     10688
     10683     10681     10688     10685     10684     10686     10685     10684     10687
     10685     10684     10688     10686     10684     10687     10686     10684     10688
     10687     10684     10688     10684     10687     10689     10681     10688     10684
     10687     10689     10690     10687     10689     10691     10687     10689     10694
     10690     10689     10691     10690     10689     10694     10691     10689     10694
     10693     10692     10694     10693     10692     10744     10694     10692     10744
     10689     10694     10692     10689     10694     10695     10689     10694     10696
     10692     10694     10695     10692     10694     10696     10695     10694     10696
     10694     10696     10697     10694     10696     10698     10694     10696     10700
     10697     10696     10698     10697     10696     10700     10698     10696     10700
     10696     10698     10699     10696     10700     10701     10696     10700     10702
     10701     10700     10702     10700     10702     10703     10700     10702     10704
     10703     10702     10704     10702     10704     10705     10702     10704     10706
     10702     10704     10707     10705     10704     10706     10705     10704     10707
     10706     10704     10707     10704     10707     10708     10704     10707     10709
     10704     10707     10710     10708     10707     10709     10708     10707     10710
     10709     10707     10710     10707     10710     10711     10707     10710     10712
     10707     10710     10713     10711     10710     10712     10711     10710     10713
     10712     10710     10713     10710     10713     10714     10710     10713     10715
     10710     10713     10716     10714     10713     10715     10714     10713     10716
     10715     10713     10716     10713     10716     10717     10713     10716     10718
     10713     10716     10719     10717     10716     10718     10717     10716     10719
     10718     10716     10719     10716     10719     10720     10716     10719     10721
     10716     10719     10722     10720     10719     10721     10720     10719     10722
     10721     10719     10722     10719     10722     10723     10719     10722     10724
     10719     10722     10725     10723     10722     10724     10723     10722     10725
     10724     10722     10725     10722     10725     10726     10722     10725     10727
     10722     10725     10728     10726     10725     10727     10726     10725     10728
     10727     10725     10728     10725     10728     10729     10725     10728     10730
     10725     10728     10731     10729     10728     10730     10729     10728     10731
     10730     10728     10731     10728     10731     10732     10728     10731     10733
     10728     10731     10734     10732     10731     10733     10732     10731     10734
     10733     10731     10734     10731     10734     10735     10731     10734     10736
     10731     10734     10737     10735     10734     10736     10735     10734     10737
     10736     10734     10737     10734     10737     10738     10734     10737     10739
     10734     10737     10740     10738     10737     10739     10738     10737     10740
     10739     10737     10740     10737     10740     10741     10737     10740     10742
     10737     10740     10743     10741     10740     10742     10741     10740     10743
     10742     10740     10743     10692     10744     10745     10692     10744     10746
     10745     10744     10746     10744     10746     10747     10744     10746     10748
     10744     10746     10749     10747     10746     10748     10747     10746     10749
     10748     10746     10749     10746     10749     10750     10746     10749     10751
     10746     10749     10752     10750     10749     10751     10750     10749     10752
     10751     10749     10752     10749     10752     10753     10749     10752     10754
     10749     10752     10755     10753     10752     10754     10753     10752     10755
     10754     10752     10755     10752     10755     10756     10752     10755     10757
     10752     10755     10758     10756     10755     10757     10756     10755     10758
     10757     10755     10758     10755     10758     10759     10755     10758     10760
     10755     10758     10761     10759     10758     10760     10759     10758     10761
     10760     10758     10761     10758     10761     10762     10758     10761     10763
     10758     10761     10764     10762     10761     10763     10762     10761     10764
     10763     10761     10764     10761     10764     10765     10761     10764     10766
     10761     10764     10767     10765     10764     10766     10765     10764     10767
     10766     10764     10767     10764     10767     10768     10764     10767     10769
     10768     10767     10769     10767     10769     10770     10767     10769     10771
     10770     10769     10771     10769     10771     10772     10769     10771     10773
     10769     10771     10774     10772     10771     10773     10772     10771     10774
     10773     10771     10774     10771     10774     10775     10771     10774     10776
     10771     10774     10777     10775     10774     10776     10775     10774     10777
     10776     10774     10777     10774     10777     10778     10774     10777     10779
     10774     10777     10780     10778     10777     10779     10778     10777     10780
     10779     10777     10780     10777     10780     10781     10777     10780     10782
     10777     10780     10783     10781     10780     10782     10781     10780     10783
     10782     10780     10783     10780     10783     10784     10780     10783     10785
     10780     10783     10786     10784     10783     10785     10784     10783     10786
     10785     10783     10786     10783     10786     10787     10783     10786     10788
     10783     10786     10789     10787     10786     10788     10787     10786     10789
     10788     10786     10789     10786     10789     10790     10786     10789     10791
     10786     10789     10792     10790     10789     10791     10790     10789     10792
     10791     10789     10792     10789     10792     10793     10789     10792     10794
     10789     10792     10795     10793     10792     10794     10793     10792     10795
     10794     10792     10795      6102      6101      6106      6102      6101      6110
      6102      6101      6114      6106      6101      6110      6106      6101      6114
      6110      6101      6114      6101      6102      6103      6101      6102      6104
      6101      6102      6105      6103      6102      6104      6103      6102      6105
      6104      6102      6105      6101      6106      6107      6101      6106      6108
      6101      6106      6109      6107      6106      6108      6107      6106      6109
      6108      6106      6109      6101      6110      6111      6101      6110      6112
      6101      6110      6113      6111      6110      6112      6111      6110      6113
      6112      6110      6113      6101      6114      6115      6101      6114      6116
      6101      6114      6117      6115      6114      6116      6115      6114      6117
      6116      6114      6117      6114      6117      6118      6114      6117      6119
      6114      6117      6123      6118      6117      6119      6118      6117      6123
      6119      6117      6123      6121      6120      6122      6121      6120      6123
      6121      6120      6124      6122      6120      6123      6122      6120      6124
      6123      6120      6124      6117      6123      6120      6120      6124      6125
      6124      6125      6126      6124      6125      6127      6124      6125      6128
      6126      6125      6127      6126      6125      6128      6127      6125      6128
      6125      6128      6129      6125      6128      6130      6125      6128      6136
      6129      6128      6130      6129      6128      6136      6130      6128      6136
      6128      6130      6131      6130      6131      6132      6130      6131      6133
      6132      6131      6133      6131      6133      6134      6131      6133      6135
      6131      6133      6145      6134      6133      6135      6134      6133      6145
      6135      6133      6145      6128      6136      6137      6128      6136      6138
      6128      6136      6139      6137      6136      6138      6137      6136      6139
      6138      6136      6139      6136      6139      6140      6139      6140      6141
      6139      6140      6142      6141      6140      6142      6140      6142      6143
      6140      6142      6144      6140      6142      6190      6143      6142      6144
      6143      6142      6190      6144      6142      6190      6133      6145      6146
      6133      6145      6147      6133      6145      6148      6146      6145      6147
      6146      6145      6148      6147      6145      6148      6145      6148      6149
      6145      6148      6150      6145      6148      6151      6149      6148      6150
      6149      6148      6151      6150      6148      6151      6148      6151      6152
      6148      6151      6153      6148      6151      6154      6152      6151      6153
      6152      6151      6154      6153      6151      6154      6151      6154      6155
      6151      6154      6156      6151      6154      6157      6155      6154      6156
      6155      6154      6157      6156      6154      6157      6154      6157      6158
      6154      6157      6159      6154      6157      6160      6158      6157      6159
      6158      6157      6160      6159      6157      6160      6157      6160      6161
      6157      6160      6162      6157      6160      6163      6161      6160      6162
      6161      6160      6163      6162      6160      6163      6160      6163      6164
      6160      6163      6165      6164      6163      6165      6163      6165      6166
      6163      6165      6167      6166      6165      6167      6165      6167      6168
      6165      6167      6169      6165      6167      6170      6168      6167      6169
      6168      6167      6170      6169      6167      6170      6167      6170      6171
      6167      6170      6172      6171      6170      6172      6170      6172      6173
      6170      6172      6174      6173      6172      6174      6172      6174      6175
      6172      6174      6176      6172      6174      6177      6175      6174      6176
      6175      6174      6177      6176      6174      6177      6174      6177      6178
      6174      6177      6179      6174      6177      6180      6178      6177      6179
      6178      6177      6180      6179      6177      6180      6177      6180      6181
      6177      6180      6182      6177      6180      6183      6181      6180      6182
      6181      6180      6183      6182      6180      6183      6180      6183      6184
      6180      6183      6185      6180      6183      6186      6184      6183      6185
      6184      6183      6186      6185      6183      6186      6183      6186      6187
      6183      6186      6188      6183      6186      6189      6187      6186      6188
      6187      6186      6189      6188      6186      6189      6142      6190      6191
      6142      6190      6192      6142      6190      6193      6191      6190      6192
      6191      6190      6193      6192      6190      6193      6190      6193      6194
      6190      6193      6195      6190      6193      6196      6194      6193      6195
      6194      6193      6196      6195      6193      6196      6193      6196      6197
      6193      6196      6198      6193      6196      6199      6197      6196      6198
      6197      6196      6199      6198      6196      6199      6196      6199      6200
      6196      6199      6201      6196      6199      6202      6200      6199      6201
      6200      6199      6202      6201      6199      6202      6199      6202      6203
      6199      6202      6204      6199      6202      6205      6203      6202      6204
      6203      6202      6205      6204      6202      6205      6202      6205      6206
      6202      6205      6207      6202      6205      6208      6206      6205      6207
      6206      6205      6208      6207      6205      6208      6205      6208      6209
      6205      6208      6210      6205      6208      6211      6209      6208      6210
      6209      6208      6211      6210      6208      6211      6208      6211      6212
      6208      6211      6213      6208      6211      6214      6212      6211      6213
      6212      6211      6214      6213      6211      6214      6211      6214      6215
      6211      6214      6216      6211      6214      6217      6215      6214      6216
      6215      6214      6217      6216      6214      6217      6214      6217      6218
      6214      6217      6219      6214      6217      6220      6218      6217      6219
      6218      6217      6220      6219      6217      6220      6217      6220      6221
      6217      6220      6222      6217      6220      6223      6221      6220      6222
      6221      6220      6223      6222      6220      6223      6220      6223      6224
      6220      6223      6225      6220      6223      6226      6224      6223      6225
      6224      6223      6226      6225      6223      6226      6223      6226      6227
      6223      6226      6228      6223      6226      6229      6227      6226      6228
      6227      6226      6229      6228      6226      6229      6226      6229      6230
      6226      6229      6231      6226      6229      6232      6230      6229      6231
      6230      6229      6232      6231      6229      6232      6229      6232      6233
      6229      6232      6234      6229      6232      6235      6233      6232      6234
      6233      6232      6235      6234      6232      6235      6232      6235      6236
      6232      6235      6237      6232      6235      6238      6236      6235      6237
      6236      6235      6238      6237      6235      6238       224       223       225
       224       223       227       224       223       269       225       223       227
       225       223       269       227       223       269       223       225       226
       223       227       228       223       227       229       223       227       230
       228       227       229       228       227       230       229       227       230
       227       230       231       227       230       261       231       230       261
       230       231       232       230       231       233       232       231       233
       231       233       234       231       233       235       231       233       236
       234       233       235       234       233       236       235       233       236
       233       236       237       233       236       238       233       236       259
       237       236       238       237       236       259       238       236       259
       236       238       239       236       238       240       236       238       248
       239       238       240       239       238       248       240       238       248
       238       240       241       238       240       242       238       240       243
       241       240       242       241       240       243       242       240       243
       240       243       244       240       243       245       240       243       246
       244       243       245       244       243       246       245       243       246
       243       246       247       243       246       248       243       246       272
       247       246       248       247       246       272       248       246       272
       238       248       246       238       248       249       238       248       253
       246       248       249       246       248       253       249       248       253
       248       249       250       248       249       251       248       249       252
       250       249       251       250       249       252       251       249       252
       248       253       254       248       253       255       248       253       256
       254       253       255       254       253       256       255       253       256
       253       256       257       253       256       258       253       256       259
       257       256       258       257       256       259       258       256       259
       236       259       256       236       259       260       236       259       261
       256       259       260       256       259       261       260       259       261
       230       261       259       230       261       262       230       261       266
       259       261       262       259       261       266       262       261       266
       261       262       263       261       262       264       261       262       265
       263       262       264       263       262       265       264       262       265
       261       266       267       261       266       268       261       266       269
       267       266       268       267       266       269       268       266       269
       223       269       266       223       269       270       223       269       271
       266       269       270       266       269       271       270       269       271
       246       272       273       246       272       274       246       272       278
       273       272       274       273       272       278       274       272       278
       272       274       275       272       274       276       272       274       277
       275       274       276       275       274       277       276       274       277
       272       278       279       272       278       280       272       278       281
       279       278       280       279       278       281       280       278       281
       278       281       282       278       281       283       278       281       284
       282       281       283       282       281       284       283       281       284
       281       284       285       281       284       286       281       284       287
       285       284       286       285       284       287       286       284       287
       284       287       288       284       287       289       284       287       293
       288       287       289       288       287       293       289       287       293
       287       289       290       287       289       291       287       289       292
       290       289       291       290       289       292       291       289       292
       287       293       294       287       293       295       287       293       296
       294       293       295       294       293       296       295       293       296
       298       297       299       298       297       301       298       297       343
       299       297       301       299       297       343       301       297       343
       297       299       300       297       301       302       297       301       303
       297       301       304       302       301       303       302       301       304
       303       301       304       301       304       305       301       304       335
       305       304       335       304       305       306       304       305       307
       306       305       307       305       307       308       305       307       309
       305       307       310       308       307       309       308       307       310
       309       307       310       307       310       311       307       310       312
       307       310       333       311       310       312       311       310       333
       312       310       333       310       312       313       310       312       314
       310       312       322       313       312       314       313       312       322
       314       312       322       312       314       315       312       314       316
       312       314       317       315       314       316       315       314       317
       316       314       317       314       317       318       314       317       319
       314       317       320       318       317       319       318       317       320
       319       317       320       317       320       321       317       320       322
       317       320       346       321       320       322       321       320       346
       322       320       346       312       322       320       312       322       323
       312       322       327       320       322       323       320       322       327
       323       322       327       322       323       324       322       323       325
       322       323       326       324       323       325       324       323       326
       325       323       326       322       327       328       322       327       329
       322       327       330       328       327       329       328       327       330
       329       327       330       327       330       331       327       330       332
       327       330       333       331       330       332       331       330       333
       332       330       333       310       333       330       310       333       334
       310       333       335       330       333       334       330       333       335
       334       333       335       304       335       333       304       335       336
       304       335       340       333       335       336       333       335       340
       336       335       340       335       336       337       335       336       338
       335       336       339       337       336       338       337       336       339
       338       336       339       335       340       341       335       340       342
       335       340       343       341       340       342       341       340       343
       342       340       343       297       343       340       297       343       344
       297       343       345       340       343       344       340       343       345
       344       343       345       320       346       347       320       346       348
       320       346       352       347       346       348       347       346       352
       348       346       352       346       348       349       346       348       350
       346       348       351       349       348       350       349       348       351
       350       348       351       346       352       353       346       352       354
       346       352       355       353       352       354       353       352       355
       354       352       355       352       355       356       352       355       357
       352       355       358       356       355       357       356       355       358
       357       355       358       355       358       359       355       358       360
       355       358       361       359       358       360       359       358       361
       360       358       361       358       361       362       358       361       363
       358       361       367       362       361       363       362       361       367
       363       361       367       361       363       364       361       363       365
       361       363       366       364       363       365       364       363       366
       365       363       366       361       367       368       361       367       369
       361       367       370       368       367       369       368       367       370
       369       367       370     16037     16036     16038     16037     16036     16039
     16037     16036     16040     16038     16036     16039     16038     16036     16040
     16039     16036     16040     16036     16040     16041     16036     16040     16042
     16036     16040     16043     16041     16040     16042     16041     16040     16043
     16042     16040     16043     16040     16043     16044     16040     16043     16045
     16040     16043     16049     16044     16043     16045     16044     16043     16049
     16045     16043     16049     16047     16046     16048     16047     16046     16049
     16047     16046     16050     16048     16046     16049     16048     16046     16050
     16049     16046     16050     16043     16049     16046     16046     16050     16051
     16050     16051     16052     16050     16051     16053     16050     16051     16054
     16052     16051     16053     16052     16051     16054     16053     16051     16054
     16051     16054     16055     16051     16054     16056     16051     16054     16062
     16055     16054     16056     16055     16054     16062     16056     16054     16062
     16054     16056     16057     16056     16057     16058     16056     16057     16059
     16058     16057     16059     16057     16059     16060     16057     16059     16061
     16057     16059     16071     16060     16059     16061     16060     16059     16071
     16061     16059     16071     16054     16062     16063     16054     16062     16064
     16054     16062     16065     16063     16062     16064     16063     16062     16065
     16064     16062     16065     16062     16065     16066     16065     16066     16067
     16065     16066     16068     16067     16066     16068     16066     16068     16069
     16066     16068     16070     16066     16068     16118     16069     16068     16070
     16069     16068     16118     16070     16068     16118     16059     16071     16072
     16059     16071     16073     16059     16071     16074     16072     16071     16073
     16072     16071     16074     16073     16071     16074     16071     16074     16075
     16071     16074     16076     16071     16074     16077     16075     16074     16076
     16075     16074     16077     16076     16074     16077     16074     16077     16078
     16074     16077     16079     16078     16077     16079     16077     16079     16080
     16077     16079     16081     16080     16079     16081     16079     16081     16082
     16079     16081     16083     16079     16081     16084     16082     16081     16083
     16082     16081     16084     16083     16081     16084     16081     16084     16085
     16081     16084     16086     16085     16084     16086     16084     16086     16087
     16084     16086     16088     16087     16086     16088     16086     16088     16089
     16086     16088     16090     16086     16088     16091     16089     16088     16090
     16089     16088     16091     16090     16088     16091     16088     16091     16092
     16088     16091     16093     16092     16091     16093     16091     16093     16094
     16091     16093     16095     16094     16093     16095     16093     16095     16096
     16093     16095     16097     16093     16095     16098     16096     16095     16097
     16096     16095     16098     16097     16095     16098     16095     16098     16099
     16095     16098     16100     16099     16098     16100     16098     16100     16101
     16098     16100     16102     16101     16100     16102     16100     16102     16103
     16100     16102     16104     16100     16102     16105     16103     16102     16104
     16103     16102     16105     16104     16102     16105     16102     16105     16106
     16102     16105     16107     16102     16105     16108     16106     16105     16107
     16106     16105     16108     16107     16105     16108     16105     16108     16109
     16105     16108     16110     16105     16108     16111     16109     16108     16110
     16109     16108     16111     16110     16108     16111     16108     16111     16112
     16108     16111     16113     16108     16111     16114     16112     16111     16113
     16112     16111     16114     16113     16111     16114     16111     16114     16115
     16111     16114     16116     16111     16114     16117     16115     16114     16116
     16115     16114     16117     16116     16114     16117     16068     16118     16119
     16068     16118     16120     16068     16118     16121     16119     16118     16120
     16119     16118     16121     16120     16118     16121     16118     16121     16122
     16118     16121     16123     16118     16121     16124     16122     16121     16123
     16122     16121     16124     16123     16121     16124     16121     16124     16125
     16121     16124     16126     16121     16124     16127     16125     16124     16126
     16125     16124     16127     16126     16124     16127     16124     16127     16128
     16124     16127     16129     16124     16127     16130     16128     16127     16129
     16128     16127     16130     16129     16127     16130     16127     16130     16131
     16127     16130     16132     16127     16130     16133     16131     16130     16132
     16131     16130     16133     16132     16130     16133     16130     16133     16134
     16130     16133     16135     16130     16133     16136     16134     16133     16135
     16134     16133     16136     16135     16133     16136     16133     16136     16137
     16133     16136     16138     16133     16136     16139     16137     16136     16138
     16137     16136     16139     16138     16136     16139     16136     16139     16140
     16136     16139     16141     16136     16139     16142     16140     16139     16141
     16140     16139     16142     16141     16139     16142     16139     16142     16143
     16139     16142     16144     16139     16142     16145     16143     16142     16144
     16143     16142     16145     16144     16142     16145     16142     16145     16146
     16142     16145     16147     16142     16145     16148     16146     16145     16147
     16146     16145     16148     16147     16145     16148     16145     16148     16149
     16145     16148     16150     16145     16148     16151     16149     16148     16150
     16149     16148     16151     16150     16148     16151     16148     16151     16152
     16148     16151     16153     16148     16151     16154     16152     16151     16153
     16152     16151     16154     16153     16151     16154     16151     16154     16155
     16151     16154     16156     16151     16154     16157     16155     16154     16156
     16155     16154     16157     16156     16154     16157     16154     16157     16158
     16154     16157     16159     16154     16157     16160     16158     16157     16159
     16158     16157     16160     16159     16157     16160     16157     16160     16161
     16157     16160     16162     16157     16160     16163     16161     16160     16162
     16161     16160     16163     16162     16160     16163     16160     16163     16164
     16160     16163     16165     16160     16163     16166     16164     16163     16165
     16164     16163     16166     16165     16163     16166     10797     10796     10801
     10797     10796     10805     10797     10796     10809     10801     10796     10805
     10801     10796     10809     10805     10796     10809     10796     10797     10798
     10796     10797     10799     10796     10797     10800     10798     10797     10799
     10798     10797     10800     10799     10797     10800     10796     10801     10802
     10796     10801     10803     10796     10801     10804     10802     10801     10803
     10802     10801     10804     10803     10801     10804     10796     10805     10806
     10796     10805     10807     10796     10805     10808     10806     10805     10807
     10806     10805     10808     10807     10805     10808     10796     10809     10810
     10796     10809     10811     10796     10809     10812     10810     10809     10811
     10810     10809     10812     10811     10809     10812     10809     10812     10813
     10809     10812     10814     10809     10812     10819     10813     10812     10814
     10813     10812     10819     10814     10812     10819     10816     10815     10817
     10816     10815     10818     10816     10815     10819     10817     10815     10818
     10817     10815     10819     10818     10815     10819     10815     10818     10820
     10812     10819     10815     10818     10820     10821     10818     10820     10822
     10818     10820     10825     10821     10820     10822     10821     10820     10825
     10822     10820     10825     10824     10823     10825     10824     10823     10875
     10825     10823     10875     10820     10825     10823     10820     10825     10826
     10820     10825     10827     10823     10825     10826     10823     10825     10827
     10826     10825     10827     10825     10827     10828     10825     10827     10829
     10825     10827     10831     10828     10827     10829     10828     10827     10831
     10829     10827     10831     10827     10829     10830     10827     10831     10832
     10827     10831     10833     10832     10831     10833     10831     10833     10834
     10831     10833     10835     10834     10833     10835     10833     10835     10836
     10833     10835     10837     10833     10835     10838     10836     10835     10837
     10836     10835     10838     10837     10835     10838     10835     10838     10839
     10835     10838     10840     10835     10838     10841     10839     10838     10840
     10839     10838     10841     10840     10838     10841     10838     10841     10842
     10838     10841     10843     10838     10841     10844     10842     10841     10843
     10842     10841     10844     10843     10841     10844     10841     10844     10845
     10841     10844     10846     10841     10844     10847     10845     10844     10846
     10845     10844     10847     10846     10844     10847     10844     10847     10848
     10844     10847     10849     10844     10847     10850     10848     10847     10849
     10848     10847     10850     10849     10847     10850     10847     10850     10851
     10847     10850     10852     10847     10850     10853     10851     10850     10852
     10851     10850     10853     10852     10850     10853     10850     10853     10854
     10850     10853     10855     10850     10853     10856     10854     10853     10855
     10854     10853     10856     10855     10853     10856     10853     10856     10857
     10853     10856     10858     10853     10856     10859     10857     10856     10858
     10857     10856     10859     10858     10856     10859     10856     10859     10860
     10856     10859     10861     10856     10859     10862     10860     10859     10861
     10860     10859     10862     10861     10859     10862     10859     10862     10863
     10859     10862     10864     10859     10862     10865     10863     10862     10864
     10863     10862     10865     10864     10862     10865     10862     10865     10866
     10862     10865     10867     10862     10865     10868     10866     10865     10867
     10866     10865     10868     10867     10865     10868     10865     10868     10869
     10865     10868     10870     10865     10868     10871     10869     10868     10870
     10869     10868     10871     10870     10868     10871     10868     10871     10872
     10868     10871     10873     10868     10871     10874     10872     10871     10873
     10872     10871     10874     10873     10871     10874     10823     10875     10876
     10823     10875     10877     10876     10875     10877     10875     10877     10878
     10875     10877     10879     10875     10877     10880     10878     10877     10879
     10878     10877     10880     10879     10877     10880     10877     10880     10881
     10877     10880     10882     10877     10880     10883     10881     10880     10882
     10881     10880     10883     10882     10880     10883     10880     10883     10884
     10880     10883     10885     10880     10883     10886     10884     10883     10885
     10884     10883     10886     10885     10883     10886     10883     10886     10887
     10883     10886     10888     10883     10886     10889     10887     10886     10888
     10887     10886     10889     10888     10886     10889     10886     10889     10890
     10886     10889     10891     10886     10889     10892     10890     10889     10891
     10890     10889     10892     10891     10889     10892     10889     10892     10893
     10889     10892     10894     10889     10892     10895     10893     10892     10894
     10893     10892     10895     10894     10892     10895     10892     10895     10896
     10892     10895     10897     10892     10895     10898     10896     10895     10897
     10896     10895     10898     10897     10895     10898     10895     10898     10899
     10895     10898     10900     10899     10898     10900     10898     10900     10901
     10898     10900     10902     10901     10900     10902     10900     10902     10903
     10900     10902     10904     10900     10902     10905     10903     10902     10904
     10903     10902     10905     10904     10902     10905     10902     10905     10906
     10902     10905     10907     10902     10905     10908     10906     10905     10907
     10906     10905     10908     10907     10905     10908     10905     10908     10909
     10905     10908     10910     10905     10908     10911     10909     10908     10910
     10909     10908     10911     10910     10908     10911     10908     10911     10912
     10908     10911     10913     10908     10911     10914     10912     10911     10913
     10912     10911     10914     10913     10911     10914     10911     10914     10915
     10911     10914     10916     10911     10914     10917     10915     10914     10916
     10915     10914     10917     10916     10914     10917     10914     10917     10918
     10914     10917     10919     10914     10917     10920     10918     10917     10919
     10918     10917     10920     10919     10917     10920     10917     10920     10921
     10917     10920     10922     10917     10920     10923     10921     10920     10922
     10921     10920     10923     10922     10920     10923     10920     10923     10924
     10920     10923     10925     10920     10923     10926     10924     10923     10925
     10924     10923     10926     10925     10923     10926       372       371       373
       372       371       375       372       371       417       373       371       375
       373       371       417       375       371       417       371       373       374
       371       375       376       371       375       377       371       375       378
       376       375       377       376       375       378       377       375       378
       375       378       379       375       378       409       379       378       409
       378       379       380       378       379       381       380       379       381
       379       381       382       379       381       383       379       381       384
       382       381       383       382       381       384       383       381       384
       381       384       385       381       384       386       381       384       407
       385       384       386       385       384       407       386       384       407
       384       386       387       384       386       388       384       386       396
       387       386       388       387       386       396       388       386       396
       386       388       389       386       388       390       386       388       391
       389       388       390       389       388       391       390       388       391
       388       391       392       388       391       393       388       391       394
       392       391       393       392       391       394       393       391       394
       391       394       395       391       394       396       391       394       420
       395       394       396       395       394       420       396       394       420
       386       396       394       386       396       397       386       396       401
       394       396       397       394       396       401       397       396       401
       396       397       398       396       397       399       396       397       400
       398       397       399       398       397       400       399       397       400
       396       401       402       396       401       403       396       401       404
       402       401       403       402       401       404       403       401       404
       401       404       405       401       404       406       401       404       407
       405       404       406       405       404       407       406       404       407
       384       407       404       384       407       408       384       407       409
       404       407       408       404       407       409       408       407       409
       378       409       407       378       409       410       378       409       414
       407       409       410       407       409       414       410       409       414
       409       410       411       409       410       412       409       410       413
       411       410       412       411       410       413       412       410       413
       409       414       415       409       414       416       409       414       417
       415       414       416       415       414       417       416       414       417
       371       417       414       371       417       418       371       417       419
       414       417       418       414       417       419       418       417       419
       394       420       421       394       420       422       394       420       426
       421       420       422       421       420       426       422       420       426
       420       422       423       420       422       424       420       422       425
       423       422       424       423       422       425       424       422       425
       420       426       427       420       426       428       420       426       429
       427       426       428       427       426       429       428       426       429
       426       429       430       426       429       431       426       429       432
       430       429       431       430       429       432       431       429       432
       429       432       433       429       432       434       429       432       435
       433       432       434       433       432       435       434       432       435
       432       435       436       432       435       437       432       435       441
       436       435       437       436       435       441       437       435       441
       435       437       438       435       437       439       435       437       440
       438       437       439       438       437       440       439       437       440
       435       441       442       435       441       443       435       441       444
       442       441       443       442       441       444       443       441       444
     10928     10927     10932     10928     10927     10936     10928     10927     10940
     10932     10927     10936     10932     10927     10940     10936     10927     10940
     10927     10928     10929     10927     10928     10930     10927     10928     10931
     10929     10928     10930     10929     10928     10931     10930     10928     10931
     10927     10932     10933     10927     10932     10934     10927     10932     10935
     10933     10932     10934     10933     10932     10935     10934     10932     10935
     10927     10936     10937     10927     10936     10938     10927     10936     10939
     10937     10936     10938     10937     10936     10939     10938     10936     10939
     10927     10940     10941     10927     10940     10942     10927     10940     10943
     10941     10940     10942     10941     10940     10943     10942     10940     10943
     10940     10943     10944     10940     10943     10945     10940     10943     10950
     10944     10943     10945     10944     10943     10950     10945     10943     10950
     10947     10946     10948     10947     10946     10949     10947     10946     10950
     10948     10946     10949     10948     10946     10950     10949     10946     10950
     10946     10949     10951     10943     10950     10946     10949     10951     10952
     10949     10951     10953     10949     10951     10956     10952     10951     10953
     10952     10951     10956     10953     10951     10956     10955     10954     10956
     10955     10954     11006     10956     10954     11006     10951     10956     10954
     10951     10956     10957     10951     10956     10958     10954     10956     10957
     10954     10956     10958     10957     10956     10958     10956     10958     10959
     10956     10958     10960     10956     10958     10962     10959     10958     10960
     10959     10958     10962     10960     10958     10962     10958     10960     10961
     10958     10962     10963     10958     10962     10964     10963     10962     10964
     10962     10964     10965     10962     10964     10966     10965     10964     10966
     10964     10966     10967     10964     10966     10968     10964     10966     10969
     10967     10966     10968     10967     10966     10969     10968     10966     10969
     10966     10969     10970     10966     10969     10971     10966     10969     10972
     10970     10969     10971     10970     10969     10972     10971     10969     10972
     10969     10972     10973     10969     10972     10974     10969     10972     10975
     10973     10972     10974     10973     10972     10975     10974     10972     10975
     10972     10975     10976     10972     10975     10977     10972     10975     10978
     10976     10975     10977     10976     10975     10978     10977     10975     10978
     10975     10978     10979     10975     10978     10980     10975     10978     10981
     10979     10978     10980     10979     10978     10981     10980     10978     10981
     10978     10981     10982     10978     10981     10983     10978     10981     10984
     10982     10981     10983     10982     10981     10984     10983     10981     10984
     10981     10984     10985     10981     10984     10986     10981     10984     10987
     10985     10984     10986     10985     10984     10987     10986     10984     10987
     10984     10987     10988     10984     10987     10989     10984     10987     10990
     10988     10987     10989     10988     10987     10990     10989     10987     10990
     10987     10990     10991     10987     10990     10992     10987     10990     10993
     10991     10990     10992     10991     10990     10993     10992     10990     10993
     10990     10993     10994     10990     10993     10995     10990     10993     10996
     10994     10993     10995     10994     10993     10996     10995     10993     10996
     10993     10996     10997     10993     10996     10998     10993     10996     10999
     10997     10996     10998     10997     10996     10999     10998     10996     10999
     10996     10999     11000     10996     10999     11001     10996     10999     11002
     11000     10999     11001     11000     10999     11002     11001     10999     11002
     10999     11002     11003     10999     11002     11004     10999     11002     11005
     11003     11002     11004     11003     11002     11005     11004     11002     11005
     10954     11006     11007     10954     11006     11008     11007     11006     11008
     11006     11008     11009     11006     11008     11010     11006     11008     11011
     11009     11008     11010     11009     11008     11011     11010     11008     11011
     11008     11011     11012     11008     11011     11013     11008     11011     11014
     11012     11011     11013     11012     11011     11014     11013     11011     11014
     11011     11014     11015     11011     11014     11016     11011     11014     11017
     11015     11014     11016     11015     11014     11017     11016     11014     11017
     11014     11017     11018     11014     11017     11019     11014     11017     11020
     11018     11017     11019     11018     11017     11020     11019     11017     11020
     11017     11020     11021     11017     11020     11022     11017     11020     11023
     11021     11020     11022     11021     11020     11023     11022     11020     11023
     11020     11023     11024     11020     11023     11025     11020     11023     11026
     11024     11023     11025     11024     11023     11026     11025     11023     11026
     11023     11026     11027     11023     11026     11028     11023     11026     11029
     11027     11026     11028     11027     11026     11029     11028     11026     11029
     11026     11029     11030     11026     11029     11031     11030     11029     11031
     11029     11031     11032     11029     11031     11033     11032     11031     11033
     11031     11033     11034     11031     11033     11035     11031     11033     11036
     11034     11033     11035     11034     11033     11036     11035     11033     11036
     11033     11036     11037     11033     11036     11038     11033     11036     11039
     11037     11036     11038     11037     11036     11039     11038     11036     11039
     11036     11039     11040     11036     11039     11041     11036     11039     11042
     11040     11039     11041     11040     11039     11042     11041     11039     11042
     11039     11042     11043     11039     11042     11044     11039     11042     11045
     11043     11042     11044     11043     11042     11045     11044     11042     11045
     11042     11045     11046     11042     11045     11047     11042     11045     11048
     11046     11045     11047     11046     11045     11048     11047     11045     11048
     11045     11048     11049     11045     11048     11050     11045     11048     11051
     11049     11048     11050     11049     11048     11051     11050     11048     11051
     11048     11051     11052     11048     11051     11053     11048     11051     11054
     11052     11051     11053     11052     11051     11054     11053     11051     11054
     11051     11054     11055     11051     11054     11056     11051     11054     11057
     11055     11054     11056     11055     11054     11057     11056     11054     11057
     11059     11058     11063     11059     11058     11067     11059     11058     11071
     11063     11058     11067     11063     11058     11071     11067     11058     11071
     11058     11059     11060     11058     11059     11061     11058     11059     11062
     11060     11059     11061     11060     11059     11062     11061     11059     11062
     11058     11063     11064     11058     11063     11065     11058     11063     11066
     11064     11063     11065     11064     11063     11066     11065     11063     11066
     11058     11067     11068     11058     11067     11069     11058     11067     11070
     11068     11067     11069     11068     11067     11070     11069     11067     11070
     11058     11071     11072     11058     11071     11073     11058     11071     11074
     11072     11071     11073     11072     11071     11074     11073     11071     11074
     11071     11074     11075     11071     11074     11076     11071     11074     11081
     11075     11074     11076     11075     11074     11081     11076     11074     11081
     11078     11077     11079     11078     11077     11080     11078     11077     11081
     11079     11077     11080     11079     11077     11081     11080     11077     11081
     11077     11080     11082     11074     11081     11077     11080     11082     11083
     11080     11082     11084     11080     11082     11087     11083     11082     11084
     11083     11082     11087     11084     11082     11087     11086     11085     11087
     11086     11085     11137     11087     11085     11137     11082     11087     11085
     11082     11087     11088     11082     11087     11089     11085     11087     11088
     11085     11087     11089     11088     11087     11089     11087     11089     11090
     11087     11089     11091     11087     11089     11093     11090     11089     11091
     11090     11089     11093     11091     11089     11093     11089     11091     11092
     11089     11093     11094     11089     11093     11095     11094     11093     11095
     11093     11095     11096     11093     11095     11097     11096     11095     11097
     11095     11097     11098     11095     11097     11099     11095     11097     11100
     11098     11097     11099     11098     11097     11100     11099     11097     11100
     11097     11100     11101     11097     11100     11102     11097     11100     11103
     11101     11100     11102     11101     11100     11103     11102     11100     11103
     11100     11103     11104     11100     11103     11105     11100     11103     11106
     11104     11103     11105     11104     11103     11106     11105     11103     11106
     11103     11106     11107     11103     11106     11108     11103     11106     11109
     11107     11106     11108     11107     11106     11109     11108     11106     11109
     11106     11109     11110     11106     11109     11111     11106     11109     11112
     11110     11109     11111     11110     11109     11112     11111     11109     11112
     11109     11112     11113     11109     11112     11114     11109     11112     11115
     11113     11112     11114     11113     11112     11115     11114     11112     11115
     11112     11115     11116     11112     11115     11117     11112     11115     11118
     11116     11115     11117     11116     11115     11118     11117     11115     11118
     11115     11118     11119     11115     11118     11120     11115     11118     11121
     11119     11118     11120     11119     11118     11121     11120     11118     11121
     11118     11121     11122     11118     11121     11123     11118     11121     11124
     11122     11121     11123     11122     11121     11124     11123     11121     11124
     11121     11124     11125     11121     11124     11126     11121     11124     11127
     11125     11124     11126     11125     11124     11127     11126     11124     11127
     11124     11127     11128     11124     11127     11129     11124     11127     11130
     11128     11127     11129     11128     11127     11130     11129     11127     11130
     11127     11130     11131     11127     11130     11132     11127     11130     11133
     11131     11130     11132     11131     11130     11133     11132     11130     11133
     11130     11133     11134     11130     11133     11135     11130     11133     11136
     11134     11133     11135     11134     11133     11136     11135     11133     11136
     11085     11137     11138     11085     11137     11139     11138     11137     11139
     11137     11139     11140     11137     11139     11141     11137     11139     11142
     11140     11139     11141     11140     11139     11142     11141     11139     11142
     11139     11142     11143     11139     11142     11144     11139     11142     11145
     11143     11142     11144     11143     11142     11145     11144     11142     11145
     11142     11145     11146     11142     11145     11147     11142     11145     11148
     11146     11145     11147     11146     11145     11148     11147     11145     11148
     11145     11148     11149     11145     11148     11150     11145     11148     11151
     11149     11148     11150     11149     11148     11151     11150     11148     11151
     11148     11151     11152     11148     11151     11153     11148     11151     11154
     11152     11151     11153     11152     11151     11154     11153     11151     11154
     11151     11154     11155     11151     11154     11156     11151     11154     11157
     11155     11154     11156     11155     11154     11157     11156     11154     11157
     11154     11157     11158     11154     11157     11159     11154     11157     11160
     11158     11157     11159     11158     11157     11160     11159     11157     11160
     11157     11160     11161     11157     11160     11162     11161     11160     11162
     11160     11162     11163     11160     11162     11164     11163     11162     11164
     11162     11164     11165     11162     11164     11166     11162     11164     11167
     11165     11164     11166     11165     11164     11167     11166     11164     11167
     11164     11167     11168     11164     11167     11169     11164     11167     11170
     11168     11167     11169     11168     11167     11170     11169     11167     11170
     11167     11170     11171     11167     11170     11172     11167     11170     11173
     11171     11170     11172     11171     11170     11173     11172     11170     11173
     11170     11173     11174     11170     11173     11175     11170     11173     11176
     11174     11173     11175     11174     11173     11176     11175     11173     11176
     11173     11176     11177     11173     11176     11178     11173     11176     11179
     11177     11176     11178     11177     11176     11179     11178     11176     11179
     11176     11179     11180     11176     11179     11181     11176     11179     11182
     11180     11179     11181     11180     11179     11182     11181     11179     11182
     11179     11182     11183     11179     11182     11184     11179     11182     11185
     11183     11182     11184     11183     11182     11185     11184     11182     11185
     11182     11185     11186     11182     11185     11187     11182     11185     11188
     11186     11185     11187     11186     11185     11188     11187     11185     11188
     19836     19835     19837     19836     19835     19838     19836     19835     19839
     19837     19835     19838     19837     19835     19839     19838     19835     19839
     19835     19839     19840     19835     19839     19841     19835     19839     19842
     19840     19839     19841     19840     19839     19842     19841     19839     19842
     19839     19842     19843     19839     19842     19844     19839     19842     19848
     19843     19842     19844     19843     19842     19848     19844     19842     19848
     19846     19845     19847     19846     19845     19848     19846     19845     19849
     19847     19845     19848     19847     19845     19849     19848     19845     19849
     19842     19848     19845     19845     19849     19850     19849     19850     19851
     19849     19850     19852     19849     19850     19853     19851     19850     19852
     19851     19850     19853     19852     19850     19853     19850     19853     19854
     19850     19853     19855     19850     19853     19861     19854     19853     19855
     19854     19853     19861     19855     19853     19861     19853     19855     19856
     19855     19856     19857     19855     19856     19858     19857     19856     19858
     19856     19858     19859     19856     19858     19860     19856     19858     19870
     19859     19858     19860     19859     19858     19870     19860     19858     19870
     19853     19861     19862     19853     19861     19863     19853     19861     19864
     19862     19861     19863     19862     19861     19864     19863     19861     19864
     19861     19864     19865     19864     19865     19866     19864     19865     19867
     19866     19865     19867     19865     19867     19868     19865     19867     19869
     19865     19867     19917     19868     19867     19869     19868     19867     19917
     19869     19867     19917     19858     19870     19871     19858     19870     19872
     19858     19870     19873     19871     19870     19872     19871     19870     19873
     19872     19870     19873     19870     19873     19874     19870     19873     19875
     19870     19873     19876     19874     19873     19875     19874     19873     19876
     19875     19873     19876     19873     19876     19877     19873     19876     19878
     19873     19876     19879     19877     19876     19878     19877     19876     19879
     19878     19876     19879     19876     19879     19880     19876     19879     19881
     19876     19879     19882     19880     19879     19881     19880     19879     19882
     19881     19879     19882     19879     19882     19883     19879     19882     19884
     19879     19882     19885     19883     19882     19884     19883     19882     19885
     19884     19882     19885     19882     19885     19886     19882     19885     19887
     19882     19885     19888     19886     19885     19887     19886     19885     19888
     19887     19885     19888     19885     19888     19889     19885     19888     19890
     19889     19888     19890     19888     19890     19891     19888     19890     19892
     19891     19890     19892     19890     19892     19893     19890     19892     19894
     19890     19892     19895     19893     19892     19894     19893     19892     19895
     19894     19892     19895     19892     19895     19896     19892     19895     19897
     19892     19895     19898     19896     19895     19897     19896     19895     19898
     19897     19895     19898     19895     19898     19899     19895     19898     19900
     19895     19898     19901     19899     19898     19900     19899     19898     19901
     19900     19898     19901     19898     19901     19902     19898     19901     19903
     19898     19901     19904     19902     19901     19903     19902     19901     19904
     19903     19901     19904     19901     19904     19905     19901     19904     19906
     19901     19904     19907     19905     19904     19906     19905     19904     19907
     19906     19904     19907     19904     19907     19908     19904     19907     19909
     19904     19907     19910     19908     19907     19909     19908     19907     19910
     19909     19907     19910     19907     19910     19911     19907     19910     19912
     19907     19910     19913     19911     19910     19912     19911     19910     19913
     19912     19910     19913     19910     19913     19914     19910     19913     19915
     19910     19913     19916     19914     19913     19915     19914     19913     19916
     19915     19913     19916     19867     19917     19918     19867     19917     19919
     19867     19917     19920     19918     19917     19919     19918     19917     19920
     19919     19917     19920     19917     19920     19921     19917     19920     19922
     19917     19920     19923     19921     19920     19922     19921     19920     19923
     19922     19920     19923     19920     19923     19924     19920     19923     19925
     19920     19923     19926     19924     19923     19925     19924     19923     19926
     19925     19923     19926     19923     19926     19927     19923     19926     19928
     19923     19926     19929     19927     19926     19928     19927     19926     19929
     19928     19926     19929     19926     19929     19930     19926     19929     19931
     19926     19929     19932     19930     19929     19931     19930     19929     19932
     19931     19929     19932     19929     19932     19933     19929     19932     19934
     19929     19932     19935     19933     19932     19934     19933     19932     19935
     19934     19932     19935     19932     19935     19936     19932     19935     19937
     19932     19935     19938     19936     19935     19937     19936     19935     19938
     19937     19935     19938     19935     19938     19939     19935     19938     19940
     19935     19938     19941     19939     19938     19940     19939     19938     19941
     19940     19938     19941     19938     19941     19942     19938     19941     19943
     19938     19941     19944     19942     19941     19943     19942     19941     19944
     19943     19941     19944     19941     19944     19945     19941     19944     19946
     19941     19944     19947     19945     19944     19946     19945     19944     19947
     19946     19944     19947     19944     19947     19948     19944     19947     19949
     19944     19947     19950     19948     19947     19949     19948     19947     19950
     19949     19947     19950     19947     19950     19951     19947     19950     19952
     19947     19950     19953     19951     19950     19952     19951     19950     19953
     19952     19950     19953     19950     19953     19954     19950     19953     19955
     19950     19953     19956     19954     19953     19955     19954     19953     19956
     19955     19953     19956     19953     19956     19957     19953     19956     19958
     19953     19956     19959     19957     19956     19958     19957     19956     19959
     19958     19956     19959     19956     19959     19960     19956     19959     19961
     19956     19959     19962     19960     19959     19961     19960     19959     19962
     19961     19959     19962     19959     19962     19963     19959     19962     19964
     19959     19962     19965     19963     19962     19964     19963     19962     19965
     19964     19962     19965     11190     11189     11194     11190     11189     11198
     11190     11189     11202     11194     11189     11198     11194     11189     11202
     11198     11189     11202     11189     11190     11191     11189     11190     11192
     11189     11190     11193     11191     11190     11192     11191     11190     11193
     11192     11190     11193     11189     11194     11195     11189     11194     11196
     11189     11194     11197     11195     11194     11196     11195     11194     11197
     11196     11194     11197     11189     11198     11199     11189     11198     11200
     11189     11198     11201     11199     11198     11200     11199     11198     11201
     11200     11198     11201     11189     11202     11203     11189     11202     11204
     11189     11202     11205     11203     11202     11204     11203     11202     11205
     11204     11202     11205     11202     11205     11206     11202     11205     11207
     11202     11205     11212     11206     11205     11207     11206     11205     11212
     11207     11205     11212     11209     11208     11210     11209     11208     11211
     11209     11208     11212     11210     11208     11211     11210     11208     11212
     11211     11208     11212     11208     11211     11213     11205     11212     11208
     11211     11213     11214     11211     11213     11215     11211     11213     11218
     11214     11213     11215     11214     11213     11218     11215     11213     11218
     11217     11216     11218     11217     11216     11268     11218     11216     11268
     11213     11218     11216     11213     11218     11219     11213     11218     11220
     11216     11218     11219     11216     11218     11220     11219     11218     11220
     11218     11220     11221     11218     11220     11222     11218     11220     11224
     11221     11220     11222     11221     11220     11224     11222     11220     11224
     11220     11222     11223     11220     11224     11225     11220     11224     11226
     11225     11224     11226     11224     11226     11227     11224     11226     11228
     11227     11226     11228     11226     11228     11229     11226     11228     11230
     11226     11228     11231     11229     11228     11230     11229     11228     11231
     11230     11228     11231     11228     11231     11232     11228     11231     11233
     11228     11231     11234     11232     11231     11233     11232     11231     11234
     11233     11231     11234     11231     11234     11235     11231     11234     11236
     11231     11234     11237     11235     11234     11236     11235     11234     11237
     11236     11234     11237     11234     11237     11238     11234     11237     11239
     11234     11237     11240     11238     11237     11239     11238     11237     11240
     11239     11237     11240     11237     11240     11241     11237     11240     11242
     11237     11240     11243     11241     11240     11242     11241     11240     11243
     11242     11240     11243     11240     11243     11244     11240     11243     11245
     11240     11243     11246     11244     11243     11245     11244     11243     11246
     11245     11243     11246     11243     11246     11247     11243     11246     11248
     11243     11246     11249     11247     11246     11248     11247     11246     11249
     11248     11246     11249     11246     11249     11250     11246     11249     11251
     11246     11249     11252     11250     11249     11251     11250     11249     11252
     11251     11249     11252     11249     11252     11253     11249     11252     11254
     11249     11252     11255     11253     11252     11254     11253     11252     11255
     11254     11252     11255     11252     11255     11256     11252     11255     11257
     11252     11255     11258     11256     11255     11257     11256     11255     11258
     11257     11255     11258     11255     11258     11259     11255     11258     11260
     11255     11258     11261     11259     11258     11260     11259     11258     11261
     11260     11258     11261     11258     11261     11262     11258     11261     11263
     11258     11261     11264     11262     11261     11263     11262     11261     11264
     11263     11261     11264     11261     11264     11265     11261     11264     11266
     11261     11264     11267     11265     11264     11266     11265     11264     11267
     11266     11264     11267     11216     11268     11269     11216     11268     11270
     11269     11268     11270     11268     11270     11271     11268     11270     11272
     11268     11270     11273     11271     11270     11272     11271     11270     11273
     11272     11270     11273     11270     11273     11274     11270     11273     11275
     11270     11273     11276     11274     11273     11275     11274     11273     11276
     11275     11273     11276     11273     11276     11277     11273     11276     11278
     11273     11276     11279     11277     11276     11278     11277     11276     11279
     11278     11276     11279     11276     11279     11280     11276     11279     11281
     11276     11279     11282     11280     11279     11281     11280     11279     11282
     11281     11279     11282     11279     11282     11283     11279     11282     11284
     11279     11282     11285     11283     11282     11284     11283     11282     11285
     11284     11282     11285     11282     11285     11286     11282     11285     11287
     11282     11285     11288     11286     11285     11287     11286     11285     11288
     11287     11285     11288     11285     11288     11289     11285     11288     11290
     11285     11288     11291     11289     11288     11290     11289     11288     11291
     11290     11288     11291     11288     11291     11292     11288     11291     11293
     11292     11291     11293     11291     11293     11294     11291     11293     11295
     11294     11293     11295     11293     11295     11296     11293     11295     11297
     11293     11295     11298     11296     11295     11297     11296     11295     11298
     11297     11295     11298     11295     11298     11299     11295     11298     11300
     11295     11298     11301     11299     11298     11300     11299     11298     11301
     11300     11298     11301     11298     11301     11302     11298     11301     11303
     11298     11301     11304     11302     11301     11303     11302     11301     11304
     11303     11301     11304     11301     11304     11305     11301     11304     11306
     11301     11304     11307     11305     11304     11306     11305     11304     11307
     11306     11304     11307     11304     11307     11308     11304     11307     11309
     11304     11307     11310     11308     11307     11309     11308     11307     11310
     11309     11307     11310     11307     11310     11311     11307     11310     11312
     11307     11310     11313     11311     11310     11312     11311     11310     11313
     11312     11310     11313     11310     11313     11314     11310     11313     11315
     11310     11313     11316     11314     11313     11315     11314     11313     11316
     11315     11313     11316     11313     11316     11317     11313     11316     11318
     11313     11316     11319     11317     11316     11318     11317     11316     11319
     11318     11316     11319     11321     11320     11325     11321     11320     11329
     11321     11320     11333     11325     11320     11329     11325     11320     11333
     11329     11320     11333     11320     11321     11322     11320     11321     11323
     11320     11321     11324     11322     11321     11323     11322     11321     11324
     11323     11321     11324     11320     11325     11326     11320     11325     11327
     11320     11325     11328     11326     11325     11327     11326     11325     11328
     11327     11325     11328     11320     11329     11330     11320     11329     11331
     11320     11329     11332     11330     11329     11331     11330     11329     11332
     11331     11329     11332     11320     11333     11334     11320     11333     11335
     11320     11333     11336     11334     11333     11335     11334     11333     11336
     11335     11333     11336     11333     11336     11337     11333     11336     11338
     11333     11336     11343     11337     11336     11338     11337     11336     11343
     11338     11336     11343     11340     11339     11341     11340     11339     11342
     11340     11339     11343     11341     11339     11342     11341     11339     11343
     11342     11339     11343     11339     11342     11344     11336     11343     11339
     11342     11344     11345     11342     11344     11346     11342     11344     11349
     11345     11344     11346     11345     11344     11349     11346     11344     11349
     11348     11347     11349     11348     11347     11399     11349     11347     11399
     11344     11349     11347     11344     11349     11350     11344     11349     11351
     11347     11349     11350     11347     11349     11351     11350     11349     11351
     11349     11351     11352     11349     11351     11353     11349     11351     11355
     11352     11351     11353     11352     11351     11355     11353     11351     11355
     11351     11353     11354     11351     11355     11356     11351     11355     11357
     11356     11355     11357     11355     11357     11358     11355     11357     11359
     11358     11357     11359     11357     11359     11360     11357     11359     11361
     11357     11359     11362     11360     11359     11361     11360     11359     11362
     11361     11359     11362     11359     11362     11363     11359     11362     11364
     11359     11362     11365     11363     11362     11364     11363     11362     11365
     11364     11362     11365     11362     11365     11366     11362     11365     11367
     11362     11365     11368     11366     11365     11367     11366     11365     11368
     11367     11365     11368     11365     11368     11369     11365     11368     11370
     11365     11368     11371     11369     11368     11370     11369     11368     11371
     11370     11368     11371     11368     11371     11372     11368     11371     11373
     11368     11371     11374     11372     11371     11373     11372     11371     11374
     11373     11371     11374     11371     11374     11375     11371     11374     11376
     11371     11374     11377     11375     11374     11376     11375     11374     11377
     11376     11374     11377     11374     11377     11378     11374     11377     11379
     11374     11377     11380     11378     11377     11379     11378     11377     11380
     11379     11377     11380     11377     11380     11381     11377     11380     11382
     11377     11380     11383     11381     11380     11382     11381     11380     11383
     11382     11380     11383     11380     11383     11384     11380     11383     11385
     11380     11383     11386     11384     11383     11385     11384     11383     11386
     11385     11383     11386     11383     11386     11387     11383     11386     11388
     11383     11386     11389     11387     11386     11388     11387     11386     11389
     11388     11386     11389     11386     11389     11390     11386     11389     11391
     11386     11389     11392     11390     11389     11391     11390     11389     11392
     11391     11389     11392     11389     11392     11393     11389     11392     11394
     11389     11392     11395     11393     11392     11394     11393     11392     11395
     11394     11392     11395     11392     11395     11396     11392     11395     11397
     11392     11395     11398     11396     11395     11397     11396     11395     11398
     11397     11395     11398     11347     11399     11400     11347     11399     11401
     11400     11399     11401     11399     11401     11402     11399     11401     11403
     11399     11401     11404     11402     11401     11403     11402     11401     11404
     11403     11401     11404     11401     11404     11405     11401     11404     11406
     11401     11404     11407     11405     11404     11406     11405     11404     11407
     11406     11404     11407     11404     11407     11408     11404     11407     11409
     11404     11407     11410     11408     11407     11409     11408     11407     11410
     11409     11407     11410     11407     11410     11411     11407     11410     11412
     11407     11410     11413     11411     11410     11412     11411     11410     11413
     11412     11410     11413     11410     11413     11414     11410     11413     11415
     11410     11413     11416     11414     11413     11415     11414     11413     11416
     11415     11413     11416     11413     11416     11417     11413     11416     11418
     11413     11416     11419     11417     11416     11418     11417     11416     11419
     11418     11416     11419     11416     11419     11420     11416     11419     11421
     11416     11419     11422     11420     11419     11421     11420     11419     11422
     11421     11419     11422     11419     11422     11423     11419     11422     11424
     11423     11422     11424     11422     11424     11425     11422     11424     11426
     11425     11424     11426     11424     11426     11427     11424     11426     11428
     11424     11426     11429     11427     11426     11428     11427     11426     11429
     11428     11426     11429     11426     11429     11430     11426     11429     11431
     11426     11429     11432     11430     11429     11431     11430     11429     11432
     11431     11429     11432     11429     11432     11433     11429     11432     11434
     11429     11432     11435     11433     11432     11434     11433     11432     11435
     11434     11432     11435     11432     11435     11436     11432     11435     11437
     11432     11435     11438     11436     11435     11437     11436     11435     11438
     11437     11435     11438     11435     11438     11439     11435     11438     11440
     11435     11438     11441     11439     11438     11440     11439     11438     11441
     11440     11438     11441     11438     11441     11442     11438     11441     11443
     11438     11441     11444     11442     11441     11443     11442     11441     11444
     11443     11441     11444     11441     11444     11445     11441     11444     11446
     11441     11444     11447     11445     11444     11446     11445     11444     11447
     11446     11444     11447     11444     11447     11448     11444     11447     11449
     11444     11447     11450     11448     11447     11449     11448     11447     11450
     11449     11447     11450     19967     19966     19968     19967     19966     19969
     19967     19966     19970     19968     19966     19969     19968     19966     19970
     19969     19966     19970     19966     19970     19971     19966     19970     19972
     19966     19970     19973     19971     19970     19972     19971     19970     19973
     19972     19970     19973     19970     19973     19974     19970     19973     19975
     19970     19973     19979     19974     19973     19975     19974     19973     19979
     19975     19973     19979     19977     19976     19978     19977     19976     19979
     19977     19976     19980     19978     19976     19979     19978     19976     19980
     19979     19976     19980     19973     19979     19976     19976     19980     19981
     19980     19981     19982     19980     19981     19983     19980     19981     19984
     19982     19981     19983     19982     19981     19984     19983     19981     19984
     19981     19984     19985     19981     19984     19986     19981     19984     19992
     19985     19984     19986     19985     19984     19992     19986     19984     19992
     19984     19986     19987     19986     19987     19988     19986     19987     19989
     19988     19987     19989     19987     19989     19990     19987     19989     19991
     19987     19989     20001     19990     19989     19991     19990     19989     20001
     19991     19989     20001     19984     19992     19993     19984     19992     19994
     19984     19992     19995     19993     19992     19994     19993     19992     19995
     19994     19992     19995     19992     19995     19996     19995     19996     19997
     19995     19996     19998     19997     19996     19998     19996     19998     19999
     19996     19998     20000     19996     19998     20048     19999     19998     20000
     19999     19998     20048     20000     19998     20048     19989     20001     20002
     19989     20001     20003     19989     20001     20004     20002     20001     20003
     20002     20001     20004     20003     20001     20004     20001     20004     20005
     20001     20004     20006     20001     20004     20007     20005     20004     20006
     20005     20004     20007     20006     20004     20007     20004     20007     20008
     20004     20007     20009     20004     20007     20010     20008     20007     20009
     20008     20007     20010     20009     20007     20010     20007     20010     20011
     20007     20010     20012     20007     20010     20013     20011     20010     20012
     20011     20010     20013     20012     20010     20013     20010     20013     20014
     20010     20013     20015     20010     20013     20016     20014     20013     20015
     20014     20013     20016     20015     20013     20016     20013     20016     20017
     20013     20016     20018     20013     20016     20019     20017     20016     20018
     20017     20016     20019     20018     20016     20019     20016     20019     20020
     20016     20019     20021     20020     20019     20021     20019     20021     20022
     20019     20021     20023     20022     20021     20023     20021     20023     20024
     20021     20023     20025     20021     20023     20026     20024     20023     20025
     20024     20023     20026     20025     20023     20026     20023     20026     20027
     20023     20026     20028     20023     20026     20029     20027     20026     20028
     20027     20026     20029     20028     20026     20029     20026     20029     20030
     20026     20029     20031     20026     20029     20032     20030     20029     20031
     20030     20029     20032     20031     20029     20032     20029     20032     20033
     20029     20032     20034     20029     20032     20035     20033     20032     20034
     20033     20032     20035     20034     20032     20035     20032     20035     20036
     20032     20035     20037     20032     20035     20038     20036     20035     20037
     20036     20035     20038     20037     20035     20038     20035     20038     20039
     20035     20038     20040     20035     20038     20041     20039     20038     20040
     20039     20038     20041     20040     20038     20041     20038     20041     20042
     20038     20041     20043     20038     20041     20044     20042     20041     20043
     20042     20041     20044     20043     20041     20044     20041     20044     20045
     20041     20044     20046     20041     20044     20047     20045     20044     20046
     20045     20044     20047     20046     20044     20047     19998     20048     20049
     19998     20048     20050     19998     20048     20051     20049     20048     20050
     20049     20048     20051     20050     20048     20051     20048     20051     20052
     20048     20051     20053     20048     20051     20054     20052     20051     20053
     20052     20051     20054     20053     20051     20054     20051     20054     20055
     20051     20054     20056     20051     20054     20057     20055     20054     20056
     20055     20054     20057     20056     20054     20057     20054     20057     20058
     20054     20057     20059     20054     20057     20060     20058     20057     20059
     20058     20057     20060     20059     20057     20060     20057     20060     20061
     20057     20060     20062     20057     20060     20063     20061     20060     20062
     20061     20060     20063     20062     20060     20063     20060     20063     20064
     20060     20063     20065     20060     20063     20066     20064     20063     20065
     20064     20063     20066     20065     20063     20066     20063     20066     20067
     20063     20066     20068     20063     20066     20069     20067     20066     20068
     20067     20066     20069     20068     20066     20069     20066     20069     20070
     20066     20069     20071     20066     20069     20072     20070     20069     20071
     20070     20069     20072     20071     20069     20072     20069     20072     20073
     20069     20072     20074     20069     20072     20075     20073     20072     20074
     20073     20072     20075     20074     20072     20075     20072     20075     20076
     20072     20075     20077     20072     20075     20078     20076     20075     20077
     20076     20075     20078     20077     20075     20078     20075     20078     20079
     20075     20078     20080     20075     20078     20081     20079     20078     20080
     20079     20078     20081     20080     20078     20081     20078     20081     20082
     20078     20081     20083     20078     20081     20084     20082     20081     20083
     20082     20081     20084     20083     20081     20084     20081     20084     20085
     20081     20084     20086     20081     20084     20087     20085     20084     20086
     20085     20084     20087     20086     20084     20087     20084     20087     20088
     20084     20087     20089     20084     20087     20090     20088     20087     20089
     20088     20087     20090     20089     20087     20090     20087     20090     20091
     20087     20090     20092     20087     20090     20093     20091     20090     20092
     20091     20090     20093     20092     20090     20093     20090     20093     20094
     20090     20093     20095     20090     20093     20096     20094     20093     20095
     20094     20093     20096     20095     20093     20096     11452     11451     11456
     11452     11451     11460     11452     11451     11464     11456     11451     11460
     11456     11451     11464     11460     11451     11464     11451     11452     11453
     11451     11452     11454     11451     11452     11455     11453     11452     11454
     11453     11452     11455     11454     11452     11455     11451     11456     11457
     11451     11456     11458     11451     11456     11459     11457     11456     11458
     11457     11456     11459     11458     11456     11459     11451     11460     11461
     11451     11460     11462     11451     11460     11463     11461     11460     11462
     11461     11460     11463     11462     11460     11463     11451     11464     11465
     11451     11464     11466     11451     11464     11467     11465     11464     11466
     11465     11464     11467     11466     11464     11467     11464     11467     11468
     11464     11467     11469     11464     11467     11474     11468     11467     11469
     11468     11467     11474     11469     11467     11474     11471     11470     11472
     11471     11470     11473     11471     11470     11474     11472     11470     11473
     11472     11470     11474     11473     11470     11474     11470     11473     11475
     11467     11474     11470     11473     11475     11476     11473     11475     11477
     11473     11475     11480     11476     11475     11477     11476     11475     11480
     11477     11475     11480     11479     11478     11480     11479     11478     11530
     11480     11478     11530     11475     11480     11478     11475     11480     11481
     11475     11480     11482     11478     11480     11481     11478     11480     11482
     11481     11480     11482     11480     11482     11483     11480     11482     11484
     11480     11482     11486     11483     11482     11484     11483     11482     11486
     11484     11482     11486     11482     11484     11485     11482     11486     11487
     11482     11486     11488     11487     11486     11488     11486     11488     11489
     11486     11488     11490     11489     11488     11490     11488     11490     11491
     11488     11490     11492     11488     11490     11493     11491     11490     11492
     11491     11490     11493     11492     11490     11493     11490     11493     11494
     11490     11493     11495     11490     11493     11496     11494     11493     11495
     11494     11493     11496     11495     11493     11496     11493     11496     11497
     11493     11496     11498     11493     11496     11499     11497     11496     11498
     11497     11496     11499     11498     11496     11499     11496     11499     11500
     11496     11499     11501     11496     11499     11502     11500     11499     11501
     11500     11499     11502     11501     11499     11502     11499     11502     11503
     11499     11502     11504     11499     11502     11505     11503     11502     11504
     11503     11502     11505     11504     11502     11505     11502     11505     11506
     11502     11505     11507     11502     11505     11508     11506     11505     11507
     11506     11505     11508     11507     11505     11508     11505     11508     11509
     11505     11508     11510     11505     11508     11511     11509     11508     11510
     11509     11508     11511     11510     11508     11511     11508     11511     11512
     11508     11511     11513     11508     11511     11514     11512     11511     11513
     11512     11511     11514     11513     11511     11514     11511     11514     11515
     11511     11514     11516     11511     11514     11517     11515     11514     11516
     11515     11514     11517     11516     11514     11517     11514     11517     11518
     11514     11517     11519     11514     11517     11520     11518     11517     11519
     11518     11517     11520     11519     11517     11520     11517     11520     11521
     11517     11520     11522     11517     11520     11523     11521     11520     11522
     11521     11520     11523     11522     11520     11523     11520     11523     11524
     11520     11523     11525     11520     11523     11526     11524     11523     11525
     11524     11523     11526     11525     11523     11526     11523     11526     11527
     11523     11526     11528     11523     11526     11529     11527     11526     11528
     11527     11526     11529     11528     11526     11529     11478     11530     11531
     11478     11530     11532     11531     11530     11532     11530     11532     11533
     11530     11532     11534     11530     11532     11535     11533     11532     11534
     11533     11532     11535     11534     11532     11535     11532     11535     11536
     11532     11535     11537     11532     11535     11538     11536     11535     11537
     11536     11535     11538     11537     11535     11538     11535     11538     11539
     11535     11538     11540     11535     11538     11541     11539     11538     11540
     11539     11538     11541     11540     11538     11541     11538     11541     11542
     11538     11541     11543     11538     11541     11544     11542     11541     11543
     11542     11541     11544     11543     11541     11544     11541     11544     11545
     11541     11544     11546     11541     11544     11547     11545     11544     11546
     11545     11544     11547     11546     11544     11547     11544     11547     11548
     11544     11547     11549     11544     11547     11550     11548     11547     11549
     11548     11547     11550     11549     11547     11550     11547     11550     11551
     11547     11550     11552     11547     11550     11553     11551     11550     11552
     11551     11550     11553     11552     11550     11553     11550     11553     11554
     11550     11553     11555     11554     11553     11555     11553     11555     11556
     11553     11555     11557     11556     11555     11557     11555     11557     11558
     11555     11557     11559     11555     11557     11560     11558     11557     11559
     11558     11557     11560     11559     11557     11560     11557     11560     11561
     11557     11560     11562     11557     11560     11563     11561     11560     11562
     11561     11560     11563     11562     11560     11563     11560     11563     11564
     11560     11563     11565     11560     11563     11566     11564     11563     11565
     11564     11563     11566     11565     11563     11566     11563     11566     11567
     11563     11566     11568     11563     11566     11569     11567     11566     11568
     11567     11566     11569     11568     11566     11569     11566     11569     11570
     11566     11569     11571     11566     11569     11572     11570     11569     11571
     11570     11569     11572     11571     11569     11572     11569     11572     11573
     11569     11572     11574     11569     11572     11575     11573     11572     11574
     11573     11572     11575     11574     11572     11575     11572     11575     11576
     11572     11575     11577     11572     11575     11578     11576     11575     11577
     11576     11575     11578     11577     11575     11578     11575     11578     11579
     11575     11578     11580     11575     11578     11581     11579     11578     11580
     11579     11578     11581     11580     11578     11581     11583     11582     11587
     11583     11582     11591     11583     11582     11595     11587     11582     11591
     11587     11582     11595     11591     11582     11595     11582     11583     11584
     11582     11583     11585     11582     11583     11586     11584     11583     11585
     11584     11583     11586     11585     11583     11586     11582     11587     11588
     11582     11587     11589     11582     11587     11590     11588     11587     11589
     11588     11587     11590     11589     11587     11590     11582     11591     11592
     11582     11591     11593     11582     11591     11594     11592     11591     11593
     11592     11591     11594     11593     11591     11594     11582     11595     11596
     11582     11595     11597     11582     11595     11598     11596     11595     11597
     11596     11595     11598     11597     11595     11598     11595     11598     11599
     11595     11598     11600     11595     11598     11605     11599     11598     11600
     11599     11598     11605     11600     11598     11605     11602     11601     11603
     11602     11601     11604     11602     11601     11605     11603     11601     11604
     11603     11601     11605     11604     11601     11605     11601     11604     11606
     11598     11605     11601     11604     11606     11607     11604     11606     11608
     11604     11606     11611     11607     11606     11608     11607     11606     11611
     11608     11606     11611     11610     11609     11611     11610     11609     11661
     11611     11609     11661     11606     11611     11609     11606     11611     11612
     11606     11611     11613     11609     11611     11612     11609     11611     11613
     11612     11611     11613     11611     11613     11614     11611     11613     11615
     11611     11613     11617     11614     11613     11615     11614     11613     11617
     11615     11613     11617     11613     11615     11616     11613     11617     11618
     11613     11617     11619     11618     11617     11619     11617     11619     11620
     11617     11619     11621     11620     11619     11621     11619     11621     11622
     11619     11621     11623     11619     11621     11624     11622     11621     11623
     11622     11621     11624     11623     11621     11624     11621     11624     11625
     11621     11624     11626     11621     11624     11627     11625     11624     11626
     11625     11624     11627     11626     11624     11627     11624     11627     11628
     11624     11627     11629     11624     11627     11630     11628     11627     11629
     11628     11627     11630     11629     11627     11630     11627     11630     11631
     11627     11630     11632     11627     11630     11633     11631     11630     11632
     11631     11630     11633     11632     11630     11633     11630     11633     11634
     11630     11633     11635     11630     11633     11636     11634     11633     11635
     11634     11633     11636     11635     11633     11636     11633     11636     11637
     11633     11636     11638     11633     11636     11639     11637     11636     11638
     11637     11636     11639     11638     11636     11639     11636     11639     11640
     11636     11639     11641     11636     11639     11642     11640     11639     11641
     11640     11639     11642     11641     11639     11642     11639     11642     11643
     11639     11642     11644     11639     11642     11645     11643     11642     11644
     11643     11642     11645     11644     11642     11645     11642     11645     11646
     11642     11645     11647     11642     11645     11648     11646     11645     11647
     11646     11645     11648     11647     11645     11648     11645     11648     11649
     11645     11648     11650     11645     11648     11651     11649     11648     11650
     11649     11648     11651     11650     11648     11651     11648     11651     11652
     11648     11651     11653     11648     11651     11654     11652     11651     11653
     11652     11651     11654     11653     11651     11654     11651     11654     11655
     11651     11654     11656     11651     11654     11657     11655     11654     11656
     11655     11654     11657     11656     11654     11657     11654     11657     11658
     11654     11657     11659     11654     11657     11660     11658     11657     11659
     11658     11657     11660     11659     11657     11660     11609     11661     11662
     11609     11661     11663     11662     11661     11663     11661     11663     11664
     11661     11663     11665     11661     11663     11666     11664     11663     11665
     11664     11663     11666     11665     11663     11666     11663     11666     11667
     11663     11666     11668     11663     11666     11669     11667     11666     11668
     11667     11666     11669     11668     11666     11669     11666     11669     11670
     11666     11669     11671     11666     11669     11672     11670     11669     11671
     11670     11669     11672     11671     11669     11672     11669     11672     11673
     11669     11672     11674     11669     11672     11675     11673     11672     11674
     11673     11672     11675     11674     11672     11675     11672     11675     11676
     11672     11675     11677     11672     11675     11678     11676     11675     11677
     11676     11675     11678     11677     11675     11678     11675     11678     11679
     11675     11678     11680     11675     11678     11681     11679     11678     11680
     11679     11678     11681     11680     11678     11681     11678     11681     11682
     11678     11681     11683     11678     11681     11684     11682     11681     11683
     11682     11681     11684     11683     11681     11684     11681     11684     11685
     11681     11684     11686     11685     11684     11686     11684     11686     11687
     11684     11686     11688     11687     11686     11688     11686     11688     11689
     11686     11688     11690     11686     11688     11691     11689     11688     11690
     11689     11688     11691     11690     11688     11691     11688     11691     11692
     11688     11691     11693     11688     11691     11694     11692     11691     11693
     11692     11691     11694     11693     11691     11694     11691     11694     11695
     11691     11694     11696     11691     11694     11697     11695     11694     11696
     11695     11694     11697     11696     11694     11697     11694     11697     11698
     11694     11697     11699     11694     11697     11700     11698     11697     11699
     11698     11697     11700     11699     11697     11700     11697     11700     11701
     11697     11700     11702     11697     11700     11703     11701     11700     11702
     11701     11700     11703     11702     11700     11703     11700     11703     11704
     11700     11703     11705     11700     11703     11706     11704     11703     11705
     11704     11703     11706     11705     11703     11706     11703     11706     11707
     11703     11706     11708     11703     11706     11709     11707     11706     11708
     11707     11706     11709     11708     11706     11709     11706     11709     11710
     11706     11709     11711     11706     11709     11712     11710     11709     11711
     11710     11709     11712     11711     11709     11712      7881      7880      7882
      7881      7880      7883      7881      7880      7884      7882      7880      7883
      7882      7880      7884      7883      7880      7884      7880      7884      7885
      7880      7884      7886      7880      7884      7889      7885      7884      7886
      7885      7884      7889      7886      7884      7889      7884      7886      7887
      7884      7886      7888      7887      7886      7888      7884      7889      7890
      7884      7889      7891      7884      7889      7895      7890      7889      7891
      7890      7889      7895      7891      7889      7895      7893      7892      7894
      7893      7892      7895      7893      7892      7896      7894      7892      7895
      7894      7892      7896      7895      7892      7896      7889      7895      7892
      7892      7896      7897      7896      7897      7898      7896      7897      7899
      7896      7897      7900      7898      7897      7899      7898      7897      7900
      7899      7897      7900      7897      7900      7901      7897      7900      7902
      7897      7900      7908      7901      7900      7902      7901      7900      7908
      7902      7900      7908      7900      7902      7903      7902      7903      7904
      7902      7903      7905      7904      7903      7905      7903      7905      7906
      7903      7905      7907      7903      7905      7917      7906      7905      7907
      7906      7905      7917      7907      7905      7917      7900      7908      7909
      7900      7908      7910      7900      7908      7911      7909      7908      7910
      7909      7908      7911      7910      7908      7911      7908      7911      7912
      7911      7912      7913      7911      7912      7914      7913      7912      7914
      7912      7914      7915      7912      7914      7916      7912      7914      7964
      7915      7914      7916      7915      7914      7964      7916      7914      7964
      7905      7917      7918      7905      7917      7919      7905      7917      7920
      7918      7917      7919      7918      7917      7920      7919      7917      7920
      7917      7920      7921      7917      7920      7922      7917      7920      7923
      7921      7920      7922      7921      7920      7923      7922      7920      7923
      7920      7923      7924      7920      7923      7925      7924      7923      7925
      7923      7925      7926      7923      7925      7927      7926      7925      7927
      7925      7927      7928      7925      7927      7929      7925      7927      7930
      7928      7927      7929      7928      7927      7930      7929      7927      7930
      7927      7930      7931      7927      7930      7932      7931      7930      7932
      7930      7932      7933      7930      7932      7934      7933      7932      7934
      7932      7934      7935      7932      7934      7936      7932      7934      7937
      7935      7934      7936      7935      7934      7937      7936      7934      7937
      7934      7937      7938      7934      7937      7939      7938      7937      7939
      7937      7939      7940      7937      7939      7941      7940      7939      7941
      7939      7941      7942      7939      7941      7943      7939      7941      7944
      7942      7941      7943      7942      7941      7944      7943      7941      7944
      7941      7944      7945      7941      7944      7946      7945      7944      7946
      7944      7946      7947      7944      7946      7948      7947      7946      7948
      7946      7948      7949      7946      7948      7950      7946      7948      7951
      7949      7948      7950      7949      7948      7951      7950      7948      7951
      7948      7951      7952      7948      7951      7953      7948      7951      7954
      7952      7951      7953      7952      7951      7954      7953      7951      7954
      7951      7954      7955      7951      7954      7956      7951      7954      7957
      7955      7954      7956      7955      7954      7957      7956      7954      7957
      7954      7957      7958      7954      7957      7959      7954      7957      7960
      7958      7957      7959      7958      7957      7960      7959      7957      7960
      7957      7960      7961      7957      7960      7962      7957      7960      7963
      7961      7960      7962      7961      7960      7963      7962      7960      7963
      7914      7964      7965      7914      7964      7966      7914      7964      7967
      7965      7964      7966      7965      7964      7967      7966      7964      7967
      7964      7967      7968      7964      7967      7969      7964      7967      7970
      7968      7967      7969      7968      7967      7970      7969      7967      7970
      7967      7970      7971      7967      7970      7972      7967      7970      7973
      7971      7970      7972      7971      7970      7973      7972      7970      7973
      7970      7973      7974      7970      7973      7975      7970      7973      7976
      7974      7973      7975      7974      7973      7976      7975      7973      7976
      7973      7976      7977      7973      7976      7978      7973      7976      7979
      7977      7976      7978      7977      7976      7979      7978      7976      7979
      7976      7979      7980      7976      7979      7981      7976      7979      7982
      7980      7979      7981      7980      7979      7982      7981      7979      7982
      7979      7982      7983      7979      7982      7984      7979      7982      7985
      7983      7982      7984      7983      7982      7985      7984      7982      7985
      7982      7985      7986      7982      7985      7987      7982      7985      7988
      7986      7985      7987      7986      7985      7988      7987      7985      7988
      7985      7988      7989      7985      7988      7990      7985      7988      7991
      7989      7988      7990      7989      7988      7991      7990      7988      7991
      7988      7991      7992      7988      7991      7993      7988      7991      7994
      7992      7991      7993      7992      7991      7994      7993      7991      7994
      7991      7994      7995      7991      7994      7996      7991      7994      7997
      7995      7994      7996      7995      7994      7997      7996      7994      7997
      7994      7997      7998      7994      7997      7999      7994      7997      8000
      7998      7997      7999      7998      7997      8000      7999      7997      8000
      7997      8000      8001      7997      8000      8002      7997      8000      8003
      8001      8000      8002      8001      8000      8003      8002      8000      8003
      8000      8003      8004      8000      8003      8005      8000      8003      8006
      8004      8003      8005      8004      8003      8006      8005      8003      8006
      8003      8006      8007      8003      8006      8008      8003      8006      8009
      8007      8006      8008      8007      8006      8009      8008      8006      8009
      8006      8009      8010      8006      8009      8011      8006      8009      8012
      8010      8009      8011      8010      8009      8012      8011      8009      8012
       446       445       447       446       445       449       446       445       491
       447       445       449       447       445       491       449       445       491
       445       447       448       445       449       450       445       449       451
       445       449       452       450       449       451       450       449       452
       451       449       452       449       452       453       449       452       483
       453       452       483       452       453       454       452       453       455
       454       453       455       453       455       456       453       455       457
       453       455       458       456       455       457       456       455       458
       457       455       458       455       458       459       455       458       460
       455       458       481       459       458       460       459       458       481
       460       458       481       458       460       461       458       460       462
       458       460       470       461       460       462       461       460       470
       462       460       470       460       462       463       460       462       464
       460       462       465       463       462       464       463       462       465
       464       462       465       462       465       466       462       465       467
       462       465       468       466       465       467       466       465       468
       467       465       468       465       468       469       465       468       470
       465       468       494       469       468       470       469       468       494
       470       468       494       460       470       468       460       470       471
       460       470       475       468       470       471       468       470       475
       471       470       475       470       471       472       470       471       473
       470       471       474       472       471       473       472       471       474
       473       471       474       470       475       476       470       475       477
       470       475       478       476       475       477       476       475       478
       477       475       478       475       478       479       475       478       480
       475       478       481       479       478       480       479       478       481
       480       478       481       458       481       478       458       481       482
       458       481       483       478       481       482       478       481       483
       482       481       483       452       483       481       452       483       484
       452       483       488       481       483       484       481       483       488
       484       483       488       483       484       485       483       484       486
       483       484       487       485       484       486       485       484       487
       486       484       487       483       488       489       483       488       490
       483       488       491       489       488       490       489       488       491
       490       488       491       445       491       488       445       491       492
       445       491       493       488       491       492       488       491       493
       492       491       493       468       494       495       468       494       496
       468       494       500       495       494       496       495       494       500
       496       494       500       494       496       497       494       496       498
       494       496       499       497       496       498       497       496       499
       498       496       499       494       500       501       494       500       502
       494       500       503       501       500       502       501       500       503
       502       500       503       500       503       504       500       503       505
       500       503       506       504       503       505       504       503       506
       505       503       506       503       506       507       503       506       508
       503       506       509       507       506       508       507       506       509
       508       506       509       506       509       510       506       509       511
       506       509       515       510       509       511       510       509       515
       511       509       515       509       511       512       509       511       513
       509       511       514       512       511       513       512       511       514
       513       511       514       509       515       516       509       515       517
       509       515       518       516       515       517       516       515       518
       517       515       518     16168     16167     16169     16168     16167     16170
     16168     16167     16171     16169     16167     16170     16169     16167     16171
     16170     16167     16171     16167     16171     16172     16167     16171     16173
     16167     16171     16174     16172     16171     16173     16172     16171     16174
     16173     16171     16174     16171     16174     16175     16171     16174     16176
     16171     16174     16180     16175     16174     16176     16175     16174     16180
     16176     16174     16180     16178     16177     16179     16178     16177     16180
     16178     16177     16181     16179     16177     16180     16179     16177     16181
     16180     16177     16181     16174     16180     16177     16177     16181     16182
     16181     16182     16183     16181     16182     16184     16181     16182     16185
     16183     16182     16184     16183     16182     16185     16184     16182     16185
     16182     16185     16186     16182     16185     16187     16182     16185     16193
     16186     16185     16187     16186     16185     16193     16187     16185     16193
     16185     16187     16188     16187     16188     16189     16187     16188     16190
     16189     16188     16190     16188     16190     16191     16188     16190     16192
     16188     16190     16202     16191     16190     16192     16191     16190     16202
     16192     16190     16202     16185     16193     16194     16185     16193     16195
     16185     16193     16196     16194     16193     16195     16194     16193     16196
     16195     16193     16196     16193     16196     16197     16196     16197     16198
     16196     16197     16199     16198     16197     16199     16197     16199     16200
     16197     16199     16201     16197     16199     16249     16200     16199     16201
     16200     16199     16249     16201     16199     16249     16190     16202     16203
     16190     16202     16204     16190     16202     16205     16203     16202     16204
     16203     16202     16205     16204     16202     16205     16202     16205     16206
     16202     16205     16207     16202     16205     16208     16206     16205     16207
     16206     16205     16208     16207     16205     16208     16205     16208     16209
     16205     16208     16210     16209     16208     16210     16208     16210     16211
     16208     16210     16212     16211     16210     16212     16210     16212     16213
     16210     16212     16214     16210     16212     16215     16213     16212     16214
     16213     16212     16215     16214     16212     16215     16212     16215     16216
     16212     16215     16217     16216     16215     16217     16215     16217     16218
     16215     16217     16219     16218     16217     16219     16217     16219     16220
     16217     16219     16221     16217     16219     16222     16220     16219     16221
     16220     16219     16222     16221     16219     16222     16219     16222     16223
     16219     16222     16224     16223     16222     16224     16222     16224     16225
     16222     16224     16226     16225     16224     16226     16224     16226     16227
     16224     16226     16228     16224     16226     16229     16227     16226     16228
     16227     16226     16229     16228     16226     16229     16226     16229     16230
     16226     16229     16231     16230     16229     16231     16229     16231     16232
     16229     16231     16233     16232     16231     16233     16231     16233     16234
     16231     16233     16235     16231     16233     16236     16234     16233     16235
     16234     16233     16236     16235     16233     16236     16233     16236     16237
     16233     16236     16238     16233     16236     16239     16237     16236     16238
     16237     16236     16239     16238     16236     16239     16236     16239     16240
     16236     16239     16241     16236     16239     16242     16240     16239     16241
     16240     16239     16242     16241     16239     16242     16239     16242     16243
     16239     16242     16244     16239     16242     16245     16243     16242     16244
     16243     16242     16245     16244     16242     16245     16242     16245     16246
     16242     16245     16247     16242     16245     16248     16246     16245     16247
     16246     16245     16248     16247     16245     16248     16199     16249     16250
     16199     16249     16251     16199     16249     16252     16250     16249     16251
     16250     16249     16252     16251     16249     16252     16249     16252     16253
     16249     16252     16254     16249     16252     16255     16253     16252     16254
     16253     16252     16255     16254     16252     16255     16252     16255     16256
     16252     16255     16257     16252     16255     16258     16256     16255     16257
     16256     16255     16258     16257     16255     16258     16255     16258     16259
     16255     16258     16260     16255     16258     16261     16259     16258     16260
     16259     16258     16261     16260     16258     16261     16258     16261     16262
     16258     16261     16263     16258     16261     16264     16262     16261     16263
     16262     16261     16264     16263     16261     16264     16261     16264     16265
     16261     16264     16266     16261     16264     16267     16265     16264     16266
     16265     16264     16267     16266     16264     16267     16264     16267     16268
     16264     16267     16269     16264     16267     16270     16268     16267     16269
     16268     16267     16270     16269     16267     16270     16267     16270     16271
     16267     16270     16272     16267     16270     16273     16271     16270     16272
     16271     16270     16273     16272     16270     16273     16270     16273     16274
     16270     16273     16275     16270     16273     16276     16274     16273     16275
     16274     16273     16276     16275     16273     16276     16273     16276     16277
     16273     16276     16278     16273     16276     16279     16277     16276     16278
     16277     16276     16279     16278     16276     16279     16276     16279     16280
     16276     16279     16281     16276     16279     16282     16280     16279     16281
     16280     16279     16282     16281     16279     16282     16279     16282     16283
     16279     16282     16284     16279     16282     16285     16283     16282     16284
     16283     16282     16285     16284     16282     16285     16282     16285     16286
     16282     16285     16287     16282     16285     16288     16286     16285     16287
     16286     16285     16288     16287     16285     16288     16285     16288     16289
     16285     16288     16290     16285     16288     16291     16289     16288     16290
     16289     16288     16291     16290     16288     16291     16288     16291     16292
     16288     16291     16293     16288     16291     16294     16292     16291     16293
     16292     16291     16294     16293     16291     16294     16291     16294     16295
     16291     16294     16296     16291     16294     16297     16295     16294     16296
     16295     16294     16297     16296     16294     16297     21146     21145     21147
     21146     21145     21149     21146     21145     21165     21147     21145     21149
     21147     21145     21165     21149     21145     21165     21145     21147     21148
     21145     21149     21150     21145     21149     21151     21145     21149     21153
     21150     21149     21151     21150     21149     21153     21151     21149     21153
     21149     21151     21152     21149     21153     21154     21149     21153     21155
     21149     21153     21157     21154     21153     21155     21154     21153     21157
     21155     21153     21157     21153     21155     21156     21153     21157     21158
     21153     21157     21159     21153     21157     21161     21158     21157     21159
     21158     21157     21161     21159     21157     21161     21157     21159     21160
     21157     21161     21162     21157     21161     21163     21157     21161     21165
     21162     21161     21163     21162     21161     21165     21163     21161     21165
     21161     21163     21164     21145     21165     21161     21145     21165     21166
     21145     21165     21170     21161     21165     21166     21161     21165     21170
     21166     21165     21170     21168     21167     21169     21168     21167     21170
     21168     21167     21171     21169     21167     21170     21169     21167     21171
     21170     21167     21171     21165     21170     21167     21167     21171     21172
     21171     21172     21173     21171     21172     21174     21171     21172     21175
     21173     21172     21174     21173     21172     21175     21174     21172     21175
     21172     21175     21176     21172     21175     21177     21172     21175     21183
     21176     21175     21177     21176     21175     21183     21177     21175     21183
     21175     21177     21178     21177     21178     21179     21177     21178     21180
     21179     21178     21180     21178     21180     21181     21178     21180     21182
     21178     21180     21192     21181     21180     21182     21181     21180     21192
     21182     21180     21192     21175     21183     21184     21175     21183     21185
     21175     21183     21186     21184     21183     21185     21184     21183     21186
     21185     21183     21186     21183     21186     21187     21186     21187     21188
     21186     21187     21189     21188     21187     21189     21187     21189     21190
     21187     21189     21191     21187     21189     21239     21190     21189     21191
     21190     21189     21239     21191     21189     21239     21180     21192     21193
     21180     21192     21194     21180     21192     21195     21193     21192     21194
     21193     21192     21195     21194     21192     21195     21192     21195     21196
     21192     21195     21197     21192     21195     21198     21196     21195     21197
     21196     21195     21198     21197     21195     21198     21195     21198     21199
     21195     21198     21200     21199     21198     21200     21198     21200     21201
     21198     21200     21202     21201     21200     21202     21200     21202     21203
     21200     21202     21204     21200     21202     21205     21203     21202     21204
     21203     21202     21205     21204     21202     21205     21202     21205     21206
     21202     21205     21207     21206     21205     21207     21205     21207     21208
     21205     21207     21209     21208     21207     21209     21207     21209     21210
     21207     21209     21211     21207     21209     21212     21210     21209     21211
     21210     21209     21212     21211     21209     21212     21209     21212     21213
     21209     21212     21214     21213     21212     21214     21212     21214     21215
     21212     21214     21216     21215     21214     21216     21214     21216     21217
     21214     21216     21218     21214     21216     21219     21217     21216     21218
     21217     21216     21219     21218     21216     21219     21216     21219     21220
     21216     21219     21221     21220     21219     21221     21219     21221     21222
     21219     21221     21223     21222     21221     21223     21221     21223     21224
     21221     21223     21225     21221     21223     21226     21224     21223     21225
     21224     21223     21226     21225     21223     21226     21223     21226     21227
     21223     21226     21228     21223     21226     21229     21227     21226     21228
     21227     21226     21229     21228     21226     21229     21226     21229     21230
     21226     21229     21231     21226     21229     21232     21230     21229     21231
     21230     21229     21232     21231     21229     21232     21229     21232     21233
     21229     21232     21234     21229     21232     21235     21233     21232     21234
     21233     21232     21235     21234     21232     21235     21232     21235     21236
     21232     21235     21237     21232     21235     21238     21236     21235     21237
     21236     21235     21238     21237     21235     21238     21189     21239     21240
     21189     21239     21241     21189     21239     21242     21240     21239     21241
     21240     21239     21242     21241     21239     21242     21239     21242     21243
     21239     21242     21244     21239     21242     21245     21243     21242     21244
     21243     21242     21245     21244     21242     21245     21242     21245     21246
     21242     21245     21247     21242     21245     21248     21246     21245     21247
     21246     21245     21248     21247     21245     21248     21245     21248     21249
     21245     21248     21250     21245     21248     21251     21249     21248     21250
     21249     21248     21251     21250     21248     21251     21248     21251     21252
     21248     21251     21253     21248     21251     21254     21252     21251     21253
     21252     21251     21254     21253     21251     21254     21251     21254     21255
     21251     21254     21256     21251     21254     21257     21255     21254     21256
     21255     21254     21257     21256     21254     21257     21254     21257     21258
     21254     21257     21259     21254     21257     21260     21258     21257     21259
     21258     21257     21260     21259     21257     21260     21257     21260     21261
     21257     21260     21262     21257     21260     21263     21261     21260     21262
     21261     21260     21263     21262     21260     21263     21260     21263     21264
     21260     21263     21265     21260     21263     21266     21264     21263     21265
     21264     21263     21266     21265     21263     21266     21263     21266     21267
     21263     21266     21268     21263     21266     21269     21267     21266     21268
     21267     21266     21269     21268     21266     21269     21266     21269     21270
     21266     21269     21271     21266     21269     21272     21270     21269     21271
     21270     21269     21272     21271     21269     21272     21269     21272     21273
     21269     21272     21274     21269     21272     21275     21273     21272     21274
     21273     21272     21275     21274     21272     21275     21272     21275     21276
     21272     21275     21277     21272     21275     21278     21276     21275     21277
     21276     21275     21278     21277     21275     21278     21275     21278     21279
     21275     21278     21280     21275     21278     21281     21279     21278     21280
     21279     21278     21281     21280     21278     21281     21278     21281     21282
     21278     21281     21283     21278     21281     21284     21282     21281     21283
     21282     21281     21284     21283     21281     21284     21281     21284     21285
     21281     21284     21286     21281     21284     21287     21285     21284     21286
     21285     21284     21287     21286     21284     21287     16299     16298     16300
     16299     16298     16301     16299     16298     16302     16300     16298     16301
     16300     16298     16302     16301     16298     16302     16298     16302     16303
     16298     16302     16304     16298     16302     16305     16303     16302     16304
     16303     16302     16305     16304     16302     16305     16302     16305     16306
     16302     16305     16307     16302     16305     16311     16306     16305     16307
     16306     16305     16311     16307     16305     16311     16309     16308     16310
     16309     16308     16311     16309     16308     16312     16310     16308     16311
     16310     16308     16312     16311     16308     16312     16305     16311     16308
     16308     16312     16313     16312     16313     16314     16312     16313     16315
     16312     16313     16316     16314     16313     16315     16314     16313     16316
     16315     16313     16316     16313     16316     16317     16313     16316     16318
     16313     16316     16324     16317     16316     16318     16317     16316     16324
     16318     16316     16324     16316     16318     16319     16318     16319     16320
     16318     16319     16321     16320     16319     16321     16319     16321     16322
     16319     16321     16323     16319     16321     16333     16322     16321     16323
     16322     16321     16333     16323     16321     16333     16316     16324     16325
     16316     16324     16326     16316     16324     16327     16325     16324     16326
     16325     16324     16327     16326     16324     16327     16324     16327     16328
     16327     16328     16329     16327     16328     16330     16329     16328     16330
     16328     16330     16331     16328     16330     16332     16328     16330     16380
     16331     16330     16332     16331     16330     16380     16332     16330     16380
     16321     16333     16334     16321     16333     16335     16321     16333     16336
     16334     16333     16335     16334     16333     16336     16335     16333     16336
     16333     16336     16337     16333     16336     16338     16333     16336     16339
     16337     16336     16338     16337     16336     16339     16338     16336     16339
     16336     16339     16340     16336     16339     16341     16340     16339     16341
     16339     16341     16342     16339     16341     16343     16342     16341     16343
     16341     16343     16344     16341     16343     16345     16341     16343     16346
     16344     16343     16345     16344     16343     16346     16345     16343     16346
     16343     16346     16347     16343     16346     16348     16347     16346     16348
     16346     16348     16349     16346     16348     16350     16349     16348     16350
     16348     16350     16351     16348     16350     16352     16348     16350     16353
     16351     16350     16352     16351     16350     16353     16352     16350     16353
     16350     16353     16354     16350     16353     16355     16354     16353     16355
     16353     16355     16356     16353     16355     16357     16356     16355     16357
     16355     16357     16358     16355     16357     16359     16355     16357     16360
     16358     16357     16359     16358     16357     16360     16359     16357     16360
     16357     16360     16361     16357     16360     16362     16361     16360     16362
     16360     16362     16363     16360     16362     16364     16363     16362     16364
     16362     16364     16365     16362     16364     16366     16362     16364     16367
     16365     16364     16366     16365     16364     16367     16366     16364     16367
     16364     16367     16368     16364     16367     16369     16364     16367     16370
     16368     16367     16369     16368     16367     16370     16369     16367     16370
     16367     16370     16371     16367     16370     16372     16367     16370     16373
     16371     16370     16372     16371     16370     16373     16372     16370     16373
     16370     16373     16374     16370     16373     16375     16370     16373     16376
     16374     16373     16375     16374     16373     16376     16375     16373     16376
     16373     16376     16377     16373     16376     16378     16373     16376     16379
     16377     16376     16378     16377     16376     16379     16378     16376     16379
     16330     16380     16381     16330     16380     16382     16330     16380     16383
     16381     16380     16382     16381     16380     16383     16382     16380     16383
     16380     16383     16384     16380     16383     16385     16380     16383     16386
     16384     16383     16385     16384     16383     16386     16385     16383     16386
     16383     16386     16387     16383     16386     16388     16383     16386     16389
     16387     16386     16388     16387     16386     16389     16388     16386     16389
     16386     16389     16390     16386     16389     16391     16386     16389     16392
     16390     16389     16391     16390     16389     16392     16391     16389     16392
     16389     16392     16393     16389     16392     16394     16389     16392     16395
     16393     16392     16394     16393     16392     16395     16394     16392     16395
     16392     16395     16396     16392     16395     16397     16392     16395     16398
     16396     16395     16397     16396     16395     16398     16397     16395     16398
     16395     16398     16399     16395     16398     16400     16395     16398     16401
     16399     16398     16400     16399     16398     16401     16400     16398     16401
     16398     16401     16402     16398     16401     16403     16398     16401     16404
     16402     16401     16403     16402     16401     16404     16403     16401     16404
     16401     16404     16405     16401     16404     16406     16401     16404     16407
     16405     16404     16406     16405     16404     16407     16406     16404     16407
     16404     16407     16408     16404     16407     16409     16404     16407     16410
     16408     16407     16409     16408     16407     16410     16409     16407     16410
     16407     16410     16411     16407     16410     16412     16407     16410     16413
     16411     16410     16412     16411     16410     16413     16412     16410     16413
     16410     16413     16414     16410     16413     16415     16410     16413     16416
     16414     16413     16415     16414     16413     16416     16415     16413     16416
     16413     16416     16417     16413     16416     16418     16413     16416     16419
     16417     16416     16418     16417     16416     16419     16418     16416     16419
     16416     16419     16420     16416     16419     16421     16416     16419     16422
     16420     16419     16421     16420     16419     16422     16421     16419     16422
     16419     16422     16423     16419     16422     16424     16419     16422     16425
     16423     16422     16424     16423     16422     16425     16424     16422     16425
     16422     16425     16426     16422     16425     16427     16422     16425     16428
     16426     16425     16427     16426     16425     16428     16427     16425     16428
     16430     16429     16431     16430     16429     16432     16430     16429     16433
     16431     16429     16432     16431     16429     16433     16432     16429     16433
     16429     16433     16434     16429     16433     16435     16429     16433     16436
     16434     16433     16435     16434     16433     16436     16435     16433     16436
     16433     16436     16437     16433     16436     16438     16433     16436     16442
     16437     16436     16438     16437     16436     16442     16438     16436     16442
     16440     16439     16441     16440     16439     16442     16440     16439     16443
     16441     16439     16442     16441     16439     16443     16442     16439     16443
     16436     16442     16439     16439     16443     16444     16443     16444     16445
     16443     16444     16446     16443     16444     16447     16445     16444     16446
     16445     16444     16447     16446     16444     16447     16444     16447     16448
     16444     16447     16449     16444     16447     16455     16448     16447     16449
     16448     16447     16455     16449     16447     16455     16447     16449     16450
     16449     16450     16451     16449     16450     16452     16451     16450     16452
     16450     16452     16453     16450     16452     16454     16450     16452     16464
     16453     16452     16454     16453     16452     16464     16454     16452     16464
     16447     16455     16456     16447     16455     16457     16447     16455     16458
     16456     16455     16457     16456     16455     16458     16457     16455     16458
     16455     16458     16459     16458     16459     16460     16458     16459     16461
     16460     16459     16461     16459     16461     16462     16459     16461     16463
     16459     16461     16511     16462     16461     16463     16462     16461     16511
     16463     16461     16511     16452     16464     16465     16452     16464     16466
     16452     16464     16467     16465     16464     16466     16465     16464     16467
     16466     16464     16467     16464     16467     16468     16464     16467     16469
     16464     16467     16470     16468     16467     16469     16468     16467     16470
     16469     16467     16470     16467     16470     16471     16467     16470     16472
     16471     16470     16472     16470     16472     16473     16470     16472     16474
     16473     16472     16474     16472     16474     16475     16472     16474     16476
     16472     16474     16477     16475     16474     16476     16475     16474     16477
     16476     16474     16477     16474     16477     16478     16474     16477     16479
     16478     16477     16479     16477     16479     16480     16477     16479     16481
     16480     16479     16481     16479     16481     16482     16479     16481     16483
     16479     16481     16484     16482     16481     16483     16482     16481     16484
     16483     16481     16484     16481     16484     16485     16481     16484     16486
     16485     16484     16486     16484     16486     16487     16484     16486     16488
     16487     16486     16488     16486     16488     16489     16486     16488     16490
     16486     16488     16491     16489     16488     16490     16489     16488     16491
     16490     16488     16491     16488     16491     16492     16488     16491     16493
     16492     16491     16493     16491     16493     16494     16491     16493     16495
     16494     16493     16495     16493     16495     16496     16493     16495     16497
     16493     16495     16498     16496     16495     16497     16496     16495     16498
     16497     16495     16498     16495     16498     16499     16495     16498     16500
     16495     16498     16501     16499     16498     16500     16499     16498     16501
     16500     16498     16501     16498     16501     16502     16498     16501     16503
     16498     16501     16504     16502     16501     16503     16502     16501     16504
     16503     16501     16504     16501     16504     16505     16501     16504     16506
     16501     16504     16507     16505     16504     16506     16505     16504     16507
     16506     16504     16507     16504     16507     16508     16504     16507     16509
     16504     16507     16510     16508     16507     16509     16508     16507     16510
     16509     16507     16510     16461     16511     16512     16461     16511     16513
     16461     16511     16514     16512     16511     16513     16512     16511     16514
     16513     16511     16514     16511     16514     16515     16511     16514     16516
     16511     16514     16517     16515     16514     16516     16515     16514     16517
     16516     16514     16517     16514     16517     16518     16514     16517     16519
     16514     16517     16520     16518     16517     16519     16518     16517     16520
     16519     16517     16520     16517     16520     16521     16517     16520     16522
     16517     16520     16523     16521     16520     16522     16521     16520     16523
     16522     16520     16523     16520     16523     16524     16520     16523     16525
     16520     16523     16526     16524     16523     16525     16524     16523     16526
     16525     16523     16526     16523     16526     16527     16523     16526     16528
     16523     16526     16529     16527     16526     16528     16527     16526     16529
     16528     16526     16529     16526     16529     16530     16526     16529     16531
     16526     16529     16532     16530     16529     16531     16530     16529     16532
     16531     16529     16532     16529     16532     16533     16529     16532     16534
     16529     16532     16535     16533     16532     16534     16533     16532     16535
     16534     16532     16535     16532     16535     16536     16532     16535     16537
     16532     16535     16538     16536     16535     16537     16536     16535     16538
     16537     16535     16538     16535     16538     16539     16535     16538     16540
     16535     16538     16541     16539     16538     16540     16539     16538     16541
     16540     16538     16541     16538     16541     16542     16538     16541     16543
     16538     16541     16544     16542     16541     16543     16542     16541     16544
     16543     16541     16544     16541     16544     16545     16541     16544     16546
     16541     16544     16547     16545     16544     16546     16545     16544     16547
     16546     16544     16547     16544     16547     16548     16544     16547     16549
     16544     16547     16550     16548     16547     16549     16548     16547     16550
     16549     16547     16550     16547     16550     16551     16547     16550     16552
     16547     16550     16553     16551     16550     16552     16551     16550     16553
     16552     16550     16553     16550     16553     16554     16550     16553     16555
     16550     16553     16556     16554     16553     16555     16554     16553     16556
     16555     16553     16556     16553     16556     16557     16553     16556     16558
     16553     16556     16559     16557     16556     16558     16557     16556     16559
     16558     16556     16559       520       519       521       520       519       523
       520       519       565       521       519       523       521       519       565
       523       519       565       519       521       522       519       523       524
       519       523       525       519       523       526       524       523       525
       524       523       526       525       523       526       523       526       527
       523       526       557       527       526       557       526       527       528
       526       527       529       528       527       529       527       529       530
       527       529       531       527       529       532       530       529       531
       530       529       532       531       529       532       529       532       533
       529       532       534       529       532       555       533       532       534
       533       532       555       534       532       555       532       534       535
       532       534       536       532       534       544       535       534       536
       535       534       544       536       534       544       534       536       537
       534       536       538       534       536       539       537       536       538
       537       536       539       538       536       539       536       539       540
       536       539       541       536       539       542       540       539       541
       540       539       542       541       539       542       539       542       543
       539       542       544       539       542       568       543       542       544
       543       542       568       544       542       568       534       544       542
       534       544       545       534       544       549       542       544       545
       542       544       549       545       544       549       544       545       546
       544       545       547       544       545       548       546       545       547
       546       545       548       547       545       548       544       549       550
       544       549       551       544       549       552       550       549       551
       550       549       552       551       549       552       549       552       553
       549       552       554       549       552       555       553       552       554
       553       552       555       554       552       555       532       555       552
       532       555       556       532       555       557       552       555       556
       552       555       557       556       555       557       526       557       555
       526       557       558       526       557       562       555       557       558
       555       557       562       558       557       562       557       558       559
       557       558       560       557       558       561       559       558       560
       559       558       561       560       558       561       557       562       563
       557       562       564       557       562       565       563       562       564
       563       562       565       564       562       565       519       565       562
       519       565       566       519       565       567       562       565       566
       562       565       567       566       565       567       542       568       569
       542       568       570       542       568       574       569       568       570
       569       568       574       570       568       574       568       570       571
       568       570       572       568       570       573       571       570       572
       571       570       573       572       570       573       568       574       575
       568       574       576       568       574       577       575       574       576
       575       574       577       576       574       577       574       577       578
       574       577       579       574       577       580       578       577       579
       578       577       580       579       577       580       577       580       581
       577       580       582       577       580       583       581       580       582
       581       580       583       582       580       583       580       583       584
       580       583       585       580       583       589       584       583       585
       584       583       589       585       583       589       583       585       586
       583       585       587       583       585       588       586       585       587
       586       585       588       587       585       588       583       589       590
       583       589       591       583       589       592       590       589       591
       590       589       592       591       589       592     16561     16560     16562
     16561     16560     16563     16561     16560     16564     16562     16560     16563
     16562     16560     16564     16563     16560     16564     16560     16564     16565
     16560     16564     16566     16560     16564     16567     16565     16564     16566
     16565     16564     16567     16566     16564     16567     16564     16567     16568
     16564     16567     16569     16564     16567     16573     16568     16567     16569
     16568     16567     16573     16569     16567     16573     16571     16570     16572
     16571     16570     16573     16571     16570     16574     16572     16570     16573
     16572     16570     16574     16573     16570     16574     16567     16573     16570
     16570     16574     16575     16574     16575     16576     16574     16575     16577
     16574     16575     16578     16576     16575     16577     16576     16575     16578
     16577     16575     16578     16575     16578     16579     16575     16578     16580
     16575     16578     16586     16579     16578     16580     16579     16578     16586
     16580     16578     16586     16578     16580     16581     16580     16581     16582
     16580     16581     16583     16582     16581     16583     16581     16583     16584
     16581     16583     16585     16581     16583     16595     16584     16583     16585
     16584     16583     16595     16585     16583     16595     16578     16586     16587
     16578     16586     16588     16578     16586     16589     16587     16586     16588
     16587     16586     16589     16588     16586     16589     16586     16589     16590
     16589     16590     16591     16589     16590     16592     16591     16590     16592
     16590     16592     16593     16590     16592     16594     16590     16592     16642
     16593     16592     16594     16593     16592     16642     16594     16592     16642
     16583     16595     16596     16583     16595     16597     16583     16595     16598
     16596     16595     16597     16596     16595     16598     16597     16595     16598
     16595     16598     16599     16595     16598     16600     16595     16598     16601
     16599     16598     16600     16599     16598     16601     16600     16598     16601
     16598     16601     16602     16598     16601     16603     16602     16601     16603
     16601     16603     16604     16601     16603     16605     16604     16603     16605
     16603     16605     16606     16603     16605     16607     16603     16605     16608
     16606     16605     16607     16606     16605     16608     16607     16605     16608
     16605     16608     16609     16605     16608     16610     16609     16608     16610
     16608     16610     16611     16608     16610     16612     16611     16610     16612
     16610     16612     16613     16610     16612     16614     16610     16612     16615
     16613     16612     16614     16613     16612     16615     16614     16612     16615
     16612     16615     16616     16612     16615     16617     16616     16615     16617
     16615     16617     16618     16615     16617     16619     16618     16617     16619
     16617     16619     16620     16617     16619     16621     16617     16619     16622
     16620     16619     16621     16620     16619     16622     16621     16619     16622
     16619     16622     16623     16619     16622     16624     16623     16622     16624
     16622     16624     16625     16622     16624     16626     16625     16624     16626
     16624     16626     16627     16624     16626     16628     16624     16626     16629
     16627     16626     16628     16627     16626     16629     16628     16626     16629
     16626     16629     16630     16626     16629     16631     16626     16629     16632
     16630     16629     16631     16630     16629     16632     16631     16629     16632
     16629     16632     16633     16629     16632     16634     16629     16632     16635
     16633     16632     16634     16633     16632     16635     16634     16632     16635
     16632     16635     16636     16632     16635     16637     16632     16635     16638
     16636     16635     16637     16636     16635     16638     16637     16635     16638
     16635     16638     16639     16635     16638     16640     16635     16638     16641
     16639     16638     16640     16639     16638     16641     16640     16638     16641
     16592     16642     16643     16592     16642     16644     16592     16642     16645
     16643     16642     16644     16643     16642     16645     16644     16642     16645
     16642     16645     16646     16642     16645     16647     16642     16645     16648
     16646     16645     16647     16646     16645     16648     16647     16645     16648
     16645     16648     16649     16645     16648     16650     16645     16648     16651
     16649     16648     16650     16649     16648     16651     16650     16648     16651
     16648     16651     16652     16648     16651     16653     16648     16651     16654
     16652     16651     16653     16652     16651     16654     16653     16651     16654
     16651     16654     16655     16651     16654     16656     16651     16654     16657
     16655     16654     16656     16655     16654     16657     16656     16654     16657
     16654     16657     16658     16654     16657     16659     16654     16657     16660
     16658     16657     16659     16658     16657     16660     16659     16657     16660
     16657     16660     16661     16657     16660     16662     16657     16660     16663
     16661     16660     16662     16661     16660     16663     16662     16660     16663
     16660     16663     16664     16660     16663     16665     16660     16663     16666
     16664     16663     16665     16664     16663     16666     16665     16663     16666
     16663     16666     16667     16663     16666     16668     16663     16666     16669
     16667     16666     16668     16667     16666     16669     16668     16666     16669
     16666     16669     16670     16666     16669     16671     16666     16669     16672
     16670     16669     16671     16670     16669     16672     16671     16669     16672
     16669     16672     16673     16669     16672     16674     16669     16672     16675
     16673     16672     16674     16673     16672     16675     16674     16672     16675
     16672     16675     16676     16672     16675     16677     16672     16675     16678
     16676     16675     16677     16676     16675     16678     16677     16675     16678
     16675     16678     16679     16675     16678     16680     16675     16678     16681
     16679     16678     16680     16679     16678     16681     16680     16678     16681
     16678     16681     16682     16678     16681     16683     16678     16681     16684
     16682     16681     16683     16682     16681     16684     16683     16681     16684
     16681     16684     16685     16681     16684     16686     16681     16684     16687
     16685     16684     16686     16685     16684     16687     16686     16684     16687
     16684     16687     16688     16684     16687     16689     16684     16687     16690
     16688     16687     16689     16688     16687     16690     16689     16687     16690
     11714     11713     11718     11714     11713     11722     11714     11713     11726
     11718     11713     11722     11718     11713     11726     11722     11713     11726
     11713     11714     11715     11713     11714     11716     11713     11714     11717
     11715     11714     11716     11715     11714     11717     11716     11714     11717
     11713     11718     11719     11713     11718     11720     11713     11718     11721
     11719     11718     11720     11719     11718     11721     11720     11718     11721
     11713     11722     11723     11713     11722     11724     11713     11722     11725
     11723     11722     11724     11723     11722     11725     11724     11722     11725
     11713     11726     11727     11713     11726     11728     11713     11726     11729
     11727     11726     11728     11727     11726     11729     11728     11726     11729
     11726     11729     11730     11726     11729     11731     11726     11729     11736
     11730     11729     11731     11730     11729     11736     11731     11729     11736
     11733     11732     11734     11733     11732     11735     11733     11732     11736
     11734     11732     11735     11734     11732     11736     11735     11732     11736
     11732     11735     11737     11729     11736     11732     11735     11737     11738
     11735     11737     11739     11735     11737     11742     11738     11737     11739
     11738     11737     11742     11739     11737     11742     11741     11740     11742
     11741     11740     11792     11742     11740     11792     11737     11742     11740
     11737     11742     11743     11737     11742     11744     11740     11742     11743
     11740     11742     11744     11743     11742     11744     11742     11744     11745
     11742     11744     11746     11742     11744     11748     11745     11744     11746
     11745     11744     11748     11746     11744     11748     11744     11746     11747
     11744     11748     11749     11744     11748     11750     11749     11748     11750
     11748     11750     11751     11748     11750     11752     11751     11750     11752
     11750     11752     11753     11750     11752     11754     11750     11752     11755
     11753     11752     11754     11753     11752     11755     11754     11752     11755
     11752     11755     11756     11752     11755     11757     11752     11755     11758
     11756     11755     11757     11756     11755     11758     11757     11755     11758
     11755     11758     11759     11755     11758     11760     11755     11758     11761
     11759     11758     11760     11759     11758     11761     11760     11758     11761
     11758     11761     11762     11758     11761     11763     11758     11761     11764
     11762     11761     11763     11762     11761     11764     11763     11761     11764
     11761     11764     11765     11761     11764     11766     11761     11764     11767
     11765     11764     11766     11765     11764     11767     11766     11764     11767
     11764     11767     11768     11764     11767     11769     11764     11767     11770
     11768     11767     11769     11768     11767     11770     11769     11767     11770
     11767     11770     11771     11767     11770     11772     11767     11770     11773
     11771     11770     11772     11771     11770     11773     11772     11770     11773
     11770     11773     11774     11770     11773     11775     11770     11773     11776
     11774     11773     11775     11774     11773     11776     11775     11773     11776
     11773     11776     11777     11773     11776     11778     11773     11776     11779
     11777     11776     11778     11777     11776     11779     11778     11776     11779
     11776     11779     11780     11776     11779     11781     11776     11779     11782
     11780     11779     11781     11780     11779     11782     11781     11779     11782
     11779     11782     11783     11779     11782     11784     11779     11782     11785
     11783     11782     11784     11783     11782     11785     11784     11782     11785
     11782     11785     11786     11782     11785     11787     11782     11785     11788
     11786     11785     11787     11786     11785     11788     11787     11785     11788
     11785     11788     11789     11785     11788     11790     11785     11788     11791
     11789     11788     11790     11789     11788     11791     11790     11788     11791
     11740     11792     11793     11740     11792     11794     11793     11792     11794
     11792     11794     11795     11792     11794     11796     11792     11794     11797
     11795     11794     11796     11795     11794     11797     11796     11794     11797
     11794     11797     11798     11794     11797     11799     11794     11797     11800
     11798     11797     11799     11798     11797     11800     11799     11797     11800
     11797     11800     11801     11797     11800     11802     11797     11800     11803
     11801     11800     11802     11801     11800     11803     11802     11800     11803
     11800     11803     11804     11800     11803     11805     11800     11803     11806
     11804     11803     11805     11804     11803     11806     11805     11803     11806
     11803     11806     11807     11803     11806     11808     11803     11806     11809
     11807     11806     11808     11807     11806     11809     11808     11806     11809
     11806     11809     11810     11806     11809     11811     11806     11809     11812
     11810     11809     11811     11810     11809     11812     11811     11809     11812
     11809     11812     11813     11809     11812     11814     11809     11812     11815
     11813     11812     11814     11813     11812     11815     11814     11812     11815
     11812     11815     11816     11812     11815     11817     11816     11815     11817
     11815     11817     11818     11815     11817     11819     11818     11817     11819
     11817     11819     11820     11817     11819     11821     11817     11819     11822
     11820     11819     11821     11820     11819     11822     11821     11819     11822
     11819     11822     11823     11819     11822     11824     11819     11822     11825
     11823     11822     11824     11823     11822     11825     11824     11822     11825
     11822     11825     11826     11822     11825     11827     11822     11825     11828
     11826     11825     11827     11826     11825     11828     11827     11825     11828
     11825     11828     11829     11825     11828     11830     11825     11828     11831
     11829     11828     11830     11829     11828     11831     11830     11828     11831
     11828     11831     11832     11828     11831     11833     11828     11831     11834
     11832     11831     11833     11832     11831     11834     11833     11831     11834
     11831     11834     11835     11831     11834     11836     11831     11834     11837
     11835     11834     11836     11835     11834     11837     11836     11834     11837
     11834     11837     11838     11834     11837     11839     11834     11837     11840
     11838     11837     11839     11838     11837     11840     11839     11837     11840
     11837     11840     11841     11837     11840     11842     11837     11840     11843
     11841     11840     11842     11841     11840     11843     11842     11840     11843
     20098     20097     20099     20098     20097     20100     20098     20097     20101
     20099     20097     20100     20099     20097     20101     20100     20097     20101
     20097     20101     20102     20097     20101     20103     20097     20101     20104
     20102     20101     20103     20102     20101     20104     20103     20101     20104
     20101     20104     20105     20101     20104     20106     20101     20104     20110
     20105     20104     20106     20105     20104     20110     20106     20104     20110
     20108     20107     20109     20108     20107     20110     20108     20107     20111
     20109     20107     20110     20109     20107     20111     20110     20107     20111
     20104     20110     20107     20107     20111     20112     20111     20112     20113
     20111     20112     20114     20111     20112     20115     20113     20112     20114
     20113     20112     20115     20114     20112     20115     20112     20115     20116
     20112     20115     20117     20112     20115     20123     20116     20115     20117
     20116     20115     20123     20117     20115     20123     20115     20117     20118
     20117     20118     20119     20117     20118     20120     20119     20118     20120
     20118     20120     20121     20118     20120     20122     20118     20120     20132
     20121     20120     20122     20121     20120     20132     20122     20120     20132
     20115     20123     20124     20115     20123     20125     20115     20123     20126
     20124     20123     20125     20124     20123     20126     20125     20123     20126
     20123     20126     20127     20126     20127     20128     20126     20127     20129
     20128     20127     20129     20127     20129     20130     20127     20129     20131
     20127     20129     20179     20130     20129     20131     20130     20129     20179
     20131     20129     20179     20120     20132     20133     20120     20132     20134
     20120     20132     20135     20133     20132     20134     20133     20132     20135
     20134     20132     20135     20132     20135     20136     20132     20135     20137
     20132     20135     20138     20136     20135     20137     20136     20135     20138
     20137     20135     20138     20135     20138     20139     20135     20138     20140
     20135     20138     20141     20139     20138     20140     20139     20138     20141
     20140     20138     20141     20138     20141     20142     20138     20141     20143
     20138     20141     20144     20142     20141     20143     20142     20141     20144
     20143     20141     20144     20141     20144     20145     20141     20144     20146
     20141     20144     20147     20145     20144     20146     20145     20144     20147
     20146     20144     20147     20144     20147     20148     20144     20147     20149
     20144     20147     20150     20148     20147     20149     20148     20147     20150
     20149     20147     20150     20147     20150     20151     20147     20150     20152
     20151     20150     20152     20150     20152     20153     20150     20152     20154
     20153     20152     20154     20152     20154     20155     20152     20154     20156
     20152     20154     20157     20155     20154     20156     20155     20154     20157
     20156     20154     20157     20154     20157     20158     20154     20157     20159
     20154     20157     20160     20158     20157     20159     20158     20157     20160
     20159     20157     20160     20157     20160     20161     20157     20160     20162
     20157     20160     20163     20161     20160     20162     20161     20160     20163
     20162     20160     20163     20160     20163     20164     20160     20163     20165
     20160     20163     20166     20164     20163     20165     20164     20163     20166
     20165     20163     20166     20163     20166     20167     20163     20166     20168
     20163     20166     20169     20167     20166     20168     20167     20166     20169
     20168     20166     20169     20166     20169     20170     20166     20169     20171
     20166     20169     20172     20170     20169     20171     20170     20169     20172
     20171     20169     20172     20169     20172     20173     20169     20172     20174
     20169     20172     20175     20173     20172     20174     20173     20172     20175
     20174     20172     20175     20172     20175     20176     20172     20175     20177
     20172     20175     20178     20176     20175     20177     20176     20175     20178
     20177     20175     20178     20129     20179     20180     20129     20179     20181
     20129     20179     20182     20180     20179     20181     20180     20179     20182
     20181     20179     20182     20179     20182     20183     20179     20182     20184
     20179     20182     20185     20183     20182     20184     20183     20182     20185
     20184     20182     20185     20182     20185     20186     20182     20185     20187
     20182     20185     20188     20186     20185     20187     20186     20185     20188
     20187     20185     20188     20185     20188     20189     20185     20188     20190
     20185     20188     20191     20189     20188     20190     20189     20188     20191
     20190     20188     20191     20188     20191     20192     20188     20191     20193
     20188     20191     20194     20192     20191     20193     20192     20191     20194
     20193     20191     20194     20191     20194     20195     20191     20194     20196
     20191     20194     20197     20195     20194     20196     20195     20194     20197
     20196     20194     20197     20194     20197     20198     20194     20197     20199
     20194     20197     20200     20198     20197     20199     20198     20197     20200
     20199     20197     20200     20197     20200     20201     20197     20200     20202
     20197     20200     20203     20201     20200     20202     20201     20200     20203
     20202     20200     20203     20200     20203     20204     20200     20203     20205
     20200     20203     20206     20204     20203     20205     20204     20203     20206
     20205     20203     20206     20203     20206     20207     20203     20206     20208
     20203     20206     20209     20207     20206     20208     20207     20206     20209
     20208     20206     20209     20206     20209     20210     20206     20209     20211
     20206     20209     20212     20210     20209     20211     20210     20209     20212
     20211     20209     20212     20209     20212     20213     20209     20212     20214
     20209     20212     20215     20213     20212     20214     20213     20212     20215
     20214     20212     20215     20212     20215     20216     20212     20215     20217
     20212     20215     20218     20216     20215     20217     20216     20215     20218
     20217     20215     20218     20215     20218     20219     20215     20218     20220
     20215     20218     20221     20219     20218     20220     20219     20218     20221
     20220     20218     20221     20218     20221     20222     20218     20221     20223
     20218     20221     20224     20222     20221     20223     20222     20221     20224
     20223     20221     20224     20221     20224     20225     20221     20224     20226
     20221     20224     20227     20225     20224     20226     20225     20224     20227
     20226     20224     20227       594       593       595       594       593       597
       594       593       639       595       593       597       595       593       639
       597       593       639       593       595       596       593       597       598
       593       597       599       593       597       600       598       597       599
       598       597       600       599       597       600       597       600       601
       597       600       631       601       600       631       600       601       602
       600       601       603       602       601       603       601       603       604
       601       603       605       601       603       606       604       603       605
       604       603       606       605       603       606       603       606       607
       603       606       608       603       606       629       607       606       608
       607       606       629       608       606       629       606       608       609
       606       608       610       606       608       618       609       608       610
       609       608       618       610       608       618       608       610       611
       608       610       612       608       610       613       611       610       612
       611       610       613       612       610       613       610       613       614
       610       613       615       610       613       616       614       613       615
       614       613       616       615       613       616       613       616       617
       613       616       618       613       616       642       617       616       618
       617       616       642       618       616       642       608       618       616
       608       618       619       608       618       623       616       618       619
       616       618       623       619       618       623       618       619       620
       618       619       621       618       619       622       620       619       621
       620       619       622       621       619       622       618       623       624
       618       623       625       618       623       626       624       623       625
       624       623       626       625       623       626       623       626       627
       623       626       628       623       626       629       627       626       628
       627       626       629       628       626       629       606       629       626
       606       629       630       606       629       631       626       629       630
       626       629       631       630       629       631       600       631       629
       600       631       632       600       631       636       629       631       632
       629       631       636       632       631       636       631       632       633
       631       632       634       631       632       635       633       632       634
       633       632       635       634       632       635       631       636       637
       631       636       638       631       636       639       637       636       638
       637       636       639       638       636       639       593       639       636
       593       639       640       593       639       641       636       639       640
       636       639       641       640       639       641       616       642       643
       616       642       644       616       642       648       643       642       644
       643       642       648       644       642       648       642       644       645
       642       644       646       642       644       647       645       644       646
       645       644       647       646       644       647       642       648       649
       642       648       650       642       648       651       649       648       650
       649       648       651       650       648       651       648       651       652
       648       651       653       648       651       654       652       651       653
       652       651       654       653       651       654       651       654       655
       651       654       656       651       654       657       655       654       656
       655       654       657       656       654       657       654       657       658
       654       657       659       654       657       663       658       657       659
       658       657       663       659       657       663       657       659       660
       657       659       661       657       659       662       660       659       661
       660       659       662       661       659       662       657       663       664
       657       663       665       657       663       666       664       663       665
       664       663       666       665       663       666       668       667       669
       668       667       671       668       667       713       669       667       671
       669       667       713       671       667       713       667       669       670
       667       671       672       667       671       673       667       671       674
       672       671       673       672       671       674       673       671       674
       671       674       675       671       674       705       675       674       705
       674       675       676       674       675       677       676       675       677
       675       677       678       675       677       679       675       677       680
       678       677       679       678       677       680       679       677       680
       677       680       681       677       680       682       677       680       703
       681       680       682       681       680       703       682       680       703
       680       682       683       680       682       684       680       682       692
       683       682       684       683       682       692       684       682       692
       682       684       685       682       684       686       682       684       687
       685       684       686       685       684       687       686       684       687
       684       687       688       684       687       689       684       687       690
       688       687       689       688       687       690       689       687       690
       687       690       691       687       690       692       687       690       716
       691       690       692       691       690       716       692       690       716
       682       692       690       682       692       693       682       692       697
       690       692       693       690       692       697       693       692       697
       692       693       694       692       693       695       692       693       696
       694       693       695       694       693       696       695       693       696
       692       697       698       692       697       699       692       697       700
       698       697       699       698       697       700       699       697       700
       697       700       701       697       700       702       697       700       703
       701       700       702       701       700       703       702       700       703
       680       703       700       680       703       704       680       703       705
       700       703       704       700       703       705       704       703       705
       674       705       703       674       705       706       674       705       710
       703       705       706       703       705       710       706       705       710
       705       706       707       705       706       708       705       706       709
       707       706       708       707       706       709       708       706       709
       705       710       711       705       710       712       705       710       713
       711       710       712       711       710       713       712       710       713
       667       713       710       667       713       714       667       713       715
       710       713       714       710       713       715       714       713       715
       690       716       717       690       716       718       690       716       722
       717       716       718       717       716       722       718       716       722
       716       718       719       716       718       720       716       718       721
       719       718       720       719       718       721       720       718       721
       716       722       723       716       722       724       716       722       725
       723       722       724       723       722       725       724       722       725
       722       725       726       722       725       727       722       725       728
       726       725       727       726       725       728       727       725       728
       725       728       729       725       728       730       725       728       731
       729       728       730       729       728       731       730       728       731
       728       731       732       728       731       733       728       731       737
       732       731       733       732       731       737       733       731       737
       731       733       734       731       733       735       731       733       736
       734       733       735       734       733       736       735       733       736
       731       737       738       731       737       739       731       737       740
       738       737       739       738       737       740       739       737       740
     16692     16691     16693     16692     16691     16694     16692     16691     16695
     16693     16691     16694     16693     16691     16695     16694     16691     16695
     16691     16695     16696     16691     16695     16697     16691     16695     16698
     16696     16695     16697     16696     16695     16698     16697     16695     16698
     16695     16698     16699     16695     16698     16700     16695     16698     16704
     16699     16698     16700     16699     16698     16704     16700     16698     16704
     16702     16701     16703     16702     16701     16704     16702     16701     16705
     16703     16701     16704     16703     16701     16705     16704     16701     16705
     16698     16704     16701     16701     16705     16706     16705     16706     16707
     16705     16706     16708     16705     16706     16709     16707     16706     16708
     16707     16706     16709     16708     16706     16709     16706     16709     16710
     16706     16709     16711     16706     16709     16717     16710     16709     16711
     16710     16709     16717     16711     16709     16717     16709     16711     16712
     16711     16712     16713     16711     16712     16714     16713     16712     16714
     16712     16714     16715     16712     16714     16716     16712     16714     16726
     16715     16714     16716     16715     16714     16726     16716     16714     16726
     16709     16717     16718     16709     16717     16719     16709     16717     16720
     16718     16717     16719     16718     16717     16720     16719     16717     16720
     16717     16720     16721     16720     16721     16722     16720     16721     16723
     16722     16721     16723     16721     16723     16724     16721     16723     16725
     16721     16723     16773     16724     16723     16725     16724     16723     16773
     16725     16723     16773     16714     16726     16727     16714     16726     16728
     16714     16726     16729     16727     16726     16728     16727     16726     16729
     16728     16726     16729     16726     16729     16730     16726     16729     16731
     16726     16729     16732     16730     16729     16731     16730     16729     16732
     16731     16729     16732     16729     16732     16733     16729     16732     16734
     16733     16732     16734     16732     16734     16735     16732     16734     16736
     16735     16734     16736     16734     16736     16737     16734     16736     16738
     16734     16736     16739     16737     16736     16738     16737     16736     16739
     16738     16736     16739     16736     16739     16740     16736     16739     16741
     16740     16739     16741     16739     16741     16742     16739     16741     16743
     16742     16741     16743     16741     16743     16744     16741     16743     16745
     16741     16743     16746     16744     16743     16745     16744     16743     16746
     16745     16743     16746     16743     16746     16747     16743     16746     16748
     16747     16746     16748     16746     16748     16749     16746     16748     16750
     16749     16748     16750     16748     16750     16751     16748     16750     16752
     16748     16750     16753     16751     16750     16752     16751     16750     16753
     16752     16750     16753     16750     16753     16754     16750     16753     16755
     16754     16753     16755     16753     16755     16756     16753     16755     16757
     16756     16755     16757     16755     16757     16758     16755     16757     16759
     16755     16757     16760     16758     16757     16759     16758     16757     16760
     16759     16757     16760     16757     16760     16761     16757     16760     16762
     16757     16760     16763     16761     16760     16762     16761     16760     16763
     16762     16760     16763     16760     16763     16764     16760     16763     16765
     16760     16763     16766     16764     16763     16765     16764     16763     16766
     16765     16763     16766     16763     16766     16767     16763     16766     16768
     16763     16766     16769     16767     16766     16768     16767     16766     16769
     16768     16766     16769     16766     16769     16770     16766     16769     16771
     16766     16769     16772     16770     16769     16771     16770     16769     16772
     16771     16769     16772     16723     16773     16774     16723     16773     16775
     16723     16773     16776     16774     16773     16775     16774     16773     16776
     16775     16773     16776     16773     16776     16777     16773     16776     16778
     16773     16776     16779     16777     16776     16778     16777     16776     16779
     16778     16776     16779     16776     16779     16780     16776     16779     16781
     16776     16779     16782     16780     16779     16781     16780     16779     16782
     16781     16779     16782     16779     16782     16783     16779     16782     16784
     16779     16782     16785     16783     16782     16784     16783     16782     16785
     16784     16782     16785     16782     16785     16786     16782     16785     16787
     16782     16785     16788     16786     16785     16787     16786     16785     16788
     16787     16785     16788     16785     16788     16789     16785     16788     16790
     16785     16788     16791     16789     16788     16790     16789     16788     16791
     16790     16788     16791     16788     16791     16792     16788     16791     16793
     16788     16791     16794     16792     16791     16793     16792     16791     16794
     16793     16791     16794     16791     16794     16795     16791     16794     16796
     16791     16794     16797     16795     16794     16796     16795     16794     16797
     16796     16794     16797     16794     16797     16798     16794     16797     16799
     16794     16797     16800     16798     16797     16799     16798     16797     16800
     16799     16797     16800     16797     16800     16801     16797     16800     16802
     16797     16800     16803     16801     16800     16802     16801     16800     16803
     16802     16800     16803     16800     16803     16804     16800     16803     16805
     16800     16803     16806     16804     16803     16805     16804     16803     16806
     16805     16803     16806     16803     16806     16807     16803     16806     16808
     16803     16806     16809     16807     16806     16808     16807     16806     16809
     16808     16806     16809     16806     16809     16810     16806     16809     16811
     16806     16809     16812     16810     16809     16811     16810     16809     16812
     16811     16809     16812     16809     16812     16813     16809     16812     16814
     16809     16812     16815     16813     16812     16814     16813     16812     16815
     16814     16812     16815     16812     16815     16816     16812     16815     16817
     16812     16815     16818     16816     16815     16817     16816     16815     16818
     16817     16815     16818     16815     16818     16819     16815     16818     16820
     16815     16818     16821     16819     16818     16820     16819     16818     16821
     16820     16818     16821       742       741       743       742       741       745
       742       741       787       743       741       745       743       741       787
       745       741       787       741       743       744       741       745       746
       741       745       747       741       745       748       746       745       747
       746       745       748       747       745       748       745       748       749
       745       748       779       749       748       779       748       749       750
       748       749       751       750       749       751       749       751       752
       749       751       753       749       751       754       752       751       753
       752       751       754       753       751       754       751       754       755
       751       754       756       751       754       777       755       754       756
       755       754       777       756       754       777       754       756       757
       754       756       758       754       756       766       757       756       758
       757       756       766       758       756       766       756       758       759
       756       758       760       756       758       761       759       758       760
       759       758       761       760       758       761       758       761       762
       758       761       763       758       761       764       762       761       763
       762       761       764       763       761       764       761       764       765
       761       764       766       761       764       790       765       764       766
       765       764       790       766       764       790       756       766       764
       756       766       767       756       766       771       764       766       767
       764       766       771       767       766       771       766       767       768
       766       767       769       766       767       770       768       767       769
       768       767       770       769       767       770       766       771       772
       766       771       773       766       771       774       772       771       773
       772       771       774       773       771       774       771       774       775
       771       774       776       771       774       777       775       774       776
       775       774       777       776       774       777       754       777       774
       754       777       778       754       777       779       774       777       778
       774       777       779       778       777       779       748       779       777
       748       779       780       748       779       784       777       779       780
       777       779       784       780       779       784       779       780       781
       779       780       782       779       780       783       781       780       782
       781       780       783       782       780       783       779       784       785
       779       784       786       779       784       787       785       784       786
       785       784       787       786       784       787       741       787       784
       741       787       788       741       787       789       784       787       788
       784       787       789       788       787       789       764       790       791
       764       790       792       764       790       796       791       790       792
       791       790       796       792       790       796       790       792       793
       790       792       794       790       792       795       793       792       794
       793       792       795       794       792       795       790       796       797
       790       796       798       790       796       799       797       796       798
       797       796       799       798       796       799       796       799       800
       796       799       801       796       799       802       800       799       801
       800       799       802       801       799       802       799       802       803
       799       802       804       799       802       805       803       802       804
       803       802       805       804       802       805       802       805       806
       802       805       807       802       805       811       806       805       807
       806       805       811       807       805       811       805       807       808
       805       807       809       805       807       810       808       807       809
       808       807       810       809       807       810       805       811       812
       805       811       813       805       811       814       812       811       813
       812       811       814       813       811       814      8014      8013      8015
      8014      8013      8016      8014      8013      8017      8015      8013      8016
      8015      8013      8017      8016      8013      8017      8013      8017      8018
      8013      8017      8019      8013      8017      8022      8018      8017      8019
      8018      8017      8022      8019      8017      8022      8017      8019      8020
      8017      8019      8021      8020      8019      8021      8017      8022      8023
      8017      8022      8024      8017      8022      8028      8023      8022      8024
      8023      8022      8028      8024      8022      8028      8026      8025      8027
      8026      8025      8028      8026      8025      8029      8027      8025      8028
      8027      8025      8029      8028      8025      8029      8022      8028      8025
      8025      8029      8030      8029      8030      8031      8029      8030      8032
      8029      8030      8033      8031      8030      8032      8031      8030      8033
      8032      8030      8033      8030      8033      8034      8030      8033      8035
      8030      8033      8041      8034      8033      8035      8034      8033      8041
      8035      8033      8041      8033      8035      8036      8035      8036      8037
      8035      8036      8038      8037      8036      8038      8036      8038      8039
      8036      8038      8040      8036      8038      8050      8039      8038      8040
      8039      8038      8050      8040      8038      8050      8033      8041      8042
      8033      8041      8043      8033      8041      8044      8042      8041      8043
      8042      8041      8044      8043      8041      8044      8041      8044      8045
      8044      8045      8046      8044      8045      8047      8046      8045      8047
      8045      8047      8048      8045      8047      8049      8045      8047      8097
      8048      8047      8049      8048      8047      8097      8049      8047      8097
      8038      8050      8051      8038      8050      8052      8038      8050      8053
      8051      8050      8052      8051      8050      8053      8052      8050      8053
      8050      8053      8054      8050      8053      8055      8050      8053      8056
      8054      8053      8055      8054      8053      8056      8055      8053      8056
      8053      8056      8057      8053      8056      8058      8057      8056      8058
      8056      8058      8059      8056      8058      8060      8059      8058      8060
      8058      8060      8061      8058      8060      8062      8058      8060      8063
      8061      8060      8062      8061      8060      8063      8062      8060      8063
      8060      8063      8064      8060      8063      8065      8064      8063      8065
      8063      8065      8066      8063      8065      8067      8066      8065      8067
      8065      8067      8068      8065      8067      8069      8065      8067      8070
      8068      8067      8069      8068      8067      8070      8069      8067      8070
      8067      8070      8071      8067      8070      8072      8071      8070      8072
      8070      8072      8073      8070      8072      8074      8073      8072      8074
      8072      8074      8075      8072      8074      8076      8072      8074      8077
      8075      8074      8076      8075      8074      8077      8076      8074      8077
      8074      8077      8078      8074      8077      8079      8078      8077      8079
      8077      8079      8080      8077      8079      8081      8080      8079      8081
      8079      8081      8082      8079      8081      8083      8079      8081      8084
      8082      8081      8083      8082      8081      8084      8083      8081      8084
      8081      8084      8085      8081      8084      8086      8081      8084      8087
      8085      8084      8086      8085      8084      8087      8086      8084      8087
      8084      8087      8088      8084      8087      8089      8084      8087      8090
      8088      8087      8089      8088      8087      8090      8089      8087      8090
      8087      8090      8091      8087      8090      8092      8087      8090      8093
      8091      8090      8092      8091      8090      8093      8092      8090      8093
      8090      8093      8094      8090      8093      8095      8090      8093      8096
      8094      8093      8095      8094      8093      8096      8095      8093      8096
      8047      8097      8098      8047      8097      8099      8047      8097      8100
      8098      8097      8099      8098      8097      8100      8099      8097      8100
      8097      8100      8101      8097      8100      8102      8097      8100      8103
      8101      8100      8102      8101      8100      8103      8102      8100      8103
      8100      8103      8104      8100      8103      8105      8100      8103      8106
      8104      8103      8105      8104      8103      8106      8105      8103      8106
      8103      8106      8107      8103      8106      8108      8103      8106      8109
      8107      8106      8108      8107      8106      8109      8108      8106      8109
      8106      8109      8110      8106      8109      8111      8106      8109      8112
      8110      8109      8111      8110      8109      8112      8111      8109      8112
      8109      8112      8113      8109      8112      8114      8109      8112      8115
      8113      8112      8114      8113      8112      8115      8114      8112      8115
      8112      8115      8116      8112      8115      8117      8112      8115      8118
      8116      8115      8117      8116      8115      8118      8117      8115      8118
      8115      8118      8119      8115      8118      8120      8115      8118      8121
      8119      8118      8120      8119      8118      8121      8120      8118      8121
      8118      8121      8122      8118      8121      8123      8118      8121      8124
      8122      8121      8123      8122      8121      8124      8123      8121      8124
      8121      8124      8125      8121      8124      8126      8121      8124      8127
      8125      8124      8126      8125      8124      8127      8126      8124      8127
      8124      8127      8128      8124      8127      8129      8124      8127      8130
      8128      8127      8129      8128      8127      8130      8129      8127      8130
      8127      8130      8131      8127      8130      8132      8127      8130      8133
      8131      8130      8132      8131      8130      8133      8132      8130      8133
      8130      8133      8134      8130      8133      8135      8130      8133      8136
      8134      8133      8135      8134      8133      8136      8135      8133      8136
      8133      8136      8137      8133      8136      8138      8133      8136      8139
      8137      8136      8138      8137      8136      8139      8138      8136      8139
      8136      8139      8140      8136      8139      8141      8136      8139      8142
      8140      8139      8141      8140      8139      8142      8141      8139      8142
      8139      8142      8143      8139      8142      8144      8139      8142      8145
      8143      8142      8144      8143      8142      8145      8144      8142      8145
     21718     21717     21721     21718     21717     21725     21718     21717     21729
     21721     21717     21725     21721     21717     21729     21725     21717     21729
     21717     21718     21719     21717     21718     21720     21717     21718     21733
     21719     21718     21720     21719     21718     21733     21720     21718     21733
     21717     21721     21722     21717     21721     21723     21717     21721     21724
     21722     21721     21723     21722     21721     21724     21723     21721     21724
     21717     21725     21726     21717     21725     21727     21717     21725     21728
     21726     21725     21727     21726     21725     21728     21727     21725     21728
     21717     21729     21730     21717     21729     21731     21717     21729     21732
     21730     21729     21731     21730     21729     21732     21731     21729     21732
     21718     21733     21734     21718     21733     21735     21718     21733     21739
     21734     21733     21735     21734     21733     21739     21735     21733     21739
     21737     21736     21738     21737     21736     21739     21737     21736     21740
     21738     21736     21739     21738     21736     21740     21739     21736     21740
     21733     21739     21736     21736     21740     21741     21740     21741     21742
     21740     21741     21743     21740     21741     21744     21742     21741     21743
     21742     21741     21744     21743     21741     21744     21741     21744     21745
     21741     21744     21746     21741     21744     21752     21745     21744     21746
     21745     21744     21752     21746     21744     21752     21744     21746     21747
     21746     21747     21748     21746     21747     21749     21748     21747     21749
     21747     21749     21750     21747     21749     21751     21747     21749     21761
     21750     21749     21751     21750     21749     21761     21751     21749     21761
     21744     21752     21753     21744     21752     21754     21744     21752     21755
     21753     21752     21754     21753     21752     21755     21754     21752     21755
     21752     21755     21756     21755     21756     21757     21755     21756     21758
     21757     21756     21758     21756     21758     21759     21756     21758     21760
     21756     21758     21808     21759     21758     21760     21759     21758     21808
     21760     21758     21808     21749     21761     21762     21749     21761     21763
     21749     21761     21764     21762     21761     21763     21762     21761     21764
     21763     21761     21764     21761     21764     21765     21761     21764     21766
     21761     21764     21767     21765     21764     21766     21765     21764     21767
     21766     21764     21767     21764     21767     21768     21764     21767     21769
     21764     21767     21770     21768     21767     21769     21768     21767     21770
     21769     21767     21770     21767     21770     21771     21767     21770     21772
     21767     21770     21773     21771     21770     21772     21771     21770     21773
     21772     21770     21773     21770     21773     21774     21770     21773     21775
     21770     21773     21776     21774     21773     21775     21774     21773     21776
     21775     21773     21776     21773     21776     21777     21773     21776     21778
     21773     21776     21779     21777     21776     21778     21777     21776     21779
     21778     21776     21779     21776     21779     21780     21776     21779     21781
     21780     21779     21781     21779     21781     21782     21779     21781     21783
     21782     21781     21783     21781     21783     21784     21781     21783     21785
     21781     21783     21786     21784     21783     21785     21784     21783     21786
     21785     21783     21786     21783     21786     21787     21783     21786     21788
     21783     21786     21789     21787     21786     21788     21787     21786     21789
     21788     21786     21789     21786     21789     21790     21786     21789     21791
     21786     21789     21792     21790     21789     21791     21790     21789     21792
     21791     21789     21792     21789     21792     21793     21789     21792     21794
     21789     21792     21795     21793     21792     21794     21793     21792     21795
     21794     21792     21795     21792     21795     21796     21792     21795     21797
     21792     21795     21798     21796     21795     21797     21796     21795     21798
     21797     21795     21798     21795     21798     21799     21795     21798     21800
     21795     21798     21801     21799     21798     21800     21799     21798     21801
     21800     21798     21801     21798     21801     21802     21798     21801     21803
     21798     21801     21804     21802     21801     21803     21802     21801     21804
     21803     21801     21804     21801     21804     21805     21801     21804     21806
     21801     21804     21807     21805     21804     21806     21805     21804     21807
     21806     21804     21807     21758     21808     21809     21758     21808     21810
     21758     21808     21811     21809     21808     21810     21809     21808     21811
     21810     21808     21811     21808     21811     21812     21808     21811     21813
     21808     21811     21814     21812     21811     21813     21812     21811     21814
     21813     21811     21814     21811     21814     21815     21811     21814     21816
     21811     21814     21817     21815     21814     21816     21815     21814     21817
     21816     21814     21817     21814     21817     21818     21814     21817     21819
     21814     21817     21820     21818     21817     21819     21818     21817     21820
     21819     21817     21820     21817     21820     21821     21817     21820     21822
     21817     21820     21823     21821     21820     21822     21821     21820     21823
     21822     21820     21823     21820     21823     21824     21820     21823     21825
     21820     21823     21826     21824     21823     21825     21824     21823     21826
     21825     21823     21826     21823     21826     21827     21823     21826     21828
     21823     21826     21829     21827     21826     21828     21827     21826     21829
     21828     21826     21829     21826     21829     21830     21826     21829     21831
     21826     21829     21832     21830     21829     21831     21830     21829     21832
     21831     21829     21832     21829     21832     21833     21829     21832     21834
     21829     21832     21835     21833     21832     21834     21833     21832     21835
     21834     21832     21835     21832     21835     21836     21832     21835     21837
     21832     21835     21838     21836     21835     21837     21836     21835     21838
     21837     21835     21838     21835     21838     21839     21835     21838     21840
     21835     21838     21841     21839     21838     21840     21839     21838     21841
     21840     21838     21841     21838     21841     21842     21838     21841     21843
     21838     21841     21844     21842     21841     21843     21842     21841     21844
     21843     21841     21844     21841     21844     21845     21841     21844     21846
     21841     21844     21847     21845     21844     21846     21845     21844     21847
     21846     21844     21847     21844     21847     21848     21844     21847     21849
     21844     21847     21850     21848     21847     21849     21848     21847     21850
     21849     21847     21850      8147      8146      8148      8147      8146      8149
      8147      8146      8150      8148      8146      8149      8148      8146      8150
      8149      8146      8150      8146      8150      8151      8146      8150      8152
      8146      8150      8155      8151      8150      8152      8151      8150      8155
      8152      8150      8155      8150      8152      8153      8150      8152      8154
      8153      8152      8154      8150      8155      8156      8150      8155      8157
      8150      8155      8161      8156      8155      8157      8156      8155      8161
      8157      8155      8161      8159      8158      8160      8159      8158      8161
      8159      8158      8162      8160      8158      8161      8160      8158      8162
      8161      8158      8162      8155      8161      8158      8158      8162      8163
      8162      8163      8164      8162      8163      8165      8162      8163      8166
      8164      8163      8165      8164      8163      8166      8165      8163      8166
      8163      8166      8167      8163      8166      8168      8163      8166      8174
      8167      8166      8168      8167      8166      8174      8168      8166      8174
      8166      8168      8169      8168      8169      8170      8168      8169      8171
      8170      8169      8171      8169      8171      8172      8169      8171      8173
      8169      8171      8183      8172      8171      8173      8172      8171      8183
      8173      8171      8183      8166      8174      8175      8166      8174      8176
      8166      8174      8177      8175      8174      8176      8175      8174      8177
      8176      8174      8177      8174      8177      8178      8177      8178      8179
      8177      8178      8180      8179      8178      8180      8178      8180      8181
      8178      8180      8182      8178      8180      8230      8181      8180      8182
      8181      8180      8230      8182      8180      8230      8171      8183      8184
      8171      8183      8185      8171      8183      8186      8184      8183      8185
      8184      8183      8186      8185      8183      8186      8183      8186      8187
      8183      8186      8188      8183      8186      8189      8187      8186      8188
      8187      8186      8189      8188      8186      8189      8186      8189      8190
      8186      8189      8191      8190      8189      8191      8189      8191      8192
      8189      8191      8193      8192      8191      8193      8191      8193      8194
      8191      8193      8195      8191      8193      8196      8194      8193      8195
      8194      8193      8196      8195      8193      8196      8193      8196      8197
      8193      8196      8198      8197      8196      8198      8196      8198      8199
      8196      8198      8200      8199      8198      8200      8198      8200      8201
      8198      8200      8202      8198      8200      8203      8201      8200      8202
      8201      8200      8203      8202      8200      8203      8200      8203      8204
      8200      8203      8205      8204      8203      8205      8203      8205      8206
      8203      8205      8207      8206      8205      8207      8205      8207      8208
      8205      8207      8209      8205      8207      8210      8208      8207      8209
      8208      8207      8210      8209      8207      8210      8207      8210      8211
      8207      8210      8212      8211      8210      8212      8210      8212      8213
      8210      8212      8214      8213      8212      8214      8212      8214      8215
      8212      8214      8216      8212      8214      8217      8215      8214      8216
      8215      8214      8217      8216      8214      8217      8214      8217      8218
      8214      8217      8219      8214      8217      8220      8218      8217      8219
      8218      8217      8220      8219      8217      8220      8217      8220      8221
      8217      8220      8222      8217      8220      8223      8221      8220      8222
      8221      8220      8223      8222      8220      8223      8220      8223      8224
      8220      8223      8225      8220      8223      8226      8224      8223      8225
      8224      8223      8226      8225      8223      8226      8223      8226      8227
      8223      8226      8228      8223      8226      8229      8227      8226      8228
      8227      8226      8229      8228      8226      8229      8180      8230      8231
      8180      8230      8232      8180      8230      8233      8231      8230      8232
      8231      8230      8233      8232      8230      8233      8230      8233      8234
      8230      8233      8235      8230      8233      8236      8234      8233      8235
      8234      8233      8236      8235      8233      8236      8233      8236      8237
      8233      8236      8238      8233      8236      8239      8237      8236      8238
      8237      8236      8239      8238      8236      8239      8236      8239      8240
      8236      8239      8241      8236      8239      8242      8240      8239      8241
      8240      8239      8242      8241      8239      8242      8239      8242      8243
      8239      8242      8244      8239      8242      8245      8243      8242      8244
      8243      8242      8245      8244      8242      8245      8242      8245      8246
      8242      8245      8247      8242      8245      8248      8246      8245      8247
      8246      8245      8248      8247      8245      8248      8245      8248      8249
      8245      8248      8250      8245      8248      8251      8249      8248      8250
      8249      8248      8251      8250      8248      8251      8248      8251      8252
      8248      8251      8253      8248      8251      8254      8252      8251      8253
      8252      8251      8254      8253      8251      8254      8251      8254      8255
      8251      8254      8256      8251      8254      8257      8255      8254      8256
      8255      8254      8257      8256      8254      8257      8254      8257      8258
      8254      8257      8259      8254      8257      8260      8258      8257      8259
      8258      8257      8260      8259      8257      8260      8257      8260      8261
      8257      8260      8262      8257      8260      8263      8261      8260      8262
      8261      8260      8263      8262      8260      8263      8260      8263      8264
      8260      8263      8265      8260      8263      8266      8264      8263      8265
      8264      8263      8266      8265      8263      8266      8263      8266      8267
      8263      8266      8268      8263      8266      8269      8267      8266      8268
      8267      8266      8269      8268      8266      8269      8266      8269      8270
      8266      8269      8271      8266      8269      8272      8270      8269      8271
      8270      8269      8272      8271      8269      8272      8269      8272      8273
      8269      8272      8274      8269      8272      8275      8273      8272      8274
      8273      8272      8275      8274      8272      8275      8272      8275      8276
      8272      8275      8277      8272      8275      8278      8276      8275      8277
      8276      8275      8278      8277      8275      8278     11845     11844     11849
     11845     11844     11853     11845     11844     11857     11849     11844     11853
     11849     11844     11857     11853     11844     11857     11844     11845     11846
     11844     11845     11847     11844     11845     11848     11846     11845     11847
     11846     11845     11848     11847     11845     11848     11844     11849     11850
     11844     11849     11851     11844     11849     11852     11850     11849     11851
     11850     11849     11852     11851     11849     11852     11844     11853     11854
     11844     11853     11855     11844     11853     11856     11854     11853     11855
     11854     11853     11856     11855     11853     11856     11844     11857     11858
     11844     11857     11859     11844     11857     11860     11858     11857     11859
     11858     11857     11860     11859     11857     11860     11857     11860     11861
     11857     11860     11862     11857     11860     11867     11861     11860     11862
     11861     11860     11867     11862     11860     11867     11864     11863     11865
     11864     11863     11866     11864     11863     11867     11865     11863     11866
     11865     11863     11867     11866     11863     11867     11863     11866     11868
     11860     11867     11863     11866     11868     11869     11866     11868     11870
     11866     11868     11873     11869     11868     11870     11869     11868     11873
     11870     11868     11873     11872     11871     11873     11872     11871     11923
     11873     11871     11923     11868     11873     11871     11868     11873     11874
     11868     11873     11875     11871     11873     11874     11871     11873     11875
     11874     11873     11875     11873     11875     11876     11873     11875     11877
     11873     11875     11879     11876     11875     11877     11876     11875     11879
     11877     11875     11879     11875     11877     11878     11875     11879     11880
     11875     11879     11881     11880     11879     11881     11879     11881     11882
     11879     11881     11883     11882     11881     11883     11881     11883     11884
     11881     11883     11885     11881     11883     11886     11884     11883     11885
     11884     11883     11886     11885     11883     11886     11883     11886     11887
     11883     11886     11888     11883     11886     11889     11887     11886     11888
     11887     11886     11889     11888     11886     11889     11886     11889     11890
     11886     11889     11891     11886     11889     11892     11890     11889     11891
     11890     11889     11892     11891     11889     11892     11889     11892     11893
     11889     11892     11894     11889     11892     11895     11893     11892     11894
     11893     11892     11895     11894     11892     11895     11892     11895     11896
     11892     11895     11897     11892     11895     11898     11896     11895     11897
     11896     11895     11898     11897     11895     11898     11895     11898     11899
     11895     11898     11900     11895     11898     11901     11899     11898     11900
     11899     11898     11901     11900     11898     11901     11898     11901     11902
     11898     11901     11903     11898     11901     11904     11902     11901     11903
     11902     11901     11904     11903     11901     11904     11901     11904     11905
     11901     11904     11906     11901     11904     11907     11905     11904     11906
     11905     11904     11907     11906     11904     11907     11904     11907     11908
     11904     11907     11909     11904     11907     11910     11908     11907     11909
     11908     11907     11910     11909     11907     11910     11907     11910     11911
     11907     11910     11912     11907     11910     11913     11911     11910     11912
     11911     11910     11913     11912     11910     11913     11910     11913     11914
     11910     11913     11915     11910     11913     11916     11914     11913     11915
     11914     11913     11916     11915     11913     11916     11913     11916     11917
     11913     11916     11918     11913     11916     11919     11917     11916     11918
     11917     11916     11919     11918     11916     11919     11916     11919     11920
     11916     11919     11921     11916     11919     11922     11920     11919     11921
     11920     11919     11922     11921     11919     11922     11871     11923     11924
     11871     11923     11925     11924     11923     11925     11923     11925     11926
     11923     11925     11927     11923     11925     11928     11926     11925     11927
     11926     11925     11928     11927     11925     11928     11925     11928     11929
     11925     11928     11930     11925     11928     11931     11929     11928     11930
     11929     11928     11931     11930     11928     11931     11928     11931     11932
     11928     11931     11933     11928     11931     11934     11932     11931     11933
     11932     11931     11934     11933     11931     11934     11931     11934     11935
     11931     11934     11936     11931     11934     11937     11935     11934     11936
     11935     11934     11937     11936     11934     11937     11934     11937     11938
     11934     11937     11939     11934     11937     11940     11938     11937     11939
     11938     11937     11940     11939     11937     11940     11937     11940     11941
     11937     11940     11942     11937     11940     11943     11941     11940     11942
     11941     11940     11943     11942     11940     11943     11940     11943     11944
     11940     11943     11945     11940     11943     11946     11944     11943     11945
     11944     11943     11946     11945     11943     11946     11943     11946     11947
     11943     11946     11948     11947     11946     11948     11946     11948     11949
     11946     11948     11950     11949     11948     11950     11948     11950     11951
     11948     11950     11952     11948     11950     11953     11951     11950     11952
     11951     11950     11953     11952     11950     11953     11950     11953     11954
     11950     11953     11955     11950     11953     11956     11954     11953     11955
     11954     11953     11956     11955     11953     11956     11953     11956     11957
     11953     11956     11958     11953     11956     11959     11957     11956     11958
     11957     11956     11959     11958     11956     11959     11956     11959     11960
     11956     11959     11961     11956     11959     11962     11960     11959     11961
     11960     11959     11962     11961     11959     11962     11959     11962     11963
     11959     11962     11964     11959     11962     11965     11963     11962     11964
     11963     11962     11965     11964     11962     11965     11962     11965     11966
     11962     11965     11967     11962     11965     11968     11966     11965     11967
     11966     11965     11968     11967     11965     11968     11965     11968     11969
     11965     11968     11970     11965     11968     11971     11969     11968     11970
     11969     11968     11971     11970     11968     11971     11968     11971     11972
     11968     11971     11973     11968     11971     11974     11972     11971     11973
     11972     11971     11974     11973     11971     11974       816       815       817
       816       815       819       816       815       861       817       815       819
       817       815       861       819       815       861       815       817       818
       815       819       820       815       819       821       815       819       822
       820       819       821       820       819       822       821       819       822
       819       822       823       819       822       853       823       822       853
       822       823       824       822       823       825       824       823       825
       823       825       826       823       825       827       823       825       828
       826       825       827       826       825       828       827       825       828
       825       828       829       825       828       830       825       828       851
       829       828       830       829       828       851       830       828       851
       828       830       831       828       830       832       828       830       840
       831       830       832       831       830       840       832       830       840
       830       832       833       830       832       834       830       832       835
       833       832       834       833       832       835       834       832       835
       832       835       836       832       835       837       832       835       838
       836       835       837       836       835       838       837       835       838
       835       838       839       835       838       840       835       838       864
       839       838       840       839       838       864       840       838       864
       830       840       838       830       840       841       830       840       845
       838       840       841       838       840       845       841       840       845
       840       841       842       840       841       843       840       841       844
       842       841       843       842       841       844       843       841       844
       840       845       846       840       845       847       840       845       848
       846       845       847       846       845       848       847       845       848
       845       848       849       845       848       850       845       848       851
       849       848       850       849       848       851       850       848       851
       828       851       848       828       851       852       828       851       853
       848       851       852       848       851       853       852       851       853
       822       853       851       822       853       854       822       853       858
       851       853       854       851       853       858       854       853       858
       853       854       855       853       854       856       853       854       857
       855       854       856       855       854       857       856       854       857
       853       858       859       853       858       860       853       858       861
       859       858       860       859       858       861       860       858       861
       815       861       858       815       861       862       815       861       863
       858       861       862       858       861       863       862       861       863
       838       864       865       838       864       866       838       864       870
       865       864       866       865       864       870       866       864       870
       864       866       867       864       866       868       864       866       869
       867       866       868       867       866       869       868       866       869
       864       870       871       864       870       872       864       870       873
       871       870       872       871       870       873       872       870       873
       870       873       874       870       873       875       870       873       876
       874       873       875       874       873       876       875       873       876
       873       876       877       873       876       878       873       876       879
       877       876       878       877       876       879       878       876       879
       876       879       880       876       879       881       876       879       885
       880       879       881       880       879       885       881       879       885
       879       881       882       879       881       883       879       881       884
       882       881       883       882       881       884       883       881       884
       879       885       886       879       885       887       879       885       888
       886       885       887       886       885       888       887       885       888
       890       889       891       890       889       893       890       889       935
       891       889       893       891       889       935       893       889       935
       889       891       892       889       893       894       889       893       895
       889       893       896       894       893       895       894       893       896
       895       893       896       893       896       897       893       896       927
       897       896       927       896       897       898       896       897       899
       898       897       899       897       899       900       897       899       901
       897       899       902       900       899       901       900       899       902
       901       899       902       899       902       903       899       902       904
       899       902       925       903       902       904       903       902       925
       904       902       925       902       904       905       902       904       906
       902       904       914       905       904       906       905       904       914
       906       904       914       904       906       907       904       906       908
       904       906       909       907       906       908       907       906       909
       908       906       909       906       909       910       906       909       911
       906       909       912       910       909       911       910       909       912
       911       909       912       909       912       913       909       912       914
       909       912       938       913       912       914       913       912       938
       914       912       938       904       914       912       904       914       915
       904       914       919       912       914       915       912       914       919
       915       914       919       914       915       916       914       915       917
       914       915       918       916       915       917       916       915       918
       917       915       918       914       919       920       914       919       921
       914       919       922       920       919       921       920       919       922
       921       919       922       919       922       923       919       922       924
       919       922       925       923       922       924       923       922       925
       924       922       925       902       925       922       902       925       926
       902       925       927       922       925       926       922       925       927
       926       925       927       896       927       925       896       927       928
       896       927       932       925       927       928       925       927       932
       928       927       932       927       928       929       927       928       930
       927       928       931       929       928       930       929       928       931
       930       928       931       927       932       933       927       932       934
       927       932       935       933       932       934       933       932       935
       934       932       935       889       935       932       889       935       936
       889       935       937       932       935       936       932       935       937
       936       935       937       912       938       939       912       938       940
       912       938       944       939       938       940       939       938       944
       940       938       944       938       940       941       938       940       942
       938       940       943       941       940       942       941       940       943
       942       940       943       938       944       945       938       944       946
       938       944       947       945       944       946       945       944       947
       946       944       947       944       947       948       944       947       949
       944       947       950       948       947       949       948       947       950
       949       947       950       947       950       951       947       950       952
       947       950       953       951       950       952       951       950       953
       952       950       953       950       953       954       950       953       955
       950       953       959       954       953       955       954       953       959
       955       953       959       953       955       956       953       955       957
       953       955       958       956       955       957       956       955       958
       957       955       958       953       959       960       953       959       961
       953       959       962       960       959       961       960       959       962
       961       959       962       964       963       965       964       963       967
       964       963      1009       965       963       967       965       963      1009
       967       963      1009       963       965       966       963       967       968
       963       967       969       963       967       970       968       967       969
       968       967       970       969       967       970       967       970       971
       967       970      1001       971       970      1001       970       971       972
       970       971       973       972       971       973       971       973       974
       971       973       975       971       973       976       974       973       975
       974       973       976       975       973       976       973       976       977
       973       976       978       973       976       999       977       976       978
       977       976       999       978       976       999       976       978       979
       976       978       980       976       978       988       979       978       980
       979       978       988       980       978       988       978       980       981
       978       980       982       978       980       983       981       980       982
       981       980       983       982       980       983       980       983       984
       980       983       985       980       983       986       984       983       985
       984       983       986       985       983       986       983       986       987
       983       986       988       983       986      1012       987       986       988
       987       986      1012       988       986      1012       978       988       986
       978       988       989       978       988       993       986       988       989
       986       988       993       989       988       993       988       989       990
       988       989       991       988       989       992       990       989       991
       990       989       992       991       989       992       988       993       994
       988       993       995       988       993       996       994       993       995
       994       993       996       995       993       996       993       996       997
       993       996       998       993       996       999       997       996       998
       997       996       999       998       996       999       976       999       996
       976       999      1000       976       999      1001       996       999      1000
       996       999      1001      1000       999      1001       970      1001       999
       970      1001      1002       970      1001      1006       999      1001      1002
       999      1001      1006      1002      1001      1006      1001      1002      1003
      1001      1002      1004      1001      1002      1005      1003      1002      1004
      1003      1002      1005      1004      1002      1005      1001      1006      1007
      1001      1006      1008      1001      1006      1009      1007      1006      1008
      1007      1006      1009      1008      1006      1009       963      1009      1006
       963      1009      1010       963      1009      1011      1006      1009      1010
      1006      1009      1011      1010      1009      1011       986      1012      1013
       986      1012      1014       986      1012      1018      1013      1012      1014
      1013      1012      1018      1014      1012      1018      1012      1014      1015
      1012      1014      1016      1012      1014      1017      1015      1014      1016
      1015      1014      1017      1016      1014      1017      1012      1018      1019
      1012      1018      1020      1012      1018      1021      1019      1018      1020
      1019      1018      1021      1020      1018      1021      1018      1021      1022
      1018      1021      1023      1018      1021      1024      1022      1021      1023
      1022      1021      1024      1023      1021      1024      1021      1024      1025
      1021      1024      1026      1021      1024      1027      1025      1024      1026
      1025      1024      1027      1026      1024      1027      1024      1027      1028
      1024      1027      1029      1024      1027      1033      1028      1027      1029
      1028      1027      1033      1029      1027      1033      1027      1029      1030
      1027      1029      1031      1027      1029      1032      1030      1029      1031
      1030      1029      1032      1031      1029      1032      1027      1033      1034
      1027      1033      1035      1027      1033      1036      1034      1033      1035
      1034      1033      1036      1035      1033      1036     21852     21851     21855
     21852     21851     21859     21852     21851     21863     21855     21851     21859
     21855     21851     21863     21859     21851     21863     21851     21852     21853
     21851     21852     21854     21851     21852     21867     21853     21852     21854
     21853     21852     21867     21854     21852     21867     21851     21855     21856
     21851     21855     21857     21851     21855     21858     21856     21855     21857
     21856     21855     21858     21857     21855     21858     21851     21859     21860
     21851     21859     21861     21851     21859     21862     21860     21859     21861
     21860     21859     21862     21861     21859     21862     21851     21863     21864
     21851     21863     21865     21851     21863     21866     21864     21863     21865
     21864     21863     21866     21865     21863     21866     21852     21867     21868
     21852     21867     21869     21852     21867     21873     21868     21867     21869
     21868     21867     21873     21869     21867     21873     21871     21870     21872
     21871     21870     21873     21871     21870     21874     21872     21870     21873
     21872     21870     21874     21873     21870     21874     21867     21873     21870
     21870     21874     21875     21874     21875     21876     21874     21875     21877
     21874     21875     21878     21876     21875     21877     21876     21875     21878
     21877     21875     21878     21875     21878     21879     21875     21878     21880
     21875     21878     21886     21879     21878     21880     21879     21878     21886
     21880     21878     21886     21878     21880     21881     21880     21881     21882
     21880     21881     21883     21882     21881     21883     21881     21883     21884
     21881     21883     21885     21881     21883     21895     21884     21883     21885
     21884     21883     21895     21885     21883     21895     21878     21886     21887
     21878     21886     21888     21878     21886     21889     21887     21886     21888
     21887     21886     21889     21888     21886     21889     21886     21889     21890
     21889     21890     21891     21889     21890     21892     21891     21890     21892
     21890     21892     21893     21890     21892     21894     21890     21892     21942
     21893     21892     21894     21893     21892     21942     21894     21892     21942
     21883     21895     21896     21883     21895     21897     21883     21895     21898
     21896     21895     21897     21896     21895     21898     21897     21895     21898
     21895     21898     21899     21895     21898     21900     21895     21898     21901
     21899     21898     21900     21899     21898     21901     21900     21898     21901
     21898     21901     21902     21898     21901     21903     21898     21901     21904
     21902     21901     21903     21902     21901     21904     21903     21901     21904
     21901     21904     21905     21901     21904     21906     21901     21904     21907
     21905     21904     21906     21905     21904     21907     21906     21904     21907
     21904     21907     21908     21904     21907     21909     21904     21907     21910
     21908     21907     21909     21908     21907     21910     21909     21907     21910
     21907     21910     21911     21907     21910     21912     21907     21910     21913
     21911     21910     21912     21911     21910     21913     21912     21910     21913
     21910     21913     21914     21910     21913     21915     21914     21913     21915
     21913     21915     21916     21913     21915     21917     21916     21915     21917
     21915     21917     21918     21915     21917     21919     21915     21917     21920
     21918     21917     21919     21918     21917     21920     21919     21917     21920
     21917     21920     21921     21917     21920     21922     21917     21920     21923
     21921     21920     21922     21921     21920     21923     21922     21920     21923
     21920     21923     21924     21920     21923     21925     21920     21923     21926
     21924     21923     21925     21924     21923     21926     21925     21923     21926
     21923     21926     21927     21923     21926     21928     21923     21926     21929
     21927     21926     21928     21927     21926     21929     21928     21926     21929
     21926     21929     21930     21926     21929     21931     21926     21929     21932
     21930     21929     21931     21930     21929     21932     21931     21929     21932
     21929     21932     21933     21929     21932     21934     21929     21932     21935
     21933     21932     21934     21933     21932     21935     21934     21932     21935
     21932     21935     21936     21932     21935     21937     21932     21935     21938
     21936     21935     21937     21936     21935     21938     21937     21935     21938
     21935     21938     21939     21935     21938     21940     21935     21938     21941
     21939     21938     21940     21939     21938     21941     21940     21938     21941
     21892     21942     21943     21892     21942     21944     21892     21942     21945
     21943     21942     21944     21943     21942     21945     21944     21942     21945
     21942     21945     21946     21942     21945     21947     21942     21945     21948
     21946     21945     21947     21946     21945     21948     21947     21945     21948
     21945     21948     21949     21945     21948     21950     21945     21948     21951
     21949     21948     21950     21949     21948     21951     21950     21948     21951
     21948     21951     21952     21948     21951     21953     21948     21951     21954
     21952     21951     21953     21952     21951     21954     21953     21951     21954
     21951     21954     21955     21951     21954     21956     21951     21954     21957
     21955     21954     21956     21955     21954     21957     21956     21954     21957
     21954     21957     21958     21954     21957     21959     21954     21957     21960
     21958     21957     21959     21958     21957     21960     21959     21957     21960
     21957     21960     21961     21957     21960     21962     21957     21960     21963
     21961     21960     21962     21961     21960     21963     21962     21960     21963
     21960     21963     21964     21960     21963     21965     21960     21963     21966
     21964     21963     21965     21964     21963     21966     21965     21963     21966
     21963     21966     21967     21963     21966     21968     21963     21966     21969
     21967     21966     21968     21967     21966     21969     21968     21966     21969
     21966     21969     21970     21966     21969     21971     21966     21969     21972
     21970     21969     21971     21970     21969     21972     21971     21969     21972
     21969     21972     21973     21969     21972     21974     21969     21972     21975
     21973     21972     21974     21973     21972     21975     21974     21972     21975
     21972     21975     21976     21972     21975     21977     21972     21975     21978
     21976     21975     21977     21976     21975     21978     21977     21975     21978
     21975     21978     21979     21975     21978     21980     21975     21978     21981
     21979     21978     21980     21979     21978     21981     21980     21978     21981
     21978     21981     21982     21978     21981     21983     21978     21981     21984
     21982     21981     21983     21982     21981     21984     21983     21981     21984
      1038      1037      1039      1038      1037      1041      1038      1037      1083
      1039      1037      1041      1039      1037      1083      1041      1037      1083
      1037      1039      1040      1037      1041      1042      1037      1041      1043
      1037      1041      1044      1042      1041      1043      1042      1041      1044
      1043      1041      1044      1041      1044      1045      1041      1044      1075
      1045      1044      1075      1044      1045      1046      1044      1045      1047
      1046      1045      1047      1045      1047      1048      1045      1047      1049
      1045      1047      1050      1048      1047      1049      1048      1047      1050
      1049      1047      1050      1047      1050      1051      1047      1050      1052
      1047      1050      1073      1051      1050      1052      1051      1050      1073
      1052      1050      1073      1050      1052      1053      1050      1052      1054
      1050      1052      1062      1053      1052      1054      1053      1052      1062
      1054      1052      1062      1052      1054      1055      1052      1054      1056
      1052      1054      1057      1055      1054      1056      1055      1054      1057
      1056      1054      1057      1054      1057      1058      1054      1057      1059
      1054      1057      1060      1058      1057      1059      1058      1057      1060
      1059      1057      1060      1057      1060      1061      1057      1060      1062
      1057      1060      1086      1061      1060      1062      1061      1060      1086
      1062      1060      1086      1052      1062      1060      1052      1062      1063
      1052      1062      1067      1060      1062      1063      1060      1062      1067
      1063      1062      1067      1062      1063      1064      1062      1063      1065
      1062      1063      1066      1064      1063      1065      1064      1063      1066
      1065      1063      1066      1062      1067      1068      1062      1067      1069
      1062      1067      1070      1068      1067      1069      1068      1067      1070
      1069      1067      1070      1067      1070      1071      1067      1070      1072
      1067      1070      1073      1071      1070      1072      1071      1070      1073
      1072      1070      1073      1050      1073      1070      1050      1073      1074
      1050      1073      1075      1070      1073      1074      1070      1073      1075
      1074      1073      1075      1044      1075      1073      1044      1075      1076
      1044      1075      1080      1073      1075      1076      1073      1075      1080
      1076      1075      1080      1075      1076      1077      1075      1076      1078
      1075      1076      1079      1077      1076      1078      1077      1076      1079
      1078      1076      1079      1075      1080      1081      1075      1080      1082
      1075      1080      1083      1081      1080      1082      1081      1080      1083
      1082      1080      1083      1037      1083      1080      1037      1083      1084
      1037      1083      1085      1080      1083      1084      1080      1083      1085
      1084      1083      1085      1060      1086      1087      1060      1086      1088
      1060      1086      1092      1087      1086      1088      1087      1086      1092
      1088      1086      1092      1086      1088      1089      1086      1088      1090
      1086      1088      1091      1089      1088      1090      1089      1088      1091
      1090      1088      1091      1086      1092      1093      1086      1092      1094
      1086      1092      1095      1093      1092      1094      1093      1092      1095
      1094      1092      1095      1092      1095      1096      1092      1095      1097
      1092      1095      1098      1096      1095      1097      1096      1095      1098
      1097      1095      1098      1095      1098      1099      1095      1098      1100
      1095      1098      1101      1099      1098      1100      1099      1098      1101
      1100      1098      1101      1098      1101      1102      1098      1101      1103
      1098      1101      1107      1102      1101      1103      1102      1101      1107
      1103      1101      1107      1101      1103      1104      1101      1103      1105
      1101      1103      1106      1104      1103      1105      1104      1103      1106
      1105      1103      1106      1101      1107      1108      1101      1107      1109
      1101      1107      1110      1108      1107      1109      1108      1107      1110
      1109      1107      1110     11976     11975     11980     11976     11975     11984
     11976     11975     11988     11980     11975     11984     11980     11975     11988
     11984     11975     11988     11975     11976     11977     11975     11976     11978
     11975     11976     11979     11977     11976     11978     11977     11976     11979
     11978     11976     11979     11975     11980     11981     11975     11980     11982
     11975     11980     11983     11981     11980     11982     11981     11980     11983
     11982     11980     11983     11975     11984     11985     11975     11984     11986
     11975     11984     11987     11985     11984     11986     11985     11984     11987
     11986     11984     11987     11975     11988     11989     11975     11988     11990
     11975     11988     11991     11989     11988     11990     11989     11988     11991
     11990     11988     11991     11988     11991     11992     11988     11991     11993
     11988     11991     11998     11992     11991     11993     11992     11991     11998
     11993     11991     11998     11995     11994     11996     11995     11994     11997
     11995     11994     11998     11996     11994     11997     11996     11994     11998
     11997     11994     11998     11994     11997     11999     11991     11998     11994
     11997     11999     12000     11997     11999     12001     11997     11999     12004
     12000     11999     12001     12000     11999     12004     12001     11999     12004
     12003     12002     12004     12003     12002     12054     12004     12002     12054
     11999     12004     12002     11999     12004     12005     11999     12004     12006
     12002     12004     12005     12002     12004     12006     12005     12004     12006
     12004     12006     12007     12004     12006     12008     12004     12006     12010
     12007     12006     12008     12007     12006     12010     12008     12006     12010
     12006     12008     12009     12006     12010     12011     12006     12010     12012
     12011     12010     12012     12010     12012     12013     12010     12012     12014
     12013     12012     12014     12012     12014     12015     12012     12014     12016
     12012     12014     12017     12015     12014     12016     12015     12014     12017
     12016     12014     12017     12014     12017     12018     12014     12017     12019
     12014     12017     12020     12018     12017     12019     12018     12017     12020
     12019     12017     12020     12017     12020     12021     12017     12020     12022
     12017     12020     12023     12021     12020     12022     12021     12020     12023
     12022     12020     12023     12020     12023     12024     12020     12023     12025
     12020     12023     12026     12024     12023     12025     12024     12023     12026
     12025     12023     12026     12023     12026     12027     12023     12026     12028
     12023     12026     12029     12027     12026     12028     12027     12026     12029
     12028     12026     12029     12026     12029     12030     12026     12029     12031
     12026     12029     12032     12030     12029     12031     12030     12029     12032
     12031     12029     12032     12029     12032     12033     12029     12032     12034
     12029     12032     12035     12033     12032     12034     12033     12032     12035
     12034     12032     12035     12032     12035     12036     12032     12035     12037
     12032     12035     12038     12036     12035     12037     12036     12035     12038
     12037     12035     12038     12035     12038     12039     12035     12038     12040
     12035     12038     12041     12039     12038     12040     12039     12038     12041
     12040     12038     12041     12038     12041     12042     12038     12041     12043
     12038     12041     12044     12042     12041     12043     12042     12041     12044
     12043     12041     12044     12041     12044     12045     12041     12044     12046
     12041     12044     12047     12045     12044     12046     12045     12044     12047
     12046     12044     12047     12044     12047     12048     12044     12047     12049
     12044     12047     12050     12048     12047     12049     12048     12047     12050
     12049     12047     12050     12047     12050     12051     12047     12050     12052
     12047     12050     12053     12051     12050     12052     12051     12050     12053
     12052     12050     12053     12002     12054     12055     12002     12054     12056
     12055     12054     12056     12054     12056     12057     12054     12056     12058
     12054     12056     12059     12057     12056     12058     12057     12056     12059
     12058     12056     12059     12056     12059     12060     12056     12059     12061
     12056     12059     12062     12060     12059     12061     12060     12059     12062
     12061     12059     12062     12059     12062     12063     12059     12062     12064
     12059     12062     12065     12063     12062     12064     12063     12062     12065
     12064     12062     12065     12062     12065     12066     12062     12065     12067
     12062     12065     12068     12066     12065     12067     12066     12065     12068
     12067     12065     12068     12065     12068     12069     12065     12068     12070
     12065     12068     12071     12069     12068     12070     12069     12068     12071
     12070     12068     12071     12068     12071     12072     12068     12071     12073
     12068     12071     12074     12072     12071     12073     12072     12071     12074
     12073     12071     12074     12071     12074     12075     12071     12074     12076
     12071     12074     12077     12075     12074     12076     12075     12074     12077
     12076     12074     12077     12074     12077     12078     12074     12077     12079
     12078     12077     12079     12077     12079     12080     12077     12079     12081
     12080     12079     12081     12079     12081     12082     12079     12081     12083
     12079     12081     12084     12082     12081     12083     12082     12081     12084
     12083     12081     12084     12081     12084     12085     12081     12084     12086
     12081     12084     12087     12085     12084     12086     12085     12084     12087
     12086     12084     12087     12084     12087     12088     12084     12087     12089
     12084     12087     12090     12088     12087     12089     12088     12087     12090
     12089     12087     12090     12087     12090     12091     12087     12090     12092
     12087     12090     12093     12091     12090     12092     12091     12090     12093
     12092     12090     12093     12090     12093     12094     12090     12093     12095
     12090     12093     12096     12094     12093     12095     12094     12093     12096
     12095     12093     12096     12093     12096     12097     12093     12096     12098
     12093     12096     12099     12097     12096     12098     12097     12096     12099
     12098     12096     12099     12096     12099     12100     12096     12099     12101
     12096     12099     12102     12100     12099     12101     12100     12099     12102
     12101     12099     12102     12099     12102     12103     12099     12102     12104
     12099     12102     12105     12103     12102     12104     12103     12102     12105
     12104     12102     12105      4426      4425      4429      4426      4425      4433
      4426      4425      4437      4429      4425      4433      4429      4425      4437
      4433      4425      4437      4425      4426      4427      4425      4426      4428
      4425      4426      4441      4427      4426      4428      4427      4426      4441
      4428      4426      4441      4425      4429      4430      4425      4429      4431
      4425      4429      4432      4430      4429      4431      4430      4429      4432
      4431      4429      4432      4425      4433      4434      4425      4433      4435
      4425      4433      4436      4434      4433      4435      4434      4433      4436
      4435      4433      4436      4425      4437      4438      4425      4437      4439
      4425      4437      4440      4438      4437      4439      4438      4437      4440
      4439      4437      4440      4426      4441      4442      4426      4441      4443
      4426      4441      4447      4442      4441      4443      4442      4441      4447
      4443      4441      4447      4445      4444      4446      4445      4444      4447
      4445      4444      4448      4446      4444      4447      4446      4444      4448
      4447      4444      4448      4441      4447      4444      4444      4448      4449
      4448      4449      4450      4448      4449      4451      4448      4449      4452
      4450      4449      4451      4450      4449      4452      4451      4449      4452
      4449      4452      4453      4449      4452      4454      4449      4452      4460
      4453      4452      4454      4453      4452      4460      4454      4452      4460
      4452      4454      4455      4454      4455      4456      4454      4455      4457
      4456      4455      4457      4455      4457      4458      4455      4457      4459
      4455      4457      4469      4458      4457      4459      4458      4457      4469
      4459      4457      4469      4452      4460      4461      4452      4460      4462
      4452      4460      4463      4461      4460      4462      4461      4460      4463
      4462      4460      4463      4460      4463      4464      4463      4464      4465
      4463      4464      4466      4465      4464      4466      4464      4466      4467
      4464      4466      4468      4464      4466      4516      4467      4466      4468
      4467      4466      4516      4468      4466      4516      4457      4469      4470
      4457      4469      4471      4457      4469      4472      4470      4469      4471
      4470      4469      4472      4471      4469      4472      4469      4472      4473
      4469      4472      4474      4469      4472      4475      4473      4472      4474
      4473      4472      4475      4474      4472      4475      4472      4475      4476
      4472      4475      4477      4476      4475      4477      4475      4477      4478
      4475      4477      4479      4478      4477      4479      4477      4479      4480
      4477      4479      4481      4477      4479      4482      4480      4479      4481
      4480      4479      4482      4481      4479      4482      4479      4482      4483
      4479      4482      4484      4483      4482      4484      4482      4484      4485
      4482      4484      4486      4485      4484      4486      4484      4486      4487
      4484      4486      4488      4484      4486      4489      4487      4486      4488
      4487      4486      4489      4488      4486      4489      4486      4489      4490
      4486      4489      4491      4490      4489      4491      4489      4491      4492
      4489      4491      4493      4492      4491      4493      4491      4493      4494
      4491      4493      4495      4491      4493      4496      4494      4493      4495
      4494      4493      4496      4495      4493      4496      4493      4496      4497
      4493      4496      4498      4497      4496      4498      4496      4498      4499
      4496      4498      4500      4499      4498      4500      4498      4500      4501
      4498      4500      4502      4498      4500      4503      4501      4500      4502
      4501      4500      4503      4502      4500      4503      4500      4503      4504
      4500      4503      4505      4500      4503      4506      4504      4503      4505
      4504      4503      4506      4505      4503      4506      4503      4506      4507
      4503      4506      4508      4503      4506      4509      4507      4506      4508
      4507      4506      4509      4508      4506      4509      4506      4509      4510
      4506      4509      4511      4506      4509      4512      4510      4509      4511
      4510      4509      4512      4511      4509      4512      4509      4512      4513
      4509      4512      4514      4509      4512      4515      4513      4512      4514
      4513      4512      4515      4514      4512      4515      4466      4516      4517
      4466      4516      4518      4466      4516      4519      4517      4516      4518
      4517      4516      4519      4518      4516      4519      4516      4519      4520
      4516      4519      4521      4516      4519      4522      4520      4519      4521
      4520      4519      4522      4521      4519      4522      4519      4522      4523
      4519      4522      4524      4519      4522      4525      4523      4522      4524
      4523      4522      4525      4524      4522      4525      4522      4525      4526
      4522      4525      4527      4522      4525      4528      4526      4525      4527
      4526      4525      4528      4527      4525      4528      4525      4528      4529
      4525      4528      4530      4525      4528      4531      4529      4528      4530
      4529      4528      4531      4530      4528      4531      4528      4531      4532
      4528      4531      4533      4528      4531      4534      4532      4531      4533
      4532      4531      4534      4533      4531      4534      4531      4534      4535
      4531      4534      4536      4531      4534      4537      4535      4534      4536
      4535      4534      4537      4536      4534      4537      4534      4537      4538
      4534      4537      4539      4534      4537      4540      4538      4537      4539
      4538      4537      4540      4539      4537      4540      4537      4540      4541
      4537      4540      4542      4537      4540      4543      4541      4540      4542
      4541      4540      4543      4542      4540      4543      4540      4543      4544
      4540      4543      4545      4540      4543      4546      4544      4543      4545
      4544      4543      4546      4545      4543      4546      4543      4546      4547
      4543      4546      4548      4543      4546      4549      4547      4546      4548
      4547      4546      4549      4548      4546      4549      4546      4549      4550
      4546      4549      4551      4546      4549      4552      4550      4549      4551
      4550      4549      4552      4551      4549      4552      4549      4552      4553
      4549      4552      4554      4549      4552      4555      4553      4552      4554
      4553      4552      4555      4554      4552      4555      4552      4555      4556
      4552      4555      4557      4552      4555      4558      4556      4555      4557
      4556      4555      4558      4557      4555      4558      4555      4558      4559
      4555      4558      4560      4555      4558      4561      4559      4558      4560
      4559      4558      4561      4560      4558      4561      4558      4561      4562
      4558      4561      4563      4558      4561      4564      4562      4561      4563
      4562      4561      4564      4563      4561      4564      1112      1111      1113
      1112      1111      1115      1112      1111      1157      1113      1111      1115
      1113      1111      1157      1115      1111      1157      1111      1113      1114
      1111      1115      1116      1111      1115      1117      1111      1115      1118
      1116      1115      1117      1116      1115      1118      1117      1115      1118
      1115      1118      1119      1115      1118      1149      1119      1118      1149
      1118      1119      1120      1118      1119      1121      1120      1119      1121
      1119      1121      1122      1119      1121      1123      1119      1121      1124
      1122      1121      1123      1122      1121      1124      1123      1121      1124
      1121      1124      1125      1121      1124      1126      1121      1124      1147
      1125      1124      1126      1125      1124      1147      1126      1124      1147
      1124      1126      1127      1124      1126      1128      1124      1126      1136
      1127      1126      1128      1127      1126      1136      1128      1126      1136
      1126      1128      1129      1126      1128      1130      1126      1128      1131
      1129      1128      1130      1129      1128      1131      1130      1128      1131
      1128      1131      1132      1128      1131      1133      1128      1131      1134
      1132      1131      1133      1132      1131      1134      1133      1131      1134
      1131      1134      1135      1131      1134      1136      1131      1134      1160
      1135      1134      1136      1135      1134      1160      1136      1134      1160
      1126      1136      1134      1126      1136      1137      1126      1136      1141
      1134      1136      1137      1134      1136      1141      1137      1136      1141
      1136      1137      1138      1136      1137      1139      1136      1137      1140
      1138      1137      1139      1138      1137      1140      1139      1137      1140
      1136      1141      1142      1136      1141      1143      1136      1141      1144
      1142      1141      1143      1142      1141      1144      1143      1141      1144
      1141      1144      1145      1141      1144      1146      1141      1144      1147
      1145      1144      1146      1145      1144      1147      1146      1144      1147
      1124      1147      1144      1124      1147      1148      1124      1147      1149
      1144      1147      1148      1144      1147      1149      1148      1147      1149
      1118      1149      1147      1118      1149      1150      1118      1149      1154
      1147      1149      1150      1147      1149      1154      1150      1149      1154
      1149      1150      1151      1149      1150      1152      1149      1150      1153
      1151      1150      1152      1151      1150      1153      1152      1150      1153
      1149      1154      1155      1149      1154      1156      1149      1154      1157
      1155      1154      1156      1155      1154      1157      1156      1154      1157
      1111      1157      1154      1111      1157      1158      1111      1157      1159
      1154      1157      1158      1154      1157      1159      1158      1157      1159
      1134      1160      1161      1134      1160      1162      1134      1160      1166
      1161      1160      1162      1161      1160      1166      1162      1160      1166
      1160      1162      1163      1160      1162      1164      1160      1162      1165
      1163      1162      1164      1163      1162      1165      1164      1162      1165
      1160      1166      1167      1160      1166      1168      1160      1166      1169
      1167      1166      1168      1167      1166      1169      1168      1166      1169
      1166      1169      1170      1166      1169      1171      1166      1169      1172
      1170      1169      1171      1170      1169      1172      1171      1169      1172
      1169      1172      1173      1169      1172      1174      1169      1172      1175
      1173      1172      1174      1173      1172      1175      1174      1172      1175
      1172      1175      1176      1172      1175      1177      1172      1175      1181
      1176      1175      1177      1176      1175      1181      1177      1175      1181
      1175      1177      1178      1175      1177      1179      1175      1177      1180
      1178      1177      1179      1178      1177      1180      1179      1177      1180
      1175      1181      1182      1175      1181      1183      1175      1181      1184
      1182      1181      1183      1182      1181      1184      1183      1181      1184
      1186      1185      1187      1186      1185      1189      1186      1185      1231
      1187      1185      1189      1187      1185      1231      1189      1185      1231
      1185      1187      1188      1185      1189      1190      1185      1189      1191
      1185      1189      1192      1190      1189      1191      1190      1189      1192
      1191      1189      1192      1189      1192      1193      1189      1192      1223
      1193      1192      1223      1192      1193      1194      1192      1193      1195
      1194      1193      1195      1193      1195      1196      1193      1195      1197
      1193      1195      1198      1196      1195      1197      1196      1195      1198
      1197      1195      1198      1195      1198      1199      1195      1198      1200
      1195      1198      1221      1199      1198      1200      1199      1198      1221
      1200      1198      1221      1198      1200      1201      1198      1200      1202
      1198      1200      1210      1201      1200      1202      1201      1200      1210
      1202      1200      1210      1200      1202      1203      1200      1202      1204
      1200      1202      1205      1203      1202      1204      1203      1202      1205
      1204      1202      1205      1202      1205      1206      1202      1205      1207
      1202      1205      1208      1206      1205      1207      1206      1205      1208
      1207      1205      1208      1205      1208      1209      1205      1208      1210
      1205      1208      1234      1209      1208      1210      1209      1208      1234
      1210      1208      1234      1200      1210      1208      1200      1210      1211
      1200      1210      1215      1208      1210      1211      1208      1210      1215
      1211      1210      1215      1210      1211      1212      1210      1211      1213
      1210      1211      1214      1212      1211      1213      1212      1211      1214
      1213      1211      1214      1210      1215      1216      1210      1215      1217
      1210      1215      1218      1216      1215      1217      1216      1215      1218
      1217      1215      1218      1215      1218      1219      1215      1218      1220
      1215      1218      1221      1219      1218      1220      1219      1218      1221
      1220      1218      1221      1198      1221      1218      1198      1221      1222
      1198      1221      1223      1218      1221      1222      1218      1221      1223
      1222      1221      1223      1192      1223      1221      1192      1223      1224
      1192      1223      1228      1221      1223      1224      1221      1223      1228
      1224      1223      1228      1223      1224      1225      1223      1224      1226
      1223      1224      1227      1225      1224      1226      1225      1224      1227
      1226      1224      1227      1223      1228      1229      1223      1228      1230
      1223      1228      1231      1229      1228      1230      1229      1228      1231
      1230      1228      1231      1185      1231      1228      1185      1231      1232
      1185      1231      1233      1228      1231      1232      1228      1231      1233
      1232      1231      1233      1208      1234      1235      1208      1234      1236
      1208      1234      1240      1235      1234      1236      1235      1234      1240
      1236      1234      1240      1234      1236      1237      1234      1236      1238
      1234      1236      1239      1237      1236      1238      1237      1236      1239
      1238      1236      1239      1234      1240      1241      1234      1240      1242
      1234      1240      1243      1241      1240      1242      1241      1240      1243
      1242      1240      1243      1240      1243      1244      1240      1243      1245
      1240      1243      1246      1244      1243      1245      1244      1243      1246
      1245      1243      1246      1243      1246      1247      1243      1246      1248
      1243      1246      1249      1247      1246      1248      1247      1246      1249
      1248      1246      1249      1246      1249      1250      1246      1249      1251
      1246      1249      1255      1250      1249      1251      1250      1249      1255
      1251      1249      1255      1249      1251      1252      1249      1251      1253
      1249      1251      1254      1252      1251      1253      1252      1251      1254
      1253      1251      1254      1249      1255      1256      1249      1255      1257
      1249      1255      1258      1256      1255      1257      1256      1255      1258
      1257      1255      1258      1260      1259      1261      1260      1259      1263
      1260      1259      1305      1261      1259      1263      1261      1259      1305
      1263      1259      1305      1259      1261      1262      1259      1263      1264
      1259      1263      1265      1259      1263      1266      1264      1263      1265
      1264      1263      1266      1265      1263      1266      1263      1266      1267
      1263      1266      1297      1267      1266      1297      1266      1267      1268
      1266      1267      1269      1268      1267      1269      1267      1269      1270
      1267      1269      1271      1267      1269      1272      1270      1269      1271
      1270      1269      1272      1271      1269      1272      1269      1272      1273
      1269      1272      1274      1269      1272      1295      1273      1272      1274
      1273      1272      1295      1274      1272      1295      1272      1274      1275
      1272      1274      1276      1272      1274      1284      1275      1274      1276
      1275      1274      1284      1276      1274      1284      1274      1276      1277
      1274      1276      1278      1274      1276      1279      1277      1276      1278
      1277      1276      1279      1278      1276      1279      1276      1279      1280
      1276      1279      1281      1276      1279      1282      1280      1279      1281
      1280      1279      1282      1281      1279      1282      1279      1282      1283
      1279      1282      1284      1279      1282      1308      1283      1282      1284
      1283      1282      1308      1284      1282      1308      1274      1284      1282
      1274      1284      1285      1274      1284      1289      1282      1284      1285
      1282      1284      1289      1285      1284      1289      1284      1285      1286
      1284      1285      1287      1284      1285      1288      1286      1285      1287
      1286      1285      1288      1287      1285      1288      1284      1289      1290
      1284      1289      1291      1284      1289      1292      1290      1289      1291
      1290      1289      1292      1291      1289      1292      1289      1292      1293
      1289      1292      1294      1289      1292      1295      1293      1292      1294
      1293      1292      1295      1294      1292      1295      1272      1295      1292
      1272      1295      1296      1272      1295      1297      1292      1295      1296
      1292      1295      1297      1296      1295      1297      1266      1297      1295
      1266      1297      1298      1266      1297      1302      1295      1297      1298
      1295      1297      1302      1298      1297      1302      1297      1298      1299
      1297      1298      1300      1297      1298      1301      1299      1298      1300
      1299      1298      1301      1300      1298      1301      1297      1302      1303
      1297      1302      1304      1297      1302      1305      1303      1302      1304
      1303      1302      1305      1304      1302      1305      1259      1305      1302
      1259      1305      1306      1259      1305      1307      1302      1305      1306
      1302      1305      1307      1306      1305      1307      1282      1308      1309
      1282      1308      1310      1282      1308      1314      1309      1308      1310
      1309      1308      1314      1310      1308      1314      1308      1310      1311
      1308      1310      1312      1308      1310      1313      1311      1310      1312
      1311      1310      1313      1312      1310      1313      1308      1314      1315
      1308      1314      1316      1308      1314      1317      1315      1314      1316
      1315      1314      1317      1316      1314      1317      1314      1317      1318
      1314      1317      1319      1314      1317      1320      1318      1317      1319
      1318      1317      1320      1319      1317      1320      1317      1320      1321
      1317      1320      1322      1317      1320      1323      1321      1320      1322
      1321      1320      1323      1322      1320      1323      1320      1323      1324
      1320      1323      1325      1320      1323      1329      1324      1323      1325
      1324      1323      1329      1325      1323      1329      1323      1325      1326
      1323      1325      1327      1323      1325      1328      1326      1325      1327
      1326      1325      1328      1327      1325      1328      1323      1329      1330
      1323      1329      1331      1323      1329      1332      1330      1329      1331
      1330      1329      1332      1331      1329      1332      1334      1333      1335
      1334      1333      1337      1334      1333      1379      1335      1333      1337
      1335      1333      1379      1337      1333      1379      1333      1335      1336
      1333      1337      1338      1333      1337      1339      1333      1337      1340
      1338      1337      1339      1338      1337      1340      1339      1337      1340
      1337      1340      1341      1337      1340      1371      1341      1340      1371
      1340      1341      1342      1340      1341      1343      1342      1341      1343
      1341      1343      1344      1341      1343      1345      1341      1343      1346
      1344      1343      1345      1344      1343      1346      1345      1343      1346
      1343      1346      1347      1343      1346      1348      1343      1346      1369
      1347      1346      1348      1347      1346      1369      1348      1346      1369
      1346      1348      1349      1346      1348      1350      1346      1348      1358
      1349      1348      1350      1349      1348      1358      1350      1348      1358
      1348      1350      1351      1348      1350      1352      1348      1350      1353
      1351      1350      1352      1351      1350      1353      1352      1350      1353
      1350      1353      1354      1350      1353      1355      1350      1353      1356
      1354      1353      1355      1354      1353      1356      1355      1353      1356
      1353      1356      1357      1353      1356      1358      1353      1356      1382
      1357      1356      1358      1357      1356      1382      1358      1356      1382
      1348      1358      1356      1348      1358      1359      1348      1358      1363
      1356      1358      1359      1356      1358      1363      1359      1358      1363
      1358      1359      1360      1358      1359      1361      1358      1359      1362
      1360      1359      1361      1360      1359      1362      1361      1359      1362
      1358      1363      1364      1358      1363      1365      1358      1363      1366
      1364      1363      1365      1364      1363      1366      1365      1363      1366
      1363      1366      1367      1363      1366      1368      1363      1366      1369
      1367      1366      1368      1367      1366      1369      1368      1366      1369
      1346      1369      1366      1346      1369      1370      1346      1369      1371
      1366      1369      1370      1366      1369      1371      1370      1369      1371
      1340      1371      1369      1340      1371      1372      1340      1371      1376
      1369      1371      1372      1369      1371      1376      1372      1371      1376
      1371      1372      1373      1371      1372      1374      1371      1372      1375
      1373      1372      1374      1373      1372      1375      1374      1372      1375
      1371      1376      1377      1371      1376      1378      1371      1376      1379
      1377      1376      1378      1377      1376      1379      1378      1376      1379
      1333      1379      1376      1333      1379      1380      1333      1379      1381
      1376      1379      1380      1376      1379      1381      1380      1379      1381
      1356      1382      1383      1356      1382      1384      1356      1382      1388
      1383      1382      1384      1383      1382      1388      1384      1382      1388
      1382      1384      1385      1382      1384      1386      1382      1384      1387
      1385      1384      1386      1385      1384      1387      1386      1384      1387
      1382      1388      1389      1382      1388      1390      1382      1388      1391
      1389      1388      1390      1389      1388      1391      1390      1388      1391
      1388      1391      1392      1388      1391      1393      1388      1391      1394
      1392      1391      1393      1392      1391      1394      1393      1391      1394
      1391      1394      1395      1391      1394      1396      1391      1394      1397
      1395      1394      1396      1395      1394      1397      1396      1394      1397
      1394      1397      1398      1394      1397      1399      1394      1397      1403
      1398      1397      1399      1398      1397      1403      1399      1397      1403
      1397      1399      1400      1397      1399      1401      1397      1399      1402
      1400      1399      1401      1400      1399      1402      1401      1399      1402
      1397      1403      1404      1397      1403      1405      1397      1403      1406
      1404      1403      1405      1404      1403      1406      1405      1403      1406
     12107     12106     12111     12107     12106     12115     12107     12106     12119
     12111     12106     12115     12111     12106     12119     12115     12106     12119
     12106     12107     12108     12106     12107     12109     12106     12107     12110
     12108     12107     12109     12108     12107     12110     12109     12107     12110
     12106     12111     12112     12106     12111     12113     12106     12111     12114
     12112     12111     12113     12112     12111     12114     12113     12111     12114
     12106     12115     12116     12106     12115     12117     12106     12115     12118
     12116     12115     12117     12116     12115     12118     12117     12115     12118
     12106     12119     12120     12106     12119     12121     12106     12119     12122
     12120     12119     12121     12120     12119     12122     12121     12119     12122
     12119     12122     12123     12119     12122     12124     12119     12122     12129
     12123     12122     12124     12123     12122     12129     12124     12122     12129
     12126     12125     12127     12126     12125     12128     12126     12125     12129
     12127     12125     12128     12127     12125     12129     12128     12125     12129
     12125     12128     12130     12122     12129     12125     12128     12130     12131
     12128     12130     12132     12128     12130     12135     12131     12130     12132
     12131     12130     12135     12132     12130     12135     12134     12133     12135
     12134     12133     12185     12135     12133     12185     12130     12135     12133
     12130     12135     12136     12130     12135     12137     12133     12135     12136
     12133     12135     12137     12136     12135     12137     12135     12137     12138
     12135     12137     12139     12135     12137     12141     12138     12137     12139
     12138     12137     12141     12139     12137     12141     12137     12139     12140
     12137     12141     12142     12137     12141     12143     12142     12141     12143
     12141     12143     12144     12141     12143     12145     12144     12143     12145
     12143     12145     12146     12143     12145     12147     12143     12145     12148
     12146     12145     12147     12146     12145     12148     12147     12145     12148
     12145     12148     12149     12145     12148     12150     12145     12148     12151
     12149     12148     12150     12149     12148     12151     12150     12148     12151
     12148     12151     12152     12148     12151     12153     12148     12151     12154
     12152     12151     12153     12152     12151     12154     12153     12151     12154
     12151     12154     12155     12151     12154     12156     12151     12154     12157
     12155     12154     12156     12155     12154     12157     12156     12154     12157
     12154     12157     12158     12154     12157     12159     12154     12157     12160
     12158     12157     12159     12158     12157     12160     12159     12157     12160
     12157     12160     12161     12157     12160     12162     12157     12160     12163
     12161     12160     12162     12161     12160     12163     12162     12160     12163
     12160     12163     12164     12160     12163     12165     12160     12163     12166
     12164     12163     12165     12164     12163     12166     12165     12163     12166
     12163     12166     12167     12163     12166     12168     12163     12166     12169
     12167     12166     12168     12167     12166     12169     12168     12166     12169
     12166     12169     12170     12166     12169     12171     12166     12169     12172
     12170     12169     12171     12170     12169     12172     12171     12169     12172
     12169     12172     12173     12169     12172     12174     12169     12172     12175
     12173     12172     12174     12173     12172     12175     12174     12172     12175
     12172     12175     12176     12172     12175     12177     12172     12175     12178
     12176     12175     12177     12176     12175     12178     12177     12175     12178
     12175     12178     12179     12175     12178     12180     12175     12178     12181
     12179     12178     12180     12179     12178     12181     12180     12178     12181
     12178     12181     12182     12178     12181     12183     12178     12181     12184
     12182     12181     12183     12182     12181     12184     12183     12181     12184
     12133     12185     12186     12133     12185     12187     12186     12185     12187
     12185     12187     12188     12185     12187     12189     12185     12187     12190
     12188     12187     12189     12188     12187     12190     12189     12187     12190
     12187     12190     12191     12187     12190     12192     12187     12190     12193
     12191     12190     12192     12191     12190     12193     12192     12190     12193
     12190     12193     12194     12190     12193     12195     12190     12193     12196
     12194     12193     12195     12194     12193     12196     12195     12193     12196
     12193     12196     12197     12193     12196     12198     12193     12196     12199
     12197     12196     12198     12197     12196     12199     12198     12196     12199
     12196     12199     12200     12196     12199     12201     12196     12199     12202
     12200     12199     12201     12200     12199     12202     12201     12199     12202
     12199     12202     12203     12199     12202     12204     12199     12202     12205
     12203     12202     12204     12203     12202     12205     12204     12202     12205
     12202     12205     12206     12202     12205     12207     12202     12205     12208
     12206     12205     12207     12206     12205     12208     12207     12205     12208
     12205     12208     12209     12205     12208     12210     12209     12208     12210
     12208     12210     12211     12208     12210     12212     12211     12210     12212
     12210     12212     12213     12210     12212     12214     12210     12212     12215
     12213     12212     12214     12213     12212     12215     12214     12212     12215
     12212     12215     12216     12212     12215     12217     12212     12215     12218
     12216     12215     12217     12216     12215     12218     12217     12215     12218
     12215     12218     12219     12215     12218     12220     12215     12218     12221
     12219     12218     12220     12219     12218     12221     12220     12218     12221
     12218     12221     12222     12218     12221     12223     12218     12221     12224
     12222     12221     12223     12222     12221     12224     12223     12221     12224
     12221     12224     12225     12221     12224     12226     12221     12224     12227
     12225     12224     12226     12225     12224     12227     12226     12224     12227
     12224     12227     12228     12224     12227     12229     12224     12227     12230
     12228     12227     12229     12228     12227     12230     12229     12227     12230
     12227     12230     12231     12227     12230     12232     12227     12230     12233
     12231     12230     12232     12231     12230     12233     12232     12230     12233
     12230     12233     12234     12230     12233     12235     12230     12233     12236
     12234     12233     12235     12234     12233     12236     12235     12233     12236
      1408      1407      1409      1408      1407      1411      1408      1407      1453
      1409      1407      1411      1409      1407      1453      1411      1407      1453
      1407      1409      1410      1407      1411      1412      1407      1411      1413
      1407      1411      1414      1412      1411      1413      1412      1411      1414
      1413      1411      1414      1411      1414      1415      1411      1414      1445
      1415      1414      1445      1414      1415      1416      1414      1415      1417
      1416      1415      1417      1415      1417      1418      1415      1417      1419
      1415      1417      1420      1418      1417      1419      1418      1417      1420
      1419      1417      1420      1417      1420      1421      1417      1420      1422
      1417      1420      1443      1421      1420      1422      1421      1420      1443
      1422      1420      1443      1420      1422      1423      1420      1422      1424
      1420      1422      1432      1423      1422      1424      1423      1422      1432
      1424      1422      1432      1422      1424      1425      1422      1424      1426
      1422      1424      1427      1425      1424      1426      1425      1424      1427
      1426      1424      1427      1424      1427      1428      1424      1427      1429
      1424      1427      1430      1428      1427      1429      1428      1427      1430
      1429      1427      1430      1427      1430      1431      1427      1430      1432
      1427      1430      1456      1431      1430      1432      1431      1430      1456
      1432      1430      1456      1422      1432      1430      1422      1432      1433
      1422      1432      1437      1430      1432      1433      1430      1432      1437
      1433      1432      1437      1432      1433      1434      1432      1433      1435
      1432      1433      1436      1434      1433      1435      1434      1433      1436
      1435      1433      1436      1432      1437      1438      1432      1437      1439
      1432      1437      1440      1438      1437      1439      1438      1437      1440
      1439      1437      1440      1437      1440      1441      1437      1440      1442
      1437      1440      1443      1441      1440      1442      1441      1440      1443
      1442      1440      1443      1420      1443      1440      1420      1443      1444
      1420      1443      1445      1440      1443      1444      1440      1443      1445
      1444      1443      1445      1414      1445      1443      1414      1445      1446
      1414      1445      1450      1443      1445      1446      1443      1445      1450
      1446      1445      1450      1445      1446      1447      1445      1446      1448
      1445      1446      1449      1447      1446      1448      1447      1446      1449
      1448      1446      1449      1445      1450      1451      1445      1450      1452
      1445      1450      1453      1451      1450      1452      1451      1450      1453
      1452      1450      1453      1407      1453      1450      1407      1453      1454
      1407      1453      1455      1450      1453      1454      1450      1453      1455
      1454      1453      1455      1430      1456      1457      1430      1456      1458
      1430      1456      1462      1457      1456      1458      1457      1456      1462
      1458      1456      1462      1456      1458      1459      1456      1458      1460
      1456      1458      1461      1459      1458      1460      1459      1458      1461
      1460      1458      1461      1456      1462      1463      1456      1462      1464
      1456      1462      1465      1463      1462      1464      1463      1462      1465
      1464      1462      1465      1462      1465      1466      1462      1465      1467
      1462      1465      1468      1466      1465      1467      1466      1465      1468
      1467      1465      1468      1465      1468      1469      1465      1468      1470
      1465      1468      1471      1469      1468      1470      1469      1468      1471
      1470      1468      1471      1468      1471      1472      1468      1471      1473
      1468      1471      1477      1472      1471      1473      1472      1471      1477
      1473      1471      1477      1471      1473      1474      1471      1473      1475
      1471      1473      1476      1474      1473      1475      1474      1473      1476
      1475      1473      1476      1471      1477      1478      1471      1477      1479
      1471      1477      1480      1478      1477      1479      1478      1477      1480
      1479      1477      1480      1482      1481      1483      1482      1481      1485
      1482      1481      1527      1483      1481      1485      1483      1481      1527
      1485      1481      1527      1481      1483      1484      1481      1485      1486
      1481      1485      1487      1481      1485      1488      1486      1485      1487
      1486      1485      1488      1487      1485      1488      1485      1488      1489
      1485      1488      1519      1489      1488      1519      1488      1489      1490
      1488      1489      1491      1490      1489      1491      1489      1491      1492
      1489      1491      1493      1489      1491      1494      1492      1491      1493
      1492      1491      1494      1493      1491      1494      1491      1494      1495
      1491      1494      1496      1491      1494      1517      1495      1494      1496
      1495      1494      1517      1496      1494      1517      1494      1496      1497
      1494      1496      1498      1494      1496      1506      1497      1496      1498
      1497      1496      1506      1498      1496      1506      1496      1498      1499
      1496      1498      1500      1496      1498      1501      1499      1498      1500
      1499      1498      1501      1500      1498      1501      1498      1501      1502
      1498      1501      1503      1498      1501      1504      1502      1501      1503
      1502      1501      1504      1503      1501      1504      1501      1504      1505
      1501      1504      1506      1501      1504      1530      1505      1504      1506
      1505      1504      1530      1506      1504      1530      1496      1506      1504
      1496      1506      1507      1496      1506      1511      1504      1506      1507
      1504      1506      1511      1507      1506      1511      1506      1507      1508
      1506      1507      1509      1506      1507      1510      1508      1507      1509
      1508      1507      1510      1509      1507      1510      1506      1511      1512
      1506      1511      1513      1506      1511      1514      1512      1511      1513
      1512      1511      1514      1513      1511      1514      1511      1514      1515
      1511      1514      1516      1511      1514      1517      1515      1514      1516
      1515      1514      1517      1516      1514      1517      1494      1517      1514
      1494      1517      1518      1494      1517      1519      1514      1517      1518
      1514      1517      1519      1518      1517      1519      1488      1519      1517
      1488      1519      1520      1488      1519      1524      1517      1519      1520
      1517      1519      1524      1520      1519      1524      1519      1520      1521
      1519      1520      1522      1519      1520      1523      1521      1520      1522
      1521      1520      1523      1522      1520      1523      1519      1524      1525
      1519      1524      1526      1519      1524      1527      1525      1524      1526
      1525      1524      1527      1526      1524      1527      1481      1527      1524
      1481      1527      1528      1481      1527      1529      1524      1527      1528
      1524      1527      1529      1528      1527      1529      1504      1530      1531
      1504      1530      1532      1504      1530      1536      1531      1530      1532
      1531      1530      1536      1532      1530      1536      1530      1532      1533
      1530      1532      1534      1530      1532      1535      1533      1532      1534
      1533      1532      1535      1534      1532      1535      1530      1536      1537
      1530      1536      1538      1530      1536      1539      1537      1536      1538
      1537      1536      1539      1538      1536      1539      1536      1539      1540
      1536      1539      1541      1536      1539      1542      1540      1539      1541
      1540      1539      1542      1541      1539      1542      1539      1542      1543
      1539      1542      1544      1539      1542      1545      1543      1542      1544
      1543      1542      1545      1544      1542      1545      1542      1545      1546
      1542      1545      1547      1542      1545      1551      1546      1545      1547
      1546      1545      1551      1547      1545      1551      1545      1547      1548
      1545      1547      1549      1545      1547      1550      1548      1547      1549
      1548      1547      1550      1549      1547      1550      1545      1551      1552
      1545      1551      1553      1545      1551      1554      1552      1551      1553
      1552      1551      1554      1553      1551      1554     12238     12237     12242
     12238     12237     12246     12238     12237     12250     12242     12237     12246
     12242     12237     12250     12246     12237     12250     12237     12238     12239
     12237     12238     12240     12237     12238     12241     12239     12238     12240
     12239     12238     12241     12240     12238     12241     12237     12242     12243
     12237     12242     12244     12237     12242     12245     12243     12242     12244
     12243     12242     12245     12244     12242     12245     12237     12246     12247
     12237     12246     12248     12237     12246     12249     12247     12246     12248
     12247     12246     12249     12248     12246     12249     12237     12250     12251
     12237     12250     12252     12237     12250     12253     12251     12250     12252
     12251     12250     12253     12252     12250     12253     12250     12253     12254
     12250     12253     12255     12250     12253     12260     12254     12253     12255
     12254     12253     12260     12255     12253     12260     12257     12256     12258
     12257     12256     12259     12257     12256     12260     12258     12256     12259
     12258     12256     12260     12259     12256     12260     12256     12259     12261
     12253     12260     12256     12259     12261     12262     12259     12261     12263
     12259     12261     12266     12262     12261     12263     12262     12261     12266
     12263     12261     12266     12265     12264     12266     12265     12264     12316
     12266     12264     12316     12261     12266     12264     12261     12266     12267
     12261     12266     12268     12264     12266     12267     12264     12266     12268
     12267     12266     12268     12266     12268     12269     12266     12268     12270
     12266     12268     12272     12269     12268     12270     12269     12268     12272
     12270     12268     12272     12268     12270     12271     12268     12272     12273
     12268     12272     12274     12273     12272     12274     12272     12274     12275
     12272     12274     12276     12275     12274     12276     12274     12276     12277
     12274     12276     12278     12274     12276     12279     12277     12276     12278
     12277     12276     12279     12278     12276     12279     12276     12279     12280
     12276     12279     12281     12276     12279     12282     12280     12279     12281
     12280     12279     12282     12281     12279     12282     12279     12282     12283
     12279     12282     12284     12279     12282     12285     12283     12282     12284
     12283     12282     12285     12284     12282     12285     12282     12285     12286
     12282     12285     12287     12282     12285     12288     12286     12285     12287
     12286     12285     12288     12287     12285     12288     12285     12288     12289
     12285     12288     12290     12285     12288     12291     12289     12288     12290
     12289     12288     12291     12290     12288     12291     12288     12291     12292
     12288     12291     12293     12288     12291     12294     12292     12291     12293
     12292     12291     12294     12293     12291     12294     12291     12294     12295
     12291     12294     12296     12291     12294     12297     12295     12294     12296
     12295     12294     12297     12296     12294     12297     12294     12297     12298
     12294     12297     12299     12294     12297     12300     12298     12297     12299
     12298     12297     12300     12299     12297     12300     12297     12300     12301
     12297     12300     12302     12297     12300     12303     12301     12300     12302
     12301     12300     12303     12302     12300     12303     12300     12303     12304
     12300     12303     12305     12300     12303     12306     12304     12303     12305
     12304     12303     12306     12305     12303     12306     12303     12306     12307
     12303     12306     12308     12303     12306     12309     12307     12306     12308
     12307     12306     12309     12308     12306     12309     12306     12309     12310
     12306     12309     12311     12306     12309     12312     12310     12309     12311
     12310     12309     12312     12311     12309     12312     12309     12312     12313
     12309     12312     12314     12309     12312     12315     12313     12312     12314
     12313     12312     12315     12314     12312     12315     12264     12316     12317
     12264     12316     12318     12317     12316     12318     12316     12318     12319
     12316     12318     12320     12316     12318     12321     12319     12318     12320
     12319     12318     12321     12320     12318     12321     12318     12321     12322
     12318     12321     12323     12318     12321     12324     12322     12321     12323
     12322     12321     12324     12323     12321     12324     12321     12324     12325
     12321     12324     12326     12321     12324     12327     12325     12324     12326
     12325     12324     12327     12326     12324     12327     12324     12327     12328
     12324     12327     12329     12324     12327     12330     12328     12327     12329
     12328     12327     12330     12329     12327     12330     12327     12330     12331
     12327     12330     12332     12327     12330     12333     12331     12330     12332
     12331     12330     12333     12332     12330     12333     12330     12333     12334
     12330     12333     12335     12330     12333     12336     12334     12333     12335
     12334     12333     12336     12335     12333     12336     12333     12336     12337
     12333     12336     12338     12333     12336     12339     12337     12336     12338
     12337     12336     12339     12338     12336     12339     12336     12339     12340
     12336     12339     12341     12340     12339     12341     12339     12341     12342
     12339     12341     12343     12342     12341     12343     12341     12343     12344
     12341     12343     12345     12341     12343     12346     12344     12343     12345
     12344     12343     12346     12345     12343     12346     12343     12346     12347
     12343     12346     12348     12343     12346     12349     12347     12346     12348
     12347     12346     12349     12348     12346     12349     12346     12349     12350
     12346     12349     12351     12346     12349     12352     12350     12349     12351
     12350     12349     12352     12351     12349     12352     12349     12352     12353
     12349     12352     12354     12349     12352     12355     12353     12352     12354
     12353     12352     12355     12354     12352     12355     12352     12355     12356
     12352     12355     12357     12352     12355     12358     12356     12355     12357
     12356     12355     12358     12357     12355     12358     12355     12358     12359
     12355     12358     12360     12355     12358     12361     12359     12358     12360
     12359     12358     12361     12360     12358     12361     12358     12361     12362
     12358     12361     12363     12358     12361     12364     12362     12361     12363
     12362     12361     12364     12363     12361     12364     12361     12364     12365
     12361     12364     12366     12361     12364     12367     12365     12364     12366
     12365     12364     12367     12366     12364     12367      1556      1555      1557
      1556      1555      1559      1556      1555      1601      1557      1555      1559
      1557      1555      1601      1559      1555      1601      1555      1557      1558
      1555      1559      1560      1555      1559      1561      1555      1559      1562
      1560      1559      1561      1560      1559      1562      1561      1559      1562
      1559      1562      1563      1559      1562      1593      1563      1562      1593
      1562      1563      1564      1562      1563      1565      1564      1563      1565
      1563      1565      1566      1563      1565      1567      1563      1565      1568
      1566      1565      1567      1566      1565      1568      1567      1565      1568
      1565      1568      1569      1565      1568      1570      1565      1568      1591
      1569      1568      1570      1569      1568      1591      1570      1568      1591
      1568      1570      1571      1568      1570      1572      1568      1570      1580
      1571      1570      1572      1571      1570      1580      1572      1570      1580
      1570      1572      1573      1570      1572      1574      1570      1572      1575
      1573      1572      1574      1573      1572      1575      1574      1572      1575
      1572      1575      1576      1572      1575      1577      1572      1575      1578
      1576      1575      1577      1576      1575      1578      1577      1575      1578
      1575      1578      1579      1575      1578      1580      1575      1578      1604
      1579      1578      1580      1579      1578      1604      1580      1578      1604
      1570      1580      1578      1570      1580      1581      1570      1580      1585
      1578      1580      1581      1578      1580      1585      1581      1580      1585
      1580      1581      1582      1580      1581      1583      1580      1581      1584
      1582      1581      1583      1582      1581      1584      1583      1581      1584
      1580      1585      1586      1580      1585      1587      1580      1585      1588
      1586      1585      1587      1586      1585      1588      1587      1585      1588
      1585      1588      1589      1585      1588      1590      1585      1588      1591
      1589      1588      1590      1589      1588      1591      1590      1588      1591
      1568      1591      1588      1568      1591      1592      1568      1591      1593
      1588      1591      1592      1588      1591      1593      1592      1591      1593
      1562      1593      1591      1562      1593      1594      1562      1593      1598
      1591      1593      1594      1591      1593      1598      1594      1593      1598
      1593      1594      1595      1593      1594      1596      1593      1594      1597
      1595      1594      1596      1595      1594      1597      1596      1594      1597
      1593      1598      1599      1593      1598      1600      1593      1598      1601
      1599      1598      1600      1599      1598      1601      1600      1598      1601
      1555      1601      1598      1555      1601      1602      1555      1601      1603
      1598      1601      1602      1598      1601      1603      1602      1601      1603
      1578      1604      1605      1578      1604      1606      1578      1604      1610
      1605      1604      1606      1605      1604      1610      1606      1604      1610
      1604      1606      1607      1604      1606      1608      1604      1606      1609
      1607      1606      1608      1607      1606      1609      1608      1606      1609
      1604      1610      1611      1604      1610      1612      1604      1610      1613
      1611      1610      1612      1611      1610      1613      1612      1610      1613
      1610      1613      1614      1610      1613      1615      1610      1613      1616
      1614      1613      1615      1614      1613      1616      1615      1613      1616
      1613      1616      1617      1613      1616      1618      1613      1616      1619
      1617      1616      1618      1617      1616      1619      1618      1616      1619
      1616      1619      1620      1616      1619      1621      1616      1619      1625
      1620      1619      1621      1620      1619      1625      1621      1619      1625
      1619      1621      1622      1619      1621      1623      1619      1621      1624
      1622      1621      1623      1622      1621      1624      1623      1621      1624
      1619      1625      1626      1619      1625      1627      1619      1625      1628
      1626      1625      1627      1626      1625      1628      1627      1625      1628
     12369     12368     12373     12369     12368     12377     12369     12368     12381
     12373     12368     12377     12373     12368     12381     12377     12368     12381
     12368     12369     12370     12368     12369     12371     12368     12369     12372
     12370     12369     12371     12370     12369     12372     12371     12369     12372
     12368     12373     12374     12368     12373     12375     12368     12373     12376
     12374     12373     12375     12374     12373     12376     12375     12373     12376
     12368     12377     12378     12368     12377     12379     12368     12377     12380
     12378     12377     12379     12378     12377     12380     12379     12377     12380
     12368     12381     12382     12368     12381     12383     12368     12381     12384
     12382     12381     12383     12382     12381     12384     12383     12381     12384
     12381     12384     12385     12381     12384     12386     12381     12384     12391
     12385     12384     12386     12385     12384     12391     12386     12384     12391
     12388     12387     12389     12388     12387     12390     12388     12387     12391
     12389     12387     12390     12389     12387     12391     12390     12387     12391
     12387     12390     12392     12384     12391     12387     12390     12392     12393
     12390     12392     12394     12390     12392     12397     12393     12392     12394
     12393     12392     12397     12394     12392     12397     12396     12395     12397
     12396     12395     12447     12397     12395     12447     12392     12397     12395
     12392     12397     12398     12392     12397     12399     12395     12397     12398
     12395     12397     12399     12398     12397     12399     12397     12399     12400
     12397     12399     12401     12397     12399     12403     12400     12399     12401
     12400     12399     12403     12401     12399     12403     12399     12401     12402
     12399     12403     12404     12399     12403     12405     12404     12403     12405
     12403     12405     12406     12403     12405     12407     12406     12405     12407
     12405     12407     12408     12405     12407     12409     12405     12407     12410
     12408     12407     12409     12408     12407     12410     12409     12407     12410
     12407     12410     12411     12407     12410     12412     12407     12410     12413
     12411     12410     12412     12411     12410     12413     12412     12410     12413
     12410     12413     12414     12410     12413     12415     12410     12413     12416
     12414     12413     12415     12414     12413     12416     12415     12413     12416
     12413     12416     12417     12413     12416     12418     12413     12416     12419
     12417     12416     12418     12417     12416     12419     12418     12416     12419
     12416     12419     12420     12416     12419     12421     12416     12419     12422
     12420     12419     12421     12420     12419     12422     12421     12419     12422
     12419     12422     12423     12419     12422     12424     12419     12422     12425
     12423     12422     12424     12423     12422     12425     12424     12422     12425
     12422     12425     12426     12422     12425     12427     12422     12425     12428
     12426     12425     12427     12426     12425     12428     12427     12425     12428
     12425     12428     12429     12425     12428     12430     12425     12428     12431
     12429     12428     12430     12429     12428     12431     12430     12428     12431
     12428     12431     12432     12428     12431     12433     12428     12431     12434
     12432     12431     12433     12432     12431     12434     12433     12431     12434
     12431     12434     12435     12431     12434     12436     12431     12434     12437
     12435     12434     12436     12435     12434     12437     12436     12434     12437
     12434     12437     12438     12434     12437     12439     12434     12437     12440
     12438     12437     12439     12438     12437     12440     12439     12437     12440
     12437     12440     12441     12437     12440     12442     12437     12440     12443
     12441     12440     12442     12441     12440     12443     12442     12440     12443
     12440     12443     12444     12440     12443     12445     12440     12443     12446
     12444     12443     12445     12444     12443     12446     12445     12443     12446
     12395     12447     12448     12395     12447     12449     12448     12447     12449
     12447     12449     12450     12447     12449     12451     12447     12449     12452
     12450     12449     12451     12450     12449     12452     12451     12449     12452
     12449     12452     12453     12449     12452     12454     12449     12452     12455
     12453     12452     12454     12453     12452     12455     12454     12452     12455
     12452     12455     12456     12452     12455     12457     12452     12455     12458
     12456     12455     12457     12456     12455     12458     12457     12455     12458
     12455     12458     12459     12455     12458     12460     12455     12458     12461
     12459     12458     12460     12459     12458     12461     12460     12458     12461
     12458     12461     12462     12458     12461     12463     12458     12461     12464
     12462     12461     12463     12462     12461     12464     12463     12461     12464
     12461     12464     12465     12461     12464     12466     12461     12464     12467
     12465     12464     12466     12465     12464     12467     12466     12464     12467
     12464     12467     12468     12464     12467     12469     12464     12467     12470
     12468     12467     12469     12468     12467     12470     12469     12467     12470
     12467     12470     12471     12467     12470     12472     12471     12470     12472
     12470     12472     12473     12470     12472     12474     12473     12472     12474
     12472     12474     12475     12472     12474     12476     12472     12474     12477
     12475     12474     12476     12475     12474     12477     12476     12474     12477
     12474     12477     12478     12474     12477     12479     12474     12477     12480
     12478     12477     12479     12478     12477     12480     12479     12477     12480
     12477     12480     12481     12477     12480     12482     12477     12480     12483
     12481     12480     12482     12481     12480     12483     12482     12480     12483
     12480     12483     12484     12480     12483     12485     12480     12483     12486
     12484     12483     12485     12484     12483     12486     12485     12483     12486
     12483     12486     12487     12483     12486     12488     12483     12486     12489
     12487     12486     12488     12487     12486     12489     12488     12486     12489
     12486     12489     12490     12486     12489     12491     12486     12489     12492
     12490     12489     12491     12490     12489     12492     12491     12489     12492
     12489     12492     12493     12489     12492     12494     12489     12492     12495
     12493     12492     12494     12493     12492     12495     12494     12492     12495
     12492     12495     12496     12492     12495     12497     12492     12495     12498
     12496     12495     12497     12496     12495     12498     12497     12495     12498
      1630      1629      1631      1630      1629      1633      1630      1629      1675
      1631      1629      1633      1631      1629      1675      1633      1629      1675
      1629      1631      1632      1629      1633      1634      1629      1633      1635
      1629      1633      1636      1634      1633      1635      1634      1633      1636
      1635      1633      1636      1633      1636      1637      1633      1636      1667
      1637      1636      1667      1636      1637      1638      1636      1637      1639
      1638      1637      1639      1637      1639      1640      1637      1639      1641
      1637      1639      1642      1640      1639      1641      1640      1639      1642
      1641      1639      1642      1639      1642      1643      1639      1642      1644
      1639      1642      1665      1643      1642      1644      1643      1642      1665
      1644      1642      1665      1642      1644      1645      1642      1644      1646
      1642      1644      1654      1645      1644      1646      1645      1644      1654
      1646      1644      1654      1644      1646      1647      1644      1646      1648
      1644      1646      1649      1647      1646      1648      1647      1646      1649
      1648      1646      1649      1646      1649      1650      1646      1649      1651
      1646      1649      1652      1650      1649      1651      1650      1649      1652
      1651      1649      1652      1649      1652      1653      1649      1652      1654
      1649      1652      1678      1653      1652      1654      1653      1652      1678
      1654      1652      1678      1644      1654      1652      1644      1654      1655
      1644      1654      1659      1652      1654      1655      1652      1654      1659
      1655      1654      1659      1654      1655      1656      1654      1655      1657
      1654      1655      1658      1656      1655      1657      1656      1655      1658
      1657      1655      1658      1654      1659      1660      1654      1659      1661
      1654      1659      1662      1660      1659      1661      1660      1659      1662
      1661      1659      1662      1659      1662      1663      1659      1662      1664
      1659      1662      1665      1663      1662      1664      1663      1662      1665
      1664      1662      1665      1642      1665      1662      1642      1665      1666
      1642      1665      1667      1662      1665      1666      1662      1665      1667
      1666      1665      1667      1636      1667      1665      1636      1667      1668
      1636      1667      1672      1665      1667      1668      1665      1667      1672
      1668      1667      1672      1667      1668      1669      1667      1668      1670
      1667      1668      1671      1669      1668      1670      1669      1668      1671
      1670      1668      1671      1667      1672      1673      1667      1672      1674
      1667      1672      1675      1673      1672      1674      1673      1672      1675
      1674      1672      1675      1629      1675      1672      1629      1675      1676
      1629      1675      1677      1672      1675      1676      1672      1675      1677
      1676      1675      1677      1652      1678      1679      1652      1678      1680
      1652      1678      1684      1679      1678      1680      1679      1678      1684
      1680      1678      1684      1678      1680      1681      1678      1680      1682
      1678      1680      1683      1681      1680      1682      1681      1680      1683
      1682      1680      1683      1678      1684      1685      1678      1684      1686
      1678      1684      1687      1685      1684      1686      1685      1684      1687
      1686      1684      1687      1684      1687      1688      1684      1687      1689
      1684      1687      1690      1688      1687      1689      1688      1687      1690
      1689      1687      1690      1687      1690      1691      1687      1690      1692
      1687      1690      1693      1691      1690      1692      1691      1690      1693
      1692      1690      1693      1690      1693      1694      1690      1693      1695
      1690      1693      1699      1694      1693      1695      1694      1693      1699
      1695      1693      1699      1693      1695      1696      1693      1695      1697
      1693      1695      1698      1696      1695      1697      1696      1695      1698
      1697      1695      1698      1693      1699      1700      1693      1699      1701
      1693      1699      1702      1700      1699      1701      1700      1699      1702
      1701      1699      1702      4566      4565      4569      4566      4565      4573
      4566      4565      4577      4569      4565      4573      4569      4565      4577
      4573      4565      4577      4565      4566      4567      4565      4566      4568
      4565      4566      4581      4567      4566      4568      4567      4566      4581
      4568      4566      4581      4565      4569      4570      4565      4569      4571
      4565      4569      4572      4570      4569      4571      4570      4569      4572
      4571      4569      4572      4565      4573      4574      4565      4573      4575
      4565      4573      4576      4574      4573      4575      4574      4573      4576
      4575      4573      4576      4565      4577      4578      4565      4577      4579
      4565      4577      4580      4578      4577      4579      4578      4577      4580
      4579      4577      4580      4566      4581      4582      4566      4581      4583
      4566      4581      4587      4582      4581      4583      4582      4581      4587
      4583      4581      4587      4585      4584      4586      4585      4584      4587
      4585      4584      4588      4586      4584      4587      4586      4584      4588
      4587      4584      4588      4581      4587      4584      4584      4588      4589
      4588      4589      4590      4588      4589      4591      4588      4589      4592
      4590      4589      4591      4590      4589      4592      4591      4589      4592
      4589      4592      4593      4589      4592      4594      4589      4592      4600
      4593      4592      4594      4593      4592      4600      4594      4592      4600
      4592      4594      4595      4594      4595      4596      4594      4595      4597
      4596      4595      4597      4595      4597      4598      4595      4597      4599
      4595      4597      4609      4598      4597      4599      4598      4597      4609
      4599      4597      4609      4592      4600      4601      4592      4600      4602
      4592      4600      4603      4601      4600      4602      4601      4600      4603
      4602      4600      4603      4600      4603      4604      4603      4604      4605
      4603      4604      4606      4605      4604      4606      4604      4606      4607
      4604      4606      4608      4604      4606      4656      4607      4606      4608
      4607      4606      4656      4608      4606      4656      4597      4609      4610
      4597      4609      4611      4597      4609      4612      4610      4609      4611
      4610      4609      4612      4611      4609      4612      4609      4612      4613
      4609      4612      4614      4609      4612      4615      4613      4612      4614
      4613      4612      4615      4614      4612      4615      4612      4615      4616
      4612      4615      4617      4616      4615      4617      4615      4617      4618
      4615      4617      4619      4618      4617      4619      4617      4619      4620
      4617      4619      4621      4617      4619      4622      4620      4619      4621
      4620      4619      4622      4621      4619      4622      4619      4622      4623
      4619      4622      4624      4623      4622      4624      4622      4624      4625
      4622      4624      4626      4625      4624      4626      4624      4626      4627
      4624      4626      4628      4624      4626      4629      4627      4626      4628
      4627      4626      4629      4628      4626      4629      4626      4629      4630
      4626      4629      4631      4630      4629      4631      4629      4631      4632
      4629      4631      4633      4632      4631      4633      4631      4633      4634
      4631      4633      4635      4631      4633      4636      4634      4633      4635
      4634      4633      4636      4635      4633      4636      4633      4636      4637
      4633      4636      4638      4637      4636      4638      4636      4638      4639
      4636      4638      4640      4639      4638      4640      4638      4640      4641
      4638      4640      4642      4638      4640      4643      4641      4640      4642
      4641      4640      4643      4642      4640      4643      4640      4643      4644
      4640      4643      4645      4640      4643      4646      4644      4643      4645
      4644      4643      4646      4645      4643      4646      4643      4646      4647
      4643      4646      4648      4643      4646      4649      4647      4646      4648
      4647      4646      4649      4648      4646      4649      4646      4649      4650
      4646      4649      4651      4646      4649      4652      4650      4649      4651
      4650      4649      4652      4651      4649      4652      4649      4652      4653
      4649      4652      4654      4649      4652      4655      4653      4652      4654
      4653      4652      4655      4654      4652      4655      4606      4656      4657
      4606      4656      4658      4606      4656      4659      4657      4656      4658
      4657      4656      4659      4658      4656      4659      4656      4659      4660
      4656      4659      4661      4656      4659      4662      4660      4659      4661
      4660      4659      4662      4661      4659      4662      4659      4662      4663
      4659      4662      4664      4659      4662      4665      4663      4662      4664
      4663      4662      4665      4664      4662      4665      4662      4665      4666
      4662      4665      4667      4662      4665      4668      4666      4665      4667
      4666      4665      4668      4667      4665      4668      4665      4668      4669
      4665      4668      4670      4665      4668      4671      4669      4668      4670
      4669      4668      4671      4670      4668      4671      4668      4671      4672
      4668      4671      4673      4668      4671      4674      4672      4671      4673
      4672      4671      4674      4673      4671      4674      4671      4674      4675
      4671      4674      4676      4671      4674      4677      4675      4674      4676
      4675      4674      4677      4676      4674      4677      4674      4677      4678
      4674      4677      4679      4674      4677      4680      4678      4677      4679
      4678      4677      4680      4679      4677      4680      4677      4680      4681
      4677      4680      4682      4677      4680      4683      4681      4680      4682
      4681      4680      4683      4682      4680      4683      4680      4683      4684
      4680      4683      4685      4680      4683      4686      4684      4683      4685
      4684      4683      4686      4685      4683      4686      4683      4686      4687
      4683      4686      4688      4683      4686      4689      4687      4686      4688
      4687      4686      4689      4688      4686      4689      4686      4689      4690
      4686      4689      4691      4686      4689      4692      4690      4689      4691
      4690      4689      4692      4691      4689      4692      4689      4692      4693
      4689      4692      4694      4689      4692      4695      4693      4692      4694
      4693      4692      4695      4694      4692      4695      4692      4695      4696
      4692      4695      4697      4692      4695      4698      4696      4695      4697
      4696      4695      4698      4697      4695      4698      4695      4698      4699
      4695      4698      4700      4695      4698      4701      4699      4698      4700
      4699      4698      4701      4700      4698      4701      4698      4701      4702
      4698      4701      4703      4698      4701      4704      4702      4701      4703
      4702      4701      4704      4703      4701      4704     20229     20228     20230
     20229     20228     20231     20229     20228     20232     20230     20228     20231
     20230     20228     20232     20231     20228     20232     20228     20232     20233
     20228     20232     20234     20228     20232     20235     20233     20232     20234
     20233     20232     20235     20234     20232     20235     20232     20235     20236
     20232     20235     20237     20232     20235     20241     20236     20235     20237
     20236     20235     20241     20237     20235     20241     20239     20238     20240
     20239     20238     20241     20239     20238     20242     20240     20238     20241
     20240     20238     20242     20241     20238     20242     20235     20241     20238
     20238     20242     20243     20242     20243     20244     20242     20243     20245
     20242     20243     20246     20244     20243     20245     20244     20243     20246
     20245     20243     20246     20243     20246     20247     20243     20246     20248
     20243     20246     20254     20247     20246     20248     20247     20246     20254
     20248     20246     20254     20246     20248     20249     20248     20249     20250
     20248     20249     20251     20250     20249     20251     20249     20251     20252
     20249     20251     20253     20249     20251     20263     20252     20251     20253
     20252     20251     20263     20253     20251     20263     20246     20254     20255
     20246     20254     20256     20246     20254     20257     20255     20254     20256
     20255     20254     20257     20256     20254     20257     20254     20257     20258
     20257     20258     20259     20257     20258     20260     20259     20258     20260
     20258     20260     20261     20258     20260     20262     20258     20260     20310
     20261     20260     20262     20261     20260     20310     20262     20260     20310
     20251     20263     20264     20251     20263     20265     20251     20263     20266
     20264     20263     20265     20264     20263     20266     20265     20263     20266
     20263     20266     20267     20263     20266     20268     20263     20266     20269
     20267     20266     20268     20267     20266     20269     20268     20266     20269
     20266     20269     20270     20266     20269     20271     20266     20269     20272
     20270     20269     20271     20270     20269     20272     20271     20269     20272
     20269     20272     20273     20269     20272     20274     20269     20272     20275
     20273     20272     20274     20273     20272     20275     20274     20272     20275
     20272     20275     20276     20272     20275     20277     20272     20275     20278
     20276     20275     20277     20276     20275     20278     20277     20275     20278
     20275     20278     20279     20275     20278     20280     20275     20278     20281
     20279     20278     20280     20279     20278     20281     20280     20278     20281
     20278     20281     20282     20278     20281     20283     20282     20281     20283
     20281     20283     20284     20281     20283     20285     20284     20283     20285
     20283     20285     20286     20283     20285     20287     20283     20285     20288
     20286     20285     20287     20286     20285     20288     20287     20285     20288
     20285     20288     20289     20285     20288     20290     20285     20288     20291
     20289     20288     20290     20289     20288     20291     20290     20288     20291
     20288     20291     20292     20288     20291     20293     20288     20291     20294
     20292     20291     20293     20292     20291     20294     20293     20291     20294
     20291     20294     20295     20291     20294     20296     20291     20294     20297
     20295     20294     20296     20295     20294     20297     20296     20294     20297
     20294     20297     20298     20294     20297     20299     20294     20297     20300
     20298     20297     20299     20298     20297     20300     20299     20297     20300
     20297     20300     20301     20297     20300     20302     20297     20300     20303
     20301     20300     20302     20301     20300     20303     20302     20300     20303
     20300     20303     20304     20300     20303     20305     20300     20303     20306
     20304     20303     20305     20304     20303     20306     20305     20303     20306
     20303     20306     20307     20303     20306     20308     20303     20306     20309
     20307     20306     20308     20307     20306     20309     20308     20306     20309
     20260     20310     20311     20260     20310     20312     20260     20310     20313
     20311     20310     20312     20311     20310     20313     20312     20310     20313
     20310     20313     20314     20310     20313     20315     20310     20313     20316
     20314     20313     20315     20314     20313     20316     20315     20313     20316
     20313     20316     20317     20313     20316     20318     20313     20316     20319
     20317     20316     20318     20317     20316     20319     20318     20316     20319
     20316     20319     20320     20316     20319     20321     20316     20319     20322
     20320     20319     20321     20320     20319     20322     20321     20319     20322
     20319     20322     20323     20319     20322     20324     20319     20322     20325
     20323     20322     20324     20323     20322     20325     20324     20322     20325
     20322     20325     20326     20322     20325     20327     20322     20325     20328
     20326     20325     20327     20326     20325     20328     20327     20325     20328
     20325     20328     20329     20325     20328     20330     20325     20328     20331
     20329     20328     20330     20329     20328     20331     20330     20328     20331
     20328     20331     20332     20328     20331     20333     20328     20331     20334
     20332     20331     20333     20332     20331     20334     20333     20331     20334
     20331     20334     20335     20331     20334     20336     20331     20334     20337
     20335     20334     20336     20335     20334     20337     20336     20334     20337
     20334     20337     20338     20334     20337     20339     20334     20337     20340
     20338     20337     20339     20338     20337     20340     20339     20337     20340
     20337     20340     20341     20337     20340     20342     20337     20340     20343
     20341     20340     20342     20341     20340     20343     20342     20340     20343
     20340     20343     20344     20340     20343     20345     20340     20343     20346
     20344     20343     20345     20344     20343     20346     20345     20343     20346
     20343     20346     20347     20343     20346     20348     20343     20346     20349
     20347     20346     20348     20347     20346     20349     20348     20346     20349
     20346     20349     20350     20346     20349     20351     20346     20349     20352
     20350     20349     20351     20350     20349     20352     20351     20349     20352
     20349     20352     20353     20349     20352     20354     20349     20352     20355
     20353     20352     20354     20353     20352     20355     20354     20352     20355
     20352     20355     20356     20352     20355     20357     20352     20355     20358
     20356     20355     20357     20356     20355     20358     20357     20355     20358
     16823     16822     16824     16823     16822     16825     16823     16822     16826
     16824     16822     16825     16824     16822     16826     16825     16822     16826
     16822     16826     16827     16822     16826     16828     16822     16826     16829
     16827     16826     16828     16827     16826     16829     16828     16826     16829
     16826     16829     16830     16826     16829     16831     16826     16829     16835
     16830     16829     16831     16830     16829     16835     16831     16829     16835
     16833     16832     16834     16833     16832     16835     16833     16832     16836
     16834     16832     16835     16834     16832     16836     16835     16832     16836
     16829     16835     16832     16832     16836     16837     16836     16837     16838
     16836     16837     16839     16836     16837     16840     16838     16837     16839
     16838     16837     16840     16839     16837     16840     16837     16840     16841
     16837     16840     16842     16837     16840     16848     16841     16840     16842
     16841     16840     16848     16842     16840     16848     16840     16842     16843
     16842     16843     16844     16842     16843     16845     16844     16843     16845
     16843     16845     16846     16843     16845     16847     16843     16845     16857
     16846     16845     16847     16846     16845     16857     16847     16845     16857
     16840     16848     16849     16840     16848     16850     16840     16848     16851
     16849     16848     16850     16849     16848     16851     16850     16848     16851
     16848     16851     16852     16851     16852     16853     16851     16852     16854
     16853     16852     16854     16852     16854     16855     16852     16854     16856
     16852     16854     16904     16855     16854     16856     16855     16854     16904
     16856     16854     16904     16845     16857     16858     16845     16857     16859
     16845     16857     16860     16858     16857     16859     16858     16857     16860
     16859     16857     16860     16857     16860     16861     16857     16860     16862
     16857     16860     16863     16861     16860     16862     16861     16860     16863
     16862     16860     16863     16860     16863     16864     16860     16863     16865
     16864     16863     16865     16863     16865     16866     16863     16865     16867
     16866     16865     16867     16865     16867     16868     16865     16867     16869
     16865     16867     16870     16868     16867     16869     16868     16867     16870
     16869     16867     16870     16867     16870     16871     16867     16870     16872
     16871     16870     16872     16870     16872     16873     16870     16872     16874
     16873     16872     16874     16872     16874     16875     16872     16874     16876
     16872     16874     16877     16875     16874     16876     16875     16874     16877
     16876     16874     16877     16874     16877     16878     16874     16877     16879
     16878     16877     16879     16877     16879     16880     16877     16879     16881
     16880     16879     16881     16879     16881     16882     16879     16881     16883
     16879     16881     16884     16882     16881     16883     16882     16881     16884
     16883     16881     16884     16881     16884     16885     16881     16884     16886
     16885     16884     16886     16884     16886     16887     16884     16886     16888
     16887     16886     16888     16886     16888     16889     16886     16888     16890
     16886     16888     16891     16889     16888     16890     16889     16888     16891
     16890     16888     16891     16888     16891     16892     16888     16891     16893
     16888     16891     16894     16892     16891     16893     16892     16891     16894
     16893     16891     16894     16891     16894     16895     16891     16894     16896
     16891     16894     16897     16895     16894     16896     16895     16894     16897
     16896     16894     16897     16894     16897     16898     16894     16897     16899
     16894     16897     16900     16898     16897     16899     16898     16897     16900
     16899     16897     16900     16897     16900     16901     16897     16900     16902
     16897     16900     16903     16901     16900     16902     16901     16900     16903
     16902     16900     16903     16854     16904     16905     16854     16904     16906
     16854     16904     16907     16905     16904     16906     16905     16904     16907
     16906     16904     16907     16904     16907     16908     16904     16907     16909
     16904     16907     16910     16908     16907     16909     16908     16907     16910
     16909     16907     16910     16907     16910     16911     16907     16910     16912
     16907     16910     16913     16911     16910     16912     16911     16910     16913
     16912     16910     16913     16910     16913     16914     16910     16913     16915
     16910     16913     16916     16914     16913     16915     16914     16913     16916
     16915     16913     16916     16913     16916     16917     16913     16916     16918
     16913     16916     16919     16917     16916     16918     16917     16916     16919
     16918     16916     16919     16916     16919     16920     16916     16919     16921
     16916     16919     16922     16920     16919     16921     16920     16919     16922
     16921     16919     16922     16919     16922     16923     16919     16922     16924
     16919     16922     16925     16923     16922     16924     16923     16922     16925
     16924     16922     16925     16922     16925     16926     16922     16925     16927
     16922     16925     16928     16926     16925     16927     16926     16925     16928
     16927     16925     16928     16925     16928     16929     16925     16928     16930
     16925     16928     16931     16929     16928     16930     16929     16928     16931
     16930     16928     16931     16928     16931     16932     16928     16931     16933
     16928     16931     16934     16932     16931     16933     16932     16931     16934
     16933     16931     16934     16931     16934     16935     16931     16934     16936
     16931     16934     16937     16935     16934     16936     16935     16934     16937
     16936     16934     16937     16934     16937     16938     16934     16937     16939
     16934     16937     16940     16938     16937     16939     16938     16937     16940
     16939     16937     16940     16937     16940     16941     16937     16940     16942
     16937     16940     16943     16941     16940     16942     16941     16940     16943
     16942     16940     16943     16940     16943     16944     16940     16943     16945
     16940     16943     16946     16944     16943     16945     16944     16943     16946
     16945     16943     16946     16943     16946     16947     16943     16946     16948
     16943     16946     16949     16947     16946     16948     16947     16946     16949
     16948     16946     16949     16946     16949     16950     16946     16949     16951
     16946     16949     16952     16950     16949     16951     16950     16949     16952
     16951     16949     16952      6240      6239      6244      6240      6239      6248
      6240      6239      6252      6244      6239      6248      6244      6239      6252
      6248      6239      6252      6239      6240      6241      6239      6240      6242
      6239      6240      6243      6241      6240      6242      6241      6240      6243
      6242      6240      6243      6239      6244      6245      6239      6244      6246
      6239      6244      6247      6245      6244      6246      6245      6244      6247
      6246      6244      6247      6239      6248      6249      6239      6248      6250
      6239      6248      6251      6249      6248      6250      6249      6248      6251
      6250      6248      6251      6239      6252      6253      6239      6252      6254
      6239      6252      6255      6253      6252      6254      6253      6252      6255
      6254      6252      6255      6252      6255      6256      6252      6255      6257
      6252      6255      6261      6256      6255      6257      6256      6255      6261
      6257      6255      6261      6259      6258      6260      6259      6258      6261
      6259      6258      6262      6260      6258      6261      6260      6258      6262
      6261      6258      6262      6255      6261      6258      6258      6262      6263
      6262      6263      6264      6262      6263      6265      6262      6263      6266
      6264      6263      6265      6264      6263      6266      6265      6263      6266
      6263      6266      6267      6263      6266      6268      6263      6266      6274
      6267      6266      6268      6267      6266      6274      6268      6266      6274
      6266      6268      6269      6268      6269      6270      6268      6269      6271
      6270      6269      6271      6269      6271      6272      6269      6271      6273
      6269      6271      6283      6272      6271      6273      6272      6271      6283
      6273      6271      6283      6266      6274      6275      6266      6274      6276
      6266      6274      6277      6275      6274      6276      6275      6274      6277
      6276      6274      6277      6274      6277      6278      6277      6278      6279
      6277      6278      6280      6279      6278      6280      6278      6280      6281
      6278      6280      6282      6278      6280      6328      6281      6280      6282
      6281      6280      6328      6282      6280      6328      6271      6283      6284
      6271      6283      6285      6271      6283      6286      6284      6283      6285
      6284      6283      6286      6285      6283      6286      6283      6286      6287
      6283      6286      6288      6283      6286      6289      6287      6286      6288
      6287      6286      6289      6288      6286      6289      6286      6289      6290
      6286      6289      6291      6286      6289      6292      6290      6289      6291
      6290      6289      6292      6291      6289      6292      6289      6292      6293
      6289      6292      6294      6289      6292      6295      6293      6292      6294
      6293      6292      6295      6294      6292      6295      6292      6295      6296
      6292      6295      6297      6292      6295      6298      6296      6295      6297
      6296      6295      6298      6297      6295      6298      6295      6298      6299
      6295      6298      6300      6295      6298      6301      6299      6298      6300
      6299      6298      6301      6300      6298      6301      6298      6301      6302
      6298      6301      6303      6302      6301      6303      6301      6303      6304
      6301      6303      6305      6304      6303      6305      6303      6305      6306
      6303      6305      6307      6303      6305      6308      6306      6305      6307
      6306      6305      6308      6307      6305      6308      6305      6308      6309
      6305      6308      6310      6309      6308      6310      6308      6310      6311
      6308      6310      6312      6311      6310      6312      6310      6312      6313
      6310      6312      6314      6310      6312      6315      6313      6312      6314
      6313      6312      6315      6314      6312      6315      6312      6315      6316
      6312      6315      6317      6312      6315      6318      6316      6315      6317
      6316      6315      6318      6317      6315      6318      6315      6318      6319
      6315      6318      6320      6315      6318      6321      6319      6318      6320
      6319      6318      6321      6320      6318      6321      6318      6321      6322
      6318      6321      6323      6318      6321      6324      6322      6321      6323
      6322      6321      6324      6323      6321      6324      6321      6324      6325
      6321      6324      6326      6321      6324      6327      6325      6324      6326
      6325      6324      6327      6326      6324      6327      6280      6328      6329
      6280      6328      6330      6280      6328      6331      6329      6328      6330
      6329      6328      6331      6330      6328      6331      6328      6331      6332
      6328      6331      6333      6328      6331      6334      6332      6331      6333
      6332      6331      6334      6333      6331      6334      6331      6334      6335
      6331      6334      6336      6331      6334      6337      6335      6334      6336
      6335      6334      6337      6336      6334      6337      6334      6337      6338
      6334      6337      6339      6334      6337      6340      6338      6337      6339
      6338      6337      6340      6339      6337      6340      6337      6340      6341
      6337      6340      6342      6337      6340      6343      6341      6340      6342
      6341      6340      6343      6342      6340      6343      6340      6343      6344
      6340      6343      6345      6340      6343      6346      6344      6343      6345
      6344      6343      6346      6345      6343      6346      6343      6346      6347
      6343      6346      6348      6343      6346      6349      6347      6346      6348
      6347      6346      6349      6348      6346      6349      6346      6349      6350
      6346      6349      6351      6346      6349      6352      6350      6349      6351
      6350      6349      6352      6351      6349      6352      6349      6352      6353
      6349      6352      6354      6349      6352      6355      6353      6352      6354
      6353      6352      6355      6354      6352      6355      6352      6355      6356
      6352      6355      6357      6352      6355      6358      6356      6355      6357
      6356      6355      6358      6357      6355      6358      6355      6358      6359
      6355      6358      6360      6355      6358      6361      6359      6358      6360
      6359      6358      6361      6360      6358      6361      6358      6361      6362
      6358      6361      6363      6358      6361      6364      6362      6361      6363
      6362      6361      6364      6363      6361      6364      6361      6364      6365
      6361      6364      6366      6361      6364      6367      6365      6364      6366
      6365      6364      6367      6366      6364      6367      6364      6367      6368
      6364      6367      6369      6364      6367      6370      6368      6367      6369
      6368      6367      6370      6369      6367      6370      6367      6370      6371
      6367      6370      6372      6367      6370      6373      6371      6370      6372
      6371      6370      6373      6372      6370      6373      6370      6373      6374
      6370      6373      6375      6370      6373      6376      6374      6373      6375
      6374      6373      6376      6375      6373      6376      6378      6377      6382
      6378      6377      6386      6378      6377      6390      6382      6377      6386
      6382      6377      6390      6386      6377      6390      6377      6378      6379
      6377      6378      6380      6377      6378      6381      6379      6378      6380
      6379      6378      6381      6380      6378      6381      6377      6382      6383
      6377      6382      6384      6377      6382      6385      6383      6382      6384
      6383      6382      6385      6384      6382      6385      6377      6386      6387
      6377      6386      6388      6377      6386      6389      6387      6386      6388
      6387      6386      6389      6388      6386      6389      6377      6390      6391
      6377      6390      6392      6377      6390      6393      6391      6390      6392
      6391      6390      6393      6392      6390      6393      6390      6393      6394
      6390      6393      6395      6390      6393      6399      6394      6393      6395
      6394      6393      6399      6395      6393      6399      6397      6396      6398
      6397      6396      6399      6397      6396      6400      6398      6396      6399
      6398      6396      6400      6399      6396      6400      6393      6399      6396
      6396      6400      6401      6400      6401      6402      6400      6401      6403
      6400      6401      6404      6402      6401      6403      6402      6401      6404
      6403      6401      6404      6401      6404      6405      6401      6404      6406
      6401      6404      6412      6405      6404      6406      6405      6404      6412
      6406      6404      6412      6404      6406      6407      6406      6407      6408
      6406      6407      6409      6408      6407      6409      6407      6409      6410
      6407      6409      6411      6407      6409      6421      6410      6409      6411
      6410      6409      6421      6411      6409      6421      6404      6412      6413
      6404      6412      6414      6404      6412      6415      6413      6412      6414
      6413      6412      6415      6414      6412      6415      6412      6415      6416
      6415      6416      6417      6415      6416      6418      6417      6416      6418
      6416      6418      6419      6416      6418      6420      6416      6418      6466
      6419      6418      6420      6419      6418      6466      6420      6418      6466
      6409      6421      6422      6409      6421      6423      6409      6421      6424
      6422      6421      6423      6422      6421      6424      6423      6421      6424
      6421      6424      6425      6421      6424      6426      6421      6424      6427
      6425      6424      6426      6425      6424      6427      6426      6424      6427
      6424      6427      6428      6424      6427      6429      6424      6427      6430
      6428      6427      6429      6428      6427      6430      6429      6427      6430
      6427      6430      6431      6427      6430      6432      6427      6430      6433
      6431      6430      6432      6431      6430      6433      6432      6430      6433
      6430      6433      6434      6430      6433      6435      6430      6433      6436
      6434      6433      6435      6434      6433      6436      6435      6433      6436
      6433      6436      6437      6433      6436      6438      6433      6436      6439
      6437      6436      6438      6437      6436      6439      6438      6436      6439
      6436      6439      6440      6436      6439      6441      6440      6439      6441
      6439      6441      6442      6439      6441      6443      6442      6441      6443
      6441      6443      6444      6441      6443      6445      6441      6443      6446
      6444      6443      6445      6444      6443      6446      6445      6443      6446
      6443      6446      6447      6443      6446      6448      6447      6446      6448
      6446      6448      6449      6446      6448      6450      6449      6448      6450
      6448      6450      6451      6448      6450      6452      6448      6450      6453
      6451      6450      6452      6451      6450      6453      6452      6450      6453
      6450      6453      6454      6450      6453      6455      6450      6453      6456
      6454      6453      6455      6454      6453      6456      6455      6453      6456
      6453      6456      6457      6453      6456      6458      6453      6456      6459
      6457      6456      6458      6457      6456      6459      6458      6456      6459
      6456      6459      6460      6456      6459      6461      6456      6459      6462
      6460      6459      6461      6460      6459      6462      6461      6459      6462
      6459      6462      6463      6459      6462      6464      6459      6462      6465
      6463      6462      6464      6463      6462      6465      6464      6462      6465
      6418      6466      6467      6418      6466      6468      6418      6466      6469
      6467      6466      6468      6467      6466      6469      6468      6466      6469
      6466      6469      6470      6466      6469      6471      6466      6469      6472
      6470      6469      6471      6470      6469      6472      6471      6469      6472
      6469      6472      6473      6469      6472      6474      6469      6472      6475
      6473      6472      6474      6473      6472      6475      6474      6472      6475
      6472      6475      6476      6472      6475      6477      6472      6475      6478
      6476      6475      6477      6476      6475      6478      6477      6475      6478
      6475      6478      6479      6475      6478      6480      6475      6478      6481
      6479      6478      6480      6479      6478      6481      6480      6478      6481
      6478      6481      6482      6478      6481      6483      6478      6481      6484
      6482      6481      6483      6482      6481      6484      6483      6481      6484
      6481      6484      6485      6481      6484      6486      6481      6484      6487
      6485      6484      6486      6485      6484      6487      6486      6484      6487
      6484      6487      6488      6484      6487      6489      6484      6487      6490
      6488      6487      6489      6488      6487      6490      6489      6487      6490
      6487      6490      6491      6487      6490      6492      6487      6490      6493
      6491      6490      6492      6491      6490      6493      6492      6490      6493
      6490      6493      6494      6490      6493      6495      6490      6493      6496
      6494      6493      6495      6494      6493      6496      6495      6493      6496
      6493      6496      6497      6493      6496      6498      6493      6496      6499
      6497      6496      6498      6497      6496      6499      6498      6496      6499
      6496      6499      6500      6496      6499      6501      6496      6499      6502
      6500      6499      6501      6500      6499      6502      6501      6499      6502
      6499      6502      6503      6499      6502      6504      6499      6502      6505
      6503      6502      6504      6503      6502      6505      6504      6502      6505
      6502      6505      6506      6502      6505      6507      6502      6505      6508
      6506      6505      6507      6506      6505      6508      6507      6505      6508
      6505      6508      6509      6505      6508      6510      6505      6508      6511
      6509      6508      6510      6509      6508      6511      6510      6508      6511
      6508      6511      6512      6508      6511      6513      6508      6511      6514
      6512      6511      6513      6512      6511      6514      6513      6511      6514
     12500     12499     12504     12500     12499     12508     12500     12499     12512
     12504     12499     12508     12504     12499     12512     12508     12499     12512
     12499     12500     12501     12499     12500     12502     12499     12500     12503
     12501     12500     12502     12501     12500     12503     12502     12500     12503
     12499     12504     12505     12499     12504     12506     12499     12504     12507
     12505     12504     12506     12505     12504     12507     12506     12504     12507
     12499     12508     12509     12499     12508     12510     12499     12508     12511
     12509     12508     12510     12509     12508     12511     12510     12508     12511
     12499     12512     12513     12499     12512     12514     12499     12512     12515
     12513     12512     12514     12513     12512     12515     12514     12512     12515
     12512     12515     12516     12512     12515     12517     12512     12515     12522
     12516     12515     12517     12516     12515     12522     12517     12515     12522
     12519     12518     12520     12519     12518     12521     12519     12518     12522
     12520     12518     12521     12520     12518     12522     12521     12518     12522
     12518     12521     12523     12515     12522     12518     12521     12523     12524
     12521     12523     12525     12521     12523     12528     12524     12523     12525
     12524     12523     12528     12525     12523     12528     12527     12526     12528
     12527     12526     12578     12528     12526     12578     12523     12528     12526
     12523     12528     12529     12523     12528     12530     12526     12528     12529
     12526     12528     12530     12529     12528     12530     12528     12530     12531
     12528     12530     12532     12528     12530     12534     12531     12530     12532
     12531     12530     12534     12532     12530     12534     12530     12532     12533
     12530     12534     12535     12530     12534     12536     12535     12534     12536
     12534     12536     12537     12534     12536     12538     12537     12536     12538
     12536     12538     12539     12536     12538     12540     12536     12538     12541
     12539     12538     12540     12539     12538     12541     12540     12538     12541
     12538     12541     12542     12538     12541     12543     12538     12541     12544
     12542     12541     12543     12542     12541     12544     12543     12541     12544
     12541     12544     12545     12541     12544     12546     12541     12544     12547
     12545     12544     12546     12545     12544     12547     12546     12544     12547
     12544     12547     12548     12544     12547     12549     12544     12547     12550
     12548     12547     12549     12548     12547     12550     12549     12547     12550
     12547     12550     12551     12547     12550     12552     12547     12550     12553
     12551     12550     12552     12551     12550     12553     12552     12550     12553
     12550     12553     12554     12550     12553     12555     12550     12553     12556
     12554     12553     12555     12554     12553     12556     12555     12553     12556
     12553     12556     12557     12553     12556     12558     12553     12556     12559
     12557     12556     12558     12557     12556     12559     12558     12556     12559
     12556     12559     12560     12556     12559     12561     12556     12559     12562
     12560     12559     12561     12560     12559     12562     12561     12559     12562
     12559     12562     12563     12559     12562     12564     12559     12562     12565
     12563     12562     12564     12563     12562     12565     12564     12562     12565
     12562     12565     12566     12562     12565     12567     12562     12565     12568
     12566     12565     12567     12566     12565     12568     12567     12565     12568
     12565     12568     12569     12565     12568     12570     12565     12568     12571
     12569     12568     12570     12569     12568     12571     12570     12568     12571
     12568     12571     12572     12568     12571     12573     12568     12571     12574
     12572     12571     12573     12572     12571     12574     12573     12571     12574
     12571     12574     12575     12571     12574     12576     12571     12574     12577
     12575     12574     12576     12575     12574     12577     12576     12574     12577
     12526     12578     12579     12526     12578     12580     12579     12578     12580
     12578     12580     12581     12578     12580     12582     12578     12580     12583
     12581     12580     12582     12581     12580     12583     12582     12580     12583
     12580     12583     12584     12580     12583     12585     12580     12583     12586
     12584     12583     12585     12584     12583     12586     12585     12583     12586
     12583     12586     12587     12583     12586     12588     12583     12586     12589
     12587     12586     12588     12587     12586     12589     12588     12586     12589
     12586     12589     12590     12586     12589     12591     12586     12589     12592
     12590     12589     12591     12590     12589     12592     12591     12589     12592
     12589     12592     12593     12589     12592     12594     12589     12592     12595
     12593     12592     12594     12593     12592     12595     12594     12592     12595
     12592     12595     12596     12592     12595     12597     12592     12595     12598
     12596     12595     12597     12596     12595     12598     12597     12595     12598
     12595     12598     12599     12595     12598     12600     12595     12598     12601
     12599     12598     12600     12599     12598     12601     12600     12598     12601
     12598     12601     12602     12598     12601     12603     12602     12601     12603
     12601     12603     12604     12601     12603     12605     12604     12603     12605
     12603     12605     12606     12603     12605     12607     12603     12605     12608
     12606     12605     12607     12606     12605     12608     12607     12605     12608
     12605     12608     12609     12605     12608     12610     12605     12608     12611
     12609     12608     12610     12609     12608     12611     12610     12608     12611
     12608     12611     12612     12608     12611     12613     12608     12611     12614
     12612     12611     12613     12612     12611     12614     12613     12611     12614
     12611     12614     12615     12611     12614     12616     12611     12614     12617
     12615     12614     12616     12615     12614     12617     12616     12614     12617
     12614     12617     12618     12614     12617     12619     12614     12617     12620
     12618     12617     12619     12618     12617     12620     12619     12617     12620
     12617     12620     12621     12617     12620     12622     12617     12620     12623
     12621     12620     12622     12621     12620     12623     12622     12620     12623
     12620     12623     12624     12620     12623     12625     12620     12623     12626
     12624     12623     12625     12624     12623     12626     12625     12623     12626
     12623     12626     12627     12623     12626     12628     12623     12626     12629
     12627     12626     12628     12627     12626     12629     12628     12626     12629
      1704      1703      1705      1704      1703      1707      1704      1703      1749
      1705      1703      1707      1705      1703      1749      1707      1703      1749
      1703      1705      1706      1703      1707      1708      1703      1707      1709
      1703      1707      1710      1708      1707      1709      1708      1707      1710
      1709      1707      1710      1707      1710      1711      1707      1710      1741
      1711      1710      1741      1710      1711      1712      1710      1711      1713
      1712      1711      1713      1711      1713      1714      1711      1713      1715
      1711      1713      1716      1714      1713      1715      1714      1713      1716
      1715      1713      1716      1713      1716      1717      1713      1716      1718
      1713      1716      1739      1717      1716      1718      1717      1716      1739
      1718      1716      1739      1716      1718      1719      1716      1718      1720
      1716      1718      1728      1719      1718      1720      1719      1718      1728
      1720      1718      1728      1718      1720      1721      1718      1720      1722
      1718      1720      1723      1721      1720      1722      1721      1720      1723
      1722      1720      1723      1720      1723      1724      1720      1723      1725
      1720      1723      1726      1724      1723      1725      1724      1723      1726
      1725      1723      1726      1723      1726      1727      1723      1726      1728
      1723      1726      1752      1727      1726      1728      1727      1726      1752
      1728      1726      1752      1718      1728      1726      1718      1728      1729
      1718      1728      1733      1726      1728      1729      1726      1728      1733
      1729      1728      1733      1728      1729      1730      1728      1729      1731
      1728      1729      1732      1730      1729      1731      1730      1729      1732
      1731      1729      1732      1728      1733      1734      1728      1733      1735
      1728      1733      1736      1734      1733      1735      1734      1733      1736
      1735      1733      1736      1733      1736      1737      1733      1736      1738
      1733      1736      1739      1737      1736      1738      1737      1736      1739
      1738      1736      1739      1716      1739      1736      1716      1739      1740
      1716      1739      1741      1736      1739      1740      1736      1739      1741
      1740      1739      1741      1710      1741      1739      1710      1741      1742
      1710      1741      1746      1739      1741      1742      1739      1741      1746
      1742      1741      1746      1741      1742      1743      1741      1742      1744
      1741      1742      1745      1743      1742      1744      1743      1742      1745
      1744      1742      1745      1741      1746      1747      1741      1746      1748
      1741      1746      1749      1747      1746      1748      1747      1746      1749
      1748      1746      1749      1703      1749      1746      1703      1749      1750
      1703      1749      1751      1746      1749      1750      1746      1749      1751
      1750      1749      1751      1726      1752      1753      1726      1752      1754
      1726      1752      1758      1753      1752      1754      1753      1752      1758
      1754      1752      1758      1752      1754      1755      1752      1754      1756
      1752      1754      1757      1755      1754      1756      1755      1754      1757
      1756      1754      1757      1752      1758      1759      1752      1758      1760
      1752      1758      1761      1759      1758      1760      1759      1758      1761
      1760      1758      1761      1758      1761      1762      1758      1761      1763
      1758      1761      1764      1762      1761      1763      1762      1761      1764
      1763      1761      1764      1761      1764      1765      1761      1764      1766
      1761      1764      1767      1765      1764      1766      1765      1764      1767
      1766      1764      1767      1764      1767      1768      1764      1767      1769
      1764      1767      1773      1768      1767      1769      1768      1767      1773
      1769      1767      1773      1767      1769      1770      1767      1769      1771
      1767      1769      1772      1770      1769      1771      1770      1769      1772
      1771      1769      1772      1767      1773      1774      1767      1773      1775
      1767      1773      1776      1774      1773      1775      1774      1773      1776
      1775      1773      1776      4706      4705      4709      4706      4705      4713
      4706      4705      4717      4709      4705      4713      4709      4705      4717
      4713      4705      4717      4705      4706      4707      4705      4706      4708
      4705      4706      4721      4707      4706      4708      4707      4706      4721
      4708      4706      4721      4705      4709      4710      4705      4709      4711
      4705      4709      4712      4710      4709      4711      4710      4709      4712
      4711      4709      4712      4705      4713      4714      4705      4713      4715
      4705      4713      4716      4714      4713      4715      4714      4713      4716
      4715      4713      4716      4705      4717      4718      4705      4717      4719
      4705      4717      4720      4718      4717      4719      4718      4717      4720
      4719      4717      4720      4706      4721      4722      4706      4721      4723
      4706      4721      4727      4722      4721      4723      4722      4721      4727
      4723      4721      4727      4725      4724      4726      4725      4724      4727
      4725      4724      4728      4726      4724      4727      4726      4724      4728
      4727      4724      4728      4721      4727      4724      4724      4728      4729
      4728      4729      4730      4728      4729      4731      4728      4729      4732
      4730      4729      4731      4730      4729      4732      4731      4729      4732
      4729      4732      4733      4729      4732      4734      4729      4732      4740
      4733      4732      4734      4733      4732      4740      4734      4732      4740
      4732      4734      4735      4734      4735      4736      4734      4735      4737
      4736      4735      4737      4735      4737      4738      4735      4737      4739
      4735      4737      4749      4738      4737      4739      4738      4737      4749
      4739      4737      4749      4732      4740      4741      4732      4740      4742
      4732      4740      4743      4741      4740      4742      4741      4740      4743
      4742      4740      4743      4740      4743      4744      4743      4744      4745
      4743      4744      4746      4745      4744      4746      4744      4746      4747
      4744      4746      4748      4744      4746      4796      4747      4746      4748
      4747      4746      4796      4748      4746      4796      4737      4749      4750
      4737      4749      4751      4737      4749      4752      4750      4749      4751
      4750      4749      4752      4751      4749      4752      4749      4752      4753
      4749      4752      4754      4749      4752      4755      4753      4752      4754
      4753      4752      4755      4754      4752      4755      4752      4755      4756
      4752      4755      4757      4756      4755      4757      4755      4757      4758
      4755      4757      4759      4758      4757      4759      4757      4759      4760
      4757      4759      4761      4757      4759      4762      4760      4759      4761
      4760      4759      4762      4761      4759      4762      4759      4762      4763
      4759      4762      4764      4763      4762      4764      4762      4764      4765
      4762      4764      4766      4765      4764      4766      4764      4766      4767
      4764      4766      4768      4764      4766      4769      4767      4766      4768
      4767      4766      4769      4768      4766      4769      4766      4769      4770
      4766      4769      4771      4770      4769      4771      4769      4771      4772
      4769      4771      4773      4772      4771      4773      4771      4773      4774
      4771      4773      4775      4771      4773      4776      4774      4773      4775
      4774      4773      4776      4775      4773      4776      4773      4776      4777
      4773      4776      4778      4777      4776      4778      4776      4778      4779
      4776      4778      4780      4779      4778      4780      4778      4780      4781
      4778      4780      4782      4778      4780      4783      4781      4780      4782
      4781      4780      4783      4782      4780      4783      4780      4783      4784
      4780      4783      4785      4780      4783      4786      4784      4783      4785
      4784      4783      4786      4785      4783      4786      4783      4786      4787
      4783      4786      4788      4783      4786      4789      4787      4786      4788
      4787      4786      4789      4788      4786      4789      4786      4789      4790
      4786      4789      4791      4786      4789      4792      4790      4789      4791
      4790      4789      4792      4791      4789      4792      4789      4792      4793
      4789      4792      4794      4789      4792      4795      4793      4792      4794
      4793      4792      4795      4794      4792      4795      4746      4796      4797
      4746      4796      4798      4746      4796      4799      4797      4796      4798
      4797      4796      4799      4798      4796      4799      4796      4799      4800
      4796      4799      4801      4796      4799      4802      4800      4799      4801
      4800      4799      4802      4801      4799      4802      4799      4802      4803
      4799      4802      4804      4799      4802      4805      4803      4802      4804
      4803      4802      4805      4804      4802      4805      4802      4805      4806
      4802      4805      4807      4802      4805      4808      4806      4805      4807
      4806      4805      4808      4807      4805      4808      4805      4808      4809
      4805      4808      4810      4805      4808      4811      4809      4808      4810
      4809      4808      4811      4810      4808      4811      4808      4811      4812
      4808      4811      4813      4808      4811      4814      4812      4811      4813
      4812      4811      4814      4813      4811      4814      4811      4814      4815
      4811      4814      4816      4811      4814      4817      4815      4814      4816
      4815      4814      4817      4816      4814      4817      4814      4817      4818
      4814      4817      4819      4814      4817      4820      4818      4817      4819
      4818      4817      4820      4819      4817      4820      4817      4820      4821
      4817      4820      4822      4817      4820      4823      4821      4820      4822
      4821      4820      4823      4822      4820      4823      4820      4823      4824
      4820      4823      4825      4820      4823      4826      4824      4823      4825
      4824      4823      4826      4825      4823      4826      4823      4826      4827
      4823      4826      4828      4823      4826      4829      4827      4826      4828
      4827      4826      4829      4828      4826      4829      4826      4829      4830
      4826      4829      4831      4826      4829      4832      4830      4829      4831
      4830      4829      4832      4831      4829      4832      4829      4832      4833
      4829      4832      4834      4829      4832      4835      4833      4832      4834
      4833      4832      4835      4834      4832      4835      4832      4835      4836
      4832      4835      4837      4832      4835      4838      4836      4835      4837
      4836      4835      4838      4837      4835      4838      4835      4838      4839
      4835      4838      4840      4835      4838      4841      4839      4838      4840
      4839      4838      4841      4840      4838      4841      4838      4841      4842
      4838      4841      4843      4838      4841      4844      4842      4841      4843
      4842      4841      4844      4843      4841      4844     12631     12630     12635
     12631     12630     12639     12631     12630     12643     12635     12630     12639
     12635     12630     12643     12639     12630     12643     12630     12631     12632
     12630     12631     12633     12630     12631     12634     12632     12631     12633
     12632     12631     12634     12633     12631     12634     12630     12635     12636
     12630     12635     12637     12630     12635     12638     12636     12635     12637
     12636     12635     12638     12637     12635     12638     12630     12639     12640
     12630     12639     12641     12630     12639     12642     12640     12639     12641
     12640     12639     12642     12641     12639     12642     12630     12643     12644
     12630     12643     12645     12630     12643     12646     12644     12643     12645
     12644     12643     12646     12645     12643     12646     12643     12646     12647
     12643     12646     12648     12643     12646     12653     12647     12646     12648
     12647     12646     12653     12648     12646     12653     12650     12649     12651
     12650     12649     12652     12650     12649     12653     12651     12649     12652
     12651     12649     12653     12652     12649     12653     12649     12652     12654
     12646     12653     12649     12652     12654     12655     12652     12654     12656
     12652     12654     12659     12655     12654     12656     12655     12654     12659
     12656     12654     12659     12658     12657     12659     12658     12657     12709
     12659     12657     12709     12654     12659     12657     12654     12659     12660
     12654     12659     12661     12657     12659     12660     12657     12659     12661
     12660     12659     12661     12659     12661     12662     12659     12661     12663
     12659     12661     12665     12662     12661     12663     12662     12661     12665
     12663     12661     12665     12661     12663     12664     12661     12665     12666
     12661     12665     12667     12666     12665     12667     12665     12667     12668
     12665     12667     12669     12668     12667     12669     12667     12669     12670
     12667     12669     12671     12667     12669     12672     12670     12669     12671
     12670     12669     12672     12671     12669     12672     12669     12672     12673
     12669     12672     12674     12669     12672     12675     12673     12672     12674
     12673     12672     12675     12674     12672     12675     12672     12675     12676
     12672     12675     12677     12672     12675     12678     12676     12675     12677
     12676     12675     12678     12677     12675     12678     12675     12678     12679
     12675     12678     12680     12675     12678     12681     12679     12678     12680
     12679     12678     12681     12680     12678     12681     12678     12681     12682
     12678     12681     12683     12678     12681     12684     12682     12681     12683
     12682     12681     12684     12683     12681     12684     12681     12684     12685
     12681     12684     12686     12681     12684     12687     12685     12684     12686
     12685     12684     12687     12686     12684     12687     12684     12687     12688
     12684     12687     12689     12684     12687     12690     12688     12687     12689
     12688     12687     12690     12689     12687     12690     12687     12690     12691
     12687     12690     12692     12687     12690     12693     12691     12690     12692
     12691     12690     12693     12692     12690     12693     12690     12693     12694
     12690     12693     12695     12690     12693     12696     12694     12693     12695
     12694     12693     12696     12695     12693     12696     12693     12696     12697
     12693     12696     12698     12693     12696     12699     12697     12696     12698
     12697     12696     12699     12698     12696     12699     12696     12699     12700
     12696     12699     12701     12696     12699     12702     12700     12699     12701
     12700     12699     12702     12701     12699     12702     12699     12702     12703
     12699     12702     12704     12699     12702     12705     12703     12702     12704
     12703     12702     12705     12704     12702     12705     12702     12705     12706
     12702     12705     12707     12702     12705     12708     12706     12705     12707
     12706     12705     12708     12707     12705     12708     12657     12709     12710
     12657     12709     12711     12710     12709     12711     12709     12711     12712
     12709     12711     12713     12709     12711     12714     12712     12711     12713
     12712     12711     12714     12713     12711     12714     12711     12714     12715
     12711     12714     12716     12711     12714     12717     12715     12714     12716
     12715     12714     12717     12716     12714     12717     12714     12717     12718
     12714     12717     12719     12714     12717     12720     12718     12717     12719
     12718     12717     12720     12719     12717     12720     12717     12720     12721
     12717     12720     12722     12717     12720     12723     12721     12720     12722
     12721     12720     12723     12722     12720     12723     12720     12723     12724
     12720     12723     12725     12720     12723     12726     12724     12723     12725
     12724     12723     12726     12725     12723     12726     12723     12726     12727
     12723     12726     12728     12723     12726     12729     12727     12726     12728
     12727     12726     12729     12728     12726     12729     12726     12729     12730
     12726     12729     12731     12726     12729     12732     12730     12729     12731
     12730     12729     12732     12731     12729     12732     12729     12732     12733
     12729     12732     12734     12733     12732     12734     12732     12734     12735
     12732     12734     12736     12735     12734     12736     12734     12736     12737
     12734     12736     12738     12734     12736     12739     12737     12736     12738
     12737     12736     12739     12738     12736     12739     12736     12739     12740
     12736     12739     12741     12736     12739     12742     12740     12739     12741
     12740     12739     12742     12741     12739     12742     12739     12742     12743
     12739     12742     12744     12739     12742     12745     12743     12742     12744
     12743     12742     12745     12744     12742     12745     12742     12745     12746
     12742     12745     12747     12742     12745     12748     12746     12745     12747
     12746     12745     12748     12747     12745     12748     12745     12748     12749
     12745     12748     12750     12745     12748     12751     12749     12748     12750
     12749     12748     12751     12750     12748     12751     12748     12751     12752
     12748     12751     12753     12748     12751     12754     12752     12751     12753
     12752     12751     12754     12753     12751     12754     12751     12754     12755
     12751     12754     12756     12751     12754     12757     12755     12754     12756
     12755     12754     12757     12756     12754     12757     12754     12757     12758
     12754     12757     12759     12754     12757     12760     12758     12757     12759
     12758     12757     12760     12759     12757     12760      8280      8279      8281
      8280      8279      8282      8280      8279      8283      8281      8279      8282
      8281      8279      8283      8282      8279      8283      8279      8283      8284
      8279      8283      8285      8279      8283      8288      8284      8283      8285
      8284      8283      8288      8285      8283      8288      8283      8285      8286
      8283      8285      8287      8286      8285      8287      8283      8288      8289
      8283      8288      8290      8283      8288      8294      8289      8288      8290
      8289      8288      8294      8290      8288      8294      8292      8291      8293
      8292      8291      8294      8292      8291      8295      8293      8291      8294
      8293      8291      8295      8294      8291      8295      8288      8294      8291
      8291      8295      8296      8295      8296      8297      8295      8296      8298
      8295      8296      8299      8297      8296      8298      8297      8296      8299
      8298      8296      8299      8296      8299      8300      8296      8299      8301
      8296      8299      8307      8300      8299      8301      8300      8299      8307
      8301      8299      8307      8299      8301      8302      8301      8302      8303
      8301      8302      8304      8303      8302      8304      8302      8304      8305
      8302      8304      8306      8302      8304      8316      8305      8304      8306
      8305      8304      8316      8306      8304      8316      8299      8307      8308
      8299      8307      8309      8299      8307      8310      8308      8307      8309
      8308      8307      8310      8309      8307      8310      8307      8310      8311
      8310      8311      8312      8310      8311      8313      8312      8311      8313
      8311      8313      8314      8311      8313      8315      8311      8313      8363
      8314      8313      8315      8314      8313      8363      8315      8313      8363
      8304      8316      8317      8304      8316      8318      8304      8316      8319
      8317      8316      8318      8317      8316      8319      8318      8316      8319
      8316      8319      8320      8316      8319      8321      8316      8319      8322
      8320      8319      8321      8320      8319      8322      8321      8319      8322
      8319      8322      8323      8319      8322      8324      8323      8322      8324
      8322      8324      8325      8322      8324      8326      8325      8324      8326
      8324      8326      8327      8324      8326      8328      8324      8326      8329
      8327      8326      8328      8327      8326      8329      8328      8326      8329
      8326      8329      8330      8326      8329      8331      8330      8329      8331
      8329      8331      8332      8329      8331      8333      8332      8331      8333
      8331      8333      8334      8331      8333      8335      8331      8333      8336
      8334      8333      8335      8334      8333      8336      8335      8333      8336
      8333      8336      8337      8333      8336      8338      8337      8336      8338
      8336      8338      8339      8336      8338      8340      8339      8338      8340
      8338      8340      8341      8338      8340      8342      8338      8340      8343
      8341      8340      8342      8341      8340      8343      8342      8340      8343
      8340      8343      8344      8340      8343      8345      8344      8343      8345
      8343      8345      8346      8343      8345      8347      8346      8345      8347
      8345      8347      8348      8345      8347      8349      8345      8347      8350
      8348      8347      8349      8348      8347      8350      8349      8347      8350
      8347      8350      8351      8347      8350      8352      8347      8350      8353
      8351      8350      8352      8351      8350      8353      8352      8350      8353
      8350      8353      8354      8350      8353      8355      8350      8353      8356
      8354      8353      8355      8354      8353      8356      8355      8353      8356
      8353      8356      8357      8353      8356      8358      8353      8356      8359
      8357      8356      8358      8357      8356      8359      8358      8356      8359
      8356      8359      8360      8356      8359      8361      8356      8359      8362
      8360      8359      8361      8360      8359      8362      8361      8359      8362
      8313      8363      8364      8313      8363      8365      8313      8363      8366
      8364      8363      8365      8364      8363      8366      8365      8363      8366
      8363      8366      8367      8363      8366      8368      8363      8366      8369
      8367      8366      8368      8367      8366      8369      8368      8366      8369
      8366      8369      8370      8366      8369      8371      8366      8369      8372
      8370      8369      8371      8370      8369      8372      8371      8369      8372
      8369      8372      8373      8369      8372      8374      8369      8372      8375
      8373      8372      8374      8373      8372      8375      8374      8372      8375
      8372      8375      8376      8372      8375      8377      8372      8375      8378
      8376      8375      8377      8376      8375      8378      8377      8375      8378
      8375      8378      8379      8375      8378      8380      8375      8378      8381
      8379      8378      8380      8379      8378      8381      8380      8378      8381
      8378      8381      8382      8378      8381      8383      8378      8381      8384
      8382      8381      8383      8382      8381      8384      8383      8381      8384
      8381      8384      8385      8381      8384      8386      8381      8384      8387
      8385      8384      8386      8385      8384      8387      8386      8384      8387
      8384      8387      8388      8384      8387      8389      8384      8387      8390
      8388      8387      8389      8388      8387      8390      8389      8387      8390
      8387      8390      8391      8387      8390      8392      8387      8390      8393
      8391      8390      8392      8391      8390      8393      8392      8390      8393
      8390      8393      8394      8390      8393      8395      8390      8393      8396
      8394      8393      8395      8394      8393      8396      8395      8393      8396
      8393      8396      8397      8393      8396      8398      8393      8396      8399
      8397      8396      8398      8397      8396      8399      8398      8396      8399
      8396      8399      8400      8396      8399      8401      8396      8399      8402
      8400      8399      8401      8400      8399      8402      8401      8399      8402
      8399      8402      8403      8399      8402      8404      8399      8402      8405
      8403      8402      8404      8403      8402      8405      8404      8402      8405
      8402      8405      8406      8402      8405      8407      8402      8405      8408
      8406      8405      8407      8406      8405      8408      8407      8405      8408
      8405      8408      8409      8405      8408      8410      8405      8408      8411
      8409      8408      8410      8409      8408      8411      8410      8408      8411
      8413      8412      8414      8413      8412      8415      8413      8412      8416
      8414      8412      8415      8414      8412      8416      8415      8412      8416
      8412      8416      8417      8412      8416      8418      8412      8416      8421
      8417      8416      8418      8417      8416      8421      8418      8416      8421
      8416      8418      8419      8416      8418      8420      8419      8418      8420
      8416      8421      8422      8416      8421      8423      8416      8421      8427
      8422      8421      8423      8422      8421      8427      8423      8421      8427
      8425      8424      8426      8425      8424      8427      8425      8424      8428
      8426      8424      8427      8426      8424      8428      8427      8424      8428
      8421      8427      8424      8424      8428      8429      8428      8429      8430
      8428      8429      8431      8428      8429      8432      8430      8429      8431
      8430      8429      8432      8431      8429      8432      8429      8432      8433
      8429      8432      8434      8429      8432      8440      8433      8432      8434
      8433      8432      8440      8434      8432      8440      8432      8434      8435
      8434      8435      8436      8434      8435      8437      8436      8435      8437
      8435      8437      8438      8435      8437      8439      8435      8437      8449
      8438      8437      8439      8438      8437      8449      8439      8437      8449
      8432      8440      8441      8432      8440      8442      8432      8440      8443
      8441      8440      8442      8441      8440      8443      8442      8440      8443
      8440      8443      8444      8443      8444      8445      8443      8444      8446
      8445      8444      8446      8444      8446      8447      8444      8446      8448
      8444      8446      8496      8447      8446      8448      8447      8446      8496
      8448      8446      8496      8437      8449      8450      8437      8449      8451
      8437      8449      8452      8450      8449      8451      8450      8449      8452
      8451      8449      8452      8449      8452      8453      8449      8452      8454
      8449      8452      8455      8453      8452      8454      8453      8452      8455
      8454      8452      8455      8452      8455      8456      8452      8455      8457
      8456      8455      8457      8455      8457      8458      8455      8457      8459
      8458      8457      8459      8457      8459      8460      8457      8459      8461
      8457      8459      8462      8460      8459      8461      8460      8459      8462
      8461      8459      8462      8459      8462      8463      8459      8462      8464
      8463      8462      8464      8462      8464      8465      8462      8464      8466
      8465      8464      8466      8464      8466      8467      8464      8466      8468
      8464      8466      8469      8467      8466      8468      8467      8466      8469
      8468      8466      8469      8466      8469      8470      8466      8469      8471
      8470      8469      8471      8469      8471      8472      8469      8471      8473
      8472      8471      8473      8471      8473      8474      8471      8473      8475
      8471      8473      8476      8474      8473      8475      8474      8473      8476
      8475      8473      8476      8473      8476      8477      8473      8476      8478
      8477      8476      8478      8476      8478      8479      8476      8478      8480
      8479      8478      8480      8478      8480      8481      8478      8480      8482
      8478      8480      8483      8481      8480      8482      8481      8480      8483
      8482      8480      8483      8480      8483      8484      8480      8483      8485
      8480      8483      8486      8484      8483      8485      8484      8483      8486
      8485      8483      8486      8483      8486      8487      8483      8486      8488
      8483      8486      8489      8487      8486      8488      8487      8486      8489
      8488      8486      8489      8486      8489      8490      8486      8489      8491
      8486      8489      8492      8490      8489      8491      8490      8489      8492
      8491      8489      8492      8489      8492      8493      8489      8492      8494
      8489      8492      8495      8493      8492      8494      8493      8492      8495
      8494      8492      8495      8446      8496      8497      8446      8496      8498
      8446      8496      8499      8497      8496      8498      8497      8496      8499
      8498      8496      8499      8496      8499      8500      8496      8499      8501
      8496      8499      8502      8500      8499      8501      8500      8499      8502
      8501      8499      8502      8499      8502      8503      8499      8502      8504
      8499      8502      8505      8503      8502      8504      8503      8502      8505
      8504      8502      8505      8502      8505      8506      8502      8505      8507
      8502      8505      8508      8506      8505      8507      8506      8505      8508
      8507      8505      8508      8505      8508      8509      8505      8508      8510
      8505      8508      8511      8509      8508      8510      8509      8508      8511
      8510      8508      8511      8508      8511      8512      8508      8511      8513
      8508      8511      8514      8512      8511      8513      8512      8511      8514
      8513      8511      8514      8511      8514      8515      8511      8514      8516
      8511      8514      8517      8515      8514      8516      8515      8514      8517
      8516      8514      8517      8514      8517      8518      8514      8517      8519
      8514      8517      8520      8518      8517      8519      8518      8517      8520
      8519      8517      8520      8517      8520      8521      8517      8520      8522
      8517      8520      8523      8521      8520      8522      8521      8520      8523
      8522      8520      8523      8520      8523      8524      8520      8523      8525
      8520      8523      8526      8524      8523      8525      8524      8523      8526
      8525      8523      8526      8523      8526      8527      8523      8526      8528
      8523      8526      8529      8527      8526      8528      8527      8526      8529
      8528      8526      8529      8526      8529      8530      8526      8529      8531
      8526      8529      8532      8530      8529      8531      8530      8529      8532
      8531      8529      8532      8529      8532      8533      8529      8532      8534
      8529      8532      8535      8533      8532      8534      8533      8532      8535
      8534      8532      8535      8532      8535      8536      8532      8535      8537
      8532      8535      8538      8536      8535      8537      8536      8535      8538
      8537      8535      8538      8535      8538      8539      8535      8538      8540
      8535      8538      8541      8539      8538      8540      8539      8538      8541
      8540      8538      8541      8538      8541      8542      8538      8541      8543
      8538      8541      8544      8542      8541      8543      8542      8541      8544
      8543      8541      8544      1778      1777      1779      1778      1777      1781
      1778      1777      1823      1779      1777      1781      1779      1777      1823
      1781      1777      1823      1777      1779      1780      1777      1781      1782
      1777      1781      1783      1777      1781      1784      1782      1781      1783
      1782      1781      1784      1783      1781      1784      1781      1784      1785
      1781      1784      1815      1785      1784      1815      1784      1785      1786
      1784      1785      1787      1786      1785      1787      1785      1787      1788
      1785      1787      1789      1785      1787      1790      1788      1787      1789
      1788      1787      1790      1789      1787      1790      1787      1790      1791
      1787      1790      1792      1787      1790      1813      1791      1790      1792
      1791      1790      1813      1792      1790      1813      1790      1792      1793
      1790      1792      1794      1790      1792      1802      1793      1792      1794
      1793      1792      1802      1794      1792      1802      1792      1794      1795
      1792      1794      1796      1792      1794      1797      1795      1794      1796
      1795      1794      1797      1796      1794      1797      1794      1797      1798
      1794      1797      1799      1794      1797      1800      1798      1797      1799
      1798      1797      1800      1799      1797      1800      1797      1800      1801
      1797      1800      1802      1797      1800      1826      1801      1800      1802
      1801      1800      1826      1802      1800      1826      1792      1802      1800
      1792      1802      1803      1792      1802      1807      1800      1802      1803
      1800      1802      1807      1803      1802      1807      1802      1803      1804
      1802      1803      1805      1802      1803      1806      1804      1803      1805
      1804      1803      1806      1805      1803      1806      1802      1807      1808
      1802      1807      1809      1802      1807      1810      1808      1807      1809
      1808      1807      1810      1809      1807      1810      1807      1810      1811
      1807      1810      1812      1807      1810      1813      1811      1810      1812
      1811      1810      1813      1812      1810      1813      1790      1813      1810
      1790      1813      1814      1790      1813      1815      1810      1813      1814
      1810      1813      1815      1814      1813      1815      1784      1815      1813
      1784      1815      1816      1784      1815      1820      1813      1815      1816
      1813      1815      1820      1816      1815      1820      1815      1816      1817
      1815      1816      1818      1815      1816      1819      1817      1816      1818
      1817      1816      1819      1818      1816      1819      1815      1820      1821
      1815      1820      1822      1815      1820      1823      1821      1820      1822
      1821      1820      1823      1822      1820      1823      1777      1823      1820
      1777      1823      1824      1777      1823      1825      1820      1823      1824
      1820      1823      1825      1824      1823      1825      1800      1826      1827
      1800      1826      1828      1800      1826      1832      1827      1826      1828
      1827      1826      1832      1828      1826      1832      1826      1828      1829
      1826      1828      1830      1826      1828      1831      1829      1828      1830
      1829      1828      1831      1830      1828      1831      1826      1832      1833
      1826      1832      1834      1826      1832      1835      1833      1832      1834
      1833      1832      1835      1834      1832      1835      1832      1835      1836
      1832      1835      1837      1832      1835      1838      1836      1835      1837
      1836      1835      1838      1837      1835      1838      1835      1838      1839
      1835      1838      1840      1835      1838      1841      1839      1838      1840
      1839      1838      1841      1840      1838      1841      1838      1841      1842
      1838      1841      1843      1838      1841      1847      1842      1841      1843
      1842      1841      1847      1843      1841      1847      1841      1843      1844
      1841      1843      1845      1841      1843      1846      1844      1843      1845
      1844      1843      1846      1845      1843      1846      1841      1847      1848
      1841      1847      1849      1841      1847      1850      1848      1847      1849
      1848      1847      1850      1849      1847      1850      1852      1851      1853
      1852      1851      1855      1852      1851      1897      1853      1851      1855
      1853      1851      1897      1855      1851      1897      1851      1853      1854
      1851      1855      1856      1851      1855      1857      1851      1855      1858
      1856      1855      1857      1856      1855      1858      1857      1855      1858
      1855      1858      1859      1855      1858      1889      1859      1858      1889
      1858      1859      1860      1858      1859      1861      1860      1859      1861
      1859      1861      1862      1859      1861      1863      1859      1861      1864
      1862      1861      1863      1862      1861      1864      1863      1861      1864
      1861      1864      1865      1861      1864      1866      1861      1864      1887
      1865      1864      1866      1865      1864      1887      1866      1864      1887
      1864      1866      1867      1864      1866      1868      1864      1866      1876
      1867      1866      1868      1867      1866      1876      1868      1866      1876
      1866      1868      1869      1866      1868      1870      1866      1868      1871
      1869      1868      1870      1869      1868      1871      1870      1868      1871
      1868      1871      1872      1868      1871      1873      1868      1871      1874
      1872      1871      1873      1872      1871      1874      1873      1871      1874
      1871      1874      1875      1871      1874      1876      1871      1874      1900
      1875      1874      1876      1875      1874      1900      1876      1874      1900
      1866      1876      1874      1866      1876      1877      1866      1876      1881
      1874      1876      1877      1874      1876      1881      1877      1876      1881
      1876      1877      1878      1876      1877      1879      1876      1877      1880
      1878      1877      1879      1878      1877      1880      1879      1877      1880
      1876      1881      1882      1876      1881      1883      1876      1881      1884
      1882      1881      1883      1882      1881      1884      1883      1881      1884
      1881      1884      1885      1881      1884      1886      1881      1884      1887
      1885      1884      1886      1885      1884      1887      1886      1884      1887
      1864      1887      1884      1864      1887      1888      1864      1887      1889
      1884      1887      1888      1884      1887      1889      1888      1887      1889
      1858      1889      1887      1858      1889      1890      1858      1889      1894
      1887      1889      1890      1887      1889      1894      1890      1889      1894
      1889      1890      1891      1889      1890      1892      1889      1890      1893
      1891      1890      1892      1891      1890      1893      1892      1890      1893
      1889      1894      1895      1889      1894      1896      1889      1894      1897
      1895      1894      1896      1895      1894      1897      1896      1894      1897
      1851      1897      1894      1851      1897      1898      1851      1897      1899
      1894      1897      1898      1894      1897      1899      1898      1897      1899
      1874      1900      1901      1874      1900      1902      1874      1900      1906
      1901      1900      1902      1901      1900      1906      1902      1900      1906
      1900      1902      1903      1900      1902      1904      1900      1902      1905
      1903      1902      1904      1903      1902      1905      1904      1902      1905
      1900      1906      1907      1900      1906      1908      1900      1906      1909
      1907      1906      1908      1907      1906      1909      1908      1906      1909
      1906      1909      1910      1906      1909      1911      1906      1909      1912
      1910      1909      1911      1910      1909      1912      1911      1909      1912
      1909      1912      1913      1909      1912      1914      1909      1912      1915
      1913      1912      1914      1913      1912      1915      1914      1912      1915
      1912      1915      1916      1912      1915      1917      1912      1915      1921
      1916      1915      1917      1916      1915      1921      1917      1915      1921
      1915      1917      1918      1915      1917      1919      1915      1917      1920
      1918      1917      1919      1918      1917      1920      1919      1917      1920
      1915      1921      1922      1915      1921      1923      1915      1921      1924
      1922      1921      1923      1922      1921      1924      1923      1921      1924
     12762     12761     12766     12762     12761     12770     12762     12761     12774
     12766     12761     12770     12766     12761     12774     12770     12761     12774
     12761     12762     12763     12761     12762     12764     12761     12762     12765
     12763     12762     12764     12763     12762     12765     12764     12762     12765
     12761     12766     12767     12761     12766     12768     12761     12766     12769
     12767     12766     12768     12767     12766     12769     12768     12766     12769
     12761     12770     12771     12761     12770     12772     12761     12770     12773
     12771     12770     12772     12771     12770     12773     12772     12770     12773
     12761     12774     12775     12761     12774     12776     12761     12774     12777
     12775     12774     12776     12775     12774     12777     12776     12774     12777
     12774     12777     12778     12774     12777     12779     12774     12777     12784
     12778     12777     12779     12778     12777     12784     12779     12777     12784
     12781     12780     12782     12781     12780     12783     12781     12780     12784
     12782     12780     12783     12782     12780     12784     12783     12780     12784
     12780     12783     12785     12777     12784     12780     12783     12785     12786
     12783     12785     12787     12783     12785     12790     12786     12785     12787
     12786     12785     12790     12787     12785     12790     12789     12788     12790
     12789     12788     12840     12790     12788     12840     12785     12790     12788
     12785     12790     12791     12785     12790     12792     12788     12790     12791
     12788     12790     12792     12791     12790     12792     12790     12792     12793
     12790     12792     12794     12790     12792     12796     12793     12792     12794
     12793     12792     12796     12794     12792     12796     12792     12794     12795
     12792     12796     12797     12792     12796     12798     12797     12796     12798
     12796     12798     12799     12796     12798     12800     12799     12798     12800
     12798     12800     12801     12798     12800     12802     12798     12800     12803
     12801     12800     12802     12801     12800     12803     12802     12800     12803
     12800     12803     12804     12800     12803     12805     12800     12803     12806
     12804     12803     12805     12804     12803     12806     12805     12803     12806
     12803     12806     12807     12803     12806     12808     12803     12806     12809
     12807     12806     12808     12807     12806     12809     12808     12806     12809
     12806     12809     12810     12806     12809     12811     12806     12809     12812
     12810     12809     12811     12810     12809     12812     12811     12809     12812
     12809     12812     12813     12809     12812     12814     12809     12812     12815
     12813     12812     12814     12813     12812     12815     12814     12812     12815
     12812     12815     12816     12812     12815     12817     12812     12815     12818
     12816     12815     12817     12816     12815     12818     12817     12815     12818
     12815     12818     12819     12815     12818     12820     12815     12818     12821
     12819     12818     12820     12819     12818     12821     12820     12818     12821
     12818     12821     12822     12818     12821     12823     12818     12821     12824
     12822     12821     12823     12822     12821     12824     12823     12821     12824
     12821     12824     12825     12821     12824     12826     12821     12824     12827
     12825     12824     12826     12825     12824     12827     12826     12824     12827
     12824     12827     12828     12824     12827     12829     12824     12827     12830
     12828     12827     12829     12828     12827     12830     12829     12827     12830
     12827     12830     12831     12827     12830     12832     12827     12830     12833
     12831     12830     12832     12831     12830     12833     12832     12830     12833
     12830     12833     12834     12830     12833     12835     12830     12833     12836
     12834     12833     12835     12834     12833     12836     12835     12833     12836
     12833     12836     12837     12833     12836     12838     12833     12836     12839
     12837     12836     12838     12837     12836     12839     12838     12836     12839
     12788     12840     12841     12788     12840     12842     12841     12840     12842
     12840     12842     12843     12840     12842     12844     12840     12842     12845
     12843     12842     12844     12843     12842     12845     12844     12842     12845
     12842     12845     12846     12842     12845     12847     12842     12845     12848
     12846     12845     12847     12846     12845     12848     12847     12845     12848
     12845     12848     12849     12845     12848     12850     12845     12848     12851
     12849     12848     12850     12849     12848     12851     12850     12848     12851
     12848     12851     12852     12848     12851     12853     12848     12851     12854
     12852     12851     12853     12852     12851     12854     12853     12851     12854
     12851     12854     12855     12851     12854     12856     12851     12854     12857
     12855     12854     12856     12855     12854     12857     12856     12854     12857
     12854     12857     12858     12854     12857     12859     12854     12857     12860
     12858     12857     12859     12858     12857     12860     12859     12857     12860
     12857     12860     12861     12857     12860     12862     12857     12860     12863
     12861     12860     12862     12861     12860     12863     12862     12860     12863
     12860     12863     12864     12860     12863     12865     12864     12863     12865
     12863     12865     12866     12863     12865     12867     12866     12865     12867
     12865     12867     12868     12865     12867     12869     12865     12867     12870
     12868     12867     12869     12868     12867     12870     12869     12867     12870
     12867     12870     12871     12867     12870     12872     12867     12870     12873
     12871     12870     12872     12871     12870     12873     12872     12870     12873
     12870     12873     12874     12870     12873     12875     12870     12873     12876
     12874     12873     12875     12874     12873     12876     12875     12873     12876
     12873     12876     12877     12873     12876     12878     12873     12876     12879
     12877     12876     12878     12877     12876     12879     12878     12876     12879
     12876     12879     12880     12876     12879     12881     12876     12879     12882
     12880     12879     12881     12880     12879     12882     12881     12879     12882
     12879     12882     12883     12879     12882     12884     12879     12882     12885
     12883     12882     12884     12883     12882     12885     12884     12882     12885
     12882     12885     12886     12882     12885     12887     12882     12885     12888
     12886     12885     12887     12886     12885     12888     12887     12885     12888
     12885     12888     12889     12885     12888     12890     12885     12888     12891
     12889     12888     12890     12889     12888     12891     12890     12888     12891
     21289     21288     21290     21289     21288     21292     21289     21288     21308
     21290     21288     21292     21290     21288     21308     21292     21288     21308
     21288     21290     21291     21288     21292     21293     21288     21292     21294
     21288     21292     21296     21293     21292     21294     21293     21292     21296
     21294     21292     21296     21292     21294     21295     21292     21296     21297
     21292     21296     21298     21292     21296     21300     21297     21296     21298
     21297     21296     21300     21298     21296     21300     21296     21298     21299
     21296     21300     21301     21296     21300     21302     21296     21300     21304
     21301     21300     21302     21301     21300     21304     21302     21300     21304
     21300     21302     21303     21300     21304     21305     21300     21304     21306
     21300     21304     21308     21305     21304     21306     21305     21304     21308
     21306     21304     21308     21304     21306     21307     21288     21308     21304
     21288     21308     21309     21288     21308     21313     21304     21308     21309
     21304     21308     21313     21309     21308     21313     21311     21310     21312
     21311     21310     21313     21311     21310     21314     21312     21310     21313
     21312     21310     21314     21313     21310     21314     21308     21313     21310
     21310     21314     21315     21314     21315     21316     21314     21315     21317
     21314     21315     21318     21316     21315     21317     21316     21315     21318
     21317     21315     21318     21315     21318     21319     21315     21318     21320
     21315     21318     21326     21319     21318     21320     21319     21318     21326
     21320     21318     21326     21318     21320     21321     21320     21321     21322
     21320     21321     21323     21322     21321     21323     21321     21323     21324
     21321     21323     21325     21321     21323     21335     21324     21323     21325
     21324     21323     21335     21325     21323     21335     21318     21326     21327
     21318     21326     21328     21318     21326     21329     21327     21326     21328
     21327     21326     21329     21328     21326     21329     21326     21329     21330
     21329     21330     21331     21329     21330     21332     21331     21330     21332
     21330     21332     21333     21330     21332     21334     21330     21332     21382
     21333     21332     21334     21333     21332     21382     21334     21332     21382
     21323     21335     21336     21323     21335     21337     21323     21335     21338
     21336     21335     21337     21336     21335     21338     21337     21335     21338
     21335     21338     21339     21335     21338     21340     21335     21338     21341
     21339     21338     21340     21339     21338     21341     21340     21338     21341
     21338     21341     21342     21338     21341     21343     21342     21341     21343
     21341     21343     21344     21341     21343     21345     21344     21343     21345
     21343     21345     21346     21343     21345     21347     21343     21345     21348
     21346     21345     21347     21346     21345     21348     21347     21345     21348
     21345     21348     21349     21345     21348     21350     21349     21348     21350
     21348     21350     21351     21348     21350     21352     21351     21350     21352
     21350     21352     21353     21350     21352     21354     21350     21352     21355
     21353     21352     21354     21353     21352     21355     21354     21352     21355
     21352     21355     21356     21352     21355     21357     21356     21355     21357
     21355     21357     21358     21355     21357     21359     21358     21357     21359
     21357     21359     21360     21357     21359     21361     21357     21359     21362
     21360     21359     21361     21360     21359     21362     21361     21359     21362
     21359     21362     21363     21359     21362     21364     21363     21362     21364
     21362     21364     21365     21362     21364     21366     21365     21364     21366
     21364     21366     21367     21364     21366     21368     21364     21366     21369
     21367     21366     21368     21367     21366     21369     21368     21366     21369
     21366     21369     21370     21366     21369     21371     21366     21369     21372
     21370     21369     21371     21370     21369     21372     21371     21369     21372
     21369     21372     21373     21369     21372     21374     21369     21372     21375
     21373     21372     21374     21373     21372     21375     21374     21372     21375
     21372     21375     21376     21372     21375     21377     21372     21375     21378
     21376     21375     21377     21376     21375     21378     21377     21375     21378
     21375     21378     21379     21375     21378     21380     21375     21378     21381
     21379     21378     21380     21379     21378     21381     21380     21378     21381
     21332     21382     21383     21332     21382     21384     21332     21382     21385
     21383     21382     21384     21383     21382     21385     21384     21382     21385
     21382     21385     21386     21382     21385     21387     21382     21385     21388
     21386     21385     21387     21386     21385     21388     21387     21385     21388
     21385     21388     21389     21385     21388     21390     21385     21388     21391
     21389     21388     21390     21389     21388     21391     21390     21388     21391
     21388     21391     21392     21388     21391     21393     21388     21391     21394
     21392     21391     21393     21392     21391     21394     21393     21391     21394
     21391     21394     21395     21391     21394     21396     21391     21394     21397
     21395     21394     21396     21395     21394     21397     21396     21394     21397
     21394     21397     21398     21394     21397     21399     21394     21397     21400
     21398     21397     21399     21398     21397     21400     21399     21397     21400
     21397     21400     21401     21397     21400     21402     21397     21400     21403
     21401     21400     21402     21401     21400     21403     21402     21400     21403
     21400     21403     21404     21400     21403     21405     21400     21403     21406
     21404     21403     21405     21404     21403     21406     21405     21403     21406
     21403     21406     21407     21403     21406     21408     21403     21406     21409
     21407     21406     21408     21407     21406     21409     21408     21406     21409
     21406     21409     21410     21406     21409     21411     21406     21409     21412
     21410     21409     21411     21410     21409     21412     21411     21409     21412
     21409     21412     21413     21409     21412     21414     21409     21412     21415
     21413     21412     21414     21413     21412     21415     21414     21412     21415
     21412     21415     21416     21412     21415     21417     21412     21415     21418
     21416     21415     21417     21416     21415     21418     21417     21415     21418
     21415     21418     21419     21415     21418     21420     21415     21418     21421
     21419     21418     21420     21419     21418     21421     21420     21418     21421
     21418     21421     21422     21418     21421     21423     21418     21421     21424
     21422     21421     21423     21422     21421     21424     21423     21421     21424
     21421     21424     21425     21421     21424     21426     21421     21424     21427
     21425     21424     21426     21425     21424     21427     21426     21424     21427
     21424     21427     21428     21424     21427     21429     21424     21427     21430
     21428     21427     21429     21428     21427     21430     21429     21427     21430
     16954     16953     16955     16954     16953     16956     16954     16953     16957
     16955     16953     16956     16955     16953     16957     16956     16953     16957
     16953     16957     16958     16953     16957     16959     16953     16957     16960
     16958     16957     16959     16958     16957     16960     16959     16957     16960
     16957     16960     16961     16957     16960     16962     16957     16960     16966
     16961     16960     16962     16961     16960     16966     16962     16960     16966
     16964     16963     16965     16964     16963     16966     16964     16963     16967
     16965     16963     16966     16965     16963     16967     16966     16963     16967
     16960     16966     16963     16963     16967     16968     16967     16968     16969
     16967     16968     16970     16967     16968     16971     16969     16968     16970
     16969     16968     16971     16970     16968     16971     16968     16971     16972
     16968     16971     16973     16968     16971     16979     16972     16971     16973
     16972     16971     16979     16973     16971     16979     16971     16973     16974
     16973     16974     16975     16973     16974     16976     16975     16974     16976
     16974     16976     16977     16974     16976     16978     16974     16976     16988
     16977     16976     16978     16977     16976     16988     16978     16976     16988
     16971     16979     16980     16971     16979     16981     16971     16979     16982
     16980     16979     16981     16980     16979     16982     16981     16979     16982
     16979     16982     16983     16982     16983     16984     16982     16983     16985
     16984     16983     16985     16983     16985     16986     16983     16985     16987
     16983     16985     17035     16986     16985     16987     16986     16985     17035
     16987     16985     17035     16976     16988     16989     16976     16988     16990
     16976     16988     16991     16989     16988     16990     16989     16988     16991
     16990     16988     16991     16988     16991     16992     16988     16991     16993
     16988     16991     16994     16992     16991     16993     16992     16991     16994
     16993     16991     16994     16991     16994     16995     16991     16994     16996
     16995     16994     16996     16994     16996     16997     16994     16996     16998
     16997     16996     16998     16996     16998     16999     16996     16998     17000
     16996     16998     17001     16999     16998     17000     16999     16998     17001
     17000     16998     17001     16998     17001     17002     16998     17001     17003
     17002     17001     17003     17001     17003     17004     17001     17003     17005
     17004     17003     17005     17003     17005     17006     17003     17005     17007
     17003     17005     17008     17006     17005     17007     17006     17005     17008
     17007     17005     17008     17005     17008     17009     17005     17008     17010
     17009     17008     17010     17008     17010     17011     17008     17010     17012
     17011     17010     17012     17010     17012     17013     17010     17012     17014
     17010     17012     17015     17013     17012     17014     17013     17012     17015
     17014     17012     17015     17012     17015     17016     17012     17015     17017
     17016     17015     17017     17015     17017     17018     17015     17017     17019
     17018     17017     17019     17017     17019     17020     17017     17019     17021
     17017     17019     17022     17020     17019     17021     17020     17019     17022
     17021     17019     17022     17019     17022     17023     17019     17022     17024
     17019     17022     17025     17023     17022     17024     17023     17022     17025
     17024     17022     17025     17022     17025     17026     17022     17025     17027
     17022     17025     17028     17026     17025     17027     17026     17025     17028
     17027     17025     17028     17025     17028     17029     17025     17028     17030
     17025     17028     17031     17029     17028     17030     17029     17028     17031
     17030     17028     17031     17028     17031     17032     17028     17031     17033
     17028     17031     17034     17032     17031     17033     17032     17031     17034
     17033     17031     17034     16985     17035     17036     16985     17035     17037
     16985     17035     17038     17036     17035     17037     17036     17035     17038
     17037     17035     17038     17035     17038     17039     17035     17038     17040
     17035     17038     17041     17039     17038     17040     17039     17038     17041
     17040     17038     17041     17038     17041     17042     17038     17041     17043
     17038     17041     17044     17042     17041     17043     17042     17041     17044
     17043     17041     17044     17041     17044     17045     17041     17044     17046
     17041     17044     17047     17045     17044     17046     17045     17044     17047
     17046     17044     17047     17044     17047     17048     17044     17047     17049
     17044     17047     17050     17048     17047     17049     17048     17047     17050
     17049     17047     17050     17047     17050     17051     17047     17050     17052
     17047     17050     17053     17051     17050     17052     17051     17050     17053
     17052     17050     17053     17050     17053     17054     17050     17053     17055
     17050     17053     17056     17054     17053     17055     17054     17053     17056
     17055     17053     17056     17053     17056     17057     17053     17056     17058
     17053     17056     17059     17057     17056     17058     17057     17056     17059
     17058     17056     17059     17056     17059     17060     17056     17059     17061
     17056     17059     17062     17060     17059     17061     17060     17059     17062
     17061     17059     17062     17059     17062     17063     17059     17062     17064
     17059     17062     17065     17063     17062     17064     17063     17062     17065
     17064     17062     17065     17062     17065     17066     17062     17065     17067
     17062     17065     17068     17066     17065     17067     17066     17065     17068
     17067     17065     17068     17065     17068     17069     17065     17068     17070
     17065     17068     17071     17069     17068     17070     17069     17068     17071
     17070     17068     17071     17068     17071     17072     17068     17071     17073
     17068     17071     17074     17072     17071     17073     17072     17071     17074
     17073     17071     17074     17071     17074     17075     17071     17074     17076
     17071     17074     17077     17075     17074     17076     17075     17074     17077
     17076     17074     17077     17074     17077     17078     17074     17077     17079
     17074     17077     17080     17078     17077     17079     17078     17077     17080
     17079     17077     17080     17077     17080     17081     17077     17080     17082
     17077     17080     17083     17081     17080     17082     17081     17080     17083
     17082     17080     17083     17085     17084     17086     17085     17084     17087
     17085     17084     17088     17086     17084     17087     17086     17084     17088
     17087     17084     17088     17084     17088     17089     17084     17088     17090
     17084     17088     17091     17089     17088     17090     17089     17088     17091
     17090     17088     17091     17088     17091     17092     17088     17091     17093
     17088     17091     17097     17092     17091     17093     17092     17091     17097
     17093     17091     17097     17095     17094     17096     17095     17094     17097
     17095     17094     17098     17096     17094     17097     17096     17094     17098
     17097     17094     17098     17091     17097     17094     17094     17098     17099
     17098     17099     17100     17098     17099     17101     17098     17099     17102
     17100     17099     17101     17100     17099     17102     17101     17099     17102
     17099     17102     17103     17099     17102     17104     17099     17102     17110
     17103     17102     17104     17103     17102     17110     17104     17102     17110
     17102     17104     17105     17104     17105     17106     17104     17105     17107
     17106     17105     17107     17105     17107     17108     17105     17107     17109
     17105     17107     17119     17108     17107     17109     17108     17107     17119
     17109     17107     17119     17102     17110     17111     17102     17110     17112
     17102     17110     17113     17111     17110     17112     17111     17110     17113
     17112     17110     17113     17110     17113     17114     17113     17114     17115
     17113     17114     17116     17115     17114     17116     17114     17116     17117
     17114     17116     17118     17114     17116     17166     17117     17116     17118
     17117     17116     17166     17118     17116     17166     17107     17119     17120
     17107     17119     17121     17107     17119     17122     17120     17119     17121
     17120     17119     17122     17121     17119     17122     17119     17122     17123
     17119     17122     17124     17119     17122     17125     17123     17122     17124
     17123     17122     17125     17124     17122     17125     17122     17125     17126
     17122     17125     17127     17126     17125     17127     17125     17127     17128
     17125     17127     17129     17128     17127     17129     17127     17129     17130
     17127     17129     17131     17127     17129     17132     17130     17129     17131
     17130     17129     17132     17131     17129     17132     17129     17132     17133
     17129     17132     17134     17133     17132     17134     17132     17134     17135
     17132     17134     17136     17135     17134     17136     17134     17136     17137
     17134     17136     17138     17134     17136     17139     17137     17136     17138
     17137     17136     17139     17138     17136     17139     17136     17139     17140
     17136     17139     17141     17140     17139     17141     17139     17141     17142
     17139     17141     17143     17142     17141     17143     17141     17143     17144
     17141     17143     17145     17141     17143     17146     17144     17143     17145
     17144     17143     17146     17145     17143     17146     17143     17146     17147
     17143     17146     17148     17147     17146     17148     17146     17148     17149
     17146     17148     17150     17149     17148     17150     17148     17150     17151
     17148     17150     17152     17148     17150     17153     17151     17150     17152
     17151     17150     17153     17152     17150     17153     17150     17153     17154
     17150     17153     17155     17150     17153     17156     17154     17153     17155
     17154     17153     17156     17155     17153     17156     17153     17156     17157
     17153     17156     17158     17153     17156     17159     17157     17156     17158
     17157     17156     17159     17158     17156     17159     17156     17159     17160
     17156     17159     17161     17156     17159     17162     17160     17159     17161
     17160     17159     17162     17161     17159     17162     17159     17162     17163
     17159     17162     17164     17159     17162     17165     17163     17162     17164
     17163     17162     17165     17164     17162     17165     17116     17166     17167
     17116     17166     17168     17116     17166     17169     17167     17166     17168
     17167     17166     17169     17168     17166     17169     17166     17169     17170
     17166     17169     17171     17166     17169     17172     17170     17169     17171
     17170     17169     17172     17171     17169     17172     17169     17172     17173
     17169     17172     17174     17169     17172     17175     17173     17172     17174
     17173     17172     17175     17174     17172     17175     17172     17175     17176
     17172     17175     17177     17172     17175     17178     17176     17175     17177
     17176     17175     17178     17177     17175     17178     17175     17178     17179
     17175     17178     17180     17175     17178     17181     17179     17178     17180
     17179     17178     17181     17180     17178     17181     17178     17181     17182
     17178     17181     17183     17178     17181     17184     17182     17181     17183
     17182     17181     17184     17183     17181     17184     17181     17184     17185
     17181     17184     17186     17181     17184     17187     17185     17184     17186
     17185     17184     17187     17186     17184     17187     17184     17187     17188
     17184     17187     17189     17184     17187     17190     17188     17187     17189
     17188     17187     17190     17189     17187     17190     17187     17190     17191
     17187     17190     17192     17187     17190     17193     17191     17190     17192
     17191     17190     17193     17192     17190     17193     17190     17193     17194
     17190     17193     17195     17190     17193     17196     17194     17193     17195
     17194     17193     17196     17195     17193     17196     17193     17196     17197
     17193     17196     17198     17193     17196     17199     17197     17196     17198
     17197     17196     17199     17198     17196     17199     17196     17199     17200
     17196     17199     17201     17196     17199     17202     17200     17199     17201
     17200     17199     17202     17201     17199     17202     17199     17202     17203
     17199     17202     17204     17199     17202     17205     17203     17202     17204
     17203     17202     17205     17204     17202     17205     17202     17205     17206
     17202     17205     17207     17202     17205     17208     17206     17205     17207
     17206     17205     17208     17207     17205     17208     17205     17208     17209
     17205     17208     17210     17205     17208     17211     17209     17208     17210
     17209     17208     17211     17210     17208     17211     17208     17211     17212
     17208     17211     17213     17208     17211     17214     17212     17211     17213
     17212     17211     17214     17213     17211     17214      1926      1925      1927
      1926      1925      1929      1926      1925      1971      1927      1925      1929
      1927      1925      1971      1929      1925      1971      1925      1927      1928
      1925      1929      1930      1925      1929      1931      1925      1929      1932
      1930      1929      1931      1930      1929      1932      1931      1929      1932
      1929      1932      1933      1929      1932      1963      1933      1932      1963
      1932      1933      1934      1932      1933      1935      1934      1933      1935
      1933      1935      1936      1933      1935      1937      1933      1935      1938
      1936      1935      1937      1936      1935      1938      1937      1935      1938
      1935      1938      1939      1935      1938      1940      1935      1938      1961
      1939      1938      1940      1939      1938      1961      1940      1938      1961
      1938      1940      1941      1938      1940      1942      1938      1940      1950
      1941      1940      1942      1941      1940      1950      1942      1940      1950
      1940      1942      1943      1940      1942      1944      1940      1942      1945
      1943      1942      1944      1943      1942      1945      1944      1942      1945
      1942      1945      1946      1942      1945      1947      1942      1945      1948
      1946      1945      1947      1946      1945      1948      1947      1945      1948
      1945      1948      1949      1945      1948      1950      1945      1948      1974
      1949      1948      1950      1949      1948      1974      1950      1948      1974
      1940      1950      1948      1940      1950      1951      1940      1950      1955
      1948      1950      1951      1948      1950      1955      1951      1950      1955
      1950      1951      1952      1950      1951      1953      1950      1951      1954
      1952      1951      1953      1952      1951      1954      1953      1951      1954
      1950      1955      1956      1950      1955      1957      1950      1955      1958
      1956      1955      1957      1956      1955      1958      1957      1955      1958
      1955      1958      1959      1955      1958      1960      1955      1958      1961
      1959      1958      1960      1959      1958      1961      1960      1958      1961
      1938      1961      1958      1938      1961      1962      1938      1961      1963
      1958      1961      1962      1958      1961      1963      1962      1961      1963
      1932      1963      1961      1932      1963      1964      1932      1963      1968
      1961      1963      1964      1961      1963      1968      1964      1963      1968
      1963      1964      1965      1963      1964      1966      1963      1964      1967
      1965      1964      1966      1965      1964      1967      1966      1964      1967
      1963      1968      1969      1963      1968      1970      1963      1968      1971
      1969      1968      1970      1969      1968      1971      1970      1968      1971
      1925      1971      1968      1925      1971      1972      1925      1971      1973
      1968      1971      1972      1968      1971      1973      1972      1971      1973
      1948      1974      1975      1948      1974      1976      1948      1974      1980
      1975      1974      1976      1975      1974      1980      1976      1974      1980
      1974      1976      1977      1974      1976      1978      1974      1976      1979
      1977      1976      1978      1977      1976      1979      1978      1976      1979
      1974      1980      1981      1974      1980      1982      1974      1980      1983
      1981      1980      1982      1981      1980      1983      1982      1980      1983
      1980      1983      1984      1980      1983      1985      1980      1983      1986
      1984      1983      1985      1984      1983      1986      1985      1983      1986
      1983      1986      1987      1983      1986      1988      1983      1986      1989
      1987      1986      1988      1987      1986      1989      1988      1986      1989
      1986      1989      1990      1986      1989      1991      1986      1989      1995
      1990      1989      1991      1990      1989      1995      1991      1989      1995
      1989      1991      1992      1989      1991      1993      1989      1991      1994
      1992      1991      1993      1992      1991      1994      1993      1991      1994
      1989      1995      1996      1989      1995      1997      1989      1995      1998
      1996      1995      1997      1996      1995      1998      1997      1995      1998
      4846      4845      4849      4846      4845      4853      4846      4845      4857
      4849      4845      4853      4849      4845      4857      4853      4845      4857
      4845      4846      4847      4845      4846      4848      4845      4846      4861
      4847      4846      4848      4847      4846      4861      4848      4846      4861
      4845      4849      4850      4845      4849      4851      4845      4849      4852
      4850      4849      4851      4850      4849      4852      4851      4849      4852
      4845      4853      4854      4845      4853      4855      4845      4853      4856
      4854      4853      4855      4854      4853      4856      4855      4853      4856
      4845      4857      4858      4845      4857      4859      4845      4857      4860
      4858      4857      4859      4858      4857      4860      4859      4857      4860
      4846      4861      4862      4846      4861      4863      4846      4861      4867
      4862      4861      4863      4862      4861      4867      4863      4861      4867
      4865      4864      4866      4865      4864      4867      4865      4864      4868
      4866      4864      4867      4866      4864      4868      4867      4864      4868
      4861      4867      4864      4864      4868      4869      4868      4869      4870
      4868      4869      4871      4868      4869      4872      4870      4869      4871
      4870      4869      4872      4871      4869      4872      4869      4872      4873
      4869      4872      4874      4869      4872      4880      4873      4872      4874
      4873      4872      4880      4874      4872      4880      4872      4874      4875
      4874      4875      4876      4874      4875      4877      4876      4875      4877
      4875      4877      4878      4875      4877      4879      4875      4877      4889
      4878      4877      4879      4878      4877      4889      4879      4877      4889
      4872      4880      4881      4872      4880      4882      4872      4880      4883
      4881      4880      4882      4881      4880      4883      4882      4880      4883
      4880      4883      4884      4883      4884      4885      4883      4884      4886
      4885      4884      4886      4884      4886      4887      4884      4886      4888
      4884      4886      4936      4887      4886      4888      4887      4886      4936
      4888      4886      4936      4877      4889      4890      4877      4889      4891
      4877      4889      4892      4890      4889      4891      4890      4889      4892
      4891      4889      4892      4889      4892      4893      4889      4892      4894
      4889      4892      4895      4893      4892      4894      4893      4892      4895
      4894      4892      4895      4892      4895      4896      4892      4895      4897
      4896      4895      4897      4895      4897      4898      4895      4897      4899
      4898      4897      4899      4897      4899      4900      4897      4899      4901
      4897      4899      4902      4900      4899      4901      4900      4899      4902
      4901      4899      4902      4899      4902      4903      4899      4902      4904
      4903      4902      4904      4902      4904      4905      4902      4904      4906
      4905      4904      4906      4904      4906      4907      4904      4906      4908
      4904      4906      4909      4907      4906      4908      4907      4906      4909
      4908      4906      4909      4906      4909      4910      4906      4909      4911
      4910      4909      4911      4909      4911      4912      4909      4911      4913
      4912      4911      4913      4911      4913      4914      4911      4913      4915
      4911      4913      4916      4914      4913      4915      4914      4913      4916
      4915      4913      4916      4913      4916      4917      4913      4916      4918
      4917      4916      4918      4916      4918      4919      4916      4918      4920
      4919      4918      4920      4918      4920      4921      4918      4920      4922
      4918      4920      4923      4921      4920      4922      4921      4920      4923
      4922      4920      4923      4920      4923      4924      4920      4923      4925
      4920      4923      4926      4924      4923      4925      4924      4923      4926
      4925      4923      4926      4923      4926      4927      4923      4926      4928
      4923      4926      4929      4927      4926      4928      4927      4926      4929
      4928      4926      4929      4926      4929      4930      4926      4929      4931
      4926      4929      4932      4930      4929      4931      4930      4929      4932
      4931      4929      4932      4929      4932      4933      4929      4932      4934
      4929      4932      4935      4933      4932      4934      4933      4932      4935
      4934      4932      4935      4886      4936      4937      4886      4936      4938
      4886      4936      4939      4937      4936      4938      4937      4936      4939
      4938      4936      4939      4936      4939      4940      4936      4939      4941
      4936      4939      4942      4940      4939      4941      4940      4939      4942
      4941      4939      4942      4939      4942      4943      4939      4942      4944
      4939      4942      4945      4943      4942      4944      4943      4942      4945
      4944      4942      4945      4942      4945      4946      4942      4945      4947
      4942      4945      4948      4946      4945      4947      4946      4945      4948
      4947      4945      4948      4945      4948      4949      4945      4948      4950
      4945      4948      4951      4949      4948      4950      4949      4948      4951
      4950      4948      4951      4948      4951      4952      4948      4951      4953
      4948      4951      4954      4952      4951      4953      4952      4951      4954
      4953      4951      4954      4951      4954      4955      4951      4954      4956
      4951      4954      4957      4955      4954      4956      4955      4954      4957
      4956      4954      4957      4954      4957      4958      4954      4957      4959
      4954      4957      4960      4958      4957      4959      4958      4957      4960
      4959      4957      4960      4957      4960      4961      4957      4960      4962
      4957      4960      4963      4961      4960      4962      4961      4960      4963
      4962      4960      4963      4960      4963      4964      4960      4963      4965
      4960      4963      4966      4964      4963      4965      4964      4963      4966
      4965      4963      4966      4963      4966      4967      4963      4966      4968
      4963      4966      4969      4967      4966      4968      4967      4966      4969
      4968      4966      4969      4966      4969      4970      4966      4969      4971
      4966      4969      4972      4970      4969      4971      4970      4969      4972
      4971      4969      4972      4969      4972      4973      4969      4972      4974
      4969      4972      4975      4973      4972      4974      4973      4972      4975
      4974      4972      4975      4972      4975      4976      4972      4975      4977
      4972      4975      4978      4976      4975      4977      4976      4975      4978
      4977      4975      4978      4975      4978      4979      4975      4978      4980
      4975      4978      4981      4979      4978      4980      4979      4978      4981
      4980      4978      4981      4978      4981      4982      4978      4981      4983
      4978      4981      4984      4982      4981      4983      4982      4981      4984
      4983      4981      4984     17216     17215     17217     17216     17215     17218
     17216     17215     17219     17217     17215     17218     17217     17215     17219
     17218     17215     17219     17215     17219     17220     17215     17219     17221
     17215     17219     17222     17220     17219     17221     17220     17219     17222
     17221     17219     17222     17219     17222     17223     17219     17222     17224
     17219     17222     17228     17223     17222     17224     17223     17222     17228
     17224     17222     17228     17226     17225     17227     17226     17225     17228
     17226     17225     17229     17227     17225     17228     17227     17225     17229
     17228     17225     17229     17222     17228     17225     17225     17229     17230
     17229     17230     17231     17229     17230     17232     17229     17230     17233
     17231     17230     17232     17231     17230     17233     17232     17230     17233
     17230     17233     17234     17230     17233     17235     17230     17233     17241
     17234     17233     17235     17234     17233     17241     17235     17233     17241
     17233     17235     17236     17235     17236     17237     17235     17236     17238
     17237     17236     17238     17236     17238     17239     17236     17238     17240
     17236     17238     17250     17239     17238     17240     17239     17238     17250
     17240     17238     17250     17233     17241     17242     17233     17241     17243
     17233     17241     17244     17242     17241     17243     17242     17241     17244
     17243     17241     17244     17241     17244     17245     17244     17245     17246
     17244     17245     17247     17246     17245     17247     17245     17247     17248
     17245     17247     17249     17245     17247     17297     17248     17247     17249
     17248     17247     17297     17249     17247     17297     17238     17250     17251
     17238     17250     17252     17238     17250     17253     17251     17250     17252
     17251     17250     17253     17252     17250     17253     17250     17253     17254
     17250     17253     17255     17250     17253     17256     17254     17253     17255
     17254     17253     17256     17255     17253     17256     17253     17256     17257
     17253     17256     17258     17257     17256     17258     17256     17258     17259
     17256     17258     17260     17259     17258     17260     17258     17260     17261
     17258     17260     17262     17258     17260     17263     17261     17260     17262
     17261     17260     17263     17262     17260     17263     17260     17263     17264
     17260     17263     17265     17264     17263     17265     17263     17265     17266
     17263     17265     17267     17266     17265     17267     17265     17267     17268
     17265     17267     17269     17265     17267     17270     17268     17267     17269
     17268     17267     17270     17269     17267     17270     17267     17270     17271
     17267     17270     17272     17271     17270     17272     17270     17272     17273
     17270     17272     17274     17273     17272     17274     17272     17274     17275
     17272     17274     17276     17272     17274     17277     17275     17274     17276
     17275     17274     17277     17276     17274     17277     17274     17277     17278
     17274     17277     17279     17278     17277     17279     17277     17279     17280
     17277     17279     17281     17280     17279     17281     17279     17281     17282
     17279     17281     17283     17279     17281     17284     17282     17281     17283
     17282     17281     17284     17283     17281     17284     17281     17284     17285
     17281     17284     17286     17281     17284     17287     17285     17284     17286
     17285     17284     17287     17286     17284     17287     17284     17287     17288
     17284     17287     17289     17284     17287     17290     17288     17287     17289
     17288     17287     17290     17289     17287     17290     17287     17290     17291
     17287     17290     17292     17287     17290     17293     17291     17290     17292
     17291     17290     17293     17292     17290     17293     17290     17293     17294
     17290     17293     17295     17290     17293     17296     17294     17293     17295
     17294     17293     17296     17295     17293     17296     17247     17297     17298
     17247     17297     17299     17247     17297     17300     17298     17297     17299
     17298     17297     17300     17299     17297     17300     17297     17300     17301
     17297     17300     17302     17297     17300     17303     17301     17300     17302
     17301     17300     17303     17302     17300     17303     17300     17303     17304
     17300     17303     17305     17300     17303     17306     17304     17303     17305
     17304     17303     17306     17305     17303     17306     17303     17306     17307
     17303     17306     17308     17303     17306     17309     17307     17306     17308
     17307     17306     17309     17308     17306     17309     17306     17309     17310
     17306     17309     17311     17306     17309     17312     17310     17309     17311
     17310     17309     17312     17311     17309     17312     17309     17312     17313
     17309     17312     17314     17309     17312     17315     17313     17312     17314
     17313     17312     17315     17314     17312     17315     17312     17315     17316
     17312     17315     17317     17312     17315     17318     17316     17315     17317
     17316     17315     17318     17317     17315     17318     17315     17318     17319
     17315     17318     17320     17315     17318     17321     17319     17318     17320
     17319     17318     17321     17320     17318     17321     17318     17321     17322
     17318     17321     17323     17318     17321     17324     17322     17321     17323
     17322     17321     17324     17323     17321     17324     17321     17324     17325
     17321     17324     17326     17321     17324     17327     17325     17324     17326
     17325     17324     17327     17326     17324     17327     17324     17327     17328
     17324     17327     17329     17324     17327     17330     17328     17327     17329
     17328     17327     17330     17329     17327     17330     17327     17330     17331
     17327     17330     17332     17327     17330     17333     17331     17330     17332
     17331     17330     17333     17332     17330     17333     17330     17333     17334
     17330     17333     17335     17330     17333     17336     17334     17333     17335
     17334     17333     17336     17335     17333     17336     17333     17336     17337
     17333     17336     17338     17333     17336     17339     17337     17336     17338
     17337     17336     17339     17338     17336     17339     17336     17339     17340
     17336     17339     17341     17336     17339     17342     17340     17339     17341
     17340     17339     17342     17341     17339     17342     17339     17342     17343
     17339     17342     17344     17339     17342     17345     17343     17342     17344
     17343     17342     17345     17344     17342     17345     17347     17346     17348
     17347     17346     17349     17347     17346     17350     17348     17346     17349
     17348     17346     17350     17349     17346     17350     17346     17350     17351
     17346     17350     17352     17346     17350     17353     17351     17350     17352
     17351     17350     17353     17352     17350     17353     17350     17353     17354
     17350     17353     17355     17350     17353     17359     17354     17353     17355
     17354     17353     17359     17355     17353     17359     17357     17356     17358
     17357     17356     17359     17357     17356     17360     17358     17356     17359
     17358     17356     17360     17359     17356     17360     17353     17359     17356
     17356     17360     17361     17360     17361     17362     17360     17361     17363
     17360     17361     17364     17362     17361     17363     17362     17361     17364
     17363     17361     17364     17361     17364     17365     17361     17364     17366
     17361     17364     17372     17365     17364     17366     17365     17364     17372
     17366     17364     17372     17364     17366     17367     17366     17367     17368
     17366     17367     17369     17368     17367     17369     17367     17369     17370
     17367     17369     17371     17367     17369     17381     17370     17369     17371
     17370     17369     17381     17371     17369     17381     17364     17372     17373
     17364     17372     17374     17364     17372     17375     17373     17372     17374
     17373     17372     17375     17374     17372     17375     17372     17375     17376
     17375     17376     17377     17375     17376     17378     17377     17376     17378
     17376     17378     17379     17376     17378     17380     17376     17378     17428
     17379     17378     17380     17379     17378     17428     17380     17378     17428
     17369     17381     17382     17369     17381     17383     17369     17381     17384
     17382     17381     17383     17382     17381     17384     17383     17381     17384
     17381     17384     17385     17381     17384     17386     17381     17384     17387
     17385     17384     17386     17385     17384     17387     17386     17384     17387
     17384     17387     17388     17384     17387     17389     17388     17387     17389
     17387     17389     17390     17387     17389     17391     17390     17389     17391
     17389     17391     17392     17389     17391     17393     17389     17391     17394
     17392     17391     17393     17392     17391     17394     17393     17391     17394
     17391     17394     17395     17391     17394     17396     17395     17394     17396
     17394     17396     17397     17394     17396     17398     17397     17396     17398
     17396     17398     17399     17396     17398     17400     17396     17398     17401
     17399     17398     17400     17399     17398     17401     17400     17398     17401
     17398     17401     17402     17398     17401     17403     17402     17401     17403
     17401     17403     17404     17401     17403     17405     17404     17403     17405
     17403     17405     17406     17403     17405     17407     17403     17405     17408
     17406     17405     17407     17406     17405     17408     17407     17405     17408
     17405     17408     17409     17405     17408     17410     17409     17408     17410
     17408     17410     17411     17408     17410     17412     17411     17410     17412
     17410     17412     17413     17410     17412     17414     17410     17412     17415
     17413     17412     17414     17413     17412     17415     17414     17412     17415
     17412     17415     17416     17412     17415     17417     17412     17415     17418
     17416     17415     17417     17416     17415     17418     17417     17415     17418
     17415     17418     17419     17415     17418     17420     17415     17418     17421
     17419     17418     17420     17419     17418     17421     17420     17418     17421
     17418     17421     17422     17418     17421     17423     17418     17421     17424
     17422     17421     17423     17422     17421     17424     17423     17421     17424
     17421     17424     17425     17421     17424     17426     17421     17424     17427
     17425     17424     17426     17425     17424     17427     17426     17424     17427
     17378     17428     17429     17378     17428     17430     17378     17428     17431
     17429     17428     17430     17429     17428     17431     17430     17428     17431
     17428     17431     17432     17428     17431     17433     17428     17431     17434
     17432     17431     17433     17432     17431     17434     17433     17431     17434
     17431     17434     17435     17431     17434     17436     17431     17434     17437
     17435     17434     17436     17435     17434     17437     17436     17434     17437
     17434     17437     17438     17434     17437     17439     17434     17437     17440
     17438     17437     17439     17438     17437     17440     17439     17437     17440
     17437     17440     17441     17437     17440     17442     17437     17440     17443
     17441     17440     17442     17441     17440     17443     17442     17440     17443
     17440     17443     17444     17440     17443     17445     17440     17443     17446
     17444     17443     17445     17444     17443     17446     17445     17443     17446
     17443     17446     17447     17443     17446     17448     17443     17446     17449
     17447     17446     17448     17447     17446     17449     17448     17446     17449
     17446     17449     17450     17446     17449     17451     17446     17449     17452
     17450     17449     17451     17450     17449     17452     17451     17449     17452
     17449     17452     17453     17449     17452     17454     17449     17452     17455
     17453     17452     17454     17453     17452     17455     17454     17452     17455
     17452     17455     17456     17452     17455     17457     17452     17455     17458
     17456     17455     17457     17456     17455     17458     17457     17455     17458
     17455     17458     17459     17455     17458     17460     17455     17458     17461
     17459     17458     17460     17459     17458     17461     17460     17458     17461
     17458     17461     17462     17458     17461     17463     17458     17461     17464
     17462     17461     17463     17462     17461     17464     17463     17461     17464
     17461     17464     17465     17461     17464     17466     17461     17464     17467
     17465     17464     17466     17465     17464     17467     17466     17464     17467
     17464     17467     17468     17464     17467     17469     17464     17467     17470
     17468     17467     17469     17468     17467     17470     17469     17467     17470
     17467     17470     17471     17467     17470     17472     17467     17470     17473
     17471     17470     17472     17471     17470     17473     17472     17470     17473
     17470     17473     17474     17470     17473     17475     17470     17473     17476
     17474     17473     17475     17474     17473     17476     17475     17473     17476
     17478     17477     17479     17478     17477     17480     17478     17477     17481
     17479     17477     17480     17479     17477     17481     17480     17477     17481
     17477     17481     17482     17477     17481     17483     17477     17481     17484
     17482     17481     17483     17482     17481     17484     17483     17481     17484
     17481     17484     17485     17481     17484     17486     17481     17484     17490
     17485     17484     17486     17485     17484     17490     17486     17484     17490
     17488     17487     17489     17488     17487     17490     17488     17487     17491
     17489     17487     17490     17489     17487     17491     17490     17487     17491
     17484     17490     17487     17487     17491     17492     17491     17492     17493
     17491     17492     17494     17491     17492     17495     17493     17492     17494
     17493     17492     17495     17494     17492     17495     17492     17495     17496
     17492     17495     17497     17492     17495     17503     17496     17495     17497
     17496     17495     17503     17497     17495     17503     17495     17497     17498
     17497     17498     17499     17497     17498     17500     17499     17498     17500
     17498     17500     17501     17498     17500     17502     17498     17500     17512
     17501     17500     17502     17501     17500     17512     17502     17500     17512
     17495     17503     17504     17495     17503     17505     17495     17503     17506
     17504     17503     17505     17504     17503     17506     17505     17503     17506
     17503     17506     17507     17506     17507     17508     17506     17507     17509
     17508     17507     17509     17507     17509     17510     17507     17509     17511
     17507     17509     17559     17510     17509     17511     17510     17509     17559
     17511     17509     17559     17500     17512     17513     17500     17512     17514
     17500     17512     17515     17513     17512     17514     17513     17512     17515
     17514     17512     17515     17512     17515     17516     17512     17515     17517
     17512     17515     17518     17516     17515     17517     17516     17515     17518
     17517     17515     17518     17515     17518     17519     17515     17518     17520
     17519     17518     17520     17518     17520     17521     17518     17520     17522
     17521     17520     17522     17520     17522     17523     17520     17522     17524
     17520     17522     17525     17523     17522     17524     17523     17522     17525
     17524     17522     17525     17522     17525     17526     17522     17525     17527
     17526     17525     17527     17525     17527     17528     17525     17527     17529
     17528     17527     17529     17527     17529     17530     17527     17529     17531
     17527     17529     17532     17530     17529     17531     17530     17529     17532
     17531     17529     17532     17529     17532     17533     17529     17532     17534
     17533     17532     17534     17532     17534     17535     17532     17534     17536
     17535     17534     17536     17534     17536     17537     17534     17536     17538
     17534     17536     17539     17537     17536     17538     17537     17536     17539
     17538     17536     17539     17536     17539     17540     17536     17539     17541
     17540     17539     17541     17539     17541     17542     17539     17541     17543
     17542     17541     17543     17541     17543     17544     17541     17543     17545
     17541     17543     17546     17544     17543     17545     17544     17543     17546
     17545     17543     17546     17543     17546     17547     17543     17546     17548
     17543     17546     17549     17547     17546     17548     17547     17546     17549
     17548     17546     17549     17546     17549     17550     17546     17549     17551
     17546     17549     17552     17550     17549     17551     17550     17549     17552
     17551     17549     17552     17549     17552     17553     17549     17552     17554
     17549     17552     17555     17553     17552     17554     17553     17552     17555
     17554     17552     17555     17552     17555     17556     17552     17555     17557
     17552     17555     17558     17556     17555     17557     17556     17555     17558
     17557     17555     17558     17509     17559     17560     17509     17559     17561
     17509     17559     17562     17560     17559     17561     17560     17559     17562
     17561     17559     17562     17559     17562     17563     17559     17562     17564
     17559     17562     17565     17563     17562     17564     17563     17562     17565
     17564     17562     17565     17562     17565     17566     17562     17565     17567
     17562     17565     17568     17566     17565     17567     17566     17565     17568
     17567     17565     17568     17565     17568     17569     17565     17568     17570
     17565     17568     17571     17569     17568     17570     17569     17568     17571
     17570     17568     17571     17568     17571     17572     17568     17571     17573
     17568     17571     17574     17572     17571     17573     17572     17571     17574
     17573     17571     17574     17571     17574     17575     17571     17574     17576
     17571     17574     17577     17575     17574     17576     17575     17574     17577
     17576     17574     17577     17574     17577     17578     17574     17577     17579
     17574     17577     17580     17578     17577     17579     17578     17577     17580
     17579     17577     17580     17577     17580     17581     17577     17580     17582
     17577     17580     17583     17581     17580     17582     17581     17580     17583
     17582     17580     17583     17580     17583     17584     17580     17583     17585
     17580     17583     17586     17584     17583     17585     17584     17583     17586
     17585     17583     17586     17583     17586     17587     17583     17586     17588
     17583     17586     17589     17587     17586     17588     17587     17586     17589
     17588     17586     17589     17586     17589     17590     17586     17589     17591
     17586     17589     17592     17590     17589     17591     17590     17589     17592
     17591     17589     17592     17589     17592     17593     17589     17592     17594
     17589     17592     17595     17593     17592     17594     17593     17592     17595
     17594     17592     17595     17592     17595     17596     17592     17595     17597
     17592     17595     17598     17596     17595     17597     17596     17595     17598
     17597     17595     17598     17595     17598     17599     17595     17598     17600
     17595     17598     17601     17599     17598     17600     17599     17598     17601
     17600     17598     17601     17598     17601     17602     17598     17601     17603
     17598     17601     17604     17602     17601     17603     17602     17601     17604
     17603     17601     17604     17601     17604     17605     17601     17604     17606
     17601     17604     17607     17605     17604     17606     17605     17604     17607
     17606     17604     17607      8546      8545      8547      8546      8545      8548
      8546      8545      8549      8547      8545      8548      8547      8545      8549
      8548      8545      8549      8545      8549      8550      8545      8549      8551
      8545      8549      8554      8550      8549      8551      8550      8549      8554
      8551      8549      8554      8549      8551      8552      8549      8551      8553
      8552      8551      8553      8549      8554      8555      8549      8554      8556
      8549      8554      8560      8555      8554      8556      8555      8554      8560
      8556      8554      8560      8558      8557      8559      8558      8557      8560
      8558      8557      8561      8559      8557      8560      8559      8557      8561
      8560      8557      8561      8554      8560      8557      8557      8561      8562
      8561      8562      8563      8561      8562      8564      8561      8562      8565
      8563      8562      8564      8563      8562      8565      8564      8562      8565
      8562      8565      8566      8562      8565      8567      8562      8565      8573
      8566      8565      8567      8566      8565      8573      8567      8565      8573
      8565      8567      8568      8567      8568      8569      8567      8568      8570
      8569      8568      8570      8568      8570      8571      8568      8570      8572
      8568      8570      8582      8571      8570      8572      8571      8570      8582
      8572      8570      8582      8565      8573      8574      8565      8573      8575
      8565      8573      8576      8574      8573      8575      8574      8573      8576
      8575      8573      8576      8573      8576      8577      8576      8577      8578
      8576      8577      8579      8578      8577      8579      8577      8579      8580
      8577      8579      8581      8577      8579      8629      8580      8579      8581
      8580      8579      8629      8581      8579      8629      8570      8582      8583
      8570      8582      8584      8570      8582      8585      8583      8582      8584
      8583      8582      8585      8584      8582      8585      8582      8585      8586
      8582      8585      8587      8582      8585      8588      8586      8585      8587
      8586      8585      8588      8587      8585      8588      8585      8588      8589
      8585      8588      8590      8589      8588      8590      8588      8590      8591
      8588      8590      8592      8591      8590      8592      8590      8592      8593
      8590      8592      8594      8590      8592      8595      8593      8592      8594
      8593      8592      8595      8594      8592      8595      8592      8595      8596
      8592      8595      8597      8596      8595      8597      8595      8597      8598
      8595      8597      8599      8598      8597      8599      8597      8599      8600
      8597      8599      8601      8597      8599      8602      8600      8599      8601
      8600      8599      8602      8601      8599      8602      8599      8602      8603
      8599      8602      8604      8603      8602      8604      8602      8604      8605
      8602      8604      8606      8605      8604      8606      8604      8606      8607
      8604      8606      8608      8604      8606      8609      8607      8606      8608
      8607      8606      8609      8608      8606      8609      8606      8609      8610
      8606      8609      8611      8610      8609      8611      8609      8611      8612
      8609      8611      8613      8612      8611      8613      8611      8613      8614
      8611      8613      8615      8611      8613      8616      8614      8613      8615
      8614      8613      8616      8615      8613      8616      8613      8616      8617
      8613      8616      8618      8613      8616      8619      8617      8616      8618
      8617      8616      8619      8618      8616      8619      8616      8619      8620
      8616      8619      8621      8616      8619      8622      8620      8619      8621
      8620      8619      8622      8621      8619      8622      8619      8622      8623
      8619      8622      8624      8619      8622      8625      8623      8622      8624
      8623      8622      8625      8624      8622      8625      8622      8625      8626
      8622      8625      8627      8622      8625      8628      8626      8625      8627
      8626      8625      8628      8627      8625      8628      8579      8629      8630
      8579      8629      8631      8579      8629      8632      8630      8629      8631
      8630      8629      8632      8631      8629      8632      8629      8632      8633
      8629      8632      8634      8629      8632      8635      8633      8632      8634
      8633      8632      8635      8634      8632      8635      8632      8635      8636
      8632      8635      8637      8632      8635      8638      8636      8635      8637
      8636      8635      8638      8637      8635      8638      8635      8638      8639
      8635      8638      8640      8635      8638      8641      8639      8638      8640
      8639      8638      8641      8640      8638      8641      8638      8641      8642
      8638      8641      8643      8638      8641      8644      8642      8641      8643
      8642      8641      8644      8643      8641      8644      8641      8644      8645
      8641      8644      8646      8641      8644      8647      8645      8644      8646
      8645      8644      8647      8646      8644      8647      8644      8647      8648
      8644      8647      8649      8644      8647      8650      8648      8647      8649
      8648      8647      8650      8649      8647      8650      8647      8650      8651
      8647      8650      8652      8647      8650      8653      8651      8650      8652
      8651      8650      8653      8652      8650      8653      8650      8653      8654
      8650      8653      8655      8650      8653      8656      8654      8653      8655
      8654      8653      8656      8655      8653      8656      8653      8656      8657
      8653      8656      8658      8653      8656      8659      8657      8656      8658
      8657      8656      8659      8658      8656      8659      8656      8659      8660
      8656      8659      8661      8656      8659      8662      8660      8659      8661
      8660      8659      8662      8661      8659      8662      8659      8662      8663
      8659      8662      8664      8659      8662      8665      8663      8662      8664
      8663      8662      8665      8664      8662      8665      8662      8665      8666
      8662      8665      8667      8662      8665      8668      8666      8665      8667
      8666      8665      8668      8667      8665      8668      8665      8668      8669
      8665      8668      8670      8665      8668      8671      8669      8668      8670
      8669      8668      8671      8670      8668      8671      8668      8671      8672
      8668      8671      8673      8668      8671      8674      8672      8671      8673
      8672      8671      8674      8673      8671      8674      8671      8674      8675
      8671      8674      8676      8671      8674      8677      8675      8674      8676
      8675      8674      8677      8676      8674      8677      2000      1999      2001
      2000      1999      2003      2000      1999      2045      2001      1999      2003
      2001      1999      2045      2003      1999      2045      1999      2001      2002
      1999      2003      2004      1999      2003      2005      1999      2003      2006
      2004      2003      2005      2004      2003      2006      2005      2003      2006
      2003      2006      2007      2003      2006      2037      2007      2006      2037
      2006      2007      2008      2006      2007      2009      2008      2007      2009
      2007      2009      2010      2007      2009      2011      2007      2009      2012
      2010      2009      2011      2010      2009      2012      2011      2009      2012
      2009      2012      2013      2009      2012      2014      2009      2012      2035
      2013      2012      2014      2013      2012      2035      2014      2012      2035
      2012      2014      2015      2012      2014      2016      2012      2014      2024
      2015      2014      2016      2015      2014      2024      2016      2014      2024
      2014      2016      2017      2014      2016      2018      2014      2016      2019
      2017      2016      2018      2017      2016      2019      2018      2016      2019
      2016      2019      2020      2016      2019      2021      2016      2019      2022
      2020      2019      2021      2020      2019      2022      2021      2019      2022
      2019      2022      2023      2019      2022      2024      2019      2022      2048
      2023      2022      2024      2023      2022      2048      2024      2022      2048
      2014      2024      2022      2014      2024      2025      2014      2024      2029
      2022      2024      2025      2022      2024      2029      2025      2024      2029
      2024      2025      2026      2024      2025      2027      2024      2025      2028
      2026      2025      2027      2026      2025      2028      2027      2025      2028
      2024      2029      2030      2024      2029      2031      2024      2029      2032
      2030      2029      2031      2030      2029      2032      2031      2029      2032
      2029      2032      2033      2029      2032      2034      2029      2032      2035
      2033      2032      2034      2033      2032      2035      2034      2032      2035
      2012      2035      2032      2012      2035      2036      2012      2035      2037
      2032      2035      2036      2032      2035      2037      2036      2035      2037
      2006      2037      2035      2006      2037      2038      2006      2037      2042
      2035      2037      2038      2035      2037      2042      2038      2037      2042
      2037      2038      2039      2037      2038      2040      2037      2038      2041
      2039      2038      2040      2039      2038      2041      2040      2038      2041
      2037      2042      2043      2037      2042      2044      2037      2042      2045
      2043      2042      2044      2043      2042      2045      2044      2042      2045
      1999      2045      2042      1999      2045      2046      1999      2045      2047
      2042      2045      2046      2042      2045      2047      2046      2045      2047
      2022      2048      2049      2022      2048      2050      2022      2048      2054
      2049      2048      2050      2049      2048      2054      2050      2048      2054
      2048      2050      2051      2048      2050      2052      2048      2050      2053
      2051      2050      2052      2051      2050      2053      2052      2050      2053
      2048      2054      2055      2048      2054      2056      2048      2054      2057
      2055      2054      2056      2055      2054      2057      2056      2054      2057
      2054      2057      2058      2054      2057      2059      2054      2057      2060
      2058      2057      2059      2058      2057      2060      2059      2057      2060
      2057      2060      2061      2057      2060      2062      2057      2060      2063
      2061      2060      2062      2061      2060      2063      2062      2060      2063
      2060      2063      2064      2060      2063      2065      2060      2063      2069
      2064      2063      2065      2064      2063      2069      2065      2063      2069
      2063      2065      2066      2063      2065      2067      2063      2065      2068
      2066      2065      2067      2066      2065      2068      2067      2065      2068
      2063      2069      2070      2063      2069      2071      2063      2069      2072
      2070      2069      2071      2070      2069      2072      2071      2069      2072
     17609     17608     17610     17609     17608     17611     17609     17608     17612
     17610     17608     17611     17610     17608     17612     17611     17608     17612
     17608     17612     17613     17608     17612     17614     17608     17612     17615
     17613     17612     17614     17613     17612     17615     17614     17612     17615
     17612     17615     17616     17612     17615     17617     17612     17615     17621
     17616     17615     17617     17616     17615     17621     17617     17615     17621
     17619     17618     17620     17619     17618     17621     17619     17618     17622
     17620     17618     17621     17620     17618     17622     17621     17618     17622
     17615     17621     17618     17618     17622     17623     17622     17623     17624
     17622     17623     17625     17622     17623     17626     17624     17623     17625
     17624     17623     17626     17625     17623     17626     17623     17626     17627
     17623     17626     17628     17623     17626     17634     17627     17626     17628
     17627     17626     17634     17628     17626     17634     17626     17628     17629
     17628     17629     17630     17628     17629     17631     17630     17629     17631
     17629     17631     17632     17629     17631     17633     17629     17631     17643
     17632     17631     17633     17632     17631     17643     17633     17631     17643
     17626     17634     17635     17626     17634     17636     17626     17634     17637
     17635     17634     17636     17635     17634     17637     17636     17634     17637
     17634     17637     17638     17637     17638     17639     17637     17638     17640
     17639     17638     17640     17638     17640     17641     17638     17640     17642
     17638     17640     17690     17641     17640     17642     17641     17640     17690
     17642     17640     17690     17631     17643     17644     17631     17643     17645
     17631     17643     17646     17644     17643     17645     17644     17643     17646
     17645     17643     17646     17643     17646     17647     17643     17646     17648
     17643     17646     17649     17647     17646     17648     17647     17646     17649
     17648     17646     17649     17646     17649     17650     17646     17649     17651
     17650     17649     17651     17649     17651     17652     17649     17651     17653
     17652     17651     17653     17651     17653     17654     17651     17653     17655
     17651     17653     17656     17654     17653     17655     17654     17653     17656
     17655     17653     17656     17653     17656     17657     17653     17656     17658
     17657     17656     17658     17656     17658     17659     17656     17658     17660
     17659     17658     17660     17658     17660     17661     17658     17660     17662
     17658     17660     17663     17661     17660     17662     17661     17660     17663
     17662     17660     17663     17660     17663     17664     17660     17663     17665
     17664     17663     17665     17663     17665     17666     17663     17665     17667
     17666     17665     17667     17665     17667     17668     17665     17667     17669
     17665     17667     17670     17668     17667     17669     17668     17667     17670
     17669     17667     17670     17667     17670     17671     17667     17670     17672
     17671     17670     17672     17670     17672     17673     17670     17672     17674
     17673     17672     17674     17672     17674     17675     17672     17674     17676
     17672     17674     17677     17675     17674     17676     17675     17674     17677
     17676     17674     17677     17674     17677     17678     17674     17677     17679
     17674     17677     17680     17678     17677     17679     17678     17677     17680
     17679     17677     17680     17677     17680     17681     17677     17680     17682
     17677     17680     17683     17681     17680     17682     17681     17680     17683
     17682     17680     17683     17680     17683     17684     17680     17683     17685
     17680     17683     17686     17684     17683     17685     17684     17683     17686
     17685     17683     17686     17683     17686     17687     17683     17686     17688
     17683     17686     17689     17687     17686     17688     17687     17686     17689
     17688     17686     17689     17640     17690     17691     17640     17690     17692
     17640     17690     17693     17691     17690     17692     17691     17690     17693
     17692     17690     17693     17690     17693     17694     17690     17693     17695
     17690     17693     17696     17694     17693     17695     17694     17693     17696
     17695     17693     17696     17693     17696     17697     17693     17696     17698
     17693     17696     17699     17697     17696     17698     17697     17696     17699
     17698     17696     17699     17696     17699     17700     17696     17699     17701
     17696     17699     17702     17700     17699     17701     17700     17699     17702
     17701     17699     17702     17699     17702     17703     17699     17702     17704
     17699     17702     17705     17703     17702     17704     17703     17702     17705
     17704     17702     17705     17702     17705     17706     17702     17705     17707
     17702     17705     17708     17706     17705     17707     17706     17705     17708
     17707     17705     17708     17705     17708     17709     17705     17708     17710
     17705     17708     17711     17709     17708     17710     17709     17708     17711
     17710     17708     17711     17708     17711     17712     17708     17711     17713
     17708     17711     17714     17712     17711     17713     17712     17711     17714
     17713     17711     17714     17711     17714     17715     17711     17714     17716
     17711     17714     17717     17715     17714     17716     17715     17714     17717
     17716     17714     17717     17714     17717     17718     17714     17717     17719
     17714     17717     17720     17718     17717     17719     17718     17717     17720
     17719     17717     17720     17717     17720     17721     17717     17720     17722
     17717     17720     17723     17721     17720     17722     17721     17720     17723
     17722     17720     17723     17720     17723     17724     17720     17723     17725
     17720     17723     17726     17724     17723     17725     17724     17723     17726
     17725     17723     17726     17723     17726     17727     17723     17726     17728
     17723     17726     17729     17727     17726     17728     17727     17726     17729
     17728     17726     17729     17726     17729     17730     17726     17729     17731
     17726     17729     17732     17730     17729     17731     17730     17729     17732
     17731     17729     17732     17729     17732     17733     17729     17732     17734
     17729     17732     17735     17733     17732     17734     17733     17732     17735
     17734     17732     17735     17732     17735     17736     17732     17735     17737
     17732     17735     17738     17736     17735     17737     17736     17735     17738
     17737     17735     17738      8679      8678      8680      8679      8678      8681
      8679      8678      8682      8680      8678      8681      8680      8678      8682
      8681      8678      8682      8678      8682      8683      8678      8682      8684
      8678      8682      8687      8683      8682      8684      8683      8682      8687
      8684      8682      8687      8682      8684      8685      8682      8684      8686
      8685      8684      8686      8682      8687      8688      8682      8687      8689
      8682      8687      8693      8688      8687      8689      8688      8687      8693
      8689      8687      8693      8691      8690      8692      8691      8690      8693
      8691      8690      8694      8692      8690      8693      8692      8690      8694
      8693      8690      8694      8687      8693      8690      8690      8694      8695
      8694      8695      8696      8694      8695      8697      8694      8695      8698
      8696      8695      8697      8696      8695      8698      8697      8695      8698
      8695      8698      8699      8695      8698      8700      8695      8698      8706
      8699      8698      8700      8699      8698      8706      8700      8698      8706
      8698      8700      8701      8700      8701      8702      8700      8701      8703
      8702      8701      8703      8701      8703      8704      8701      8703      8705
      8701      8703      8715      8704      8703      8705      8704      8703      8715
      8705      8703      8715      8698      8706      8707      8698      8706      8708
      8698      8706      8709      8707      8706      8708      8707      8706      8709
      8708      8706      8709      8706      8709      8710      8709      8710      8711
      8709      8710      8712      8711      8710      8712      8710      8712      8713
      8710      8712      8714      8710      8712      8762      8713      8712      8714
      8713      8712      8762      8714      8712      8762      8703      8715      8716
      8703      8715      8717      8703      8715      8718      8716      8715      8717
      8716      8715      8718      8717      8715      8718      8715      8718      8719
      8715      8718      8720      8715      8718      8721      8719      8718      8720
      8719      8718      8721      8720      8718      8721      8718      8721      8722
      8718      8721      8723      8722      8721      8723      8721      8723      8724
      8721      8723      8725      8724      8723      8725      8723      8725      8726
      8723      8725      8727      8723      8725      8728      8726      8725      8727
      8726      8725      8728      8727      8725      8728      8725      8728      8729
      8725      8728      8730      8729      8728      8730      8728      8730      8731
      8728      8730      8732      8731      8730      8732      8730      8732      8733
      8730      8732      8734      8730      8732      8735      8733      8732      8734
      8733      8732      8735      8734      8732      8735      8732      8735      8736
      8732      8735      8737      8736      8735      8737      8735      8737      8738
      8735      8737      8739      8738      8737      8739      8737      8739      8740
      8737      8739      8741      8737      8739      8742      8740      8739      8741
      8740      8739      8742      8741      8739      8742      8739      8742      8743
      8739      8742      8744      8743      8742      8744      8742      8744      8745
      8742      8744      8746      8745      8744      8746      8744      8746      8747
      8744      8746      8748      8744      8746      8749      8747      8746      8748
      8747      8746      8749      8748      8746      8749      8746      8749      8750
      8746      8749      8751      8746      8749      8752      8750      8749      8751
      8750      8749      8752      8751      8749      8752      8749      8752      8753
      8749      8752      8754      8749      8752      8755      8753      8752      8754
      8753      8752      8755      8754      8752      8755      8752      8755      8756
      8752      8755      8757      8752      8755      8758      8756      8755      8757
      8756      8755      8758      8757      8755      8758      8755      8758      8759
      8755      8758      8760      8755      8758      8761      8759      8758      8760
      8759      8758      8761      8760      8758      8761      8712      8762      8763
      8712      8762      8764      8712      8762      8765      8763      8762      8764
      8763      8762      8765      8764      8762      8765      8762      8765      8766
      8762      8765      8767      8762      8765      8768      8766      8765      8767
      8766      8765      8768      8767      8765      8768      8765      8768      8769
      8765      8768      8770      8765      8768      8771      8769      8768      8770
      8769      8768      8771      8770      8768      8771      8768      8771      8772
      8768      8771      8773      8768      8771      8774      8772      8771      8773
      8772      8771      8774      8773      8771      8774      8771      8774      8775
      8771      8774      8776      8771      8774      8777      8775      8774      8776
      8775      8774      8777      8776      8774      8777      8774      8777      8778
      8774      8777      8779      8774      8777      8780      8778      8777      8779
      8778      8777      8780      8779      8777      8780      8777      8780      8781
      8777      8780      8782      8777      8780      8783      8781      8780      8782
      8781      8780      8783      8782      8780      8783      8780      8783      8784
      8780      8783      8785      8780      8783      8786      8784      8783      8785
      8784      8783      8786      8785      8783      8786      8783      8786      8787
      8783      8786      8788      8783      8786      8789      8787      8786      8788
      8787      8786      8789      8788      8786      8789      8786      8789      8790
      8786      8789      8791      8786      8789      8792      8790      8789      8791
      8790      8789      8792      8791      8789      8792      8789      8792      8793
      8789      8792      8794      8789      8792      8795      8793      8792      8794
      8793      8792      8795      8794      8792      8795      8792      8795      8796
      8792      8795      8797      8792      8795      8798      8796      8795      8797
      8796      8795      8798      8797      8795      8798      8795      8798      8799
      8795      8798      8800      8795      8798      8801      8799      8798      8800
      8799      8798      8801      8800      8798      8801      8798      8801      8802
      8798      8801      8803      8798      8801      8804      8802      8801      8803
      8802      8801      8804      8803      8801      8804      8801      8804      8805
      8801      8804      8806      8801      8804      8807      8805      8804      8806
      8805      8804      8807      8806      8804      8807      8804      8807      8808
      8804      8807      8809      8804      8807      8810      8808      8807      8809
      8808      8807      8810      8809      8807      8810     12893     12892     12897
     12893     12892     12901     12893     12892     12905     12897     12892     12901
     12897     12892     12905     12901     12892     12905     12892     12893     12894
     12892     12893     12895     12892     12893     12896     12894     12893     12895
     12894     12893     12896     12895     12893     12896     12892     12897     12898
     12892     12897     12899     12892     12897     12900     12898     12897     12899
     12898     12897     12900     12899     12897     12900     12892     12901     12902
     12892     12901     12903     12892     12901     12904     12902     12901     12903
     12902     12901     12904     12903     12901     12904     12892     12905     12906
     12892     12905     12907     12892     12905     12908     12906     12905     12907
     12906     12905     12908     12907     12905     12908     12905     12908     12909
     12905     12908     12910     12905     12908     12915     12909     12908     12910
     12909     12908     12915     12910     12908     12915     12912     12911     12913
     12912     12911     12914     12912     12911     12915     12913     12911     12914
     12913     12911     12915     12914     12911     12915     12911     12914     12916
     12908     12915     12911     12914     12916     12917     12914     12916     12918
     12914     12916     12921     12917     12916     12918     12917     12916     12921
     12918     12916     12921     12920     12919     12921     12920     12919     12971
     12921     12919     12971     12916     12921     12919     12916     12921     12922
     12916     12921     12923     12919     12921     12922     12919     12921     12923
     12922     12921     12923     12921     12923     12924     12921     12923     12925
     12921     12923     12927     12924     12923     12925     12924     12923     12927
     12925     12923     12927     12923     12925     12926     12923     12927     12928
     12923     12927     12929     12928     12927     12929     12927     12929     12930
     12927     12929     12931     12930     12929     12931     12929     12931     12932
     12929     12931     12933     12929     12931     12934     12932     12931     12933
     12932     12931     12934     12933     12931     12934     12931     12934     12935
     12931     12934     12936     12931     12934     12937     12935     12934     12936
     12935     12934     12937     12936     12934     12937     12934     12937     12938
     12934     12937     12939     12934     12937     12940     12938     12937     12939
     12938     12937     12940     12939     12937     12940     12937     12940     12941
     12937     12940     12942     12937     12940     12943     12941     12940     12942
     12941     12940     12943     12942     12940     12943     12940     12943     12944
     12940     12943     12945     12940     12943     12946     12944     12943     12945
     12944     12943     12946     12945     12943     12946     12943     12946     12947
     12943     12946     12948     12943     12946     12949     12947     12946     12948
     12947     12946     12949     12948     12946     12949     12946     12949     12950
     12946     12949     12951     12946     12949     12952     12950     12949     12951
     12950     12949     12952     12951     12949     12952     12949     12952     12953
     12949     12952     12954     12949     12952     12955     12953     12952     12954
     12953     12952     12955     12954     12952     12955     12952     12955     12956
     12952     12955     12957     12952     12955     12958     12956     12955     12957
     12956     12955     12958     12957     12955     12958     12955     12958     12959
     12955     12958     12960     12955     12958     12961     12959     12958     12960
     12959     12958     12961     12960     12958     12961     12958     12961     12962
     12958     12961     12963     12958     12961     12964     12962     12961     12963
     12962     12961     12964     12963     12961     12964     12961     12964     12965
     12961     12964     12966     12961     12964     12967     12965     12964     12966
     12965     12964     12967     12966     12964     12967     12964     12967     12968
     12964     12967     12969     12964     12967     12970     12968     12967     12969
     12968     12967     12970     12969     12967     12970     12919     12971     12972
     12919     12971     12973     12972     12971     12973     12971     12973     12974
     12971     12973     12975     12971     12973     12976     12974     12973     12975
     12974     12973     12976     12975     12973     12976     12973     12976     12977
     12973     12976     12978     12973     12976     12979     12977     12976     12978
     12977     12976     12979     12978     12976     12979     12976     12979     12980
     12976     12979     12981     12976     12979     12982     12980     12979     12981
     12980     12979     12982     12981     12979     12982     12979     12982     12983
     12979     12982     12984     12979     12982     12985     12983     12982     12984
     12983     12982     12985     12984     12982     12985     12982     12985     12986
     12982     12985     12987     12982     12985     12988     12986     12985     12987
     12986     12985     12988     12987     12985     12988     12985     12988     12989
     12985     12988     12990     12985     12988     12991     12989     12988     12990
     12989     12988     12991     12990     12988     12991     12988     12991     12992
     12988     12991     12993     12988     12991     12994     12992     12991     12993
     12992     12991     12994     12993     12991     12994     12991     12994     12995
     12991     12994     12996     12995     12994     12996     12994     12996     12997
     12994     12996     12998     12997     12996     12998     12996     12998     12999
     12996     12998     13000     12996     12998     13001     12999     12998     13000
     12999     12998     13001     13000     12998     13001     12998     13001     13002
     12998     13001     13003     12998     13001     13004     13002     13001     13003
     13002     13001     13004     13003     13001     13004     13001     13004     13005
     13001     13004     13006     13001     13004     13007     13005     13004     13006
     13005     13004     13007     13006     13004     13007     13004     13007     13008
     13004     13007     13009     13004     13007     13010     13008     13007     13009
     13008     13007     13010     13009     13007     13010     13007     13010     13011
     13007     13010     13012     13007     13010     13013     13011     13010     13012
     13011     13010     13013     13012     13010     13013     13010     13013     13014
     13010     13013     13015     13010     13013     13016     13014     13013     13015
     13014     13013     13016     13015     13013     13016     13013     13016     13017
     13013     13016     13018     13013     13016     13019     13017     13016     13018
     13017     13016     13019     13018     13016     13019     13016     13019     13020
     13016     13019     13021     13016     13019     13022     13020     13019     13021
     13020     13019     13022     13021     13019     13022      6516      6515      6520
      6516      6515      6524      6516      6515      6528      6520      6515      6524
      6520      6515      6528      6524      6515      6528      6515      6516      6517
      6515      6516      6518      6515      6516      6519      6517      6516      6518
      6517      6516      6519      6518      6516      6519      6515      6520      6521
      6515      6520      6522      6515      6520      6523      6521      6520      6522
      6521      6520      6523      6522      6520      6523      6515      6524      6525
      6515      6524      6526      6515      6524      6527      6525      6524      6526
      6525      6524      6527      6526      6524      6527      6515      6528      6529
      6515      6528      6530      6515      6528      6531      6529      6528      6530
      6529      6528      6531      6530      6528      6531      6528      6531      6532
      6528      6531      6533      6528      6531      6537      6532      6531      6533
      6532      6531      6537      6533      6531      6537      6535      6534      6536
      6535      6534      6537      6535      6534      6538      6536      6534      6537
      6536      6534      6538      6537      6534      6538      6531      6537      6534
      6534      6538      6539      6538      6539      6540      6538      6539      6541
      6538      6539      6542      6540      6539      6541      6540      6539      6542
      6541      6539      6542      6539      6542      6543      6539      6542      6544
      6539      6542      6550      6543      6542      6544      6543      6542      6550
      6544      6542      6550      6542      6544      6545      6544      6545      6546
      6544      6545      6547      6546      6545      6547      6545      6547      6548
      6545      6547      6549      6545      6547      6559      6548      6547      6549
      6548      6547      6559      6549      6547      6559      6542      6550      6551
      6542      6550      6552      6542      6550      6553      6551      6550      6552
      6551      6550      6553      6552      6550      6553      6550      6553      6554
      6553      6554      6555      6553      6554      6556      6555      6554      6556
      6554      6556      6557      6554      6556      6558      6554      6556      6604
      6557      6556      6558      6557      6556      6604      6558      6556      6604
      6547      6559      6560      6547      6559      6561      6547      6559      6562
      6560      6559      6561      6560      6559      6562      6561      6559      6562
      6559      6562      6563      6559      6562      6564      6559      6562      6565
      6563      6562      6564      6563      6562      6565      6564      6562      6565
      6562      6565      6566      6562      6565      6567      6562      6565      6568
      6566      6565      6567      6566      6565      6568      6567      6565      6568
      6565      6568      6569      6565      6568      6570      6565      6568      6571
      6569      6568      6570      6569      6568      6571      6570      6568      6571
      6568      6571      6572      6568      6571      6573      6568      6571      6574
      6572      6571      6573      6572      6571      6574      6573      6571      6574
      6571      6574      6575      6571      6574      6576      6571      6574      6577
      6575      6574      6576      6575      6574      6577      6576      6574      6577
      6574      6577      6578      6574      6577      6579      6578      6577      6579
      6577      6579      6580      6577      6579      6581      6580      6579      6581
      6579      6581      6582      6579      6581      6583      6579      6581      6584
      6582      6581      6583      6582      6581      6584      6583      6581      6584
      6581      6584      6585      6581      6584      6586      6585      6584      6586
      6584      6586      6587      6584      6586      6588      6587      6586      6588
      6586      6588      6589      6586      6588      6590      6586      6588      6591
      6589      6588      6590      6589      6588      6591      6590      6588      6591
      6588      6591      6592      6588      6591      6593      6588      6591      6594
      6592      6591      6593      6592      6591      6594      6593      6591      6594
      6591      6594      6595      6591      6594      6596      6591      6594      6597
      6595      6594      6596      6595      6594      6597      6596      6594      6597
      6594      6597      6598      6594      6597      6599      6594      6597      6600
      6598      6597      6599      6598      6597      6600      6599      6597      6600
      6597      6600      6601      6597      6600      6602      6597      6600      6603
      6601      6600      6602      6601      6600      6603      6602      6600      6603
      6556      6604      6605      6556      6604      6606      6556      6604      6607
      6605      6604      6606      6605      6604      6607      6606      6604      6607
      6604      6607      6608      6604      6607      6609      6604      6607      6610
      6608      6607      6609      6608      6607      6610      6609      6607      6610
      6607      6610      6611      6607      6610      6612      6607      6610      6613
      6611      6610      6612      6611      6610      6613      6612      6610      6613
      6610      6613      6614      6610      6613      6615      6610      6613      6616
      6614      6613      6615      6614      6613      6616      6615      6613      6616
      6613      6616      6617      6613      6616      6618      6613      6616      6619
      6617      6616      6618      6617      6616      6619      6618      6616      6619
      6616      6619      6620      6616      6619      6621      6616      6619      6622
      6620      6619      6621      6620      6619      6622      6621      6619      6622
      6619      6622      6623      6619      6622      6624      6619      6622      6625
      6623      6622      6624      6623      6622      6625      6624      6622      6625
      6622      6625      6626      6622      6625      6627      6622      6625      6628
      6626      6625      6627      6626      6625      6628      6627      6625      6628
      6625      6628      6629      6625      6628      6630      6625      6628      6631
      6629      6628      6630      6629      6628      6631      6630      6628      6631
      6628      6631      6632      6628      6631      6633      6628      6631      6634
      6632      6631      6633      6632      6631      6634      6633      6631      6634
      6631      6634      6635      6631      6634      6636      6631      6634      6637
      6635      6634      6636      6635      6634      6637      6636      6634      6637
      6634      6637      6638      6634      6637      6639      6634      6637      6640
      6638      6637      6639      6638      6637      6640      6639      6637      6640
      6637      6640      6641      6637      6640      6642      6637      6640      6643
      6641      6640      6642      6641      6640      6643      6642      6640      6643
      6640      6643      6644      6640      6643      6645      6640      6643      6646
      6644      6643      6645      6644      6643      6646      6645      6643      6646
      6643      6646      6647      6643      6646      6648      6643      6646      6649
      6647      6646      6648      6647      6646      6649      6648      6646      6649
      6646      6649      6650      6646      6649      6651      6646      6649      6652
      6650      6649      6651      6650      6649      6652      6651      6649      6652
      8812      8811      8813      8812      8811      8814      8812      8811      8815
      8813      8811      8814      8813      8811      8815      8814      8811      8815
      8811      8815      8816      8811      8815      8817      8811      8815      8820
      8816      8815      8817      8816      8815      8820      8817      8815      8820
      8815      8817      8818      8815      8817      8819      8818      8817      8819
      8815      8820      8821      8815      8820      8822      8815      8820      8826
      8821      8820      8822      8821      8820      8826      8822      8820      8826
      8824      8823      8825      8824      8823      8826      8824      8823      8827
      8825      8823      8826      8825      8823      8827      8826      8823      8827
      8820      8826      8823      8823      8827      8828      8827      8828      8829
      8827      8828      8830      8827      8828      8831      8829      8828      8830
      8829      8828      8831      8830      8828      8831      8828      8831      8832
      8828      8831      8833      8828      8831      8839      8832      8831      8833
      8832      8831      8839      8833      8831      8839      8831      8833      8834
      8833      8834      8835      8833      8834      8836      8835      8834      8836
      8834      8836      8837      8834      8836      8838      8834      8836      8848
      8837      8836      8838      8837      8836      8848      8838      8836      8848
      8831      8839      8840      8831      8839      8841      8831      8839      8842
      8840      8839      8841      8840      8839      8842      8841      8839      8842
      8839      8842      8843      8842      8843      8844      8842      8843      8845
      8844      8843      8845      8843      8845      8846      8843      8845      8847
      8843      8845      8895      8846      8845      8847      8846      8845      8895
      8847      8845      8895      8836      8848      8849      8836      8848      8850
      8836      8848      8851      8849      8848      8850      8849      8848      8851
      8850      8848      8851      8848      8851      8852      8848      8851      8853
      8848      8851      8854      8852      8851      8853      8852      8851      8854
      8853      8851      8854      8851      8854      8855      8851      8854      8856
      8855      8854      8856      8854      8856      8857      8854      8856      8858
      8857      8856      8858      8856      8858      8859      8856      8858      8860
      8856      8858      8861      8859      8858      8860      8859      8858      8861
      8860      8858      8861      8858      8861      8862      8858      8861      8863
      8862      8861      8863      8861      8863      8864      8861      8863      8865
      8864      8863      8865      8863      8865      8866      8863      8865      8867
      8863      8865      8868      8866      8865      8867      8866      8865      8868
      8867      8865      8868      8865      8868      8869      8865      8868      8870
      8869      8868      8870      8868      8870      8871      8868      8870      8872
      8871      8870      8872      8870      8872      8873      8870      8872      8874
      8870      8872      8875      8873      8872      8874      8873      8872      8875
      8874      8872      8875      8872      8875      8876      8872      8875      8877
      8876      8875      8877      8875      8877      8878      8875      8877      8879
      8878      8877      8879      8877      8879      8880      8877      8879      8881
      8877      8879      8882      8880      8879      8881      8880      8879      8882
      8881      8879      8882      8879      8882      8883      8879      8882      8884
      8879      8882      8885      8883      8882      8884      8883      8882      8885
      8884      8882      8885      8882      8885      8886      8882      8885      8887
      8882      8885      8888      8886      8885      8887      8886      8885      8888
      8887      8885      8888      8885      8888      8889      8885      8888      8890
      8885      8888      8891      8889      8888      8890      8889      8888      8891
      8890      8888      8891      8888      8891      8892      8888      8891      8893
      8888      8891      8894      8892      8891      8893      8892      8891      8894
      8893      8891      8894      8845      8895      8896      8845      8895      8897
      8845      8895      8898      8896      8895      8897      8896      8895      8898
      8897      8895      8898      8895      8898      8899      8895      8898      8900
      8895      8898      8901      8899      8898      8900      8899      8898      8901
      8900      8898      8901      8898      8901      8902      8898      8901      8903
      8898      8901      8904      8902      8901      8903      8902      8901      8904
      8903      8901      8904      8901      8904      8905      8901      8904      8906
      8901      8904      8907      8905      8904      8906      8905      8904      8907
      8906      8904      8907      8904      8907      8908      8904      8907      8909
      8904      8907      8910      8908      8907      8909      8908      8907      8910
      8909      8907      8910      8907      8910      8911      8907      8910      8912
      8907      8910      8913      8911      8910      8912      8911      8910      8913
      8912      8910      8913      8910      8913      8914      8910      8913      8915
      8910      8913      8916      8914      8913      8915      8914      8913      8916
      8915      8913      8916      8913      8916      8917      8913      8916      8918
      8913      8916      8919      8917      8916      8918      8917      8916      8919
      8918      8916      8919      8916      8919      8920      8916      8919      8921
      8916      8919      8922      8920      8919      8921      8920      8919      8922
      8921      8919      8922      8919      8922      8923      8919      8922      8924
      8919      8922      8925      8923      8922      8924      8923      8922      8925
      8924      8922      8925      8922      8925      8926      8922      8925      8927
      8922      8925      8928      8926      8925      8927      8926      8925      8928
      8927      8925      8928      8925      8928      8929      8925      8928      8930
      8925      8928      8931      8929      8928      8930      8929      8928      8931
      8930      8928      8931      8928      8931      8932      8928      8931      8933
      8928      8931      8934      8932      8931      8933      8932      8931      8934
      8933      8931      8934      8931      8934      8935      8931      8934      8936
      8931      8934      8937      8935      8934      8936      8935      8934      8937
      8936      8934      8937      8934      8937      8938      8934      8937      8939
      8934      8937      8940      8938      8937      8939      8938      8937      8940
      8939      8937      8940      8937      8940      8941      8937      8940      8942
      8937      8940      8943      8941      8940      8942      8941      8940      8943
      8942      8940      8943     20360     20359     20361     20360     20359     20362
     20360     20359     20363     20361     20359     20362     20361     20359     20363
     20362     20359     20363     20359     20363     20364     20359     20363     20365
     20359     20363     20366     20364     20363     20365     20364     20363     20366
     20365     20363     20366     20363     20366     20367     20363     20366     20368
     20363     20366     20372     20367     20366     20368     20367     20366     20372
     20368     20366     20372     20370     20369     20371     20370     20369     20372
     20370     20369     20373     20371     20369     20372     20371     20369     20373
     20372     20369     20373     20366     20372     20369     20369     20373     20374
     20373     20374     20375     20373     20374     20376     20373     20374     20377
     20375     20374     20376     20375     20374     20377     20376     20374     20377
     20374     20377     20378     20374     20377     20379     20374     20377     20385
     20378     20377     20379     20378     20377     20385     20379     20377     20385
     20377     20379     20380     20379     20380     20381     20379     20380     20382
     20381     20380     20382     20380     20382     20383     20380     20382     20384
     20380     20382     20394     20383     20382     20384     20383     20382     20394
     20384     20382     20394     20377     20385     20386     20377     20385     20387
     20377     20385     20388     20386     20385     20387     20386     20385     20388
     20387     20385     20388     20385     20388     20389     20388     20389     20390
     20388     20389     20391     20390     20389     20391     20389     20391     20392
     20389     20391     20393     20389     20391     20441     20392     20391     20393
     20392     20391     20441     20393     20391     20441     20382     20394     20395
     20382     20394     20396     20382     20394     20397     20395     20394     20396
     20395     20394     20397     20396     20394     20397     20394     20397     20398
     20394     20397     20399     20394     20397     20400     20398     20397     20399
     20398     20397     20400     20399     20397     20400     20397     20400     20401
     20397     20400     20402     20397     20400     20403     20401     20400     20402
     20401     20400     20403     20402     20400     20403     20400     20403     20404
     20400     20403     20405     20400     20403     20406     20404     20403     20405
     20404     20403     20406     20405     20403     20406     20403     20406     20407
     20403     20406     20408     20403     20406     20409     20407     20406     20408
     20407     20406     20409     20408     20406     20409     20406     20409     20410
     20406     20409     20411     20406     20409     20412     20410     20409     20411
     20410     20409     20412     20411     20409     20412     20409     20412     20413
     20409     20412     20414     20413     20412     20414     20412     20414     20415
     20412     20414     20416     20415     20414     20416     20414     20416     20417
     20414     20416     20418     20414     20416     20419     20417     20416     20418
     20417     20416     20419     20418     20416     20419     20416     20419     20420
     20416     20419     20421     20416     20419     20422     20420     20419     20421
     20420     20419     20422     20421     20419     20422     20419     20422     20423
     20419     20422     20424     20419     20422     20425     20423     20422     20424
     20423     20422     20425     20424     20422     20425     20422     20425     20426
     20422     20425     20427     20422     20425     20428     20426     20425     20427
     20426     20425     20428     20427     20425     20428     20425     20428     20429
     20425     20428     20430     20425     20428     20431     20429     20428     20430
     20429     20428     20431     20430     20428     20431     20428     20431     20432
     20428     20431     20433     20428     20431     20434     20432     20431     20433
     20432     20431     20434     20433     20431     20434     20431     20434     20435
     20431     20434     20436     20431     20434     20437     20435     20434     20436
     20435     20434     20437     20436     20434     20437     20434     20437     20438
     20434     20437     20439     20434     20437     20440     20438     20437     20439
     20438     20437     20440     20439     20437     20440     20391     20441     20442
     20391     20441     20443     20391     20441     20444     20442     20441     20443
     20442     20441     20444     20443     20441     20444     20441     20444     20445
     20441     20444     20446     20441     20444     20447     20445     20444     20446
     20445     20444     20447     20446     20444     20447     20444     20447     20448
     20444     20447     20449     20444     20447     20450     20448     20447     20449
     20448     20447     20450     20449     20447     20450     20447     20450     20451
     20447     20450     20452     20447     20450     20453     20451     20450     20452
     20451     20450     20453     20452     20450     20453     20450     20453     20454
     20450     20453     20455     20450     20453     20456     20454     20453     20455
     20454     20453     20456     20455     20453     20456     20453     20456     20457
     20453     20456     20458     20453     20456     20459     20457     20456     20458
     20457     20456     20459     20458     20456     20459     20456     20459     20460
     20456     20459     20461     20456     20459     20462     20460     20459     20461
     20460     20459     20462     20461     20459     20462     20459     20462     20463
     20459     20462     20464     20459     20462     20465     20463     20462     20464
     20463     20462     20465     20464     20462     20465     20462     20465     20466
     20462     20465     20467     20462     20465     20468     20466     20465     20467
     20466     20465     20468     20467     20465     20468     20465     20468     20469
     20465     20468     20470     20465     20468     20471     20469     20468     20470
     20469     20468     20471     20470     20468     20471     20468     20471     20472
     20468     20471     20473     20468     20471     20474     20472     20471     20473
     20472     20471     20474     20473     20471     20474     20471     20474     20475
     20471     20474     20476     20471     20474     20477     20475     20474     20476
     20475     20474     20477     20476     20474     20477     20474     20477     20478
     20474     20477     20479     20474     20477     20480     20478     20477     20479
     20478     20477     20480     20479     20477     20480     20477     20480     20481
     20477     20480     20482     20477     20480     20483     20481     20480     20482
     20481     20480     20483     20482     20480     20483     20480     20483     20484
     20480     20483     20485     20480     20483     20486     20484     20483     20485
     20484     20483     20486     20485     20483     20486     20483     20486     20487
     20483     20486     20488     20483     20486     20489     20487     20486     20488
     20487     20486     20489     20488     20486     20489      4986      4985      4989
      4986      4985      4993      4986      4985      4997      4989      4985      4993
      4989      4985      4997      4993      4985      4997      4985      4986      4987
      4985      4986      4988      4985      4986      5001      4987      4986      4988
      4987      4986      5001      4988      4986      5001      4985      4989      4990
      4985      4989      4991      4985      4989      4992      4990      4989      4991
      4990      4989      4992      4991      4989      4992      4985      4993      4994
      4985      4993      4995      4985      4993      4996      4994      4993      4995
      4994      4993      4996      4995      4993      4996      4985      4997      4998
      4985      4997      4999      4985      4997      5000      4998      4997      4999
      4998      4997      5000      4999      4997      5000      4986      5001      5002
      4986      5001      5003      4986      5001      5007      5002      5001      5003
      5002      5001      5007      5003      5001      5007      5005      5004      5006
      5005      5004      5007      5005      5004      5008      5006      5004      5007
      5006      5004      5008      5007      5004      5008      5001      5007      5004
      5004      5008      5009      5008      5009      5010      5008      5009      5011
      5008      5009      5012      5010      5009      5011      5010      5009      5012
      5011      5009      5012      5009      5012      5013      5009      5012      5014
      5009      5012      5020      5013      5012      5014      5013      5012      5020
      5014      5012      5020      5012      5014      5015      5014      5015      5016
      5014      5015      5017      5016      5015      5017      5015      5017      5018
      5015      5017      5019      5015      5017      5029      5018      5017      5019
      5018      5017      5029      5019      5017      5029      5012      5020      5021
      5012      5020      5022      5012      5020      5023      5021      5020      5022
      5021      5020      5023      5022      5020      5023      5020      5023      5024
      5023      5024      5025      5023      5024      5026      5025      5024      5026
      5024      5026      5027      5024      5026      5028      5024      5026      5076
      5027      5026      5028      5027      5026      5076      5028      5026      5076
      5017      5029      5030      5017      5029      5031      5017      5029      5032
      5030      5029      5031      5030      5029      5032      5031      5029      5032
      5029      5032      5033      5029      5032      5034      5029      5032      5035
      5033      5032      5034      5033      5032      5035      5034      5032      5035
      5032      5035      5036      5032      5035      5037      5036      5035      5037
      5035      5037      5038      5035      5037      5039      5038      5037      5039
      5037      5039      5040      5037      5039      5041      5037      5039      5042
      5040      5039      5041      5040      5039      5042      5041      5039      5042
      5039      5042      5043      5039      5042      5044      5043      5042      5044
      5042      5044      5045      5042      5044      5046      5045      5044      5046
      5044      5046      5047      5044      5046      5048      5044      5046      5049
      5047      5046      5048      5047      5046      5049      5048      5046      5049
      5046      5049      5050      5046      5049      5051      5050      5049      5051
      5049      5051      5052      5049      5051      5053      5052      5051      5053
      5051      5053      5054      5051      5053      5055      5051      5053      5056
      5054      5053      5055      5054      5053      5056      5055      5053      5056
      5053      5056      5057      5053      5056      5058      5057      5056      5058
      5056      5058      5059      5056      5058      5060      5059      5058      5060
      5058      5060      5061      5058      5060      5062      5058      5060      5063
      5061      5060      5062      5061      5060      5063      5062      5060      5063
      5060      5063      5064      5060      5063      5065      5060      5063      5066
      5064      5063      5065      5064      5063      5066      5065      5063      5066
      5063      5066      5067      5063      5066      5068      5063      5066      5069
      5067      5066      5068      5067      5066      5069      5068      5066      5069
      5066      5069      5070      5066      5069      5071      5066      5069      5072
      5070      5069      5071      5070      5069      5072      5071      5069      5072
      5069      5072      5073      5069      5072      5074      5069      5072      5075
      5073      5072      5074      5073      5072      5075      5074      5072      5075
      5026      5076      5077      5026      5076      5078      5026      5076      5079
      5077      5076      5078      5077      5076      5079      5078      5076      5079
      5076      5079      5080      5076      5079      5081      5076      5079      5082
      5080      5079      5081      5080      5079      5082      5081      5079      5082
      5079      5082      5083      5079      5082      5084      5079      5082      5085
      5083      5082      5084      5083      5082      5085      5084      5082      5085
      5082      5085      5086      5082      5085      5087      5082      5085      5088
      5086      5085      5087      5086      5085      5088      5087      5085      5088
      5085      5088      5089      5085      5088      5090      5085      5088      5091
      5089      5088      5090      5089      5088      5091      5090      5088      5091
      5088      5091      5092      5088      5091      5093      5088      5091      5094
      5092      5091      5093      5092      5091      5094      5093      5091      5094
      5091      5094      5095      5091      5094      5096      5091      5094      5097
      5095      5094      5096      5095      5094      5097      5096      5094      5097
      5094      5097      5098      5094      5097      5099      5094      5097      5100
      5098      5097      5099      5098      5097      5100      5099      5097      5100
      5097      5100      5101      5097      5100      5102      5097      5100      5103
      5101      5100      5102      5101      5100      5103      5102      5100      5103
      5100      5103      5104      5100      5103      5105      5100      5103      5106
      5104      5103      5105      5104      5103      5106      5105      5103      5106
      5103      5106      5107      5103      5106      5108      5103      5106      5109
      5107      5106      5108      5107      5106      5109      5108      5106      5109
      5106      5109      5110      5106      5109      5111      5106      5109      5112
      5110      5109      5111      5110      5109      5112      5111      5109      5112
      5109      5112      5113      5109      5112      5114      5109      5112      5115
      5113      5112      5114      5113      5112      5115      5114      5112      5115
      5112      5115      5116      5112      5115      5117      5112      5115      5118
      5116      5115      5117      5116      5115      5118      5117      5115      5118
      5115      5118      5119      5115      5118      5120      5115      5118      5121
      5119      5118      5120      5119      5118      5121      5120      5118      5121
      5118      5121      5122      5118      5121      5123      5118      5121      5124
      5122      5121      5123      5122      5121      5124      5123      5121      5124
     17740     17739     17741     17740     17739     17742     17740     17739     17743
     17741     17739     17742     17741     17739     17743     17742     17739     17743
     17739     17743     17744     17739     17743     17745     17739     17743     17746
     17744     17743     17745     17744     17743     17746     17745     17743     17746
     17743     17746     17747     17743     17746     17748     17743     17746     17752
     17747     17746     17748     17747     17746     17752     17748     17746     17752
     17750     17749     17751     17750     17749     17752     17750     17749     17753
     17751     17749     17752     17751     17749     17753     17752     17749     17753
     17746     17752     17749     17749     17753     17754     17753     17754     17755
     17753     17754     17756     17753     17754     17757     17755     17754     17756
     17755     17754     17757     17756     17754     17757     17754     17757     17758
     17754     17757     17759     17754     17757     17765     17758     17757     17759
     17758     17757     17765     17759     17757     17765     17757     17759     17760
     17759     17760     17761     17759     17760     17762     17761     17760     17762
     17760     17762     17763     17760     17762     17764     17760     17762     17774
     17763     17762     17764     17763     17762     17774     17764     17762     17774
     17757     17765     17766     17757     17765     17767     17757     17765     17768
     17766     17765     17767     17766     17765     17768     17767     17765     17768
     17765     17768     17769     17768     17769     17770     17768     17769     17771
     17770     17769     17771     17769     17771     17772     17769     17771     17773
     17769     17771     17821     17772     17771     17773     17772     17771     17821
     17773     17771     17821     17762     17774     17775     17762     17774     17776
     17762     17774     17777     17775     17774     17776     17775     17774     17777
     17776     17774     17777     17774     17777     17778     17774     17777     17779
     17774     17777     17780     17778     17777     17779     17778     17777     17780
     17779     17777     17780     17777     17780     17781     17777     17780     17782
     17781     17780     17782     17780     17782     17783     17780     17782     17784
     17783     17782     17784     17782     17784     17785     17782     17784     17786
     17782     17784     17787     17785     17784     17786     17785     17784     17787
     17786     17784     17787     17784     17787     17788     17784     17787     17789
     17788     17787     17789     17787     17789     17790     17787     17789     17791
     17790     17789     17791     17789     17791     17792     17789     17791     17793
     17789     17791     17794     17792     17791     17793     17792     17791     17794
     17793     17791     17794     17791     17794     17795     17791     17794     17796
     17795     17794     17796     17794     17796     17797     17794     17796     17798
     17797     17796     17798     17796     17798     17799     17796     17798     17800
     17796     17798     17801     17799     17798     17800     17799     17798     17801
     17800     17798     17801     17798     17801     17802     17798     17801     17803
     17802     17801     17803     17801     17803     17804     17801     17803     17805
     17804     17803     17805     17803     17805     17806     17803     17805     17807
     17803     17805     17808     17806     17805     17807     17806     17805     17808
     17807     17805     17808     17805     17808     17809     17805     17808     17810
     17805     17808     17811     17809     17808     17810     17809     17808     17811
     17810     17808     17811     17808     17811     17812     17808     17811     17813
     17808     17811     17814     17812     17811     17813     17812     17811     17814
     17813     17811     17814     17811     17814     17815     17811     17814     17816
     17811     17814     17817     17815     17814     17816     17815     17814     17817
     17816     17814     17817     17814     17817     17818     17814     17817     17819
     17814     17817     17820     17818     17817     17819     17818     17817     17820
     17819     17817     17820     17771     17821     17822     17771     17821     17823
     17771     17821     17824     17822     17821     17823     17822     17821     17824
     17823     17821     17824     17821     17824     17825     17821     17824     17826
     17821     17824     17827     17825     17824     17826     17825     17824     17827
     17826     17824     17827     17824     17827     17828     17824     17827     17829
     17824     17827     17830     17828     17827     17829     17828     17827     17830
     17829     17827     17830     17827     17830     17831     17827     17830     17832
     17827     17830     17833     17831     17830     17832     17831     17830     17833
     17832     17830     17833     17830     17833     17834     17830     17833     17835
     17830     17833     17836     17834     17833     17835     17834     17833     17836
     17835     17833     17836     17833     17836     17837     17833     17836     17838
     17833     17836     17839     17837     17836     17838     17837     17836     17839
     17838     17836     17839     17836     17839     17840     17836     17839     17841
     17836     17839     17842     17840     17839     17841     17840     17839     17842
     17841     17839     17842     17839     17842     17843     17839     17842     17844
     17839     17842     17845     17843     17842     17844     17843     17842     17845
     17844     17842     17845     17842     17845     17846     17842     17845     17847
     17842     17845     17848     17846     17845     17847     17846     17845     17848
     17847     17845     17848     17845     17848     17849     17845     17848     17850
     17845     17848     17851     17849     17848     17850     17849     17848     17851
     17850     17848     17851     17848     17851     17852     17848     17851     17853
     17848     17851     17854     17852     17851     17853     17852     17851     17854
     17853     17851     17854     17851     17854     17855     17851     17854     17856
     17851     17854     17857     17855     17854     17856     17855     17854     17857
     17856     17854     17857     17854     17857     17858     17854     17857     17859
     17854     17857     17860     17858     17857     17859     17858     17857     17860
     17859     17857     17860     17857     17860     17861     17857     17860     17862
     17857     17860     17863     17861     17860     17862     17861     17860     17863
     17862     17860     17863     17860     17863     17864     17860     17863     17865
     17860     17863     17866     17864     17863     17865     17864     17863     17866
     17865     17863     17866     17863     17866     17867     17863     17866     17868
     17863     17866     17869     17867     17866     17868     17867     17866     17869
     17868     17866     17869     13024     13023     13028     13024     13023     13032
     13024     13023     13036     13028     13023     13032     13028     13023     13036
     13032     13023     13036     13023     13024     13025     13023     13024     13026
     13023     13024     13027     13025     13024     13026     13025     13024     13027
     13026     13024     13027     13023     13028     13029     13023     13028     13030
     13023     13028     13031     13029     13028     13030     13029     13028     13031
     13030     13028     13031     13023     13032     13033     13023     13032     13034
     13023     13032     13035     13033     13032     13034     13033     13032     13035
     13034     13032     13035     13023     13036     13037     13023     13036     13038
     13023     13036     13039     13037     13036     13038     13037     13036     13039
     13038     13036     13039     13036     13039     13040     13036     13039     13041
     13036     13039     13046     13040     13039     13041     13040     13039     13046
     13041     13039     13046     13043     13042     13044     13043     13042     13045
     13043     13042     13046     13044     13042     13045     13044     13042     13046
     13045     13042     13046     13042     13045     13047     13039     13046     13042
     13045     13047     13048     13045     13047     13049     13045     13047     13052
     13048     13047     13049     13048     13047     13052     13049     13047     13052
     13051     13050     13052     13051     13050     13102     13052     13050     13102
     13047     13052     13050     13047     13052     13053     13047     13052     13054
     13050     13052     13053     13050     13052     13054     13053     13052     13054
     13052     13054     13055     13052     13054     13056     13052     13054     13058
     13055     13054     13056     13055     13054     13058     13056     13054     13058
     13054     13056     13057     13054     13058     13059     13054     13058     13060
     13059     13058     13060     13058     13060     13061     13058     13060     13062
     13061     13060     13062     13060     13062     13063     13060     13062     13064
     13060     13062     13065     13063     13062     13064     13063     13062     13065
     13064     13062     13065     13062     13065     13066     13062     13065     13067
     13062     13065     13068     13066     13065     13067     13066     13065     13068
     13067     13065     13068     13065     13068     13069     13065     13068     13070
     13065     13068     13071     13069     13068     13070     13069     13068     13071
     13070     13068     13071     13068     13071     13072     13068     13071     13073
     13068     13071     13074     13072     13071     13073     13072     13071     13074
     13073     13071     13074     13071     13074     13075     13071     13074     13076
     13071     13074     13077     13075     13074     13076     13075     13074     13077
     13076     13074     13077     13074     13077     13078     13074     13077     13079
     13074     13077     13080     13078     13077     13079     13078     13077     13080
     13079     13077     13080     13077     13080     13081     13077     13080     13082
     13077     13080     13083     13081     13080     13082     13081     13080     13083
     13082     13080     13083     13080     13083     13084     13080     13083     13085
     13080     13083     13086     13084     13083     13085     13084     13083     13086
     13085     13083     13086     13083     13086     13087     13083     13086     13088
     13083     13086     13089     13087     13086     13088     13087     13086     13089
     13088     13086     13089     13086     13089     13090     13086     13089     13091
     13086     13089     13092     13090     13089     13091     13090     13089     13092
     13091     13089     13092     13089     13092     13093     13089     13092     13094
     13089     13092     13095     13093     13092     13094     13093     13092     13095
     13094     13092     13095     13092     13095     13096     13092     13095     13097
     13092     13095     13098     13096     13095     13097     13096     13095     13098
     13097     13095     13098     13095     13098     13099     13095     13098     13100
     13095     13098     13101     13099     13098     13100     13099     13098     13101
     13100     13098     13101     13050     13102     13103     13050     13102     13104
     13103     13102     13104     13102     13104     13105     13102     13104     13106
     13102     13104     13107     13105     13104     13106     13105     13104     13107
     13106     13104     13107     13104     13107     13108     13104     13107     13109
     13104     13107     13110     13108     13107     13109     13108     13107     13110
     13109     13107     13110     13107     13110     13111     13107     13110     13112
     13107     13110     13113     13111     13110     13112     13111     13110     13113
     13112     13110     13113     13110     13113     13114     13110     13113     13115
     13110     13113     13116     13114     13113     13115     13114     13113     13116
     13115     13113     13116     13113     13116     13117     13113     13116     13118
     13113     13116     13119     13117     13116     13118     13117     13116     13119
     13118     13116     13119     13116     13119     13120     13116     13119     13121
     13116     13119     13122     13120     13119     13121     13120     13119     13122
     13121     13119     13122     13119     13122     13123     13119     13122     13124
     13119     13122     13125     13123     13122     13124     13123     13122     13125
     13124     13122     13125     13122     13125     13126     13122     13125     13127
     13126     13125     13127     13125     13127     13128     13125     13127     13129
     13128     13127     13129     13127     13129     13130     13127     13129     13131
     13127     13129     13132     13130     13129     13131     13130     13129     13132
     13131     13129     13132     13129     13132     13133     13129     13132     13134
     13129     13132     13135     13133     13132     13134     13133     13132     13135
     13134     13132     13135     13132     13135     13136     13132     13135     13137
     13132     13135     13138     13136     13135     13137     13136     13135     13138
     13137     13135     13138     13135     13138     13139     13135     13138     13140
     13135     13138     13141     13139     13138     13140     13139     13138     13141
     13140     13138     13141     13138     13141     13142     13138     13141     13143
     13138     13141     13144     13142     13141     13143     13142     13141     13144
     13143     13141     13144     13141     13144     13145     13141     13144     13146
     13141     13144     13147     13145     13144     13146     13145     13144     13147
     13146     13144     13147     13144     13147     13148     13144     13147     13149
     13144     13147     13150     13148     13147     13149     13148     13147     13150
     13149     13147     13150     13147     13150     13151     13147     13150     13152
     13147     13150     13153     13151     13150     13152     13151     13150     13153
     13152     13150     13153      8945      8944      8946      8945      8944      8947
      8945      8944      8948      8946      8944      8947      8946      8944      8948
      8947      8944      8948      8944      8948      8949      8944      8948      8950
      8944      8948      8953      8949      8948      8950      8949      8948      8953
      8950      8948      8953      8948      8950      8951      8948      8950      8952
      8951      8950      8952      8948      8953      8954      8948      8953      8955
      8948      8953      8959      8954      8953      8955      8954      8953      8959
      8955      8953      8959      8957      8956      8958      8957      8956      8959
      8957      8956      8960      8958      8956      8959      8958      8956      8960
      8959      8956      8960      8953      8959      8956      8956      8960      8961
      8960      8961      8962      8960      8961      8963      8960      8961      8964
      8962      8961      8963      8962      8961      8964      8963      8961      8964
      8961      8964      8965      8961      8964      8966      8961      8964      8972
      8965      8964      8966      8965      8964      8972      8966      8964      8972
      8964      8966      8967      8966      8967      8968      8966      8967      8969
      8968      8967      8969      8967      8969      8970      8967      8969      8971
      8967      8969      8981      8970      8969      8971      8970      8969      8981
      8971      8969      8981      8964      8972      8973      8964      8972      8974
      8964      8972      8975      8973      8972      8974      8973      8972      8975
      8974      8972      8975      8972      8975      8976      8975      8976      8977
      8975      8976      8978      8977      8976      8978      8976      8978      8979
      8976      8978      8980      8976      8978      9028      8979      8978      8980
      8979      8978      9028      8980      8978      9028      8969      8981      8982
      8969      8981      8983      8969      8981      8984      8982      8981      8983
      8982      8981      8984      8983      8981      8984      8981      8984      8985
      8981      8984      8986      8981      8984      8987      8985      8984      8986
      8985      8984      8987      8986      8984      8987      8984      8987      8988
      8984      8987      8989      8988      8987      8989      8987      8989      8990
      8987      8989      8991      8990      8989      8991      8989      8991      8992
      8989      8991      8993      8989      8991      8994      8992      8991      8993
      8992      8991      8994      8993      8991      8994      8991      8994      8995
      8991      8994      8996      8995      8994      8996      8994      8996      8997
      8994      8996      8998      8997      8996      8998      8996      8998      8999
      8996      8998      9000      8996      8998      9001      8999      8998      9000
      8999      8998      9001      9000      8998      9001      8998      9001      9002
      8998      9001      9003      9002      9001      9003      9001      9003      9004
      9001      9003      9005      9004      9003      9005      9003      9005      9006
      9003      9005      9007      9003      9005      9008      9006      9005      9007
      9006      9005      9008      9007      9005      9008      9005      9008      9009
      9005      9008      9010      9009      9008      9010      9008      9010      9011
      9008      9010      9012      9011      9010      9012      9010      9012      9013
      9010      9012      9014      9010      9012      9015      9013      9012      9014
      9013      9012      9015      9014      9012      9015      9012      9015      9016
      9012      9015      9017      9012      9015      9018      9016      9015      9017
      9016      9015      9018      9017      9015      9018      9015      9018      9019
      9015      9018      9020      9015      9018      9021      9019      9018      9020
      9019      9018      9021      9020      9018      9021      9018      9021      9022
      9018      9021      9023      9018      9021      9024      9022      9021      9023
      9022      9021      9024      9023      9021      9024      9021      9024      9025
      9021      9024      9026      9021      9024      9027      9025      9024      9026
      9025      9024      9027      9026      9024      9027      8978      9028      9029
      8978      9028      9030      8978      9028      9031      9029      9028      9030
      9029      9028      9031      9030      9028      9031      9028      9031      9032
      9028      9031      9033      9028      9031      9034      9032      9031      9033
      9032      9031      9034      9033      9031      9034      9031      9034      9035
      9031      9034      9036      9031      9034      9037      9035      9034      9036
      9035      9034      9037      9036      9034      9037      9034      9037      9038
      9034      9037      9039      9034      9037      9040      9038      9037      9039
      9038      9037      9040      9039      9037      9040      9037      9040      9041
      9037      9040      9042      9037      9040      9043      9041      9040      9042
      9041      9040      9043      9042      9040      9043      9040      9043      9044
      9040      9043      9045      9040      9043      9046      9044      9043      9045
      9044      9043      9046      9045      9043      9046      9043      9046      9047
      9043      9046      9048      9043      9046      9049      9047      9046      9048
      9047      9046      9049      9048      9046      9049      9046      9049      9050
      9046      9049      9051      9046      9049      9052      9050      9049      9051
      9050      9049      9052      9051      9049      9052      9049      9052      9053
      9049      9052      9054      9049      9052      9055      9053      9052      9054
      9053      9052      9055      9054      9052      9055      9052      9055      9056
      9052      9055      9057      9052      9055      9058      9056      9055      9057
      9056      9055      9058      9057      9055      9058      9055      9058      9059
      9055      9058      9060      9055      9058      9061      9059      9058      9060
      9059      9058      9061      9060      9058      9061      9058      9061      9062
      9058      9061      9063      9058      9061      9064      9062      9061      9063
      9062      9061      9064      9063      9061      9064      9061      9064      9065
      9061      9064      9066      9061      9064      9067      9065      9064      9066
      9065      9064      9067      9066      9064      9067      9064      9067      9068
      9064      9067      9069      9064      9067      9070      9068      9067      9069
      9068      9067      9070      9069      9067      9070      9067      9070      9071
      9067      9070      9072      9067      9070      9073      9071      9070      9072
      9071      9070      9073      9072      9070      9073      9070      9073      9074
      9070      9073      9075      9070      9073      9076      9074      9073      9075
      9074      9073      9076      9075      9073      9076     21986     21985     21989
     21986     21985     21993     21986     21985     21997     21989     21985     21993
     21989     21985     21997     21993     21985     21997     21985     21986     21987
     21985     21986     21988     21985     21986     22001     21987     21986     21988
     21987     21986     22001     21988     21986     22001     21985     21989     21990
     21985     21989     21991     21985     21989     21992     21990     21989     21991
     21990     21989     21992     21991     21989     21992     21985     21993     21994
     21985     21993     21995     21985     21993     21996     21994     21993     21995
     21994     21993     21996     21995     21993     21996     21985     21997     21998
     21985     21997     21999     21985     21997     22000     21998     21997     21999
     21998     21997     22000     21999     21997     22000     21986     22001     22002
     21986     22001     22003     21986     22001     22007     22002     22001     22003
     22002     22001     22007     22003     22001     22007     22005     22004     22006
     22005     22004     22007     22005     22004     22008     22006     22004     22007
     22006     22004     22008     22007     22004     22008     22001     22007     22004
     22004     22008     22009     22008     22009     22010     22008     22009     22011
     22008     22009     22012     22010     22009     22011     22010     22009     22012
     22011     22009     22012     22009     22012     22013     22009     22012     22014
     22009     22012     22020     22013     22012     22014     22013     22012     22020
     22014     22012     22020     22012     22014     22015     22014     22015     22016
     22014     22015     22017     22016     22015     22017     22015     22017     22018
     22015     22017     22019     22015     22017     22029     22018     22017     22019
     22018     22017     22029     22019     22017     22029     22012     22020     22021
     22012     22020     22022     22012     22020     22023     22021     22020     22022
     22021     22020     22023     22022     22020     22023     22020     22023     22024
     22023     22024     22025     22023     22024     22026     22025     22024     22026
     22024     22026     22027     22024     22026     22028     22024     22026     22076
     22027     22026     22028     22027     22026     22076     22028     22026     22076
     22017     22029     22030     22017     22029     22031     22017     22029     22032
     22030     22029     22031     22030     22029     22032     22031     22029     22032
     22029     22032     22033     22029     22032     22034     22029     22032     22035
     22033     22032     22034     22033     22032     22035     22034     22032     22035
     22032     22035     22036     22032     22035     22037     22032     22035     22038
     22036     22035     22037     22036     22035     22038     22037     22035     22038
     22035     22038     22039     22035     22038     22040     22035     22038     22041
     22039     22038     22040     22039     22038     22041     22040     22038     22041
     22038     22041     22042     22038     22041     22043     22038     22041     22044
     22042     22041     22043     22042     22041     22044     22043     22041     22044
     22041     22044     22045     22041     22044     22046     22041     22044     22047
     22045     22044     22046     22045     22044     22047     22046     22044     22047
     22044     22047     22048     22044     22047     22049     22048     22047     22049
     22047     22049     22050     22047     22049     22051     22050     22049     22051
     22049     22051     22052     22049     22051     22053     22049     22051     22054
     22052     22051     22053     22052     22051     22054     22053     22051     22054
     22051     22054     22055     22051     22054     22056     22051     22054     22057
     22055     22054     22056     22055     22054     22057     22056     22054     22057
     22054     22057     22058     22054     22057     22059     22054     22057     22060
     22058     22057     22059     22058     22057     22060     22059     22057     22060
     22057     22060     22061     22057     22060     22062     22057     22060     22063
     22061     22060     22062     22061     22060     22063     22062     22060     22063
     22060     22063     22064     22060     22063     22065     22060     22063     22066
     22064     22063     22065     22064     22063     22066     22065     22063     22066
     22063     22066     22067     22063     22066     22068     22063     22066     22069
     22067     22066     22068     22067     22066     22069     22068     22066     22069
     22066     22069     22070     22066     22069     22071     22066     22069     22072
     22070     22069     22071     22070     22069     22072     22071     22069     22072
     22069     22072     22073     22069     22072     22074     22069     22072     22075
     22073     22072     22074     22073     22072     22075     22074     22072     22075
     22026     22076     22077     22026     22076     22078     22026     22076     22079
     22077     22076     22078     22077     22076     22079     22078     22076     22079
     22076     22079     22080     22076     22079     22081     22076     22079     22082
     22080     22079     22081     22080     22079     22082     22081     22079     22082
     22079     22082     22083     22079     22082     22084     22079     22082     22085
     22083     22082     22084     22083     22082     22085     22084     22082     22085
     22082     22085     22086     22082     22085     22087     22082     22085     22088
     22086     22085     22087     22086     22085     22088     22087     22085     22088
     22085     22088     22089     22085     22088     22090     22085     22088     22091
     22089     22088     22090     22089     22088     22091     22090     22088     22091
     22088     22091     22092     22088     22091     22093     22088     22091     22094
     22092     22091     22093     22092     22091     22094     22093     22091     22094
     22091     22094     22095     22091     22094     22096     22091     22094     22097
     22095     22094     22096     22095     22094     22097     22096     22094     22097
     22094     22097     22098     22094     22097     22099     22094     22097     22100
     22098     22097     22099     22098     22097     22100     22099     22097     22100
     22097     22100     22101     22097     22100     22102     22097     22100     22103
     22101     22100     22102     22101     22100     22103     22102     22100     22103
     22100     22103     22104     22100     22103     22105     22100     22103     22106
     22104     22103     22105     22104     22103     22106     22105     22103     22106
     22103     22106     22107     22103     22106     22108     22103     22106     22109
     22107     22106     22108     22107     22106     22109     22108     22106     22109
     22106     22109     22110     22106     22109     22111     22106     22109     22112
     22110     22109     22111     22110     22109     22112     22111     22109     22112
     22109     22112     22113     22109     22112     22114     22109     22112     22115
     22113     22112     22114     22113     22112     22115     22114     22112     22115
     22112     22115     22116     22112     22115     22117     22112     22115     22118
     22116     22115     22117     22116     22115     22118     22117     22115     22118
     17871     17870     17872     17871     17870     17873     17871     17870     17874
     17872     17870     17873     17872     17870     17874     17873     17870     17874
     17870     17874     17875     17870     17874     17876     17870     17874     17877
     17875     17874     17876     17875     17874     17877     17876     17874     17877
     17874     17877     17878     17874     17877     17879     17874     17877     17883
     17878     17877     17879     17878     17877     17883     17879     17877     17883
     17881     17880     17882     17881     17880     17883     17881     17880     17884
     17882     17880     17883     17882     17880     17884     17883     17880     17884
     17877     17883     17880     17880     17884     17885     17884     17885     17886
     17884     17885     17887     17884     17885     17888     17886     17885     17887
     17886     17885     17888     17887     17885     17888     17885     17888     17889
     17885     17888     17890     17885     17888     17896     17889     17888     17890
     17889     17888     17896     17890     17888     17896     17888     17890     17891
     17890     17891     17892     17890     17891     17893     17892     17891     17893
     17891     17893     17894     17891     17893     17895     17891     17893     17905
     17894     17893     17895     17894     17893     17905     17895     17893     17905
     17888     17896     17897     17888     17896     17898     17888     17896     17899
     17897     17896     17898     17897     17896     17899     17898     17896     17899
     17896     17899     17900     17899     17900     17901     17899     17900     17902
     17901     17900     17902     17900     17902     17903     17900     17902     17904
     17900     17902     17952     17903     17902     17904     17903     17902     17952
     17904     17902     17952     17893     17905     17906     17893     17905     17907
     17893     17905     17908     17906     17905     17907     17906     17905     17908
     17907     17905     17908     17905     17908     17909     17905     17908     17910
     17905     17908     17911     17909     17908     17910     17909     17908     17911
     17910     17908     17911     17908     17911     17912     17908     17911     17913
     17912     17911     17913     17911     17913     17914     17911     17913     17915
     17914     17913     17915     17913     17915     17916     17913     17915     17917
     17913     17915     17918     17916     17915     17917     17916     17915     17918
     17917     17915     17918     17915     17918     17919     17915     17918     17920
     17919     17918     17920     17918     17920     17921     17918     17920     17922
     17921     17920     17922     17920     17922     17923     17920     17922     17924
     17920     17922     17925     17923     17922     17924     17923     17922     17925
     17924     17922     17925     17922     17925     17926     17922     17925     17927
     17926     17925     17927     17925     17927     17928     17925     17927     17929
     17928     17927     17929     17927     17929     17930     17927     17929     17931
     17927     17929     17932     17930     17929     17931     17930     17929     17932
     17931     17929     17932     17929     17932     17933     17929     17932     17934
     17933     17932     17934     17932     17934     17935     17932     17934     17936
     17935     17934     17936     17934     17936     17937     17934     17936     17938
     17934     17936     17939     17937     17936     17938     17937     17936     17939
     17938     17936     17939     17936     17939     17940     17936     17939     17941
     17936     17939     17942     17940     17939     17941     17940     17939     17942
     17941     17939     17942     17939     17942     17943     17939     17942     17944
     17939     17942     17945     17943     17942     17944     17943     17942     17945
     17944     17942     17945     17942     17945     17946     17942     17945     17947
     17942     17945     17948     17946     17945     17947     17946     17945     17948
     17947     17945     17948     17945     17948     17949     17945     17948     17950
     17945     17948     17951     17949     17948     17950     17949     17948     17951
     17950     17948     17951     17902     17952     17953     17902     17952     17954
     17902     17952     17955     17953     17952     17954     17953     17952     17955
     17954     17952     17955     17952     17955     17956     17952     17955     17957
     17952     17955     17958     17956     17955     17957     17956     17955     17958
     17957     17955     17958     17955     17958     17959     17955     17958     17960
     17955     17958     17961     17959     17958     17960     17959     17958     17961
     17960     17958     17961     17958     17961     17962     17958     17961     17963
     17958     17961     17964     17962     17961     17963     17962     17961     17964
     17963     17961     17964     17961     17964     17965     17961     17964     17966
     17961     17964     17967     17965     17964     17966     17965     17964     17967
     17966     17964     17967     17964     17967     17968     17964     17967     17969
     17964     17967     17970     17968     17967     17969     17968     17967     17970
     17969     17967     17970     17967     17970     17971     17967     17970     17972
     17967     17970     17973     17971     17970     17972     17971     17970     17973
     17972     17970     17973     17970     17973     17974     17970     17973     17975
     17970     17973     17976     17974     17973     17975     17974     17973     17976
     17975     17973     17976     17973     17976     17977     17973     17976     17978
     17973     17976     17979     17977     17976     17978     17977     17976     17979
     17978     17976     17979     17976     17979     17980     17976     17979     17981
     17976     17979     17982     17980     17979     17981     17980     17979     17982
     17981     17979     17982     17979     17982     17983     17979     17982     17984
     17979     17982     17985     17983     17982     17984     17983     17982     17985
     17984     17982     17985     17982     17985     17986     17982     17985     17987
     17982     17985     17988     17986     17985     17987     17986     17985     17988
     17987     17985     17988     17985     17988     17989     17985     17988     17990
     17985     17988     17991     17989     17988     17990     17989     17988     17991
     17990     17988     17991     17988     17991     17992     17988     17991     17993
     17988     17991     17994     17992     17991     17993     17992     17991     17994
     17993     17991     17994     17991     17994     17995     17991     17994     17996
     17991     17994     17997     17995     17994     17996     17995     17994     17997
     17996     17994     17997     17994     17997     17998     17994     17997     17999
     17994     17997     18000     17998     17997     17999     17998     17997     18000
     17999     17997     18000      9078      9077      9079      9078      9077      9080
      9078      9077      9081      9079      9077      9080      9079      9077      9081
      9080      9077      9081      9077      9081      9082      9077      9081      9083
      9077      9081      9086      9082      9081      9083      9082      9081      9086
      9083      9081      9086      9081      9083      9084      9081      9083      9085
      9084      9083      9085      9081      9086      9087      9081      9086      9088
      9081      9086      9092      9087      9086      9088      9087      9086      9092
      9088      9086      9092      9090      9089      9091      9090      9089      9092
      9090      9089      9093      9091      9089      9092      9091      9089      9093
      9092      9089      9093      9086      9092      9089      9089      9093      9094
      9093      9094      9095      9093      9094      9096      9093      9094      9097
      9095      9094      9096      9095      9094      9097      9096      9094      9097
      9094      9097      9098      9094      9097      9099      9094      9097      9105
      9098      9097      9099      9098      9097      9105      9099      9097      9105
      9097      9099      9100      9099      9100      9101      9099      9100      9102
      9101      9100      9102      9100      9102      9103      9100      9102      9104
      9100      9102      9114      9103      9102      9104      9103      9102      9114
      9104      9102      9114      9097      9105      9106      9097      9105      9107
      9097      9105      9108      9106      9105      9107      9106      9105      9108
      9107      9105      9108      9105      9108      9109      9108      9109      9110
      9108      9109      9111      9110      9109      9111      9109      9111      9112
      9109      9111      9113      9109      9111      9161      9112      9111      9113
      9112      9111      9161      9113      9111      9161      9102      9114      9115
      9102      9114      9116      9102      9114      9117      9115      9114      9116
      9115      9114      9117      9116      9114      9117      9114      9117      9118
      9114      9117      9119      9114      9117      9120      9118      9117      9119
      9118      9117      9120      9119      9117      9120      9117      9120      9121
      9117      9120      9122      9121      9120      9122      9120      9122      9123
      9120      9122      9124      9123      9122      9124      9122      9124      9125
      9122      9124      9126      9122      9124      9127      9125      9124      9126
      9125      9124      9127      9126      9124      9127      9124      9127      9128
      9124      9127      9129      9128      9127      9129      9127      9129      9130
      9127      9129      9131      9130      9129      9131      9129      9131      9132
      9129      9131      9133      9129      9131      9134      9132      9131      9133
      9132      9131      9134      9133      9131      9134      9131      9134      9135
      9131      9134      9136      9135      9134      9136      9134      9136      9137
      9134      9136      9138      9137      9136      9138      9136      9138      9139
      9136      9138      9140      9136      9138      9141      9139      9138      9140
      9139      9138      9141      9140      9138      9141      9138      9141      9142
      9138      9141      9143      9142      9141      9143      9141      9143      9144
      9141      9143      9145      9144      9143      9145      9143      9145      9146
      9143      9145      9147      9143      9145      9148      9146      9145      9147
      9146      9145      9148      9147      9145      9148      9145      9148      9149
      9145      9148      9150      9145      9148      9151      9149      9148      9150
      9149      9148      9151      9150      9148      9151      9148      9151      9152
      9148      9151      9153      9148      9151      9154      9152      9151      9153
      9152      9151      9154      9153      9151      9154      9151      9154      9155
      9151      9154      9156      9151      9154      9157      9155      9154      9156
      9155      9154      9157      9156      9154      9157      9154      9157      9158
      9154      9157      9159      9154      9157      9160      9158      9157      9159
      9158      9157      9160      9159      9157      9160      9111      9161      9162
      9111      9161      9163      9111      9161      9164      9162      9161      9163
      9162      9161      9164      9163      9161      9164      9161      9164      9165
      9161      9164      9166      9161      9164      9167      9165      9164      9166
      9165      9164      9167      9166      9164      9167      9164      9167      9168
      9164      9167      9169      9164      9167      9170      9168      9167      9169
      9168      9167      9170      9169      9167      9170      9167      9170      9171
      9167      9170      9172      9167      9170      9173      9171      9170      9172
      9171      9170      9173      9172      9170      9173      9170      9173      9174
      9170      9173      9175      9170      9173      9176      9174      9173      9175
      9174      9173      9176      9175      9173      9176      9173      9176      9177
      9173      9176      9178      9173      9176      9179      9177      9176      9178
      9177      9176      9179      9178      9176      9179      9176      9179      9180
      9176      9179      9181      9176      9179      9182      9180      9179      9181
      9180      9179      9182      9181      9179      9182      9179      9182      9183
      9179      9182      9184      9179      9182      9185      9183      9182      9184
      9183      9182      9185      9184      9182      9185      9182      9185      9186
      9182      9185      9187      9182      9185      9188      9186      9185      9187
      9186      9185      9188      9187      9185      9188      9185      9188      9189
      9185      9188      9190      9185      9188      9191      9189      9188      9190
      9189      9188      9191      9190      9188      9191      9188      9191      9192
      9188      9191      9193      9188      9191      9194      9192      9191      9193
      9192      9191      9194      9193      9191      9194      9191      9194      9195
      9191      9194      9196      9191      9194      9197      9195      9194      9196
      9195      9194      9197      9196      9194      9197      9194      9197      9198
      9194      9197      9199      9194      9197      9200      9198      9197      9199
      9198      9197      9200      9199      9197      9200      9197      9200      9201
      9197      9200      9202      9197      9200      9203      9201      9200      9202
      9201      9200      9203      9202      9200      9203      9200      9203      9204
      9200      9203      9205      9200      9203      9206      9204      9203      9205
      9204      9203      9206      9205      9203      9206      9203      9206      9207
      9203      9206      9208      9203      9206      9209      9207      9206      9208
      9207      9206      9209      9208      9206      9209      2074      2073      2075
      2074      2073      2077      2074      2073      2119      2075      2073      2077
      2075      2073      2119      2077      2073      2119      2073      2075      2076
      2073      2077      2078      2073      2077      2079      2073      2077      2080
      2078      2077      2079      2078      2077      2080      2079      2077      2080
      2077      2080      2081      2077      2080      2111      2081      2080      2111
      2080      2081      2082      2080      2081      2083      2082      2081      2083
      2081      2083      2084      2081      2083      2085      2081      2083      2086
      2084      2083      2085      2084      2083      2086      2085      2083      2086
      2083      2086      2087      2083      2086      2088      2083      2086      2109
      2087      2086      2088      2087      2086      2109      2088      2086      2109
      2086      2088      2089      2086      2088      2090      2086      2088      2098
      2089      2088      2090      2089      2088      2098      2090      2088      2098
      2088      2090      2091      2088      2090      2092      2088      2090      2093
      2091      2090      2092      2091      2090      2093      2092      2090      2093
      2090      2093      2094      2090      2093      2095      2090      2093      2096
      2094      2093      2095      2094      2093      2096      2095      2093      2096
      2093      2096      2097      2093      2096      2098      2093      2096      2122
      2097      2096      2098      2097      2096      2122      2098      2096      2122
      2088      2098      2096      2088      2098      2099      2088      2098      2103
      2096      2098      2099      2096      2098      2103      2099      2098      2103
      2098      2099      2100      2098      2099      2101      2098      2099      2102
      2100      2099      2101      2100      2099      2102      2101      2099      2102
      2098      2103      2104      2098      2103      2105      2098      2103      2106
      2104      2103      2105      2104      2103      2106      2105      2103      2106
      2103      2106      2107      2103      2106      2108      2103      2106      2109
      2107      2106      2108      2107      2106      2109      2108      2106      2109
      2086      2109      2106      2086      2109      2110      2086      2109      2111
      2106      2109      2110      2106      2109      2111      2110      2109      2111
      2080      2111      2109      2080      2111      2112      2080      2111      2116
      2109      2111      2112      2109      2111      2116      2112      2111      2116
      2111      2112      2113      2111      2112      2114      2111      2112      2115
      2113      2112      2114      2113      2112      2115      2114      2112      2115
      2111      2116      2117      2111      2116      2118      2111      2116      2119
      2117      2116      2118      2117      2116      2119      2118      2116      2119
      2073      2119      2116      2073      2119      2120      2073      2119      2121
      2116      2119      2120      2116      2119      2121      2120      2119      2121
      2096      2122      2123      2096      2122      2124      2096      2122      2128
      2123      2122      2124      2123      2122      2128      2124      2122      2128
      2122      2124      2125      2122      2124      2126      2122      2124      2127
      2125      2124      2126      2125      2124      2127      2126      2124      2127
      2122      2128      2129      2122      2128      2130      2122      2128      2131
      2129      2128      2130      2129      2128      2131      2130      2128      2131
      2128      2131      2132      2128      2131      2133      2128      2131      2134
      2132      2131      2133      2132      2131      2134      2133      2131      2134
      2131      2134      2135      2131      2134      2136      2131      2134      2137
      2135      2134      2136      2135      2134      2137      2136      2134      2137
      2134      2137      2138      2134      2137      2139      2134      2137      2143
      2138      2137      2139      2138      2137      2143      2139      2137      2143
      2137      2139      2140      2137      2139      2141      2137      2139      2142
      2140      2139      2141      2140      2139      2142      2141      2139      2142
      2137      2143      2144      2137      2143      2145      2137      2143      2146
      2144      2143      2145      2144      2143      2146      2145      2143      2146
      2148      2147      2149      2148      2147      2151      2148      2147      2193
      2149      2147      2151      2149      2147      2193      2151      2147      2193
      2147      2149      2150      2147      2151      2152      2147      2151      2153
      2147      2151      2154      2152      2151      2153      2152      2151      2154
      2153      2151      2154      2151      2154      2155      2151      2154      2185
      2155      2154      2185      2154      2155      2156      2154      2155      2157
      2156      2155      2157      2155      2157      2158      2155      2157      2159
      2155      2157      2160      2158      2157      2159      2158      2157      2160
      2159      2157      2160      2157      2160      2161      2157      2160      2162
      2157      2160      2183      2161      2160      2162      2161      2160      2183
      2162      2160      2183      2160      2162      2163      2160      2162      2164
      2160      2162      2172      2163      2162      2164      2163      2162      2172
      2164      2162      2172      2162      2164      2165      2162      2164      2166
      2162      2164      2167      2165      2164      2166      2165      2164      2167
      2166      2164      2167      2164      2167      2168      2164      2167      2169
      2164      2167      2170      2168      2167      2169      2168      2167      2170
      2169      2167      2170      2167      2170      2171      2167      2170      2172
      2167      2170      2196      2171      2170      2172      2171      2170      2196
      2172      2170      2196      2162      2172      2170      2162      2172      2173
      2162      2172      2177      2170      2172      2173      2170      2172      2177
      2173      2172      2177      2172      2173      2174      2172      2173      2175
      2172      2173      2176      2174      2173      2175      2174      2173      2176
      2175      2173      2176      2172      2177      2178      2172      2177      2179
      2172      2177      2180      2178      2177      2179      2178      2177      2180
      2179      2177      2180      2177      2180      2181      2177      2180      2182
      2177      2180      2183      2181      2180      2182      2181      2180      2183
      2182      2180      2183      2160      2183      2180      2160      2183      2184
      2160      2183      2185      2180      2183      2184      2180      2183      2185
      2184      2183      2185      2154      2185      2183      2154      2185      2186
      2154      2185      2190      2183      2185      2186      2183      2185      2190
      2186      2185      2190      2185      2186      2187      2185      2186      2188
      2185      2186      2189      2187      2186      2188      2187      2186      2189
      2188      2186      2189      2185      2190      2191      2185      2190      2192
      2185      2190      2193      2191      2190      2192      2191      2190      2193
      2192      2190      2193      2147      2193      2190      2147      2193      2194
      2147      2193      2195      2190      2193      2194      2190      2193      2195
      2194      2193      2195      2170      2196      2197      2170      2196      2198
      2170      2196      2202      2197      2196      2198      2197      2196      2202
      2198      2196      2202      2196      2198      2199      2196      2198      2200
      2196      2198      2201      2199      2198      2200      2199      2198      2201
      2200      2198      2201      2196      2202      2203      2196      2202      2204
      2196      2202      2205      2203      2202      2204      2203      2202      2205
      2204      2202      2205      2202      2205      2206      2202      2205      2207
      2202      2205      2208      2206      2205      2207      2206      2205      2208
      2207      2205      2208      2205      2208      2209      2205      2208      2210
      2205      2208      2211      2209      2208      2210      2209      2208      2211
      2210      2208      2211      2208      2211      2212      2208      2211      2213
      2208      2211      2217      2212      2211      2213      2212      2211      2217
      2213      2211      2217      2211      2213      2214      2211      2213      2215
      2211      2213      2216      2214      2213      2215      2214      2213      2216
      2215      2213      2216      2211      2217      2218      2211      2217      2219
      2211      2217      2220      2218      2217      2219      2218      2217      2220
      2219      2217      2220      9211      9210      9212      9211      9210      9213
      9211      9210      9214      9212      9210      9213      9212      9210      9214
      9213      9210      9214      9210      9214      9215      9210      9214      9216
      9210      9214      9219      9215      9214      9216      9215      9214      9219
      9216      9214      9219      9214      9216      9217      9214      9216      9218
      9217      9216      9218      9214      9219      9220      9214      9219      9221
      9214      9219      9225      9220      9219      9221      9220      9219      9225
      9221      9219      9225      9223      9222      9224      9223      9222      9225
      9223      9222      9226      9224      9222      9225      9224      9222      9226
      9225      9222      9226      9219      9225      9222      9222      9226      9227
      9226      9227      9228      9226      9227      9229      9226      9227      9230
      9228      9227      9229      9228      9227      9230      9229      9227      9230
      9227      9230      9231      9227      9230      9232      9227      9230      9238
      9231      9230      9232      9231      9230      9238      9232      9230      9238
      9230      9232      9233      9232      9233      9234      9232      9233      9235
      9234      9233      9235      9233      9235      9236      9233      9235      9237
      9233      9235      9247      9236      9235      9237      9236      9235      9247
      9237      9235      9247      9230      9238      9239      9230      9238      9240
      9230      9238      9241      9239      9238      9240      9239      9238      9241
      9240      9238      9241      9238      9241      9242      9241      9242      9243
      9241      9242      9244      9243      9242      9244      9242      9244      9245
      9242      9244      9246      9242      9244      9294      9245      9244      9246
      9245      9244      9294      9246      9244      9294      9235      9247      9248
      9235      9247      9249      9235      9247      9250      9248      9247      9249
      9248      9247      9250      9249      9247      9250      9247      9250      9251
      9247      9250      9252      9247      9250      9253      9251      9250      9252
      9251      9250      9253      9252      9250      9253      9250      9253      9254
      9250      9253      9255      9254      9253      9255      9253      9255      9256
      9253      9255      9257      9256      9255      9257      9255      9257      9258
      9255      9257      9259      9255      9257      9260      9258      9257      9259
      9258      9257      9260      9259      9257      9260      9257      9260      9261
      9257      9260      9262      9261      9260      9262      9260      9262      9263
      9260      9262      9264      9263      9262      9264      9262      9264      9265
      9262      9264      9266      9262      9264      9267      9265      9264      9266
      9265      9264      9267      9266      9264      9267      9264      9267      9268
      9264      9267      9269      9268      9267      9269      9267      9269      9270
      9267      9269      9271      9270      9269      9271      9269      9271      9272
      9269      9271      9273      9269      9271      9274      9272      9271      9273
      9272      9271      9274      9273      9271      9274      9271      9274      9275
      9271      9274      9276      9275      9274      9276      9274      9276      9277
      9274      9276      9278      9277      9276      9278      9276      9278      9279
      9276      9278      9280      9276      9278      9281      9279      9278      9280
      9279      9278      9281      9280      9278      9281      9278      9281      9282
      9278      9281      9283      9278      9281      9284      9282      9281      9283
      9282      9281      9284      9283      9281      9284      9281      9284      9285
      9281      9284      9286      9281      9284      9287      9285      9284      9286
      9285      9284      9287      9286      9284      9287      9284      9287      9288
      9284      9287      9289      9284      9287      9290      9288      9287      9289
      9288      9287      9290      9289      9287      9290      9287      9290      9291
      9287      9290      9292      9287      9290      9293      9291      9290      9292
      9291      9290      9293      9292      9290      9293      9244      9294      9295
      9244      9294      9296      9244      9294      9297      9295      9294      9296
      9295      9294      9297      9296      9294      9297      9294      9297      9298
      9294      9297      9299      9294      9297      9300      9298      9297      9299
      9298      9297      9300      9299      9297      9300      9297      9300      9301
      9297      9300      9302      9297      9300      9303      9301      9300      9302
      9301      9300      9303      9302      9300      9303      9300      9303      9304
      9300      9303      9305      9300      9303      9306      9304      9303      9305
      9304      9303      9306      9305      9303      9306      9303      9306      9307
      9303      9306      9308      9303      9306      9309      9307      9306      9308
      9307      9306      9309      9308      9306      9309      9306      9309      9310
      9306      9309      9311      9306      9309      9312      9310      9309      9311
      9310      9309      9312      9311      9309      9312      9309      9312      9313
      9309      9312      9314      9309      9312      9315      9313      9312      9314
      9313      9312      9315      9314      9312      9315      9312      9315      9316
      9312      9315      9317      9312      9315      9318      9316      9315      9317
      9316      9315      9318      9317      9315      9318      9315      9318      9319
      9315      9318      9320      9315      9318      9321      9319      9318      9320
      9319      9318      9321      9320      9318      9321      9318      9321      9322
      9318      9321      9323      9318      9321      9324      9322      9321      9323
      9322      9321      9324      9323      9321      9324      9321      9324      9325
      9321      9324      9326      9321      9324      9327      9325      9324      9326
      9325      9324      9327      9326      9324      9327      9324      9327      9328
      9324      9327      9329      9324      9327      9330      9328      9327      9329
      9328      9327      9330      9329      9327      9330      9327      9330      9331
      9327      9330      9332      9327      9330      9333      9331      9330      9332
      9331      9330      9333      9332      9330      9333      9330      9333      9334
      9330      9333      9335      9330      9333      9336      9334      9333      9335
      9334      9333      9336      9335      9333      9336      9333      9336      9337
      9333      9336      9338      9333      9336      9339      9337      9336      9338
      9337      9336      9339      9338      9336      9339      9336      9339      9340
      9336      9339      9341      9336      9339      9342      9340      9339      9341
      9340      9339      9342      9341      9339      9342     18002     18001     18003
     18002     18001     18004     18002     18001     18005     18003     18001     18004
     18003     18001     18005     18004     18001     18005     18001     18005     18006
     18001     18005     18007     18001     18005     18008     18006     18005     18007
     18006     18005     18008     18007     18005     18008     18005     18008     18009
     18005     18008     18010     18005     18008     18014     18009     18008     18010
     18009     18008     18014     18010     18008     18014     18012     18011     18013
     18012     18011     18014     18012     18011     18015     18013     18011     18014
     18013     18011     18015     18014     18011     18015     18008     18014     18011
     18011     18015     18016     18015     18016     18017     18015     18016     18018
     18015     18016     18019     18017     18016     18018     18017     18016     18019
     18018     18016     18019     18016     18019     18020     18016     18019     18021
     18016     18019     18027     18020     18019     18021     18020     18019     18027
     18021     18019     18027     18019     18021     18022     18021     18022     18023
     18021     18022     18024     18023     18022     18024     18022     18024     18025
     18022     18024     18026     18022     18024     18036     18025     18024     18026
     18025     18024     18036     18026     18024     18036     18019     18027     18028
     18019     18027     18029     18019     18027     18030     18028     18027     18029
     18028     18027     18030     18029     18027     18030     18027     18030     18031
     18030     18031     18032     18030     18031     18033     18032     18031     18033
     18031     18033     18034     18031     18033     18035     18031     18033     18083
     18034     18033     18035     18034     18033     18083     18035     18033     18083
     18024     18036     18037     18024     18036     18038     18024     18036     18039
     18037     18036     18038     18037     18036     18039     18038     18036     18039
     18036     18039     18040     18036     18039     18041     18036     18039     18042
     18040     18039     18041     18040     18039     18042     18041     18039     18042
     18039     18042     18043     18039     18042     18044     18043     18042     18044
     18042     18044     18045     18042     18044     18046     18045     18044     18046
     18044     18046     18047     18044     18046     18048     18044     18046     18049
     18047     18046     18048     18047     18046     18049     18048     18046     18049
     18046     18049     18050     18046     18049     18051     18050     18049     18051
     18049     18051     18052     18049     18051     18053     18052     18051     18053
     18051     18053     18054     18051     18053     18055     18051     18053     18056
     18054     18053     18055     18054     18053     18056     18055     18053     18056
     18053     18056     18057     18053     18056     18058     18057     18056     18058
     18056     18058     18059     18056     18058     18060     18059     18058     18060
     18058     18060     18061     18058     18060     18062     18058     18060     18063
     18061     18060     18062     18061     18060     18063     18062     18060     18063
     18060     18063     18064     18060     18063     18065     18064     18063     18065
     18063     18065     18066     18063     18065     18067     18066     18065     18067
     18065     18067     18068     18065     18067     18069     18065     18067     18070
     18068     18067     18069     18068     18067     18070     18069     18067     18070
     18067     18070     18071     18067     18070     18072     18067     18070     18073
     18071     18070     18072     18071     18070     18073     18072     18070     18073
     18070     18073     18074     18070     18073     18075     18070     18073     18076
     18074     18073     18075     18074     18073     18076     18075     18073     18076
     18073     18076     18077     18073     18076     18078     18073     18076     18079
     18077     18076     18078     18077     18076     18079     18078     18076     18079
     18076     18079     18080     18076     18079     18081     18076     18079     18082
     18080     18079     18081     18080     18079     18082     18081     18079     18082
     18033     18083     18084     18033     18083     18085     18033     18083     18086
     18084     18083     18085     18084     18083     18086     18085     18083     18086
     18083     18086     18087     18083     18086     18088     18083     18086     18089
     18087     18086     18088     18087     18086     18089     18088     18086     18089
     18086     18089     18090     18086     18089     18091     18086     18089     18092
     18090     18089     18091     18090     18089     18092     18091     18089     18092
     18089     18092     18093     18089     18092     18094     18089     18092     18095
     18093     18092     18094     18093     18092     18095     18094     18092     18095
     18092     18095     18096     18092     18095     18097     18092     18095     18098
     18096     18095     18097     18096     18095     18098     18097     18095     18098
     18095     18098     18099     18095     18098     18100     18095     18098     18101
     18099     18098     18100     18099     18098     18101     18100     18098     18101
     18098     18101     18102     18098     18101     18103     18098     18101     18104
     18102     18101     18103     18102     18101     18104     18103     18101     18104
     18101     18104     18105     18101     18104     18106     18101     18104     18107
     18105     18104     18106     18105     18104     18107     18106     18104     18107
     18104     18107     18108     18104     18107     18109     18104     18107     18110
     18108     18107     18109     18108     18107     18110     18109     18107     18110
     18107     18110     18111     18107     18110     18112     18107     18110     18113
     18111     18110     18112     18111     18110     18113     18112     18110     18113
     18110     18113     18114     18110     18113     18115     18110     18113     18116
     18114     18113     18115     18114     18113     18116     18115     18113     18116
     18113     18116     18117     18113     18116     18118     18113     18116     18119
     18117     18116     18118     18117     18116     18119     18118     18116     18119
     18116     18119     18120     18116     18119     18121     18116     18119     18122
     18120     18119     18121     18120     18119     18122     18121     18119     18122
     18119     18122     18123     18119     18122     18124     18119     18122     18125
     18123     18122     18124     18123     18122     18125     18124     18122     18125
     18122     18125     18126     18122     18125     18127     18122     18125     18128
     18126     18125     18127     18126     18125     18128     18127     18125     18128
     18125     18128     18129     18125     18128     18130     18125     18128     18131
     18129     18128     18130     18129     18128     18131     18130     18128     18131
      2222      2221      2223      2222      2221      2225      2222      2221      2267
      2223      2221      2225      2223      2221      2267      2225      2221      2267
      2221      2223      2224      2221      2225      2226      2221      2225      2227
      2221      2225      2228      2226      2225      2227      2226      2225      2228
      2227      2225      2228      2225      2228      2229      2225      2228      2259
      2229      2228      2259      2228      2229      2230      2228      2229      2231
      2230      2229      2231      2229      2231      2232      2229      2231      2233
      2229      2231      2234      2232      2231      2233      2232      2231      2234
      2233      2231      2234      2231      2234      2235      2231      2234      2236
      2231      2234      2257      2235      2234      2236      2235      2234      2257
      2236      2234      2257      2234      2236      2237      2234      2236      2238
      2234      2236      2246      2237      2236      2238      2237      2236      2246
      2238      2236      2246      2236      2238      2239      2236      2238      2240
      2236      2238      2241      2239      2238      2240      2239      2238      2241
      2240      2238      2241      2238      2241      2242      2238      2241      2243
      2238      2241      2244      2242      2241      2243      2242      2241      2244
      2243      2241      2244      2241      2244      2245      2241      2244      2246
      2241      2244      2270      2245      2244      2246      2245      2244      2270
      2246      2244      2270      2236      2246      2244      2236      2246      2247
      2236      2246      2251      2244      2246      2247      2244      2246      2251
      2247      2246      2251      2246      2247      2248      2246      2247      2249
      2246      2247      2250      2248      2247      2249      2248      2247      2250
      2249      2247      2250      2246      2251      2252      2246      2251      2253
      2246      2251      2254      2252      2251      2253      2252      2251      2254
      2253      2251      2254      2251      2254      2255      2251      2254      2256
      2251      2254      2257      2255      2254      2256      2255      2254      2257
      2256      2254      2257      2234      2257      2254      2234      2257      2258
      2234      2257      2259      2254      2257      2258      2254      2257      2259
      2258      2257      2259      2228      2259      2257      2228      2259      2260
      2228      2259      2264      2257      2259      2260      2257      2259      2264
      2260      2259      2264      2259      2260      2261      2259      2260      2262
      2259      2260      2263      2261      2260      2262      2261      2260      2263
      2262      2260      2263      2259      2264      2265      2259      2264      2266
      2259      2264      2267      2265      2264      2266      2265      2264      2267
      2266      2264      2267      2221      2267      2264      2221      2267      2268
      2221      2267      2269      2264      2267      2268      2264      2267      2269
      2268      2267      2269      2244      2270      2271      2244      2270      2272
      2244      2270      2276      2271      2270      2272      2271      2270      2276
      2272      2270      2276      2270      2272      2273      2270      2272      2274
      2270      2272      2275      2273      2272      2274      2273      2272      2275
      2274      2272      2275      2270      2276      2277      2270      2276      2278
      2270      2276      2279      2277      2276      2278      2277      2276      2279
      2278      2276      2279      2276      2279      2280      2276      2279      2281
      2276      2279      2282      2280      2279      2281      2280      2279      2282
      2281      2279      2282      2279      2282      2283      2279      2282      2284
      2279      2282      2285      2283      2282      2284      2283      2282      2285
      2284      2282      2285      2282      2285      2286      2282      2285      2287
      2282      2285      2291      2286      2285      2287      2286      2285      2291
      2287      2285      2291      2285      2287      2288      2285      2287      2289
      2285      2287      2290      2288      2287      2289      2288      2287      2290
      2289      2287      2290      2285      2291      2292      2285      2291      2293
      2285      2291      2294      2292      2291      2293      2292      2291      2294
      2293      2291      2294      2296      2295      2297      2296      2295      2299
      2296      2295      2341      2297      2295      2299      2297      2295      2341
      2299      2295      2341      2295      2297      2298      2295      2299      2300
      2295      2299      2301      2295      2299      2302      2300      2299      2301
      2300      2299      2302      2301      2299      2302      2299      2302      2303
      2299      2302      2333      2303      2302      2333      2302      2303      2304
      2302      2303      2305      2304      2303      2305      2303      2305      2306
      2303      2305      2307      2303      2305      2308      2306      2305      2307
      2306      2305      2308      2307      2305      2308      2305      2308      2309
      2305      2308      2310      2305      2308      2331      2309      2308      2310
      2309      2308      2331      2310      2308      2331      2308      2310      2311
      2308      2310      2312      2308      2310      2320      2311      2310      2312
      2311      2310      2320      2312      2310      2320      2310      2312      2313
      2310      2312      2314      2310      2312      2315      2313      2312      2314
      2313      2312      2315      2314      2312      2315      2312      2315      2316
      2312      2315      2317      2312      2315      2318      2316      2315      2317
      2316      2315      2318      2317      2315      2318      2315      2318      2319
      2315      2318      2320      2315      2318      2344      2319      2318      2320
      2319      2318      2344      2320      2318      2344      2310      2320      2318
      2310      2320      2321      2310      2320      2325      2318      2320      2321
      2318      2320      2325      2321      2320      2325      2320      2321      2322
      2320      2321      2323      2320      2321      2324      2322      2321      2323
      2322      2321      2324      2323      2321      2324      2320      2325      2326
      2320      2325      2327      2320      2325      2328      2326      2325      2327
      2326      2325      2328      2327      2325      2328      2325      2328      2329
      2325      2328      2330      2325      2328      2331      2329      2328      2330
      2329      2328      2331      2330      2328      2331      2308      2331      2328
      2308      2331      2332      2308      2331      2333      2328      2331      2332
      2328      2331      2333      2332      2331      2333      2302      2333      2331
      2302      2333      2334      2302      2333      2338      2331      2333      2334
      2331      2333      2338      2334      2333      2338      2333      2334      2335
      2333      2334      2336      2333      2334      2337      2335      2334      2336
      2335      2334      2337      2336      2334      2337      2333      2338      2339
      2333      2338      2340      2333      2338      2341      2339      2338      2340
      2339      2338      2341      2340      2338      2341      2295      2341      2338
      2295      2341      2342      2295      2341      2343      2338      2341      2342
      2338      2341      2343      2342      2341      2343      2318      2344      2345
      2318      2344      2346      2318      2344      2350      2345      2344      2346
      2345      2344      2350      2346      2344      2350      2344      2346      2347
      2344      2346      2348      2344      2346      2349      2347      2346      2348
      2347      2346      2349      2348      2346      2349      2344      2350      2351
      2344      2350      2352      2344      2350      2353      2351      2350      2352
      2351      2350      2353      2352      2350      2353      2350      2353      2354
      2350      2353      2355      2350      2353      2356      2354      2353      2355
      2354      2353      2356      2355      2353      2356      2353      2356      2357
      2353      2356      2358      2353      2356      2359      2357      2356      2358
      2357      2356      2359      2358      2356      2359      2356      2359      2360
      2356      2359      2361      2356      2359      2365      2360      2359      2361
      2360      2359      2365      2361      2359      2365      2359      2361      2362
      2359      2361      2363      2359      2361      2364      2362      2361      2363
      2362      2361      2364      2363      2361      2364      2359      2365      2366
      2359      2365      2367      2359      2365      2368      2366      2365      2367
      2366      2365      2368      2367      2365      2368      2370      2369      2371
      2370      2369      2373      2370      2369      2415      2371      2369      2373
      2371      2369      2415      2373      2369      2415      2369      2371      2372
      2369      2373      2374      2369      2373      2375      2369      2373      2376
      2374      2373      2375      2374      2373      2376      2375      2373      2376
      2373      2376      2377      2373      2376      2407      2377      2376      2407
      2376      2377      2378      2376      2377      2379      2378      2377      2379
      2377      2379      2380      2377      2379      2381      2377      2379      2382
      2380      2379      2381      2380      2379      2382      2381      2379      2382
      2379      2382      2383      2379      2382      2384      2379      2382      2405
      2383      2382      2384      2383      2382      2405      2384      2382      2405
      2382      2384      2385      2382      2384      2386      2382      2384      2394
      2385      2384      2386      2385      2384      2394      2386      2384      2394
      2384      2386      2387      2384      2386      2388      2384      2386      2389
      2387      2386      2388      2387      2386      2389      2388      2386      2389
      2386      2389      2390      2386      2389      2391      2386      2389      2392
      2390      2389      2391      2390      2389      2392      2391      2389      2392
      2389      2392      2393      2389      2392      2394      2389      2392      2418
      2393      2392      2394      2393      2392      2418      2394      2392      2418
      2384      2394      2392      2384      2394      2395      2384      2394      2399
      2392      2394      2395      2392      2394      2399      2395      2394      2399
      2394      2395      2396      2394      2395      2397      2394      2395      2398
      2396      2395      2397      2396      2395      2398      2397      2395      2398
      2394      2399      2400      2394      2399      2401      2394      2399      2402
      2400      2399      2401      2400      2399      2402      2401      2399      2402
      2399      2402      2403      2399      2402      2404      2399      2402      2405
      2403      2402      2404      2403      2402      2405      2404      2402      2405
      2382      2405      2402      2382      2405      2406      2382      2405      2407
      2402      2405      2406      2402      2405      2407      2406      2405      2407
      2376      2407      2405      2376      2407      2408      2376      2407      2412
      2405      2407      2408      2405      2407      2412      2408      2407      2412
      2407      2408      2409      2407      2408      2410      2407      2408      2411
      2409      2408      2410      2409      2408      2411      2410      2408      2411
      2407      2412      2413      2407      2412      2414      2407      2412      2415
      2413      2412      2414      2413      2412      2415      2414      2412      2415
      2369      2415      2412      2369      2415      2416      2369      2415      2417
      2412      2415      2416      2412      2415      2417      2416      2415      2417
      2392      2418      2419      2392      2418      2420      2392      2418      2424
      2419      2418      2420      2419      2418      2424      2420      2418      2424
      2418      2420      2421      2418      2420      2422      2418      2420      2423
      2421      2420      2422      2421      2420      2423      2422      2420      2423
      2418      2424      2425      2418      2424      2426      2418      2424      2427
      2425      2424      2426      2425      2424      2427      2426      2424      2427
      2424      2427      2428      2424      2427      2429      2424      2427      2430
      2428      2427      2429      2428      2427      2430      2429      2427      2430
      2427      2430      2431      2427      2430      2432      2427      2430      2433
      2431      2430      2432      2431      2430      2433      2432      2430      2433
      2430      2433      2434      2430      2433      2435      2430      2433      2439
      2434      2433      2435      2434      2433      2439      2435      2433      2439
      2433      2435      2436      2433      2435      2437      2433      2435      2438
      2436      2435      2437      2436      2435      2438      2437      2435      2438
      2433      2439      2440      2433      2439      2441      2433      2439      2442
      2440      2439      2441      2440      2439      2442      2441      2439      2442
      2444      2443      2445      2444      2443      2447      2444      2443      2489
      2445      2443      2447      2445      2443      2489      2447      2443      2489
      2443      2445      2446      2443      2447      2448      2443      2447      2449
      2443      2447      2450      2448      2447      2449      2448      2447      2450
      2449      2447      2450      2447      2450      2451      2447      2450      2481
      2451      2450      2481      2450      2451      2452      2450      2451      2453
      2452      2451      2453      2451      2453      2454      2451      2453      2455
      2451      2453      2456      2454      2453      2455      2454      2453      2456
      2455      2453      2456      2453      2456      2457      2453      2456      2458
      2453      2456      2479      2457      2456      2458      2457      2456      2479
      2458      2456      2479      2456      2458      2459      2456      2458      2460
      2456      2458      2468      2459      2458      2460      2459      2458      2468
      2460      2458      2468      2458      2460      2461      2458      2460      2462
      2458      2460      2463      2461      2460      2462      2461      2460      2463
      2462      2460      2463      2460      2463      2464      2460      2463      2465
      2460      2463      2466      2464      2463      2465      2464      2463      2466
      2465      2463      2466      2463      2466      2467      2463      2466      2468
      2463      2466      2492      2467      2466      2468      2467      2466      2492
      2468      2466      2492      2458      2468      2466      2458      2468      2469
      2458      2468      2473      2466      2468      2469      2466      2468      2473
      2469      2468      2473      2468      2469      2470      2468      2469      2471
      2468      2469      2472      2470      2469      2471      2470      2469      2472
      2471      2469      2472      2468      2473      2474      2468      2473      2475
      2468      2473      2476      2474      2473      2475      2474      2473      2476
      2475      2473      2476      2473      2476      2477      2473      2476      2478
      2473      2476      2479      2477      2476      2478      2477      2476      2479
      2478      2476      2479      2456      2479      2476      2456      2479      2480
      2456      2479      2481      2476      2479      2480      2476      2479      2481
      2480      2479      2481      2450      2481      2479      2450      2481      2482
      2450      2481      2486      2479      2481      2482      2479      2481      2486
      2482      2481      2486      2481      2482      2483      2481      2482      2484
      2481      2482      2485      2483      2482      2484      2483      2482      2485
      2484      2482      2485      2481      2486      2487      2481      2486      2488
      2481      2486      2489      2487      2486      2488      2487      2486      2489
      2488      2486      2489      2443      2489      2486      2443      2489      2490
      2443      2489      2491      2486      2489      2490      2486      2489      2491
      2490      2489      2491      2466      2492      2493      2466      2492      2494
      2466      2492      2498      2493      2492      2494      2493      2492      2498
      2494      2492      2498      2492      2494      2495      2492      2494      2496
      2492      2494      2497      2495      2494      2496      2495      2494      2497
      2496      2494      2497      2492      2498      2499      2492      2498      2500
      2492      2498      2501      2499      2498      2500      2499      2498      2501
      2500      2498      2501      2498      2501      2502      2498      2501      2503
      2498      2501      2504      2502      2501      2503      2502      2501      2504
      2503      2501      2504      2501      2504      2505      2501      2504      2506
      2501      2504      2507      2505      2504      2506      2505      2504      2507
      2506      2504      2507      2504      2507      2508      2504      2507      2509
      2504      2507      2513      2508      2507      2509      2508      2507      2513
      2509      2507      2513      2507      2509      2510      2507      2509      2511
      2507      2509      2512      2510      2509      2511      2510      2509      2512
      2511      2509      2512      2507      2513      2514      2507      2513      2515
      2507      2513      2516      2514      2513      2515      2514      2513      2516
      2515      2513      2516     18133     18132     18134     18133     18132     18135
     18133     18132     18136     18134     18132     18135     18134     18132     18136
     18135     18132     18136     18132     18136     18137     18132     18136     18138
     18132     18136     18139     18137     18136     18138     18137     18136     18139
     18138     18136     18139     18136     18139     18140     18136     18139     18141
     18136     18139     18145     18140     18139     18141     18140     18139     18145
     18141     18139     18145     18143     18142     18144     18143     18142     18145
     18143     18142     18146     18144     18142     18145     18144     18142     18146
     18145     18142     18146     18139     18145     18142     18142     18146     18147
     18146     18147     18148     18146     18147     18149     18146     18147     18150
     18148     18147     18149     18148     18147     18150     18149     18147     18150
     18147     18150     18151     18147     18150     18152     18147     18150     18158
     18151     18150     18152     18151     18150     18158     18152     18150     18158
     18150     18152     18153     18152     18153     18154     18152     18153     18155
     18154     18153     18155     18153     18155     18156     18153     18155     18157
     18153     18155     18167     18156     18155     18157     18156     18155     18167
     18157     18155     18167     18150     18158     18159     18150     18158     18160
     18150     18158     18161     18159     18158     18160     18159     18158     18161
     18160     18158     18161     18158     18161     18162     18161     18162     18163
     18161     18162     18164     18163     18162     18164     18162     18164     18165
     18162     18164     18166     18162     18164     18214     18165     18164     18166
     18165     18164     18214     18166     18164     18214     18155     18167     18168
     18155     18167     18169     18155     18167     18170     18168     18167     18169
     18168     18167     18170     18169     18167     18170     18167     18170     18171
     18167     18170     18172     18167     18170     18173     18171     18170     18172
     18171     18170     18173     18172     18170     18173     18170     18173     18174
     18170     18173     18175     18174     18173     18175     18173     18175     18176
     18173     18175     18177     18176     18175     18177     18175     18177     18178
     18175     18177     18179     18175     18177     18180     18178     18177     18179
     18178     18177     18180     18179     18177     18180     18177     18180     18181
     18177     18180     18182     18181     18180     18182     18180     18182     18183
     18180     18182     18184     18183     18182     18184     18182     18184     18185
     18182     18184     18186     18182     18184     18187     18185     18184     18186
     18185     18184     18187     18186     18184     18187     18184     18187     18188
     18184     18187     18189     18188     18187     18189     18187     18189     18190
     18187     18189     18191     18190     18189     18191     18189     18191     18192
     18189     18191     18193     18189     18191     18194     18192     18191     18193
     18192     18191     18194     18193     18191     18194     18191     18194     18195
     18191     18194     18196     18195     18194     18196     18194     18196     18197
     18194     18196     18198     18197     18196     18198     18196     18198     18199
     18196     18198     18200     18196     18198     18201     18199     18198     18200
     18199     18198     18201     18200     18198     18201     18198     18201     18202
     18198     18201     18203     18198     18201     18204     18202     18201     18203
     18202     18201     18204     18203     18201     18204     18201     18204     18205
     18201     18204     18206     18201     18204     18207     18205     18204     18206
     18205     18204     18207     18206     18204     18207     18204     18207     18208
     18204     18207     18209     18204     18207     18210     18208     18207     18209
     18208     18207     18210     18209     18207     18210     18207     18210     18211
     18207     18210     18212     18207     18210     18213     18211     18210     18212
     18211     18210     18213     18212     18210     18213     18164     18214     18215
     18164     18214     18216     18164     18214     18217     18215     18214     18216
     18215     18214     18217     18216     18214     18217     18214     18217     18218
     18214     18217     18219     18214     18217     18220     18218     18217     18219
     18218     18217     18220     18219     18217     18220     18217     18220     18221
     18217     18220     18222     18217     18220     18223     18221     18220     18222
     18221     18220     18223     18222     18220     18223     18220     18223     18224
     18220     18223     18225     18220     18223     18226     18224     18223     18225
     18224     18223     18226     18225     18223     18226     18223     18226     18227
     18223     18226     18228     18223     18226     18229     18227     18226     18228
     18227     18226     18229     18228     18226     18229     18226     18229     18230
     18226     18229     18231     18226     18229     18232     18230     18229     18231
     18230     18229     18232     18231     18229     18232     18229     18232     18233
     18229     18232     18234     18229     18232     18235     18233     18232     18234
     18233     18232     18235     18234     18232     18235     18232     18235     18236
     18232     18235     18237     18232     18235     18238     18236     18235     18237
     18236     18235     18238     18237     18235     18238     18235     18238     18239
     18235     18238     18240     18235     18238     18241     18239     18238     18240
     18239     18238     18241     18240     18238     18241     18238     18241     18242
     18238     18241     18243     18238     18241     18244     18242     18241     18243
     18242     18241     18244     18243     18241     18244     18241     18244     18245
     18241     18244     18246     18241     18244     18247     18245     18244     18246
     18245     18244     18247     18246     18244     18247     18244     18247     18248
     18244     18247     18249     18244     18247     18250     18248     18247     18249
     18248     18247     18250     18249     18247     18250     18247     18250     18251
     18247     18250     18252     18247     18250     18253     18251     18250     18252
     18251     18250     18253     18252     18250     18253     18250     18253     18254
     18250     18253     18255     18250     18253     18256     18254     18253     18255
     18254     18253     18256     18255     18253     18256     18253     18256     18257
     18253     18256     18258     18253     18256     18259     18257     18256     18258
     18257     18256     18259     18258     18256     18259     18256     18259     18260
     18256     18259     18261     18256     18259     18262     18260     18259     18261
     18260     18259     18262     18261     18259     18262     13155     13154     13159
     13155     13154     13163     13155     13154     13167     13159     13154     13163
     13159     13154     13167     13163     13154     13167     13154     13155     13156
     13154     13155     13157     13154     13155     13158     13156     13155     13157
     13156     13155     13158     13157     13155     13158     13154     13159     13160
     13154     13159     13161     13154     13159     13162     13160     13159     13161
     13160     13159     13162     13161     13159     13162     13154     13163     13164
     13154     13163     13165     13154     13163     13166     13164     13163     13165
     13164     13163     13166     13165     13163     13166     13154     13167     13168
     13154     13167     13169     13154     13167     13170     13168     13167     13169
     13168     13167     13170     13169     13167     13170     13167     13170     13171
     13167     13170     13172     13167     13170     13177     13171     13170     13172
     13171     13170     13177     13172     13170     13177     13174     13173     13175
     13174     13173     13176     13174     13173     13177     13175     13173     13176
     13175     13173     13177     13176     13173     13177     13173     13176     13178
     13170     13177     13173     13176     13178     13179     13176     13178     13180
     13176     13178     13183     13179     13178     13180     13179     13178     13183
     13180     13178     13183     13182     13181     13183     13182     13181     13233
     13183     13181     13233     13178     13183     13181     13178     13183     13184
     13178     13183     13185     13181     13183     13184     13181     13183     13185
     13184     13183     13185     13183     13185     13186     13183     13185     13187
     13183     13185     13189     13186     13185     13187     13186     13185     13189
     13187     13185     13189     13185     13187     13188     13185     13189     13190
     13185     13189     13191     13190     13189     13191     13189     13191     13192
     13189     13191     13193     13192     13191     13193     13191     13193     13194
     13191     13193     13195     13191     13193     13196     13194     13193     13195
     13194     13193     13196     13195     13193     13196     13193     13196     13197
     13193     13196     13198     13193     13196     13199     13197     13196     13198
     13197     13196     13199     13198     13196     13199     13196     13199     13200
     13196     13199     13201     13196     13199     13202     13200     13199     13201
     13200     13199     13202     13201     13199     13202     13199     13202     13203
     13199     13202     13204     13199     13202     13205     13203     13202     13204
     13203     13202     13205     13204     13202     13205     13202     13205     13206
     13202     13205     13207     13202     13205     13208     13206     13205     13207
     13206     13205     13208     13207     13205     13208     13205     13208     13209
     13205     13208     13210     13205     13208     13211     13209     13208     13210
     13209     13208     13211     13210     13208     13211     13208     13211     13212
     13208     13211     13213     13208     13211     13214     13212     13211     13213
     13212     13211     13214     13213     13211     13214     13211     13214     13215
     13211     13214     13216     13211     13214     13217     13215     13214     13216
     13215     13214     13217     13216     13214     13217     13214     13217     13218
     13214     13217     13219     13214     13217     13220     13218     13217     13219
     13218     13217     13220     13219     13217     13220     13217     13220     13221
     13217     13220     13222     13217     13220     13223     13221     13220     13222
     13221     13220     13223     13222     13220     13223     13220     13223     13224
     13220     13223     13225     13220     13223     13226     13224     13223     13225
     13224     13223     13226     13225     13223     13226     13223     13226     13227
     13223     13226     13228     13223     13226     13229     13227     13226     13228
     13227     13226     13229     13228     13226     13229     13226     13229     13230
     13226     13229     13231     13226     13229     13232     13230     13229     13231
     13230     13229     13232     13231     13229     13232     13181     13233     13234
     13181     13233     13235     13234     13233     13235     13233     13235     13236
     13233     13235     13237     13233     13235     13238     13236     13235     13237
     13236     13235     13238     13237     13235     13238     13235     13238     13239
     13235     13238     13240     13235     13238     13241     13239     13238     13240
     13239     13238     13241     13240     13238     13241     13238     13241     13242
     13238     13241     13243     13238     13241     13244     13242     13241     13243
     13242     13241     13244     13243     13241     13244     13241     13244     13245
     13241     13244     13246     13241     13244     13247     13245     13244     13246
     13245     13244     13247     13246     13244     13247     13244     13247     13248
     13244     13247     13249     13244     13247     13250     13248     13247     13249
     13248     13247     13250     13249     13247     13250     13247     13250     13251
     13247     13250     13252     13247     13250     13253     13251     13250     13252
     13251     13250     13253     13252     13250     13253     13250     13253     13254
     13250     13253     13255     13250     13253     13256     13254     13253     13255
     13254     13253     13256     13255     13253     13256     13253     13256     13257
     13253     13256     13258     13257     13256     13258     13256     13258     13259
     13256     13258     13260     13259     13258     13260     13258     13260     13261
     13258     13260     13262     13258     13260     13263     13261     13260     13262
     13261     13260     13263     13262     13260     13263     13260     13263     13264
     13260     13263     13265     13260     13263     13266     13264     13263     13265
     13264     13263     13266     13265     13263     13266     13263     13266     13267
     13263     13266     13268     13263     13266     13269     13267     13266     13268
     13267     13266     13269     13268     13266     13269     13266     13269     13270
     13266     13269     13271     13266     13269     13272     13270     13269     13271
     13270     13269     13272     13271     13269     13272     13269     13272     13273
     13269     13272     13274     13269     13272     13275     13273     13272     13274
     13273     13272     13275     13274     13272     13275     13272     13275     13276
     13272     13275     13277     13272     13275     13278     13276     13275     13277
     13276     13275     13278     13277     13275     13278     13275     13278     13279
     13275     13278     13280     13275     13278     13281     13279     13278     13280
     13279     13278     13281     13280     13278     13281     13278     13281     13282
     13278     13281     13283     13278     13281     13284     13282     13281     13283
     13282     13281     13284     13283     13281     13284     13286     13285     13290
     13286     13285     13294     13286     13285     13298     13290     13285     13294
     13290     13285     13298     13294     13285     13298     13285     13286     13287
     13285     13286     13288     13285     13286     13289     13287     13286     13288
     13287     13286     13289     13288     13286     13289     13285     13290     13291
     13285     13290     13292     13285     13290     13293     13291     13290     13292
     13291     13290     13293     13292     13290     13293     13285     13294     13295
     13285     13294     13296     13285     13294     13297     13295     13294     13296
     13295     13294     13297     13296     13294     13297     13285     13298     13299
     13285     13298     13300     13285     13298     13301     13299     13298     13300
     13299     13298     13301     13300     13298     13301     13298     13301     13302
     13298     13301     13303     13298     13301     13308     13302     13301     13303
     13302     13301     13308     13303     13301     13308     13305     13304     13306
     13305     13304     13307     13305     13304     13308     13306     13304     13307
     13306     13304     13308     13307     13304     13308     13304     13307     13309
     13301     13308     13304     13307     13309     13310     13307     13309     13311
     13307     13309     13314     13310     13309     13311     13310     13309     13314
     13311     13309     13314     13313     13312     13314     13313     13312     13364
     13314     13312     13364     13309     13314     13312     13309     13314     13315
     13309     13314     13316     13312     13314     13315     13312     13314     13316
     13315     13314     13316     13314     13316     13317     13314     13316     13318
     13314     13316     13320     13317     13316     13318     13317     13316     13320
     13318     13316     13320     13316     13318     13319     13316     13320     13321
     13316     13320     13322     13321     13320     13322     13320     13322     13323
     13320     13322     13324     13323     13322     13324     13322     13324     13325
     13322     13324     13326     13322     13324     13327     13325     13324     13326
     13325     13324     13327     13326     13324     13327     13324     13327     13328
     13324     13327     13329     13324     13327     13330     13328     13327     13329
     13328     13327     13330     13329     13327     13330     13327     13330     13331
     13327     13330     13332     13327     13330     13333     13331     13330     13332
     13331     13330     13333     13332     13330     13333     13330     13333     13334
     13330     13333     13335     13330     13333     13336     13334     13333     13335
     13334     13333     13336     13335     13333     13336     13333     13336     13337
     13333     13336     13338     13333     13336     13339     13337     13336     13338
     13337     13336     13339     13338     13336     13339     13336     13339     13340
     13336     13339     13341     13336     13339     13342     13340     13339     13341
     13340     13339     13342     13341     13339     13342     13339     13342     13343
     13339     13342     13344     13339     13342     13345     13343     13342     13344
     13343     13342     13345     13344     13342     13345     13342     13345     13346
     13342     13345     13347     13342     13345     13348     13346     13345     13347
     13346     13345     13348     13347     13345     13348     13345     13348     13349
     13345     13348     13350     13345     13348     13351     13349     13348     13350
     13349     13348     13351     13350     13348     13351     13348     13351     13352
     13348     13351     13353     13348     13351     13354     13352     13351     13353
     13352     13351     13354     13353     13351     13354     13351     13354     13355
     13351     13354     13356     13351     13354     13357     13355     13354     13356
     13355     13354     13357     13356     13354     13357     13354     13357     13358
     13354     13357     13359     13354     13357     13360     13358     13357     13359
     13358     13357     13360     13359     13357     13360     13357     13360     13361
     13357     13360     13362     13357     13360     13363     13361     13360     13362
     13361     13360     13363     13362     13360     13363     13312     13364     13365
     13312     13364     13366     13365     13364     13366     13364     13366     13367
     13364     13366     13368     13364     13366     13369     13367     13366     13368
     13367     13366     13369     13368     13366     13369     13366     13369     13370
     13366     13369     13371     13366     13369     13372     13370     13369     13371
     13370     13369     13372     13371     13369     13372     13369     13372     13373
     13369     13372     13374     13369     13372     13375     13373     13372     13374
     13373     13372     13375     13374     13372     13375     13372     13375     13376
     13372     13375     13377     13372     13375     13378     13376     13375     13377
     13376     13375     13378     13377     13375     13378     13375     13378     13379
     13375     13378     13380     13375     13378     13381     13379     13378     13380
     13379     13378     13381     13380     13378     13381     13378     13381     13382
     13378     13381     13383     13378     13381     13384     13382     13381     13383
     13382     13381     13384     13383     13381     13384     13381     13384     13385
     13381     13384     13386     13381     13384     13387     13385     13384     13386
     13385     13384     13387     13386     13384     13387     13384     13387     13388
     13384     13387     13389     13388     13387     13389     13387     13389     13390
     13387     13389     13391     13390     13389     13391     13389     13391     13392
     13389     13391     13393     13389     13391     13394     13392     13391     13393
     13392     13391     13394     13393     13391     13394     13391     13394     13395
     13391     13394     13396     13391     13394     13397     13395     13394     13396
     13395     13394     13397     13396     13394     13397     13394     13397     13398
     13394     13397     13399     13394     13397     13400     13398     13397     13399
     13398     13397     13400     13399     13397     13400     13397     13400     13401
     13397     13400     13402     13397     13400     13403     13401     13400     13402
     13401     13400     13403     13402     13400     13403     13400     13403     13404
     13400     13403     13405     13400     13403     13406     13404     13403     13405
     13404     13403     13406     13405     13403     13406     13403     13406     13407
     13403     13406     13408     13403     13406     13409     13407     13406     13408
     13407     13406     13409     13408     13406     13409     13406     13409     13410
     13406     13409     13411     13406     13409     13412     13410     13409     13411
     13410     13409     13412     13411     13409     13412     13409     13412     13413
     13409     13412     13414     13409     13412     13415     13413     13412     13414
     13413     13412     13415     13414     13412     13415     13417     13416     13421
     13417     13416     13425     13417     13416     13429     13421     13416     13425
     13421     13416     13429     13425     13416     13429     13416     13417     13418
     13416     13417     13419     13416     13417     13420     13418     13417     13419
     13418     13417     13420     13419     13417     13420     13416     13421     13422
     13416     13421     13423     13416     13421     13424     13422     13421     13423
     13422     13421     13424     13423     13421     13424     13416     13425     13426
     13416     13425     13427     13416     13425     13428     13426     13425     13427
     13426     13425     13428     13427     13425     13428     13416     13429     13430
     13416     13429     13431     13416     13429     13432     13430     13429     13431
     13430     13429     13432     13431     13429     13432     13429     13432     13433
     13429     13432     13434     13429     13432     13439     13433     13432     13434
     13433     13432     13439     13434     13432     13439     13436     13435     13437
     13436     13435     13438     13436     13435     13439     13437     13435     13438
     13437     13435     13439     13438     13435     13439     13435     13438     13440
     13432     13439     13435     13438     13440     13441     13438     13440     13442
     13438     13440     13445     13441     13440     13442     13441     13440     13445
     13442     13440     13445     13444     13443     13445     13444     13443     13495
     13445     13443     13495     13440     13445     13443     13440     13445     13446
     13440     13445     13447     13443     13445     13446     13443     13445     13447
     13446     13445     13447     13445     13447     13448     13445     13447     13449
     13445     13447     13451     13448     13447     13449     13448     13447     13451
     13449     13447     13451     13447     13449     13450     13447     13451     13452
     13447     13451     13453     13452     13451     13453     13451     13453     13454
     13451     13453     13455     13454     13453     13455     13453     13455     13456
     13453     13455     13457     13453     13455     13458     13456     13455     13457
     13456     13455     13458     13457     13455     13458     13455     13458     13459
     13455     13458     13460     13455     13458     13461     13459     13458     13460
     13459     13458     13461     13460     13458     13461     13458     13461     13462
     13458     13461     13463     13458     13461     13464     13462     13461     13463
     13462     13461     13464     13463     13461     13464     13461     13464     13465
     13461     13464     13466     13461     13464     13467     13465     13464     13466
     13465     13464     13467     13466     13464     13467     13464     13467     13468
     13464     13467     13469     13464     13467     13470     13468     13467     13469
     13468     13467     13470     13469     13467     13470     13467     13470     13471
     13467     13470     13472     13467     13470     13473     13471     13470     13472
     13471     13470     13473     13472     13470     13473     13470     13473     13474
     13470     13473     13475     13470     13473     13476     13474     13473     13475
     13474     13473     13476     13475     13473     13476     13473     13476     13477
     13473     13476     13478     13473     13476     13479     13477     13476     13478
     13477     13476     13479     13478     13476     13479     13476     13479     13480
     13476     13479     13481     13476     13479     13482     13480     13479     13481
     13480     13479     13482     13481     13479     13482     13479     13482     13483
     13479     13482     13484     13479     13482     13485     13483     13482     13484
     13483     13482     13485     13484     13482     13485     13482     13485     13486
     13482     13485     13487     13482     13485     13488     13486     13485     13487
     13486     13485     13488     13487     13485     13488     13485     13488     13489
     13485     13488     13490     13485     13488     13491     13489     13488     13490
     13489     13488     13491     13490     13488     13491     13488     13491     13492
     13488     13491     13493     13488     13491     13494     13492     13491     13493
     13492     13491     13494     13493     13491     13494     13443     13495     13496
     13443     13495     13497     13496     13495     13497     13495     13497     13498
     13495     13497     13499     13495     13497     13500     13498     13497     13499
     13498     13497     13500     13499     13497     13500     13497     13500     13501
     13497     13500     13502     13497     13500     13503     13501     13500     13502
     13501     13500     13503     13502     13500     13503     13500     13503     13504
     13500     13503     13505     13500     13503     13506     13504     13503     13505
     13504     13503     13506     13505     13503     13506     13503     13506     13507
     13503     13506     13508     13503     13506     13509     13507     13506     13508
     13507     13506     13509     13508     13506     13509     13506     13509     13510
     13506     13509     13511     13506     13509     13512     13510     13509     13511
     13510     13509     13512     13511     13509     13512     13509     13512     13513
     13509     13512     13514     13509     13512     13515     13513     13512     13514
     13513     13512     13515     13514     13512     13515     13512     13515     13516
     13512     13515     13517     13512     13515     13518     13516     13515     13517
     13516     13515     13518     13517     13515     13518     13515     13518     13519
     13515     13518     13520     13519     13518     13520     13518     13520     13521
     13518     13520     13522     13521     13520     13522     13520     13522     13523
     13520     13522     13524     13520     13522     13525     13523     13522     13524
     13523     13522     13525     13524     13522     13525     13522     13525     13526
     13522     13525     13527     13522     13525     13528     13526     13525     13527
     13526     13525     13528     13527     13525     13528     13525     13528     13529
     13525     13528     13530     13525     13528     13531     13529     13528     13530
     13529     13528     13531     13530     13528     13531     13528     13531     13532
     13528     13531     13533     13528     13531     13534     13532     13531     13533
     13532     13531     13534     13533     13531     13534     13531     13534     13535
     13531     13534     13536     13531     13534     13537     13535     13534     13536
     13535     13534     13537     13536     13534     13537     13534     13537     13538
     13534     13537     13539     13534     13537     13540     13538     13537     13539
     13538     13537     13540     13539     13537     13540     13537     13540     13541
     13537     13540     13542     13537     13540     13543     13541     13540     13542
     13541     13540     13543     13542     13540     13543     13540     13543     13544
     13540     13543     13545     13540     13543     13546     13544     13543     13545
     13544     13543     13546     13545     13543     13546      2518      2517      2519
      2518      2517      2521      2518      2517      2563      2519      2517      2521
      2519      2517      2563      2521      2517      2563      2517      2519      2520
      2517      2521      2522      2517      2521      2523      2517      2521      2524
      2522      2521      2523      2522      2521      2524      2523      2521      2524
      2521      2524      2525      2521      2524      2555      2525      2524      2555
      2524      2525      2526      2524      2525      2527      2526      2525      2527
      2525      2527      2528      2525      2527      2529      2525      2527      2530
      2528      2527      2529      2528      2527      2530      2529      2527      2530
      2527      2530      2531      2527      2530      2532      2527      2530      2553
      2531      2530      2532      2531      2530      2553      2532      2530      2553
      2530      2532      2533      2530      2532      2534      2530      2532      2542
      2533      2532      2534      2533      2532      2542      2534      2532      2542
      2532      2534      2535      2532      2534      2536      2532      2534      2537
      2535      2534      2536      2535      2534      2537      2536      2534      2537
      2534      2537      2538      2534      2537      2539      2534      2537      2540
      2538      2537      2539      2538      2537      2540      2539      2537      2540
      2537      2540      2541      2537      2540      2542      2537      2540      2566
      2541      2540      2542      2541      2540      2566      2542      2540      2566
      2532      2542      2540      2532      2542      2543      2532      2542      2547
      2540      2542      2543      2540      2542      2547      2543      2542      2547
      2542      2543      2544      2542      2543      2545      2542      2543      2546
      2544      2543      2545      2544      2543      2546      2545      2543      2546
      2542      2547      2548      2542      2547      2549      2542      2547      2550
      2548      2547      2549      2548      2547      2550      2549      2547      2550
      2547      2550      2551      2547      2550      2552      2547      2550      2553
      2551      2550      2552      2551      2550      2553      2552      2550      2553
      2530      2553      2550      2530      2553      2554      2530      2553      2555
      2550      2553      2554      2550      2553      2555      2554      2553      2555
      2524      2555      2553      2524      2555      2556      2524      2555      2560
      2553      2555      2556      2553      2555      2560      2556      2555      2560
      2555      2556      2557      2555      2556      2558      2555      2556      2559
      2557      2556      2558      2557      2556      2559      2558      2556      2559
      2555      2560      2561      2555      2560      2562      2555      2560      2563
      2561      2560      2562      2561      2560      2563      2562      2560      2563
      2517      2563      2560      2517      2563      2564      2517      2563      2565
      2560      2563      2564      2560      2563      2565      2564      2563      2565
      2540      2566      2567      2540      2566      2568      2540      2566      2572
      2567      2566      2568      2567      2566      2572      2568      2566      2572
      2566      2568      2569      2566      2568      2570      2566      2568      2571
      2569      2568      2570      2569      2568      2571      2570      2568      2571
      2566      2572      2573      2566      2572      2574      2566      2572      2575
      2573      2572      2574      2573      2572      2575      2574      2572      2575
      2572      2575      2576      2572      2575      2577      2572      2575      2578
      2576      2575      2577      2576      2575      2578      2577      2575      2578
      2575      2578      2579      2575      2578      2580      2575      2578      2581
      2579      2578      2580      2579      2578      2581      2580      2578      2581
      2578      2581      2582      2578      2581      2583      2578      2581      2587
      2582      2581      2583      2582      2581      2587      2583      2581      2587
      2581      2583      2584      2581      2583      2585      2581      2583      2586
      2584      2583      2585      2584      2583      2586      2585      2583      2586
      2581      2587      2588      2581      2587      2589      2581      2587      2590
      2588      2587      2589      2588      2587      2590      2589      2587      2590
     13548     13547     13552     13548     13547     13556     13548     13547     13560
     13552     13547     13556     13552     13547     13560     13556     13547     13560
     13547     13548     13549     13547     13548     13550     13547     13548     13551
     13549     13548     13550     13549     13548     13551     13550     13548     13551
     13547     13552     13553     13547     13552     13554     13547     13552     13555
     13553     13552     13554     13553     13552     13555     13554     13552     13555
     13547     13556     13557     13547     13556     13558     13547     13556     13559
     13557     13556     13558     13557     13556     13559     13558     13556     13559
     13547     13560     13561     13547     13560     13562     13547     13560     13563
     13561     13560     13562     13561     13560     13563     13562     13560     13563
     13560     13563     13564     13560     13563     13565     13560     13563     13570
     13564     13563     13565     13564     13563     13570     13565     13563     13570
     13567     13566     13568     13567     13566     13569     13567     13566     13570
     13568     13566     13569     13568     13566     13570     13569     13566     13570
     13566     13569     13571     13563     13570     13566     13569     13571     13572
     13569     13571     13573     13569     13571     13576     13572     13571     13573
     13572     13571     13576     13573     13571     13576     13575     13574     13576
     13575     13574     13626     13576     13574     13626     13571     13576     13574
     13571     13576     13577     13571     13576     13578     13574     13576     13577
     13574     13576     13578     13577     13576     13578     13576     13578     13579
     13576     13578     13580     13576     13578     13582     13579     13578     13580
     13579     13578     13582     13580     13578     13582     13578     13580     13581
     13578     13582     13583     13578     13582     13584     13583     13582     13584
     13582     13584     13585     13582     13584     13586     13585     13584     13586
     13584     13586     13587     13584     13586     13588     13584     13586     13589
     13587     13586     13588     13587     13586     13589     13588     13586     13589
     13586     13589     13590     13586     13589     13591     13586     13589     13592
     13590     13589     13591     13590     13589     13592     13591     13589     13592
     13589     13592     13593     13589     13592     13594     13589     13592     13595
     13593     13592     13594     13593     13592     13595     13594     13592     13595
     13592     13595     13596     13592     13595     13597     13592     13595     13598
     13596     13595     13597     13596     13595     13598     13597     13595     13598
     13595     13598     13599     13595     13598     13600     13595     13598     13601
     13599     13598     13600     13599     13598     13601     13600     13598     13601
     13598     13601     13602     13598     13601     13603     13598     13601     13604
     13602     13601     13603     13602     13601     13604     13603     13601     13604
     13601     13604     13605     13601     13604     13606     13601     13604     13607
     13605     13604     13606     13605     13604     13607     13606     13604     13607
     13604     13607     13608     13604     13607     13609     13604     13607     13610
     13608     13607     13609     13608     13607     13610     13609     13607     13610
     13607     13610     13611     13607     13610     13612     13607     13610     13613
     13611     13610     13612     13611     13610     13613     13612     13610     13613
     13610     13613     13614     13610     13613     13615     13610     13613     13616
     13614     13613     13615     13614     13613     13616     13615     13613     13616
     13613     13616     13617     13613     13616     13618     13613     13616     13619
     13617     13616     13618     13617     13616     13619     13618     13616     13619
     13616     13619     13620     13616     13619     13621     13616     13619     13622
     13620     13619     13621     13620     13619     13622     13621     13619     13622
     13619     13622     13623     13619     13622     13624     13619     13622     13625
     13623     13622     13624     13623     13622     13625     13624     13622     13625
     13574     13626     13627     13574     13626     13628     13627     13626     13628
     13626     13628     13629     13626     13628     13630     13626     13628     13631
     13629     13628     13630     13629     13628     13631     13630     13628     13631
     13628     13631     13632     13628     13631     13633     13628     13631     13634
     13632     13631     13633     13632     13631     13634     13633     13631     13634
     13631     13634     13635     13631     13634     13636     13631     13634     13637
     13635     13634     13636     13635     13634     13637     13636     13634     13637
     13634     13637     13638     13634     13637     13639     13634     13637     13640
     13638     13637     13639     13638     13637     13640     13639     13637     13640
     13637     13640     13641     13637     13640     13642     13637     13640     13643
     13641     13640     13642     13641     13640     13643     13642     13640     13643
     13640     13643     13644     13640     13643     13645     13640     13643     13646
     13644     13643     13645     13644     13643     13646     13645     13643     13646
     13643     13646     13647     13643     13646     13648     13643     13646     13649
     13647     13646     13648     13647     13646     13649     13648     13646     13649
     13646     13649     13650     13646     13649     13651     13650     13649     13651
     13649     13651     13652     13649     13651     13653     13652     13651     13653
     13651     13653     13654     13651     13653     13655     13651     13653     13656
     13654     13653     13655     13654     13653     13656     13655     13653     13656
     13653     13656     13657     13653     13656     13658     13653     13656     13659
     13657     13656     13658     13657     13656     13659     13658     13656     13659
     13656     13659     13660     13656     13659     13661     13656     13659     13662
     13660     13659     13661     13660     13659     13662     13661     13659     13662
     13659     13662     13663     13659     13662     13664     13659     13662     13665
     13663     13662     13664     13663     13662     13665     13664     13662     13665
     13662     13665     13666     13662     13665     13667     13662     13665     13668
     13666     13665     13667     13666     13665     13668     13667     13665     13668
     13665     13668     13669     13665     13668     13670     13665     13668     13671
     13669     13668     13670     13669     13668     13671     13670     13668     13671
     13668     13671     13672     13668     13671     13673     13668     13671     13674
     13672     13671     13673     13672     13671     13674     13673     13671     13674
     13671     13674     13675     13671     13674     13676     13671     13674     13677
     13675     13674     13676     13675     13674     13677     13676     13674     13677
     13679     13678     13683     13679     13678     13687     13679     13678     13691
     13683     13678     13687     13683     13678     13691     13687     13678     13691
     13678     13679     13680     13678     13679     13681     13678     13679     13682
     13680     13679     13681     13680     13679     13682     13681     13679     13682
     13678     13683     13684     13678     13683     13685     13678     13683     13686
     13684     13683     13685     13684     13683     13686     13685     13683     13686
     13678     13687     13688     13678     13687     13689     13678     13687     13690
     13688     13687     13689     13688     13687     13690     13689     13687     13690
     13678     13691     13692     13678     13691     13693     13678     13691     13694
     13692     13691     13693     13692     13691     13694     13693     13691     13694
     13691     13694     13695     13691     13694     13696     13691     13694     13701
     13695     13694     13696     13695     13694     13701     13696     13694     13701
     13698     13697     13699     13698     13697     13700     13698     13697     13701
     13699     13697     13700     13699     13697     13701     13700     13697     13701
     13697     13700     13702     13694     13701     13697     13700     13702     13703
     13700     13702     13704     13700     13702     13707     13703     13702     13704
     13703     13702     13707     13704     13702     13707     13706     13705     13707
     13706     13705     13757     13707     13705     13757     13702     13707     13705
     13702     13707     13708     13702     13707     13709     13705     13707     13708
     13705     13707     13709     13708     13707     13709     13707     13709     13710
     13707     13709     13711     13707     13709     13713     13710     13709     13711
     13710     13709     13713     13711     13709     13713     13709     13711     13712
     13709     13713     13714     13709     13713     13715     13714     13713     13715
     13713     13715     13716     13713     13715     13717     13716     13715     13717
     13715     13717     13718     13715     13717     13719     13715     13717     13720
     13718     13717     13719     13718     13717     13720     13719     13717     13720
     13717     13720     13721     13717     13720     13722     13717     13720     13723
     13721     13720     13722     13721     13720     13723     13722     13720     13723
     13720     13723     13724     13720     13723     13725     13720     13723     13726
     13724     13723     13725     13724     13723     13726     13725     13723     13726
     13723     13726     13727     13723     13726     13728     13723     13726     13729
     13727     13726     13728     13727     13726     13729     13728     13726     13729
     13726     13729     13730     13726     13729     13731     13726     13729     13732
     13730     13729     13731     13730     13729     13732     13731     13729     13732
     13729     13732     13733     13729     13732     13734     13729     13732     13735
     13733     13732     13734     13733     13732     13735     13734     13732     13735
     13732     13735     13736     13732     13735     13737     13732     13735     13738
     13736     13735     13737     13736     13735     13738     13737     13735     13738
     13735     13738     13739     13735     13738     13740     13735     13738     13741
     13739     13738     13740     13739     13738     13741     13740     13738     13741
     13738     13741     13742     13738     13741     13743     13738     13741     13744
     13742     13741     13743     13742     13741     13744     13743     13741     13744
     13741     13744     13745     13741     13744     13746     13741     13744     13747
     13745     13744     13746     13745     13744     13747     13746     13744     13747
     13744     13747     13748     13744     13747     13749     13744     13747     13750
     13748     13747     13749     13748     13747     13750     13749     13747     13750
     13747     13750     13751     13747     13750     13752     13747     13750     13753
     13751     13750     13752     13751     13750     13753     13752     13750     13753
     13750     13753     13754     13750     13753     13755     13750     13753     13756
     13754     13753     13755     13754     13753     13756     13755     13753     13756
     13705     13757     13758     13705     13757     13759     13758     13757     13759
     13757     13759     13760     13757     13759     13761     13757     13759     13762
     13760     13759     13761     13760     13759     13762     13761     13759     13762
     13759     13762     13763     13759     13762     13764     13759     13762     13765
     13763     13762     13764     13763     13762     13765     13764     13762     13765
     13762     13765     13766     13762     13765     13767     13762     13765     13768
     13766     13765     13767     13766     13765     13768     13767     13765     13768
     13765     13768     13769     13765     13768     13770     13765     13768     13771
     13769     13768     13770     13769     13768     13771     13770     13768     13771
     13768     13771     13772     13768     13771     13773     13768     13771     13774
     13772     13771     13773     13772     13771     13774     13773     13771     13774
     13771     13774     13775     13771     13774     13776     13771     13774     13777
     13775     13774     13776     13775     13774     13777     13776     13774     13777
     13774     13777     13778     13774     13777     13779     13774     13777     13780
     13778     13777     13779     13778     13777     13780     13779     13777     13780
     13777     13780     13781     13777     13780     13782     13781     13780     13782
     13780     13782     13783     13780     13782     13784     13783     13782     13784
     13782     13784     13785     13782     13784     13786     13782     13784     13787
     13785     13784     13786     13785     13784     13787     13786     13784     13787
     13784     13787     13788     13784     13787     13789     13784     13787     13790
     13788     13787     13789     13788     13787     13790     13789     13787     13790
     13787     13790     13791     13787     13790     13792     13787     13790     13793
     13791     13790     13792     13791     13790     13793     13792     13790     13793
     13790     13793     13794     13790     13793     13795     13790     13793     13796
     13794     13793     13795     13794     13793     13796     13795     13793     13796
     13793     13796     13797     13793     13796     13798     13793     13796     13799
     13797     13796     13798     13797     13796     13799     13798     13796     13799
     13796     13799     13800     13796     13799     13801     13796     13799     13802
     13800     13799     13801     13800     13799     13802     13801     13799     13802
     13799     13802     13803     13799     13802     13804     13799     13802     13805
     13803     13802     13804     13803     13802     13805     13804     13802     13805
     13802     13805     13806     13802     13805     13807     13802     13805     13808
     13806     13805     13807     13806     13805     13808     13807     13805     13808
     13810     13809     13814     13810     13809     13818     13810     13809     13822
     13814     13809     13818     13814     13809     13822     13818     13809     13822
     13809     13810     13811     13809     13810     13812     13809     13810     13813
     13811     13810     13812     13811     13810     13813     13812     13810     13813
     13809     13814     13815     13809     13814     13816     13809     13814     13817
     13815     13814     13816     13815     13814     13817     13816     13814     13817
     13809     13818     13819     13809     13818     13820     13809     13818     13821
     13819     13818     13820     13819     13818     13821     13820     13818     13821
     13809     13822     13823     13809     13822     13824     13809     13822     13825
     13823     13822     13824     13823     13822     13825     13824     13822     13825
     13822     13825     13826     13822     13825     13827     13822     13825     13832
     13826     13825     13827     13826     13825     13832     13827     13825     13832
     13829     13828     13830     13829     13828     13831     13829     13828     13832
     13830     13828     13831     13830     13828     13832     13831     13828     13832
     13828     13831     13833     13825     13832     13828     13831     13833     13834
     13831     13833     13835     13831     13833     13838     13834     13833     13835
     13834     13833     13838     13835     13833     13838     13837     13836     13838
     13837     13836     13888     13838     13836     13888     13833     13838     13836
     13833     13838     13839     13833     13838     13840     13836     13838     13839
     13836     13838     13840     13839     13838     13840     13838     13840     13841
     13838     13840     13842     13838     13840     13844     13841     13840     13842
     13841     13840     13844     13842     13840     13844     13840     13842     13843
     13840     13844     13845     13840     13844     13846     13845     13844     13846
     13844     13846     13847     13844     13846     13848     13847     13846     13848
     13846     13848     13849     13846     13848     13850     13846     13848     13851
     13849     13848     13850     13849     13848     13851     13850     13848     13851
     13848     13851     13852     13848     13851     13853     13848     13851     13854
     13852     13851     13853     13852     13851     13854     13853     13851     13854
     13851     13854     13855     13851     13854     13856     13851     13854     13857
     13855     13854     13856     13855     13854     13857     13856     13854     13857
     13854     13857     13858     13854     13857     13859     13854     13857     13860
     13858     13857     13859     13858     13857     13860     13859     13857     13860
     13857     13860     13861     13857     13860     13862     13857     13860     13863
     13861     13860     13862     13861     13860     13863     13862     13860     13863
     13860     13863     13864     13860     13863     13865     13860     13863     13866
     13864     13863     13865     13864     13863     13866     13865     13863     13866
     13863     13866     13867     13863     13866     13868     13863     13866     13869
     13867     13866     13868     13867     13866     13869     13868     13866     13869
     13866     13869     13870     13866     13869     13871     13866     13869     13872
     13870     13869     13871     13870     13869     13872     13871     13869     13872
     13869     13872     13873     13869     13872     13874     13869     13872     13875
     13873     13872     13874     13873     13872     13875     13874     13872     13875
     13872     13875     13876     13872     13875     13877     13872     13875     13878
     13876     13875     13877     13876     13875     13878     13877     13875     13878
     13875     13878     13879     13875     13878     13880     13875     13878     13881
     13879     13878     13880     13879     13878     13881     13880     13878     13881
     13878     13881     13882     13878     13881     13883     13878     13881     13884
     13882     13881     13883     13882     13881     13884     13883     13881     13884
     13881     13884     13885     13881     13884     13886     13881     13884     13887
     13885     13884     13886     13885     13884     13887     13886     13884     13887
     13836     13888     13889     13836     13888     13890     13889     13888     13890
     13888     13890     13891     13888     13890     13892     13888     13890     13893
     13891     13890     13892     13891     13890     13893     13892     13890     13893
     13890     13893     13894     13890     13893     13895     13890     13893     13896
     13894     13893     13895     13894     13893     13896     13895     13893     13896
     13893     13896     13897     13893     13896     13898     13893     13896     13899
     13897     13896     13898     13897     13896     13899     13898     13896     13899
     13896     13899     13900     13896     13899     13901     13896     13899     13902
     13900     13899     13901     13900     13899     13902     13901     13899     13902
     13899     13902     13903     13899     13902     13904     13899     13902     13905
     13903     13902     13904     13903     13902     13905     13904     13902     13905
     13902     13905     13906     13902     13905     13907     13902     13905     13908
     13906     13905     13907     13906     13905     13908     13907     13905     13908
     13905     13908     13909     13905     13908     13910     13905     13908     13911
     13909     13908     13910     13909     13908     13911     13910     13908     13911
     13908     13911     13912     13908     13911     13913     13912     13911     13913
     13911     13913     13914     13911     13913     13915     13914     13913     13915
     13913     13915     13916     13913     13915     13917     13913     13915     13918
     13916     13915     13917     13916     13915     13918     13917     13915     13918
     13915     13918     13919     13915     13918     13920     13915     13918     13921
     13919     13918     13920     13919     13918     13921     13920     13918     13921
     13918     13921     13922     13918     13921     13923     13918     13921     13924
     13922     13921     13923     13922     13921     13924     13923     13921     13924
     13921     13924     13925     13921     13924     13926     13921     13924     13927
     13925     13924     13926     13925     13924     13927     13926     13924     13927
     13924     13927     13928     13924     13927     13929     13924     13927     13930
     13928     13927     13929     13928     13927     13930     13929     13927     13930
     13927     13930     13931     13927     13930     13932     13927     13930     13933
     13931     13930     13932     13931     13930     13933     13932     13930     13933
     13930     13933     13934     13930     13933     13935     13930     13933     13936
     13934     13933     13935     13934     13933     13936     13935     13933     13936
     13933     13936     13937     13933     13936     13938     13933     13936     13939
     13937     13936     13938     13937     13936     13939     13938     13936     13939
     13941     13940     13945     13941     13940     13949     13941     13940     13953
     13945     13940     13949     13945     13940     13953     13949     13940     13953
     13940     13941     13942     13940     13941     13943     13940     13941     13944
     13942     13941     13943     13942     13941     13944     13943     13941     13944
     13940     13945     13946     13940     13945     13947     13940     13945     13948
     13946     13945     13947     13946     13945     13948     13947     13945     13948
     13940     13949     13950     13940     13949     13951     13940     13949     13952
     13950     13949     13951     13950     13949     13952     13951     13949     13952
     13940     13953     13954     13940     13953     13955     13940     13953     13956
     13954     13953     13955     13954     13953     13956     13955     13953     13956
     13953     13956     13957     13953     13956     13958     13953     13956     13963
     13957     13956     13958     13957     13956     13963     13958     13956     13963
     13960     13959     13961     13960     13959     13962     13960     13959     13963
     13961     13959     13962     13961     13959     13963     13962     13959     13963
     13959     13962     13964     13956     13963     13959     13962     13964     13965
     13962     13964     13966     13962     13964     13969     13965     13964     13966
     13965     13964     13969     13966     13964     13969     13968     13967     13969
     13968     13967     14019     13969     13967     14019     13964     13969     13967
     13964     13969     13970     13964     13969     13971     13967     13969     13970
     13967     13969     13971     13970     13969     13971     13969     13971     13972
     13969     13971     13973     13969     13971     13975     13972     13971     13973
     13972     13971     13975     13973     13971     13975     13971     13973     13974
     13971     13975     13976     13971     13975     13977     13976     13975     13977
     13975     13977     13978     13975     13977     13979     13978     13977     13979
     13977     13979     13980     13977     13979     13981     13977     13979     13982
     13980     13979     13981     13980     13979     13982     13981     13979     13982
     13979     13982     13983     13979     13982     13984     13979     13982     13985
     13983     13982     13984     13983     13982     13985     13984     13982     13985
     13982     13985     13986     13982     13985     13987     13982     13985     13988
     13986     13985     13987     13986     13985     13988     13987     13985     13988
     13985     13988     13989     13985     13988     13990     13985     13988     13991
     13989     13988     13990     13989     13988     13991     13990     13988     13991
     13988     13991     13992     13988     13991     13993     13988     13991     13994
     13992     13991     13993     13992     13991     13994     13993     13991     13994
     13991     13994     13995     13991     13994     13996     13991     13994     13997
     13995     13994     13996     13995     13994     13997     13996     13994     13997
     13994     13997     13998     13994     13997     13999     13994     13997     14000
     13998     13997     13999     13998     13997     14000     13999     13997     14000
     13997     14000     14001     13997     14000     14002     13997     14000     14003
     14001     14000     14002     14001     14000     14003     14002     14000     14003
     14000     14003     14004     14000     14003     14005     14000     14003     14006
     14004     14003     14005     14004     14003     14006     14005     14003     14006
     14003     14006     14007     14003     14006     14008     14003     14006     14009
     14007     14006     14008     14007     14006     14009     14008     14006     14009
     14006     14009     14010     14006     14009     14011     14006     14009     14012
     14010     14009     14011     14010     14009     14012     14011     14009     14012
     14009     14012     14013     14009     14012     14014     14009     14012     14015
     14013     14012     14014     14013     14012     14015     14014     14012     14015
     14012     14015     14016     14012     14015     14017     14012     14015     14018
     14016     14015     14017     14016     14015     14018     14017     14015     14018
     13967     14019     14020     13967     14019     14021     14020     14019     14021
     14019     14021     14022     14019     14021     14023     14019     14021     14024
     14022     14021     14023     14022     14021     14024     14023     14021     14024
     14021     14024     14025     14021     14024     14026     14021     14024     14027
     14025     14024     14026     14025     14024     14027     14026     14024     14027
     14024     14027     14028     14024     14027     14029     14024     14027     14030
     14028     14027     14029     14028     14027     14030     14029     14027     14030
     14027     14030     14031     14027     14030     14032     14027     14030     14033
     14031     14030     14032     14031     14030     14033     14032     14030     14033
     14030     14033     14034     14030     14033     14035     14030     14033     14036
     14034     14033     14035     14034     14033     14036     14035     14033     14036
     14033     14036     14037     14033     14036     14038     14033     14036     14039
     14037     14036     14038     14037     14036     14039     14038     14036     14039
     14036     14039     14040     14036     14039     14041     14036     14039     14042
     14040     14039     14041     14040     14039     14042     14041     14039     14042
     14039     14042     14043     14039     14042     14044     14043     14042     14044
     14042     14044     14045     14042     14044     14046     14045     14044     14046
     14044     14046     14047     14044     14046     14048     14044     14046     14049
     14047     14046     14048     14047     14046     14049     14048     14046     14049
     14046     14049     14050     14046     14049     14051     14046     14049     14052
     14050     14049     14051     14050     14049     14052     14051     14049     14052
     14049     14052     14053     14049     14052     14054     14049     14052     14055
     14053     14052     14054     14053     14052     14055     14054     14052     14055
     14052     14055     14056     14052     14055     14057     14052     14055     14058
     14056     14055     14057     14056     14055     14058     14057     14055     14058
     14055     14058     14059     14055     14058     14060     14055     14058     14061
     14059     14058     14060     14059     14058     14061     14060     14058     14061
     14058     14061     14062     14058     14061     14063     14058     14061     14064
     14062     14061     14063     14062     14061     14064     14063     14061     14064
     14061     14064     14065     14061     14064     14066     14061     14064     14067
     14065     14064     14066     14065     14064     14067     14066     14064     14067
     14064     14067     14068     14064     14067     14069     14064     14067     14070
     14068     14067     14069     14068     14067     14070     14069     14067     14070
      2592      2591      2593      2592      2591      2595      2592      2591      2637
      2593      2591      2595      2593      2591      2637      2595      2591      2637
      2591      2593      2594      2591      2595      2596      2591      2595      2597
      2591      2595      2598      2596      2595      2597      2596      2595      2598
      2597      2595      2598      2595      2598      2599      2595      2598      2629
      2599      2598      2629      2598      2599      2600      2598      2599      2601
      2600      2599      2601      2599      2601      2602      2599      2601      2603
      2599      2601      2604      2602      2601      2603      2602      2601      2604
      2603      2601      2604      2601      2604      2605      2601      2604      2606
      2601      2604      2627      2605      2604      2606      2605      2604      2627
      2606      2604      2627      2604      2606      2607      2604      2606      2608
      2604      2606      2616      2607      2606      2608      2607      2606      2616
      2608      2606      2616      2606      2608      2609      2606      2608      2610
      2606      2608      2611      2609      2608      2610      2609      2608      2611
      2610      2608      2611      2608      2611      2612      2608      2611      2613
      2608      2611      2614      2612      2611      2613      2612      2611      2614
      2613      2611      2614      2611      2614      2615      2611      2614      2616
      2611      2614      2640      2615      2614      2616      2615      2614      2640
      2616      2614      2640      2606      2616      2614      2606      2616      2617
      2606      2616      2621      2614      2616      2617      2614      2616      2621
      2617      2616      2621      2616      2617      2618      2616      2617      2619
      2616      2617      2620      2618      2617      2619      2618      2617      2620
      2619      2617      2620      2616      2621      2622      2616      2621      2623
      2616      2621      2624      2622      2621      2623      2622      2621      2624
      2623      2621      2624      2621      2624      2625      2621      2624      2626
      2621      2624      2627      2625      2624      2626      2625      2624      2627
      2626      2624      2627      2604      2627      2624      2604      2627      2628
      2604      2627      2629      2624      2627      2628      2624      2627      2629
      2628      2627      2629      2598      2629      2627      2598      2629      2630
      2598      2629      2634      2627      2629      2630      2627      2629      2634
      2630      2629      2634      2629      2630      2631      2629      2630      2632
      2629      2630      2633      2631      2630      2632      2631      2630      2633
      2632      2630      2633      2629      2634      2635      2629      2634      2636
      2629      2634      2637      2635      2634      2636      2635      2634      2637
      2636      2634      2637      2591      2637      2634      2591      2637      2638
      2591      2637      2639      2634      2637      2638      2634      2637      2639
      2638      2637      2639      2614      2640      2641      2614      2640      2642
      2614      2640      2646      2641      2640      2642      2641      2640      2646
      2642      2640      2646      2640      2642      2643      2640      2642      2644
      2640      2642      2645      2643      2642      2644      2643      2642      2645
      2644      2642      2645      2640      2646      2647      2640      2646      2648
      2640      2646      2649      2647      2646      2648      2647      2646      2649
      2648      2646      2649      2646      2649      2650      2646      2649      2651
      2646      2649      2652      2650      2649      2651      2650      2649      2652
      2651      2649      2652      2649      2652      2653      2649      2652      2654
      2649      2652      2655      2653      2652      2654      2653      2652      2655
      2654      2652      2655      2652      2655      2656      2652      2655      2657
      2652      2655      2661      2656      2655      2657      2656      2655      2661
      2657      2655      2661      2655      2657      2658      2655      2657      2659
      2655      2657      2660      2658      2657      2659      2658      2657      2660
      2659      2657      2660      2655      2661      2662      2655      2661      2663
      2655      2661      2664      2662      2661      2663      2662      2661      2664
      2663      2661      2664      2666      2665      2667      2666      2665      2669
      2666      2665      2711      2667      2665      2669      2667      2665      2711
      2669      2665      2711      2665      2667      2668      2665      2669      2670
      2665      2669      2671      2665      2669      2672      2670      2669      2671
      2670      2669      2672      2671      2669      2672      2669      2672      2673
      2669      2672      2703      2673      2672      2703      2672      2673      2674
      2672      2673      2675      2674      2673      2675      2673      2675      2676
      2673      2675      2677      2673      2675      2678      2676      2675      2677
      2676      2675      2678      2677      2675      2678      2675      2678      2679
      2675      2678      2680      2675      2678      2701      2679      2678      2680
      2679      2678      2701      2680      2678      2701      2678      2680      2681
      2678      2680      2682      2678      2680      2690      2681      2680      2682
      2681      2680      2690      2682      2680      2690      2680      2682      2683
      2680      2682      2684      2680      2682      2685      2683      2682      2684
      2683      2682      2685      2684      2682      2685      2682      2685      2686
      2682      2685      2687      2682      2685      2688      2686      2685      2687
      2686      2685      2688      2687      2685      2688      2685      2688      2689
      2685      2688      2690      2685      2688      2714      2689      2688      2690
      2689      2688      2714      2690      2688      2714      2680      2690      2688
      2680      2690      2691      2680      2690      2695      2688      2690      2691
      2688      2690      2695      2691      2690      2695      2690      2691      2692
      2690      2691      2693      2690      2691      2694      2692      2691      2693
      2692      2691      2694      2693      2691      2694      2690      2695      2696
      2690      2695      2697      2690      2695      2698      2696      2695      2697
      2696      2695      2698      2697      2695      2698      2695      2698      2699
      2695      2698      2700      2695      2698      2701      2699      2698      2700
      2699      2698      2701      2700      2698      2701      2678      2701      2698
      2678      2701      2702      2678      2701      2703      2698      2701      2702
      2698      2701      2703      2702      2701      2703      2672      2703      2701
      2672      2703      2704      2672      2703      2708      2701      2703      2704
      2701      2703      2708      2704      2703      2708      2703      2704      2705
      2703      2704      2706      2703      2704      2707      2705      2704      2706
      2705      2704      2707      2706      2704      2707      2703      2708      2709
      2703      2708      2710      2703      2708      2711      2709      2708      2710
      2709      2708      2711      2710      2708      2711      2665      2711      2708
      2665      2711      2712      2665      2711      2713      2708      2711      2712
      2708      2711      2713      2712      2711      2713      2688      2714      2715
      2688      2714      2716      2688      2714      2720      2715      2714      2716
      2715      2714      2720      2716      2714      2720      2714      2716      2717
      2714      2716      2718      2714      2716      2719      2717      2716      2718
      2717      2716      2719      2718      2716      2719      2714      2720      2721
      2714      2720      2722      2714      2720      2723      2721      2720      2722
      2721      2720      2723      2722      2720      2723      2720      2723      2724
      2720      2723      2725      2720      2723      2726      2724      2723      2725
      2724      2723      2726      2725      2723      2726      2723      2726      2727
      2723      2726      2728      2723      2726      2729      2727      2726      2728
      2727      2726      2729      2728      2726      2729      2726      2729      2730
      2726      2729      2731      2726      2729      2735      2730      2729      2731
      2730      2729      2735      2731      2729      2735      2729      2731      2732
      2729      2731      2733      2729      2731      2734      2732      2731      2733
      2732      2731      2734      2733      2731      2734      2729      2735      2736
      2729      2735      2737      2729      2735      2738      2736      2735      2737
      2736      2735      2738      2737      2735      2738     14072     14071     14076
     14072     14071     14080     14072     14071     14084     14076     14071     14080
     14076     14071     14084     14080     14071     14084     14071     14072     14073
     14071     14072     14074     14071     14072     14075     14073     14072     14074
     14073     14072     14075     14074     14072     14075     14071     14076     14077
     14071     14076     14078     14071     14076     14079     14077     14076     14078
     14077     14076     14079     14078     14076     14079     14071     14080     14081
     14071     14080     14082     14071     14080     14083     14081     14080     14082
     14081     14080     14083     14082     14080     14083     14071     14084     14085
     14071     14084     14086     14071     14084     14087     14085     14084     14086
     14085     14084     14087     14086     14084     14087     14084     14087     14088
     14084     14087     14089     14084     14087     14094     14088     14087     14089
     14088     14087     14094     14089     14087     14094     14091     14090     14092
     14091     14090     14093     14091     14090     14094     14092     14090     14093
     14092     14090     14094     14093     14090     14094     14090     14093     14095
     14087     14094     14090     14093     14095     14096     14093     14095     14097
     14093     14095     14100     14096     14095     14097     14096     14095     14100
     14097     14095     14100     14099     14098     14100     14099     14098     14150
     14100     14098     14150     14095     14100     14098     14095     14100     14101
     14095     14100     14102     14098     14100     14101     14098     14100     14102
     14101     14100     14102     14100     14102     14103     14100     14102     14104
     14100     14102     14106     14103     14102     14104     14103     14102     14106
     14104     14102     14106     14102     14104     14105     14102     14106     14107
     14102     14106     14108     14107     14106     14108     14106     14108     14109
     14106     14108     14110     14109     14108     14110     14108     14110     14111
     14108     14110     14112     14108     14110     14113     14111     14110     14112
     14111     14110     14113     14112     14110     14113     14110     14113     14114
     14110     14113     14115     14110     14113     14116     14114     14113     14115
     14114     14113     14116     14115     14113     14116     14113     14116     14117
     14113     14116     14118     14113     14116     14119     14117     14116     14118
     14117     14116     14119     14118     14116     14119     14116     14119     14120
     14116     14119     14121     14116     14119     14122     14120     14119     14121
     14120     14119     14122     14121     14119     14122     14119     14122     14123
     14119     14122     14124     14119     14122     14125     14123     14122     14124
     14123     14122     14125     14124     14122     14125     14122     14125     14126
     14122     14125     14127     14122     14125     14128     14126     14125     14127
     14126     14125     14128     14127     14125     14128     14125     14128     14129
     14125     14128     14130     14125     14128     14131     14129     14128     14130
     14129     14128     14131     14130     14128     14131     14128     14131     14132
     14128     14131     14133     14128     14131     14134     14132     14131     14133
     14132     14131     14134     14133     14131     14134     14131     14134     14135
     14131     14134     14136     14131     14134     14137     14135     14134     14136
     14135     14134     14137     14136     14134     14137     14134     14137     14138
     14134     14137     14139     14134     14137     14140     14138     14137     14139
     14138     14137     14140     14139     14137     14140     14137     14140     14141
     14137     14140     14142     14137     14140     14143     14141     14140     14142
     14141     14140     14143     14142     14140     14143     14140     14143     14144
     14140     14143     14145     14140     14143     14146     14144     14143     14145
     14144     14143     14146     14145     14143     14146     14143     14146     14147
     14143     14146     14148     14143     14146     14149     14147     14146     14148
     14147     14146     14149     14148     14146     14149     14098     14150     14151
     14098     14150     14152     14151     14150     14152     14150     14152     14153
     14150     14152     14154     14150     14152     14155     14153     14152     14154
     14153     14152     14155     14154     14152     14155     14152     14155     14156
     14152     14155     14157     14152     14155     14158     14156     14155     14157
     14156     14155     14158     14157     14155     14158     14155     14158     14159
     14155     14158     14160     14155     14158     14161     14159     14158     14160
     14159     14158     14161     14160     14158     14161     14158     14161     14162
     14158     14161     14163     14158     14161     14164     14162     14161     14163
     14162     14161     14164     14163     14161     14164     14161     14164     14165
     14161     14164     14166     14161     14164     14167     14165     14164     14166
     14165     14164     14167     14166     14164     14167     14164     14167     14168
     14164     14167     14169     14164     14167     14170     14168     14167     14169
     14168     14167     14170     14169     14167     14170     14167     14170     14171
     14167     14170     14172     14167     14170     14173     14171     14170     14172
     14171     14170     14173     14172     14170     14173     14170     14173     14174
     14170     14173     14175     14174     14173     14175     14173     14175     14176
     14173     14175     14177     14176     14175     14177     14175     14177     14178
     14175     14177     14179     14175     14177     14180     14178     14177     14179
     14178     14177     14180     14179     14177     14180     14177     14180     14181
     14177     14180     14182     14177     14180     14183     14181     14180     14182
     14181     14180     14183     14182     14180     14183     14180     14183     14184
     14180     14183     14185     14180     14183     14186     14184     14183     14185
     14184     14183     14186     14185     14183     14186     14183     14186     14187
     14183     14186     14188     14183     14186     14189     14187     14186     14188
     14187     14186     14189     14188     14186     14189     14186     14189     14190
     14186     14189     14191     14186     14189     14192     14190     14189     14191
     14190     14189     14192     14191     14189     14192     14189     14192     14193
     14189     14192     14194     14189     14192     14195     14193     14192     14194
     14193     14192     14195     14194     14192     14195     14192     14195     14196
     14192     14195     14197     14192     14195     14198     14196     14195     14197
     14196     14195     14198     14197     14195     14198     14195     14198     14199
     14195     14198     14200     14195     14198     14201     14199     14198     14200
     14199     14198     14201     14200     14198     14201      2740      2739      2741
      2740      2739      2743      2740      2739      2785      2741      2739      2743
      2741      2739      2785      2743      2739      2785      2739      2741      2742
      2739      2743      2744      2739      2743      2745      2739      2743      2746
      2744      2743      2745      2744      2743      2746      2745      2743      2746
      2743      2746      2747      2743      2746      2777      2747      2746      2777
      2746      2747      2748      2746      2747      2749      2748      2747      2749
      2747      2749      2750      2747      2749      2751      2747      2749      2752
      2750      2749      2751      2750      2749      2752      2751      2749      2752
      2749      2752      2753      2749      2752      2754      2749      2752      2775
      2753      2752      2754      2753      2752      2775      2754      2752      2775
      2752      2754      2755      2752      2754      2756      2752      2754      2764
      2755      2754      2756      2755      2754      2764      2756      2754      2764
      2754      2756      2757      2754      2756      2758      2754      2756      2759
      2757      2756      2758      2757      2756      2759      2758      2756      2759
      2756      2759      2760      2756      2759      2761      2756      2759      2762
      2760      2759      2761      2760      2759      2762      2761      2759      2762
      2759      2762      2763      2759      2762      2764      2759      2762      2788
      2763      2762      2764      2763      2762      2788      2764      2762      2788
      2754      2764      2762      2754      2764      2765      2754      2764      2769
      2762      2764      2765      2762      2764      2769      2765      2764      2769
      2764      2765      2766      2764      2765      2767      2764      2765      2768
      2766      2765      2767      2766      2765      2768      2767      2765      2768
      2764      2769      2770      2764      2769      2771      2764      2769      2772
      2770      2769      2771      2770      2769      2772      2771      2769      2772
      2769      2772      2773      2769      2772      2774      2769      2772      2775
      2773      2772      2774      2773      2772      2775      2774      2772      2775
      2752      2775      2772      2752      2775      2776      2752      2775      2777
      2772      2775      2776      2772      2775      2777      2776      2775      2777
      2746      2777      2775      2746      2777      2778      2746      2777      2782
      2775      2777      2778      2775      2777      2782      2778      2777      2782
      2777      2778      2779      2777      2778      2780      2777      2778      2781
      2779      2778      2780      2779      2778      2781      2780      2778      2781
      2777      2782      2783      2777      2782      2784      2777      2782      2785
      2783      2782      2784      2783      2782      2785      2784      2782      2785
      2739      2785      2782      2739      2785      2786      2739      2785      2787
      2782      2785      2786      2782      2785      2787      2786      2785      2787
      2762      2788      2789      2762      2788      2790      2762      2788      2794
      2789      2788      2790      2789      2788      2794      2790      2788      2794
      2788      2790      2791      2788      2790      2792      2788      2790      2793
      2791      2790      2792      2791      2790      2793      2792      2790      2793
      2788      2794      2795      2788      2794      2796      2788      2794      2797
      2795      2794      2796      2795      2794      2797      2796      2794      2797
      2794      2797      2798      2794      2797      2799      2794      2797      2800
      2798      2797      2799      2798      2797      2800      2799      2797      2800
      2797      2800      2801      2797      2800      2802      2797      2800      2803
      2801      2800      2802      2801      2800      2803      2802      2800      2803
      2800      2803      2804      2800      2803      2805      2800      2803      2809
      2804      2803      2805      2804      2803      2809      2805      2803      2809
      2803      2805      2806      2803      2805      2807      2803      2805      2808
      2806      2805      2807      2806      2805      2808      2807      2805      2808
      2803      2809      2810      2803      2809      2811      2803      2809      2812
      2810      2809      2811      2810      2809      2812      2811      2809      2812
      2814      2813      2815      2814      2813      2817      2814      2813      2859
      2815      2813      2817      2815      2813      2859      2817      2813      2859
      2813      2815      2816      2813      2817      2818      2813      2817      2819
      2813      2817      2820      2818      2817      2819      2818      2817      2820
      2819      2817      2820      2817      2820      2821      2817      2820      2851
      2821      2820      2851      2820      2821      2822      2820      2821      2823
      2822      2821      2823      2821      2823      2824      2821      2823      2825
      2821      2823      2826      2824      2823      2825      2824      2823      2826
      2825      2823      2826      2823      2826      2827      2823      2826      2828
      2823      2826      2849      2827      2826      2828      2827      2826      2849
      2828      2826      2849      2826      2828      2829      2826      2828      2830
      2826      2828      2838      2829      2828      2830      2829      2828      2838
      2830      2828      2838      2828      2830      2831      2828      2830      2832
      2828      2830      2833      2831      2830      2832      2831      2830      2833
      2832      2830      2833      2830      2833      2834      2830      2833      2835
      2830      2833      2836      2834      2833      2835      2834      2833      2836
      2835      2833      2836      2833      2836      2837      2833      2836      2838
      2833      2836      2862      2837      2836      2838      2837      2836      2862
      2838      2836      2862      2828      2838      2836      2828      2838      2839
      2828      2838      2843      2836      2838      2839      2836      2838      2843
      2839      2838      2843      2838      2839      2840      2838      2839      2841
      2838      2839      2842      2840      2839      2841      2840      2839      2842
      2841      2839      2842      2838      2843      2844      2838      2843      2845
      2838      2843      2846      2844      2843      2845      2844      2843      2846
      2845      2843      2846      2843      2846      2847      2843      2846      2848
      2843      2846      2849      2847      2846      2848      2847      2846      2849
      2848      2846      2849      2826      2849      2846      2826      2849      2850
      2826      2849      2851      2846      2849      2850      2846      2849      2851
      2850      2849      2851      2820      2851      2849      2820      2851      2852
      2820      2851      2856      2849      2851      2852      2849      2851      2856
      2852      2851      2856      2851      2852      2853      2851      2852      2854
      2851      2852      2855      2853      2852      2854      2853      2852      2855
      2854      2852      2855      2851      2856      2857      2851      2856      2858
      2851      2856      2859      2857      2856      2858      2857      2856      2859
      2858      2856      2859      2813      2859      2856      2813      2859      2860
      2813      2859      2861      2856      2859      2860      2856      2859      2861
      2860      2859      2861      2836      2862      2863      2836      2862      2864
      2836      2862      2868      2863      2862      2864      2863      2862      2868
      2864      2862      2868      2862      2864      2865      2862      2864      2866
      2862      2864      2867      2865      2864      2866      2865      2864      2867
      2866      2864      2867      2862      2868      2869      2862      2868      2870
      2862      2868      2871      2869      2868      2870      2869      2868      2871
      2870      2868      2871      2868      2871      2872      2868      2871      2873
      2868      2871      2874      2872      2871      2873      2872      2871      2874
      2873      2871      2874      2871      2874      2875      2871      2874      2876
      2871      2874      2877      2875      2874      2876      2875      2874      2877
      2876      2874      2877      2874      2877      2878      2874      2877      2879
      2874      2877      2883      2878      2877      2879      2878      2877      2883
      2879      2877      2883      2877      2879      2880      2877      2879      2881
      2877      2879      2882      2880      2879      2881      2880      2879      2882
      2881      2879      2882      2877      2883      2884      2877      2883      2885
      2877      2883      2886      2884      2883      2885      2884      2883      2886
      2885      2883      2886      2888      2887      2889      2888      2887      2891
      2888      2887      2933      2889      2887      2891      2889      2887      2933
      2891      2887      2933      2887      2889      2890      2887      2891      2892
      2887      2891      2893      2887      2891      2894      2892      2891      2893
      2892      2891      2894      2893      2891      2894      2891      2894      2895
      2891      2894      2925      2895      2894      2925      2894      2895      2896
      2894      2895      2897      2896      2895      2897      2895      2897      2898
      2895      2897      2899      2895      2897      2900      2898      2897      2899
      2898      2897      2900      2899      2897      2900      2897      2900      2901
      2897      2900      2902      2897      2900      2923      2901      2900      2902
      2901      2900      2923      2902      2900      2923      2900      2902      2903
      2900      2902      2904      2900      2902      2912      2903      2902      2904
      2903      2902      2912      2904      2902      2912      2902      2904      2905
      2902      2904      2906      2902      2904      2907      2905      2904      2906
      2905      2904      2907      2906      2904      2907      2904      2907      2908
      2904      2907      2909      2904      2907      2910      2908      2907      2909
      2908      2907      2910      2909      2907      2910      2907      2910      2911
      2907      2910      2912      2907      2910      2936      2911      2910      2912
      2911      2910      2936      2912      2910      2936      2902      2912      2910
      2902      2912      2913      2902      2912      2917      2910      2912      2913
      2910      2912      2917      2913      2912      2917      2912      2913      2914
      2912      2913      2915      2912      2913      2916      2914      2913      2915
      2914      2913      2916      2915      2913      2916      2912      2917      2918
      2912      2917      2919      2912      2917      2920      2918      2917      2919
      2918      2917      2920      2919      2917      2920      2917      2920      2921
      2917      2920      2922      2917      2920      2923      2921      2920      2922
      2921      2920      2923      2922      2920      2923      2900      2923      2920
      2900      2923      2924      2900      2923      2925      2920      2923      2924
      2920      2923      2925      2924      2923      2925      2894      2925      2923
      2894      2925      2926      2894      2925      2930      2923      2925      2926
      2923      2925      2930      2926      2925      2930      2925      2926      2927
      2925      2926      2928      2925      2926      2929      2927      2926      2928
      2927      2926      2929      2928      2926      2929      2925      2930      2931
      2925      2930      2932      2925      2930      2933      2931      2930      2932
      2931      2930      2933      2932      2930      2933      2887      2933      2930
      2887      2933      2934      2887      2933      2935      2930      2933      2934
      2930      2933      2935      2934      2933      2935      2910      2936      2937
      2910      2936      2938      2910      2936      2942      2937      2936      2938
      2937      2936      2942      2938      2936      2942      2936      2938      2939
      2936      2938      2940      2936      2938      2941      2939      2938      2940
      2939      2938      2941      2940      2938      2941      2936      2942      2943
      2936      2942      2944      2936      2942      2945      2943      2942      2944
      2943      2942      2945      2944      2942      2945      2942      2945      2946
      2942      2945      2947      2942      2945      2948      2946      2945      2947
      2946      2945      2948      2947      2945      2948      2945      2948      2949
      2945      2948      2950      2945      2948      2951      2949      2948      2950
      2949      2948      2951      2950      2948      2951      2948      2951      2952
      2948      2951      2953      2948      2951      2957      2952      2951      2953
      2952      2951      2957      2953      2951      2957      2951      2953      2954
      2951      2953      2955      2951      2953      2956      2954      2953      2955
      2954      2953      2956      2955      2953      2956      2951      2957      2958
      2951      2957      2959      2951      2957      2960      2958      2957      2959
      2958      2957      2960      2959      2957      2960     18264     18263     18265
     18264     18263     18266     18264     18263     18267     18265     18263     18266
     18265     18263     18267     18266     18263     18267     18263     18267     18268
     18263     18267     18269     18263     18267     18270     18268     18267     18269
     18268     18267     18270     18269     18267     18270     18267     18270     18271
     18267     18270     18272     18267     18270     18276     18271     18270     18272
     18271     18270     18276     18272     18270     18276     18274     18273     18275
     18274     18273     18276     18274     18273     18277     18275     18273     18276
     18275     18273     18277     18276     18273     18277     18270     18276     18273
     18273     18277     18278     18277     18278     18279     18277     18278     18280
     18277     18278     18281     18279     18278     18280     18279     18278     18281
     18280     18278     18281     18278     18281     18282     18278     18281     18283
     18278     18281     18289     18282     18281     18283     18282     18281     18289
     18283     18281     18289     18281     18283     18284     18283     18284     18285
     18283     18284     18286     18285     18284     18286     18284     18286     18287
     18284     18286     18288     18284     18286     18298     18287     18286     18288
     18287     18286     18298     18288     18286     18298     18281     18289     18290
     18281     18289     18291     18281     18289     18292     18290     18289     18291
     18290     18289     18292     18291     18289     18292     18289     18292     18293
     18292     18293     18294     18292     18293     18295     18294     18293     18295
     18293     18295     18296     18293     18295     18297     18293     18295     18345
     18296     18295     18297     18296     18295     18345     18297     18295     18345
     18286     18298     18299     18286     18298     18300     18286     18298     18301
     18299     18298     18300     18299     18298     18301     18300     18298     18301
     18298     18301     18302     18298     18301     18303     18298     18301     18304
     18302     18301     18303     18302     18301     18304     18303     18301     18304
     18301     18304     18305     18301     18304     18306     18305     18304     18306
     18304     18306     18307     18304     18306     18308     18307     18306     18308
     18306     18308     18309     18306     18308     18310     18306     18308     18311
     18309     18308     18310     18309     18308     18311     18310     18308     18311
     18308     18311     18312     18308     18311     18313     18312     18311     18313
     18311     18313     18314     18311     18313     18315     18314     18313     18315
     18313     18315     18316     18313     18315     18317     18313     18315     18318
     18316     18315     18317     18316     18315     18318     18317     18315     18318
     18315     18318     18319     18315     18318     18320     18319     18318     18320
     18318     18320     18321     18318     18320     18322     18321     18320     18322
     18320     18322     18323     18320     18322     18324     18320     18322     18325
     18323     18322     18324     18323     18322     18325     18324     18322     18325
     18322     18325     18326     18322     18325     18327     18326     18325     18327
     18325     18327     18328     18325     18327     18329     18328     18327     18329
     18327     18329     18330     18327     18329     18331     18327     18329     18332
     18330     18329     18331     18330     18329     18332     18331     18329     18332
     18329     18332     18333     18329     18332     18334     18329     18332     18335
     18333     18332     18334     18333     18332     18335     18334     18332     18335
     18332     18335     18336     18332     18335     18337     18332     18335     18338
     18336     18335     18337     18336     18335     18338     18337     18335     18338
     18335     18338     18339     18335     18338     18340     18335     18338     18341
     18339     18338     18340     18339     18338     18341     18340     18338     18341
     18338     18341     18342     18338     18341     18343     18338     18341     18344
     18342     18341     18343     18342     18341     18344     18343     18341     18344
     18295     18345     18346     18295     18345     18347     18295     18345     18348
     18346     18345     18347     18346     18345     18348     18347     18345     18348
     18345     18348     18349     18345     18348     18350     18345     18348     18351
     18349     18348     18350     18349     18348     18351     18350     18348     18351
     18348     18351     18352     18348     18351     18353     18348     18351     18354
     18352     18351     18353     18352     18351     18354     18353     18351     18354
     18351     18354     18355     18351     18354     18356     18351     18354     18357
     18355     18354     18356     18355     18354     18357     18356     18354     18357
     18354     18357     18358     18354     18357     18359     18354     18357     18360
     18358     18357     18359     18358     18357     18360     18359     18357     18360
     18357     18360     18361     18357     18360     18362     18357     18360     18363
     18361     18360     18362     18361     18360     18363     18362     18360     18363
     18360     18363     18364     18360     18363     18365     18360     18363     18366
     18364     18363     18365     18364     18363     18366     18365     18363     18366
     18363     18366     18367     18363     18366     18368     18363     18366     18369
     18367     18366     18368     18367     18366     18369     18368     18366     18369
     18366     18369     18370     18366     18369     18371     18366     18369     18372
     18370     18369     18371     18370     18369     18372     18371     18369     18372
     18369     18372     18373     18369     18372     18374     18369     18372     18375
     18373     18372     18374     18373     18372     18375     18374     18372     18375
     18372     18375     18376     18372     18375     18377     18372     18375     18378
     18376     18375     18377     18376     18375     18378     18377     18375     18378
     18375     18378     18379     18375     18378     18380     18375     18378     18381
     18379     18378     18380     18379     18378     18381     18380     18378     18381
     18378     18381     18382     18378     18381     18383     18378     18381     18384
     18382     18381     18383     18382     18381     18384     18383     18381     18384
     18381     18384     18385     18381     18384     18386     18381     18384     18387
     18385     18384     18386     18385     18384     18387     18386     18384     18387
     18384     18387     18388     18384     18387     18389     18384     18387     18390
     18388     18387     18389     18388     18387     18390     18389     18387     18390
     18387     18390     18391     18387     18390     18392     18387     18390     18393
     18391     18390     18392     18391     18390     18393     18392     18390     18393
      2962      2961      2963      2962      2961      2965      2962      2961      3007
      2963      2961      2965      2963      2961      3007      2965      2961      3007
      2961      2963      2964      2961      2965      2966      2961      2965      2967
      2961      2965      2968      2966      2965      2967      2966      2965      2968
      2967      2965      2968      2965      2968      2969      2965      2968      2999
      2969      2968      2999      2968      2969      2970      2968      2969      2971
      2970      2969      2971      2969      2971      2972      2969      2971      2973
      2969      2971      2974      2972      2971      2973      2972      2971      2974
      2973      2971      2974      2971      2974      2975      2971      2974      2976
      2971      2974      2997      2975      2974      2976      2975      2974      2997
      2976      2974      2997      2974      2976      2977      2974      2976      2978
      2974      2976      2986      2977      2976      2978      2977      2976      2986
      2978      2976      2986      2976      2978      2979      2976      2978      2980
      2976      2978      2981      2979      2978      2980      2979      2978      2981
      2980      2978      2981      2978      2981      2982      2978      2981      2983
      2978      2981      2984      2982      2981      2983      2982      2981      2984
      2983      2981      2984      2981      2984      2985      2981      2984      2986
      2981      2984      3010      2985      2984      2986      2985      2984      3010
      2986      2984      3010      2976      2986      2984      2976      2986      2987
      2976      2986      2991      2984      2986      2987      2984      2986      2991
      2987      2986      2991      2986      2987      2988      2986      2987      2989
      2986      2987      2990      2988      2987      2989      2988      2987      2990
      2989      2987      2990      2986      2991      2992      2986      2991      2993
      2986      2991      2994      2992      2991      2993      2992      2991      2994
      2993      2991      2994      2991      2994      2995      2991      2994      2996
      2991      2994      2997      2995      2994      2996      2995      2994      2997
      2996      2994      2997      2974      2997      2994      2974      2997      2998
      2974      2997      2999      2994      2997      2998      2994      2997      2999
      2998      2997      2999      2968      2999      2997      2968      2999      3000
      2968      2999      3004      2997      2999      3000      2997      2999      3004
      3000      2999      3004      2999      3000      3001      2999      3000      3002
      2999      3000      3003      3001      3000      3002      3001      3000      3003
      3002      3000      3003      2999      3004      3005      2999      3004      3006
      2999      3004      3007      3005      3004      3006      3005      3004      3007
      3006      3004      3007      2961      3007      3004      2961      3007      3008
      2961      3007      3009      3004      3007      3008      3004      3007      3009
      3008      3007      3009      2984      3010      3011      2984      3010      3012
      2984      3010      3016      3011      3010      3012      3011      3010      3016
      3012      3010      3016      3010      3012      3013      3010      3012      3014
      3010      3012      3015      3013      3012      3014      3013      3012      3015
      3014      3012      3015      3010      3016      3017      3010      3016      3018
      3010      3016      3019      3017      3016      3018      3017      3016      3019
      3018      3016      3019      3016      3019      3020      3016      3019      3021
      3016      3019      3022      3020      3019      3021      3020      3019      3022
      3021      3019      3022      3019      3022      3023      3019      3022      3024
      3019      3022      3025      3023      3022      3024      3023      3022      3025
      3024      3022      3025      3022      3025      3026      3022      3025      3027
      3022      3025      3031      3026      3025      3027      3026      3025      3031
      3027      3025      3031      3025      3027      3028      3025      3027      3029
      3025      3027      3030      3028      3027      3029      3028      3027      3030
      3029      3027      3030      3025      3031      3032      3025      3031      3033
      3025      3031      3034      3032      3031      3033      3032      3031      3034
      3033      3031      3034      9344      9343      9345      9344      9343      9346
      9344      9343      9347      9345      9343      9346      9345      9343      9347
      9346      9343      9347      9343      9347      9348      9343      9347      9349
      9343      9347      9352      9348      9347      9349      9348      9347      9352
      9349      9347      9352      9347      9349      9350      9347      9349      9351
      9350      9349      9351      9347      9352      9353      9347      9352      9354
      9347      9352      9358      9353      9352      9354      9353      9352      9358
      9354      9352      9358      9356      9355      9357      9356      9355      9358
      9356      9355      9359      9357      9355      9358      9357      9355      9359
      9358      9355      9359      9352      9358      9355      9355      9359      9360
      9359      9360      9361      9359      9360      9362      9359      9360      9363
      9361      9360      9362      9361      9360      9363      9362      9360      9363
      9360      9363      9364      9360      9363      9365      9360      9363      9371
      9364      9363      9365      9364      9363      9371      9365      9363      9371
      9363      9365      9366      9365      9366      9367      9365      9366      9368
      9367      9366      9368      9366      9368      9369      9366      9368      9370
      9366      9368      9380      9369      9368      9370      9369      9368      9380
      9370      9368      9380      9363      9371      9372      9363      9371      9373
      9363      9371      9374      9372      9371      9373      9372      9371      9374
      9373      9371      9374      9371      9374      9375      9374      9375      9376
      9374      9375      9377      9376      9375      9377      9375      9377      9378
      9375      9377      9379      9375      9377      9427      9378      9377      9379
      9378      9377      9427      9379      9377      9427      9368      9380      9381
      9368      9380      9382      9368      9380      9383      9381      9380      9382
      9381      9380      9383      9382      9380      9383      9380      9383      9384
      9380      9383      9385      9380      9383      9386      9384      9383      9385
      9384      9383      9386      9385      9383      9386      9383      9386      9387
      9383      9386      9388      9387      9386      9388      9386      9388      9389
      9386      9388      9390      9389      9388      9390      9388      9390      9391
      9388      9390      9392      9388      9390      9393      9391      9390      9392
      9391      9390      9393      9392      9390      9393      9390      9393      9394
      9390      9393      9395      9394      9393      9395      9393      9395      9396
      9393      9395      9397      9396      9395      9397      9395      9397      9398
      9395      9397      9399      9395      9397      9400      9398      9397      9399
      9398      9397      9400      9399      9397      9400      9397      9400      9401
      9397      9400      9402      9401      9400      9402      9400      9402      9403
      9400      9402      9404      9403      9402      9404      9402      9404      9405
      9402      9404      9406      9402      9404      9407      9405      9404      9406
      9405      9404      9407      9406      9404      9407      9404      9407      9408
      9404      9407      9409      9408      9407      9409      9407      9409      9410
      9407      9409      9411      9410      9409      9411      9409      9411      9412
      9409      9411      9413      9409      9411      9414      9412      9411      9413
      9412      9411      9414      9413      9411      9414      9411      9414      9415
      9411      9414      9416      9411      9414      9417      9415      9414      9416
      9415      9414      9417      9416      9414      9417      9414      9417      9418
      9414      9417      9419      9414      9417      9420      9418      9417      9419
      9418      9417      9420      9419      9417      9420      9417      9420      9421
      9417      9420      9422      9417      9420      9423      9421      9420      9422
      9421      9420      9423      9422      9420      9423      9420      9423      9424
      9420      9423      9425      9420      9423      9426      9424      9423      9425
      9424      9423      9426      9425      9423      9426      9377      9427      9428
      9377      9427      9429      9377      9427      9430      9428      9427      9429
      9428      9427      9430      9429      9427      9430      9427      9430      9431
      9427      9430      9432      9427      9430      9433      9431      9430      9432
      9431      9430      9433      9432      9430      9433      9430      9433      9434
      9430      9433      9435      9430      9433      9436      9434      9433      9435
      9434      9433      9436      9435      9433      9436      9433      9436      9437
      9433      9436      9438      9433      9436      9439      9437      9436      9438
      9437      9436      9439      9438      9436      9439      9436      9439      9440
      9436      9439      9441      9436      9439      9442      9440      9439      9441
      9440      9439      9442      9441      9439      9442      9439      9442      9443
      9439      9442      9444      9439      9442      9445      9443      9442      9444
      9443      9442      9445      9444      9442      9445      9442      9445      9446
      9442      9445      9447      9442      9445      9448      9446      9445      9447
      9446      9445      9448      9447      9445      9448      9445      9448      9449
      9445      9448      9450      9445      9448      9451      9449      9448      9450
      9449      9448      9451      9450      9448      9451      9448      9451      9452
      9448      9451      9453      9448      9451      9454      9452      9451      9453
      9452      9451      9454      9453      9451      9454      9451      9454      9455
      9451      9454      9456      9451      9454      9457      9455      9454      9456
      9455      9454      9457      9456      9454      9457      9454      9457      9458
      9454      9457      9459      9454      9457      9460      9458      9457      9459
      9458      9457      9460      9459      9457      9460      9457      9460      9461
      9457      9460      9462      9457      9460      9463      9461      9460      9462
      9461      9460      9463      9462      9460      9463      9460      9463      9464
      9460      9463      9465      9460      9463      9466      9464      9463      9465
      9464      9463      9466      9465      9463      9466      9463      9466      9467
      9463      9466      9468      9463      9466      9469      9467      9466      9468
      9467      9466      9469      9468      9466      9469      9466      9469      9470
      9466      9469      9471      9466      9469      9472      9470      9469      9471
      9470      9469      9472      9471      9469      9472      9469      9472      9473
      9469      9472      9474      9469      9472      9475      9473      9472      9474
      9473      9472      9475      9474      9472      9475     14203     14202     14207
     14203     14202     14211     14203     14202     14215     14207     14202     14211
     14207     14202     14215     14211     14202     14215     14202     14203     14204
     14202     14203     14205     14202     14203     14206     14204     14203     14205
     14204     14203     14206     14205     14203     14206     14202     14207     14208
     14202     14207     14209     14202     14207     14210     14208     14207     14209
     14208     14207     14210     14209     14207     14210     14202     14211     14212
     14202     14211     14213     14202     14211     14214     14212     14211     14213
     14212     14211     14214     14213     14211     14214     14202     14215     14216
     14202     14215     14217     14202     14215     14218     14216     14215     14217
     14216     14215     14218     14217     14215     14218     14215     14218     14219
     14215     14218     14220     14215     14218     14225     14219     14218     14220
     14219     14218     14225     14220     14218     14225     14222     14221     14223
     14222     14221     14224     14222     14221     14225     14223     14221     14224
     14223     14221     14225     14224     14221     14225     14221     14224     14226
     14218     14225     14221     14224     14226     14227     14224     14226     14228
     14224     14226     14231     14227     14226     14228     14227     14226     14231
     14228     14226     14231     14230     14229     14231     14230     14229     14281
     14231     14229     14281     14226     14231     14229     14226     14231     14232
     14226     14231     14233     14229     14231     14232     14229     14231     14233
     14232     14231     14233     14231     14233     14234     14231     14233     14235
     14231     14233     14237     14234     14233     14235     14234     14233     14237
     14235     14233     14237     14233     14235     14236     14233     14237     14238
     14233     14237     14239     14238     14237     14239     14237     14239     14240
     14237     14239     14241     14240     14239     14241     14239     14241     14242
     14239     14241     14243     14239     14241     14244     14242     14241     14243
     14242     14241     14244     14243     14241     14244     14241     14244     14245
     14241     14244     14246     14241     14244     14247     14245     14244     14246
     14245     14244     14247     14246     14244     14247     14244     14247     14248
     14244     14247     14249     14244     14247     14250     14248     14247     14249
     14248     14247     14250     14249     14247     14250     14247     14250     14251
     14247     14250     14252     14247     14250     14253     14251     14250     14252
     14251     14250     14253     14252     14250     14253     14250     14253     14254
     14250     14253     14255     14250     14253     14256     14254     14253     14255
     14254     14253     14256     14255     14253     14256     14253     14256     14257
     14253     14256     14258     14253     14256     14259     14257     14256     14258
     14257     14256     14259     14258     14256     14259     14256     14259     14260
     14256     14259     14261     14256     14259     14262     14260     14259     14261
     14260     14259     14262     14261     14259     14262     14259     14262     14263
     14259     14262     14264     14259     14262     14265     14263     14262     14264
     14263     14262     14265     14264     14262     14265     14262     14265     14266
     14262     14265     14267     14262     14265     14268     14266     14265     14267
     14266     14265     14268     14267     14265     14268     14265     14268     14269
     14265     14268     14270     14265     14268     14271     14269     14268     14270
     14269     14268     14271     14270     14268     14271     14268     14271     14272
     14268     14271     14273     14268     14271     14274     14272     14271     14273
     14272     14271     14274     14273     14271     14274     14271     14274     14275
     14271     14274     14276     14271     14274     14277     14275     14274     14276
     14275     14274     14277     14276     14274     14277     14274     14277     14278
     14274     14277     14279     14274     14277     14280     14278     14277     14279
     14278     14277     14280     14279     14277     14280     14229     14281     14282
     14229     14281     14283     14282     14281     14283     14281     14283     14284
     14281     14283     14285     14281     14283     14286     14284     14283     14285
     14284     14283     14286     14285     14283     14286     14283     14286     14287
     14283     14286     14288     14283     14286     14289     14287     14286     14288
     14287     14286     14289     14288     14286     14289     14286     14289     14290
     14286     14289     14291     14286     14289     14292     14290     14289     14291
     14290     14289     14292     14291     14289     14292     14289     14292     14293
     14289     14292     14294     14289     14292     14295     14293     14292     14294
     14293     14292     14295     14294     14292     14295     14292     14295     14296
     14292     14295     14297     14292     14295     14298     14296     14295     14297
     14296     14295     14298     14297     14295     14298     14295     14298     14299
     14295     14298     14300     14295     14298     14301     14299     14298     14300
     14299     14298     14301     14300     14298     14301     14298     14301     14302
     14298     14301     14303     14298     14301     14304     14302     14301     14303
     14302     14301     14304     14303     14301     14304     14301     14304     14305
     14301     14304     14306     14305     14304     14306     14304     14306     14307
     14304     14306     14308     14307     14306     14308     14306     14308     14309
     14306     14308     14310     14306     14308     14311     14309     14308     14310
     14309     14308     14311     14310     14308     14311     14308     14311     14312
     14308     14311     14313     14308     14311     14314     14312     14311     14313
     14312     14311     14314     14313     14311     14314     14311     14314     14315
     14311     14314     14316     14311     14314     14317     14315     14314     14316
     14315     14314     14317     14316     14314     14317     14314     14317     14318
     14314     14317     14319     14314     14317     14320     14318     14317     14319
     14318     14317     14320     14319     14317     14320     14317     14320     14321
     14317     14320     14322     14317     14320     14323     14321     14320     14322
     14321     14320     14323     14322     14320     14323     14320     14323     14324
     14320     14323     14325     14320     14323     14326     14324     14323     14325
     14324     14323     14326     14325     14323     14326     14323     14326     14327
     14323     14326     14328     14323     14326     14329     14327     14326     14328
     14327     14326     14329     14328     14326     14329     14326     14329     14330
     14326     14329     14331     14326     14329     14332     14330     14329     14331
     14330     14329     14332     14331     14329     14332     14334     14333     14338
     14334     14333     14342     14334     14333     14346     14338     14333     14342
     14338     14333     14346     14342     14333     14346     14333     14334     14335
     14333     14334     14336     14333     14334     14337     14335     14334     14336
     14335     14334     14337     14336     14334     14337     14333     14338     14339
     14333     14338     14340     14333     14338     14341     14339     14338     14340
     14339     14338     14341     14340     14338     14341     14333     14342     14343
     14333     14342     14344     14333     14342     14345     14343     14342     14344
     14343     14342     14345     14344     14342     14345     14333     14346     14347
     14333     14346     14348     14333     14346     14349     14347     14346     14348
     14347     14346     14349     14348     14346     14349     14346     14349     14350
     14346     14349     14351     14346     14349     14356     14350     14349     14351
     14350     14349     14356     14351     14349     14356     14353     14352     14354
     14353     14352     14355     14353     14352     14356     14354     14352     14355
     14354     14352     14356     14355     14352     14356     14352     14355     14357
     14349     14356     14352     14355     14357     14358     14355     14357     14359
     14355     14357     14362     14358     14357     14359     14358     14357     14362
     14359     14357     14362     14361     14360     14362     14361     14360     14412
     14362     14360     14412     14357     14362     14360     14357     14362     14363
     14357     14362     14364     14360     14362     14363     14360     14362     14364
     14363     14362     14364     14362     14364     14365     14362     14364     14366
     14362     14364     14368     14365     14364     14366     14365     14364     14368
     14366     14364     14368     14364     14366     14367     14364     14368     14369
     14364     14368     14370     14369     14368     14370     14368     14370     14371
     14368     14370     14372     14371     14370     14372     14370     14372     14373
     14370     14372     14374     14370     14372     14375     14373     14372     14374
     14373     14372     14375     14374     14372     14375     14372     14375     14376
     14372     14375     14377     14372     14375     14378     14376     14375     14377
     14376     14375     14378     14377     14375     14378     14375     14378     14379
     14375     14378     14380     14375     14378     14381     14379     14378     14380
     14379     14378     14381     14380     14378     14381     14378     14381     14382
     14378     14381     14383     14378     14381     14384     14382     14381     14383
     14382     14381     14384     14383     14381     14384     14381     14384     14385
     14381     14384     14386     14381     14384     14387     14385     14384     14386
     14385     14384     14387     14386     14384     14387     14384     14387     14388
     14384     14387     14389     14384     14387     14390     14388     14387     14389
     14388     14387     14390     14389     14387     14390     14387     14390     14391
     14387     14390     14392     14387     14390     14393     14391     14390     14392
     14391     14390     14393     14392     14390     14393     14390     14393     14394
     14390     14393     14395     14390     14393     14396     14394     14393     14395
     14394     14393     14396     14395     14393     14396     14393     14396     14397
     14393     14396     14398     14393     14396     14399     14397     14396     14398
     14397     14396     14399     14398     14396     14399     14396     14399     14400
     14396     14399     14401     14396     14399     14402     14400     14399     14401
     14400     14399     14402     14401     14399     14402     14399     14402     14403
     14399     14402     14404     14399     14402     14405     14403     14402     14404
     14403     14402     14405     14404     14402     14405     14402     14405     14406
     14402     14405     14407     14402     14405     14408     14406     14405     14407
     14406     14405     14408     14407     14405     14408     14405     14408     14409
     14405     14408     14410     14405     14408     14411     14409     14408     14410
     14409     14408     14411     14410     14408     14411     14360     14412     14413
     14360     14412     14414     14413     14412     14414     14412     14414     14415
     14412     14414     14416     14412     14414     14417     14415     14414     14416
     14415     14414     14417     14416     14414     14417     14414     14417     14418
     14414     14417     14419     14414     14417     14420     14418     14417     14419
     14418     14417     14420     14419     14417     14420     14417     14420     14421
     14417     14420     14422     14417     14420     14423     14421     14420     14422
     14421     14420     14423     14422     14420     14423     14420     14423     14424
     14420     14423     14425     14420     14423     14426     14424     14423     14425
     14424     14423     14426     14425     14423     14426     14423     14426     14427
     14423     14426     14428     14423     14426     14429     14427     14426     14428
     14427     14426     14429     14428     14426     14429     14426     14429     14430
     14426     14429     14431     14426     14429     14432     14430     14429     14431
     14430     14429     14432     14431     14429     14432     14429     14432     14433
     14429     14432     14434     14429     14432     14435     14433     14432     14434
     14433     14432     14435     14434     14432     14435     14432     14435     14436
     14432     14435     14437     14436     14435     14437     14435     14437     14438
     14435     14437     14439     14438     14437     14439     14437     14439     14440
     14437     14439     14441     14437     14439     14442     14440     14439     14441
     14440     14439     14442     14441     14439     14442     14439     14442     14443
     14439     14442     14444     14439     14442     14445     14443     14442     14444
     14443     14442     14445     14444     14442     14445     14442     14445     14446
     14442     14445     14447     14442     14445     14448     14446     14445     14447
     14446     14445     14448     14447     14445     14448     14445     14448     14449
     14445     14448     14450     14445     14448     14451     14449     14448     14450
     14449     14448     14451     14450     14448     14451     14448     14451     14452
     14448     14451     14453     14448     14451     14454     14452     14451     14453
     14452     14451     14454     14453     14451     14454     14451     14454     14455
     14451     14454     14456     14451     14454     14457     14455     14454     14456
     14455     14454     14457     14456     14454     14457     14454     14457     14458
     14454     14457     14459     14454     14457     14460     14458     14457     14459
     14458     14457     14460     14459     14457     14460     14457     14460     14461
     14457     14460     14462     14457     14460     14463     14461     14460     14462
     14461     14460     14463     14462     14460     14463      6654      6653      6658
      6654      6653      6662      6654      6653      6666      6658      6653      6662
      6658      6653      6666      6662      6653      6666      6653      6654      6655
      6653      6654      6656      6653      6654      6657      6655      6654      6656
      6655      6654      6657      6656      6654      6657      6653      6658      6659
      6653      6658      6660      6653      6658      6661      6659      6658      6660
      6659      6658      6661      6660      6658      6661      6653      6662      6663
      6653      6662      6664      6653      6662      6665      6663      6662      6664
      6663      6662      6665      6664      6662      6665      6653      6666      6667
      6653      6666      6668      6653      6666      6669      6667      6666      6668
      6667      6666      6669      6668      6666      6669      6666      6669      6670
      6666      6669      6671      6666      6669      6675      6670      6669      6671
      6670      6669      6675      6671      6669      6675      6673      6672      6674
      6673      6672      6675      6673      6672      6676      6674      6672      6675
      6674      6672      6676      6675      6672      6676      6669      6675      6672
      6672      6676      6677      6676      6677      6678      6676      6677      6679
      6676      6677      6680      6678      6677      6679      6678      6677      6680
      6679      6677      6680      6677      6680      6681      6677      6680      6682
      6677      6680      6688      6681      6680      6682      6681      6680      6688
      6682      6680      6688      6680      6682      6683      6682      6683      6684
      6682      6683      6685      6684      6683      6685      6683      6685      6686
      6683      6685      6687      6683      6685      6697      6686      6685      6687
      6686      6685      6697      6687      6685      6697      6680      6688      6689
      6680      6688      6690      6680      6688      6691      6689      6688      6690
      6689      6688      6691      6690      6688      6691      6688      6691      6692
      6691      6692      6693      6691      6692      6694      6693      6692      6694
      6692      6694      6695      6692      6694      6696      6692      6694      6742
      6695      6694      6696      6695      6694      6742      6696      6694      6742
      6685      6697      6698      6685      6697      6699      6685      6697      6700
      6698      6697      6699      6698      6697      6700      6699      6697      6700
      6697      6700      6701      6697      6700      6702      6697      6700      6703
      6701      6700      6702      6701      6700      6703      6702      6700      6703
      6700      6703      6704      6700      6703      6705      6700      6703      6706
      6704      6703      6705      6704      6703      6706      6705      6703      6706
      6703      6706      6707      6703      6706      6708      6703      6706      6709
      6707      6706      6708      6707      6706      6709      6708      6706      6709
      6706      6709      6710      6706      6709      6711      6706      6709      6712
      6710      6709      6711      6710      6709      6712      6711      6709      6712
      6709      6712      6713      6709      6712      6714      6709      6712      6715
      6713      6712      6714      6713      6712      6715      6714      6712      6715
      6712      6715      6716      6712      6715      6717      6716      6715      6717
      6715      6717      6718      6715      6717      6719      6718      6717      6719
      6717      6719      6720      6717      6719      6721      6717      6719      6722
      6720      6719      6721      6720      6719      6722      6721      6719      6722
      6719      6722      6723      6719      6722      6724      6723      6722      6724
      6722      6724      6725      6722      6724      6726      6725      6724      6726
      6724      6726      6727      6724      6726      6728      6724      6726      6729
      6727      6726      6728      6727      6726      6729      6728      6726      6729
      6726      6729      6730      6726      6729      6731      6726      6729      6732
      6730      6729      6731      6730      6729      6732      6731      6729      6732
      6729      6732      6733      6729      6732      6734      6729      6732      6735
      6733      6732      6734      6733      6732      6735      6734      6732      6735
      6732      6735      6736      6732      6735      6737      6732      6735      6738
      6736      6735      6737      6736      6735      6738      6737      6735      6738
      6735      6738      6739      6735      6738      6740      6735      6738      6741
      6739      6738      6740      6739      6738      6741      6740      6738      6741
      6694      6742      6743      6694      6742      6744      6694      6742      6745
      6743      6742      6744      6743      6742      6745      6744      6742      6745
      6742      6745      6746      6742      6745      6747      6742      6745      6748
      6746      6745      6747      6746      6745      6748      6747      6745      6748
      6745      6748      6749      6745      6748      6750      6745      6748      6751
      6749      6748      6750      6749      6748      6751      6750      6748      6751
      6748      6751      6752      6748      6751      6753      6748      6751      6754
      6752      6751      6753      6752      6751      6754      6753      6751      6754
      6751      6754      6755      6751      6754      6756      6751      6754      6757
      6755      6754      6756      6755      6754      6757      6756      6754      6757
      6754      6757      6758      6754      6757      6759      6754      6757      6760
      6758      6757      6759      6758      6757      6760      6759      6757      6760
      6757      6760      6761      6757      6760      6762      6757      6760      6763
      6761      6760      6762      6761      6760      6763      6762      6760      6763
      6760      6763      6764      6760      6763      6765      6760      6763      6766
      6764      6763      6765      6764      6763      6766      6765      6763      6766
      6763      6766      6767      6763      6766      6768      6763      6766      6769
      6767      6766      6768      6767      6766      6769      6768      6766      6769
      6766      6769      6770      6766      6769      6771      6766      6769      6772
      6770      6769      6771      6770      6769      6772      6771      6769      6772
      6769      6772      6773      6769      6772      6774      6769      6772      6775
      6773      6772      6774      6773      6772      6775      6774      6772      6775
      6772      6775      6776      6772      6775      6777      6772      6775      6778
      6776      6775      6777      6776      6775      6778      6777      6775      6778
      6775      6778      6779      6775      6778      6780      6775      6778      6781
      6779      6778      6780      6779      6778      6781      6780      6778      6781
      6778      6781      6782      6778      6781      6783      6778      6781      6784
      6782      6781      6783      6782      6781      6784      6783      6781      6784
      6781      6784      6785      6781      6784      6786      6781      6784      6787
      6785      6784      6786      6785      6784      6787      6786      6784      6787
      6784      6787      6788      6784      6787      6789      6784      6787      6790
      6788      6787      6789      6788      6787      6790      6789      6787      6790
     14465     14464     14469     14465     14464     14473     14465     14464     14477
     14469     14464     14473     14469     14464     14477     14473     14464     14477
     14464     14465     14466     14464     14465     14467     14464     14465     14468
     14466     14465     14467     14466     14465     14468     14467     14465     14468
     14464     14469     14470     14464     14469     14471     14464     14469     14472
     14470     14469     14471     14470     14469     14472     14471     14469     14472
     14464     14473     14474     14464     14473     14475     14464     14473     14476
     14474     14473     14475     14474     14473     14476     14475     14473     14476
     14464     14477     14478     14464     14477     14479     14464     14477     14480
     14478     14477     14479     14478     14477     14480     14479     14477     14480
     14477     14480     14481     14477     14480     14482     14477     14480     14487
     14481     14480     14482     14481     14480     14487     14482     14480     14487
     14484     14483     14485     14484     14483     14486     14484     14483     14487
     14485     14483     14486     14485     14483     14487     14486     14483     14487
     14483     14486     14488     14480     14487     14483     14486     14488     14489
     14486     14488     14490     14486     14488     14493     14489     14488     14490
     14489     14488     14493     14490     14488     14493     14492     14491     14493
     14492     14491     14543     14493     14491     14543     14488     14493     14491
     14488     14493     14494     14488     14493     14495     14491     14493     14494
     14491     14493     14495     14494     14493     14495     14493     14495     14496
     14493     14495     14497     14493     14495     14499     14496     14495     14497
     14496     14495     14499     14497     14495     14499     14495     14497     14498
     14495     14499     14500     14495     14499     14501     14500     14499     14501
     14499     14501     14502     14499     14501     14503     14502     14501     14503
     14501     14503     14504     14501     14503     14505     14501     14503     14506
     14504     14503     14505     14504     14503     14506     14505     14503     14506
     14503     14506     14507     14503     14506     14508     14503     14506     14509
     14507     14506     14508     14507     14506     14509     14508     14506     14509
     14506     14509     14510     14506     14509     14511     14506     14509     14512
     14510     14509     14511     14510     14509     14512     14511     14509     14512
     14509     14512     14513     14509     14512     14514     14509     14512     14515
     14513     14512     14514     14513     14512     14515     14514     14512     14515
     14512     14515     14516     14512     14515     14517     14512     14515     14518
     14516     14515     14517     14516     14515     14518     14517     14515     14518
     14515     14518     14519     14515     14518     14520     14515     14518     14521
     14519     14518     14520     14519     14518     14521     14520     14518     14521
     14518     14521     14522     14518     14521     14523     14518     14521     14524
     14522     14521     14523     14522     14521     14524     14523     14521     14524
     14521     14524     14525     14521     14524     14526     14521     14524     14527
     14525     14524     14526     14525     14524     14527     14526     14524     14527
     14524     14527     14528     14524     14527     14529     14524     14527     14530
     14528     14527     14529     14528     14527     14530     14529     14527     14530
     14527     14530     14531     14527     14530     14532     14527     14530     14533
     14531     14530     14532     14531     14530     14533     14532     14530     14533
     14530     14533     14534     14530     14533     14535     14530     14533     14536
     14534     14533     14535     14534     14533     14536     14535     14533     14536
     14533     14536     14537     14533     14536     14538     14533     14536     14539
     14537     14536     14538     14537     14536     14539     14538     14536     14539
     14536     14539     14540     14536     14539     14541     14536     14539     14542
     14540     14539     14541     14540     14539     14542     14541     14539     14542
     14491     14543     14544     14491     14543     14545     14544     14543     14545
     14543     14545     14546     14543     14545     14547     14543     14545     14548
     14546     14545     14547     14546     14545     14548     14547     14545     14548
     14545     14548     14549     14545     14548     14550     14545     14548     14551
     14549     14548     14550     14549     14548     14551     14550     14548     14551
     14548     14551     14552     14548     14551     14553     14548     14551     14554
     14552     14551     14553     14552     14551     14554     14553     14551     14554
     14551     14554     14555     14551     14554     14556     14551     14554     14557
     14555     14554     14556     14555     14554     14557     14556     14554     14557
     14554     14557     14558     14554     14557     14559     14554     14557     14560
     14558     14557     14559     14558     14557     14560     14559     14557     14560
     14557     14560     14561     14557     14560     14562     14557     14560     14563
     14561     14560     14562     14561     14560     14563     14562     14560     14563
     14560     14563     14564     14560     14563     14565     14560     14563     14566
     14564     14563     14565     14564     14563     14566     14565     14563     14566
     14563     14566     14567     14563     14566     14568     14567     14566     14568
     14566     14568     14569     14566     14568     14570     14569     14568     14570
     14568     14570     14571     14568     14570     14572     14568     14570     14573
     14571     14570     14572     14571     14570     14573     14572     14570     14573
     14570     14573     14574     14570     14573     14575     14570     14573     14576
     14574     14573     14575     14574     14573     14576     14575     14573     14576
     14573     14576     14577     14573     14576     14578     14573     14576     14579
     14577     14576     14578     14577     14576     14579     14578     14576     14579
     14576     14579     14580     14576     14579     14581     14576     14579     14582
     14580     14579     14581     14580     14579     14582     14581     14579     14582
     14579     14582     14583     14579     14582     14584     14579     14582     14585
     14583     14582     14584     14583     14582     14585     14584     14582     14585
     14582     14585     14586     14582     14585     14587     14582     14585     14588
     14586     14585     14587     14586     14585     14588     14587     14585     14588
     14585     14588     14589     14585     14588     14590     14585     14588     14591
     14589     14588     14590     14589     14588     14591     14590     14588     14591
     14588     14591     14592     14588     14591     14593     14588     14591     14594
     14592     14591     14593     14592     14591     14594     14593     14591     14594
      5126      5125      5129      5126      5125      5133      5126      5125      5137
      5129      5125      5133      5129      5125      5137      5133      5125      5137
      5125      5126      5127      5125      5126      5128      5125      5126      5141
      5127      5126      5128      5127      5126      5141      5128      5126      5141
      5125      5129      5130      5125      5129      5131      5125      5129      5132
      5130      5129      5131      5130      5129      5132      5131      5129      5132
      5125      5133      5134      5125      5133      5135      5125      5133      5136
      5134      5133      5135      5134      5133      5136      5135      5133      5136
      5125      5137      5138      5125      5137      5139      5125      5137      5140
      5138      5137      5139      5138      5137      5140      5139      5137      5140
      5126      5141      5142      5126      5141      5143      5126      5141      5147
      5142      5141      5143      5142      5141      5147      5143      5141      5147
      5145      5144      5146      5145      5144      5147      5145      5144      5148
      5146      5144      5147      5146      5144      5148      5147      5144      5148
      5141      5147      5144      5144      5148      5149      5148      5149      5150
      5148      5149      5151      5148      5149      5152      5150      5149      5151
      5150      5149      5152      5151      5149      5152      5149      5152      5153
      5149      5152      5154      5149      5152      5160      5153      5152      5154
      5153      5152      5160      5154      5152      5160      5152      5154      5155
      5154      5155      5156      5154      5155      5157      5156      5155      5157
      5155      5157      5158      5155      5157      5159      5155      5157      5169
      5158      5157      5159      5158      5157      5169      5159      5157      5169
      5152      5160      5161      5152      5160      5162      5152      5160      5163
      5161      5160      5162      5161      5160      5163      5162      5160      5163
      5160      5163      5164      5163      5164      5165      5163      5164      5166
      5165      5164      5166      5164      5166      5167      5164      5166      5168
      5164      5166      5216      5167      5166      5168      5167      5166      5216
      5168      5166      5216      5157      5169      5170      5157      5169      5171
      5157      5169      5172      5170      5169      5171      5170      5169      5172
      5171      5169      5172      5169      5172      5173      5169      5172      5174
      5169      5172      5175      5173      5172      5174      5173      5172      5175
      5174      5172      5175      5172      5175      5176      5172      5175      5177
      5176      5175      5177      5175      5177      5178      5175      5177      5179
      5178      5177      5179      5177      5179      5180      5177      5179      5181
      5177      5179      5182      5180      5179      5181      5180      5179      5182
      5181      5179      5182      5179      5182      5183      5179      5182      5184
      5183      5182      5184      5182      5184      5185      5182      5184      5186
      5185      5184      5186      5184      5186      5187      5184      5186      5188
      5184      5186      5189      5187      5186      5188      5187      5186      5189
      5188      5186      5189      5186      5189      5190      5186      5189      5191
      5190      5189      5191      5189      5191      5192      5189      5191      5193
      5192      5191      5193      5191      5193      5194      5191      5193      5195
      5191      5193      5196      5194      5193      5195      5194      5193      5196
      5195      5193      5196      5193      5196      5197      5193      5196      5198
      5197      5196      5198      5196      5198      5199      5196      5198      5200
      5199      5198      5200      5198      5200      5201      5198      5200      5202
      5198      5200      5203      5201      5200      5202      5201      5200      5203
      5202      5200      5203      5200      5203      5204      5200      5203      5205
      5200      5203      5206      5204      5203      5205      5204      5203      5206
      5205      5203      5206      5203      5206      5207      5203      5206      5208
      5203      5206      5209      5207      5206      5208      5207      5206      5209
      5208      5206      5209      5206      5209      5210      5206      5209      5211
      5206      5209      5212      5210      5209      5211      5210      5209      5212
      5211      5209      5212      5209      5212      5213      5209      5212      5214
      5209      5212      5215      5213      5212      5214      5213      5212      5215
      5214      5212      5215      5166      5216      5217      5166      5216      5218
      5166      5216      5219      5217      5216      5218      5217      5216      5219
      5218      5216      5219      5216      5219      5220      5216      5219      5221
      5216      5219      5222      5220      5219      5221      5220      5219      5222
      5221      5219      5222      5219      5222      5223      5219      5222      5224
      5219      5222      5225      5223      5222      5224      5223      5222      5225
      5224      5222      5225      5222      5225      5226      5222      5225      5227
      5222      5225      5228      5226      5225      5227      5226      5225      5228
      5227      5225      5228      5225      5228      5229      5225      5228      5230
      5225      5228      5231      5229      5228      5230      5229      5228      5231
      5230      5228      5231      5228      5231      5232      5228      5231      5233
      5228      5231      5234      5232      5231      5233      5232      5231      5234
      5233      5231      5234      5231      5234      5235      5231      5234      5236
      5231      5234      5237      5235      5234      5236      5235      5234      5237
      5236      5234      5237      5234      5237      5238      5234      5237      5239
      5234      5237      5240      5238      5237      5239      5238      5237      5240
      5239      5237      5240      5237      5240      5241      5237      5240      5242
      5237      5240      5243      5241      5240      5242      5241      5240      5243
      5242      5240      5243      5240      5243      5244      5240      5243      5245
      5240      5243      5246      5244      5243      5245      5244      5243      5246
      5245      5243      5246      5243      5246      5247      5243      5246      5248
      5243      5246      5249      5247      5246      5248      5247      5246      5249
      5248      5246      5249      5246      5249      5250      5246      5249      5251
      5246      5249      5252      5250      5249      5251      5250      5249      5252
      5251      5249      5252      5249      5252      5253      5249      5252      5254
      5249      5252      5255      5253      5252      5254      5253      5252      5255
      5254      5252      5255      5252      5255      5256      5252      5255      5257
      5252      5255      5258      5256      5255      5257      5256      5255      5258
      5257      5255      5258      5255      5258      5259      5255      5258      5260
      5255      5258      5261      5259      5258      5260      5259      5258      5261
      5260      5258      5261      5258      5261      5262      5258      5261      5263
      5258      5261      5264      5262      5261      5263      5262      5261      5264
      5263      5261      5264      9477      9476      9478      9477      9476      9479
      9477      9476      9480      9478      9476      9479      9478      9476      9480
      9479      9476      9480      9476      9480      9481      9476      9480      9482
      9476      9480      9485      9481      9480      9482      9481      9480      9485
      9482      9480      9485      9480      9482      9483      9480      9482      9484
      9483      9482      9484      9480      9485      9486      9480      9485      9487
      9480      9485      9491      9486      9485      9487      9486      9485      9491
      9487      9485      9491      9489      9488      9490      9489      9488      9491
      9489      9488      9492      9490      9488      9491      9490      9488      9492
      9491      9488      9492      9485      9491      9488      9488      9492      9493
      9492      9493      9494      9492      9493      9495      9492      9493      9496
      9494      9493      9495      9494      9493      9496      9495      9493      9496
      9493      9496      9497      9493      9496      9498      9493      9496      9504
      9497      9496      9498      9497      9496      9504      9498      9496      9504
      9496      9498      9499      9498      9499      9500      9498      9499      9501
      9500      9499      9501      9499      9501      9502      9499      9501      9503
      9499      9501      9513      9502      9501      9503      9502      9501      9513
      9503      9501      9513      9496      9504      9505      9496      9504      9506
      9496      9504      9507      9505      9504      9506      9505      9504      9507
      9506      9504      9507      9504      9507      9508      9507      9508      9509
      9507      9508      9510      9509      9508      9510      9508      9510      9511
      9508      9510      9512      9508      9510      9560      9511      9510      9512
      9511      9510      9560      9512      9510      9560      9501      9513      9514
      9501      9513      9515      9501      9513      9516      9514      9513      9515
      9514      9513      9516      9515      9513      9516      9513      9516      9517
      9513      9516      9518      9513      9516      9519      9517      9516      9518
      9517      9516      9519      9518      9516      9519      9516      9519      9520
      9516      9519      9521      9520      9519      9521      9519      9521      9522
      9519      9521      9523      9522      9521      9523      9521      9523      9524
      9521      9523      9525      9521      9523      9526      9524      9523      9525
      9524      9523      9526      9525      9523      9526      9523      9526      9527
      9523      9526      9528      9527      9526      9528      9526      9528      9529
      9526      9528      9530      9529      9528      9530      9528      9530      9531
      9528      9530      9532      9528      9530      9533      9531      9530      9532
      9531      9530      9533      9532      9530      9533      9530      9533      9534
      9530      9533      9535      9534      9533      9535      9533      9535      9536
      9533      9535      9537      9536      9535      9537      9535      9537      9538
      9535      9537      9539      9535      9537      9540      9538      9537      9539
      9538      9537      9540      9539      9537      9540      9537      9540      9541
      9537      9540      9542      9541      9540      9542      9540      9542      9543
      9540      9542      9544      9543      9542      9544      9542      9544      9545
      9542      9544      9546      9542      9544      9547      9545      9544      9546
      9545      9544      9547      9546      9544      9547      9544      9547      9548
      9544      9547      9549      9544      9547      9550      9548      9547      9549
      9548      9547      9550      9549      9547      9550      9547      9550      9551
      9547      9550      9552      9547      9550      9553      9551      9550      9552
      9551      9550      9553      9552      9550      9553      9550      9553      9554
      9550      9553      9555      9550      9553      9556      9554      9553      9555
      9554      9553      9556      9555      9553      9556      9553      9556      9557
      9553      9556      9558      9553      9556      9559      9557      9556      9558
      9557      9556      9559      9558      9556      9559      9510      9560      9561
      9510      9560      9562      9510      9560      9563      9561      9560      9562
      9561      9560      9563      9562      9560      9563      9560      9563      9564
      9560      9563      9565      9560      9563      9566      9564      9563      9565
      9564      9563      9566      9565      9563      9566      9563      9566      9567
      9563      9566      9568      9563      9566      9569      9567      9566      9568
      9567      9566      9569      9568      9566      9569      9566      9569      9570
      9566      9569      9571      9566      9569      9572      9570      9569      9571
      9570      9569      9572      9571      9569      9572      9569      9572      9573
      9569      9572      9574      9569      9572      9575      9573      9572      9574
      9573      9572      9575      9574      9572      9575      9572      9575      9576
      9572      9575      9577      9572      9575      9578      9576      9575      9577
      9576      9575      9578      9577      9575      9578      9575      9578      9579
      9575      9578      9580      9575      9578      9581      9579      9578      9580
      9579      9578      9581      9580      9578      9581      9578      9581      9582
      9578      9581      9583      9578      9581      9584      9582      9581      9583
      9582      9581      9584      9583      9581      9584      9581      9584      9585
      9581      9584      9586      9581      9584      9587      9585      9584      9586
      9585      9584      9587      9586      9584      9587      9584      9587      9588
      9584      9587      9589      9584      9587      9590      9588      9587      9589
      9588      9587      9590      9589      9587      9590      9587      9590      9591
      9587      9590      9592      9587      9590      9593      9591      9590      9592
      9591      9590      9593      9592      9590      9593      9590      9593      9594
      9590      9593      9595      9590      9593      9596      9594      9593      9595
      9594      9593      9596      9595      9593      9596      9593      9596      9597
      9593      9596      9598      9593      9596      9599      9597      9596      9598
      9597      9596      9599      9598      9596      9599      9596      9599      9600
      9596      9599      9601      9596      9599      9602      9600      9599      9601
      9600      9599      9602      9601      9599      9602      9599      9602      9603
      9599      9602      9604      9599      9602      9605      9603      9602      9604
      9603      9602      9605      9604      9602      9605      9602      9605      9606
      9602      9605      9607      9602      9605      9608      9606      9605      9607
      9606      9605      9608      9607      9605      9608      3036      3035      3037
      3036      3035      3039      3036      3035      3081      3037      3035      3039
      3037      3035      3081      3039      3035      3081      3035      3037      3038
      3035      3039      3040      3035      3039      3041      3035      3039      3042
      3040      3039      3041      3040      3039      3042      3041      3039      3042
      3039      3042      3043      3039      3042      3073      3043      3042      3073
      3042      3043      3044      3042      3043      3045      3044      3043      3045
      3043      3045      3046      3043      3045      3047      3043      3045      3048
      3046      3045      3047      3046      3045      3048      3047      3045      3048
      3045      3048      3049      3045      3048      3050      3045      3048      3071
      3049      3048      3050      3049      3048      3071      3050      3048      3071
      3048      3050      3051      3048      3050      3052      3048      3050      3060
      3051      3050      3052      3051      3050      3060      3052      3050      3060
      3050      3052      3053      3050      3052      3054      3050      3052      3055
      3053      3052      3054      3053      3052      3055      3054      3052      3055
      3052      3055      3056      3052      3055      3057      3052      3055      3058
      3056      3055      3057      3056      3055      3058      3057      3055      3058
      3055      3058      3059      3055      3058      3060      3055      3058      3084
      3059      3058      3060      3059      3058      3084      3060      3058      3084
      3050      3060      3058      3050      3060      3061      3050      3060      3065
      3058      3060      3061      3058      3060      3065      3061      3060      3065
      3060      3061      3062      3060      3061      3063      3060      3061      3064
      3062      3061      3063      3062      3061      3064      3063      3061      3064
      3060      3065      3066      3060      3065      3067      3060      3065      3068
      3066      3065      3067      3066      3065      3068      3067      3065      3068
      3065      3068      3069      3065      3068      3070      3065      3068      3071
      3069      3068      3070      3069      3068      3071      3070      3068      3071
      3048      3071      3068      3048      3071      3072      3048      3071      3073
      3068      3071      3072      3068      3071      3073      3072      3071      3073
      3042      3073      3071      3042      3073      3074      3042      3073      3078
      3071      3073      3074      3071      3073      3078      3074      3073      3078
      3073      3074      3075      3073      3074      3076      3073      3074      3077
      3075      3074      3076      3075      3074      3077      3076      3074      3077
      3073      3078      3079      3073      3078      3080      3073      3078      3081
      3079      3078      3080      3079      3078      3081      3080      3078      3081
      3035      3081      3078      3035      3081      3082      3035      3081      3083
      3078      3081      3082      3078      3081      3083      3082      3081      3083
      3058      3084      3085      3058      3084      3086      3058      3084      3090
      3085      3084      3086      3085      3084      3090      3086      3084      3090
      3084      3086      3087      3084      3086      3088      3084      3086      3089
      3087      3086      3088      3087      3086      3089      3088      3086      3089
      3084      3090      3091      3084      3090      3092      3084      3090      3093
      3091      3090      3092      3091      3090      3093      3092      3090      3093
      3090      3093      3094      3090      3093      3095      3090      3093      3096
      3094      3093      3095      3094      3093      3096      3095      3093      3096
      3093      3096      3097      3093      3096      3098      3093      3096      3099
      3097      3096      3098      3097      3096      3099      3098      3096      3099
      3096      3099      3100      3096      3099      3101      3096      3099      3105
      3100      3099      3101      3100      3099      3105      3101      3099      3105
      3099      3101      3102      3099      3101      3103      3099      3101      3104
      3102      3101      3103      3102      3101      3104      3103      3101      3104
      3099      3105      3106      3099      3105      3107      3099      3105      3108
      3106      3105      3107      3106      3105      3108      3107      3105      3108
     20491     20490     20492     20491     20490     20493     20491     20490     20494
     20492     20490     20493     20492     20490     20494     20493     20490     20494
     20490     20494     20495     20490     20494     20496     20490     20494     20497
     20495     20494     20496     20495     20494     20497     20496     20494     20497
     20494     20497     20498     20494     20497     20499     20494     20497     20503
     20498     20497     20499     20498     20497     20503     20499     20497     20503
     20501     20500     20502     20501     20500     20503     20501     20500     20504
     20502     20500     20503     20502     20500     20504     20503     20500     20504
     20497     20503     20500     20500     20504     20505     20504     20505     20506
     20504     20505     20507     20504     20505     20508     20506     20505     20507
     20506     20505     20508     20507     20505     20508     20505     20508     20509
     20505     20508     20510     20505     20508     20516     20509     20508     20510
     20509     20508     20516     20510     20508     20516     20508     20510     20511
     20510     20511     20512     20510     20511     20513     20512     20511     20513
     20511     20513     20514     20511     20513     20515     20511     20513     20525
     20514     20513     20515     20514     20513     20525     20515     20513     20525
     20508     20516     20517     20508     20516     20518     20508     20516     20519
     20517     20516     20518     20517     20516     20519     20518     20516     20519
     20516     20519     20520     20519     20520     20521     20519     20520     20522
     20521     20520     20522     20520     20522     20523     20520     20522     20524
     20520     20522     20572     20523     20522     20524     20523     20522     20572
     20524     20522     20572     20513     20525     20526     20513     20525     20527
     20513     20525     20528     20526     20525     20527     20526     20525     20528
     20527     20525     20528     20525     20528     20529     20525     20528     20530
     20525     20528     20531     20529     20528     20530     20529     20528     20531
     20530     20528     20531     20528     20531     20532     20528     20531     20533
     20528     20531     20534     20532     20531     20533     20532     20531     20534
     20533     20531     20534     20531     20534     20535     20531     20534     20536
     20531     20534     20537     20535     20534     20536     20535     20534     20537
     20536     20534     20537     20534     20537     20538     20534     20537     20539
     20534     20537     20540     20538     20537     20539     20538     20537     20540
     20539     20537     20540     20537     20540     20541     20537     20540     20542
     20537     20540     20543     20541     20540     20542     20541     20540     20543
     20542     20540     20543     20540     20543     20544     20540     20543     20545
     20544     20543     20545     20543     20545     20546     20543     20545     20547
     20546     20545     20547     20545     20547     20548     20545     20547     20549
     20545     20547     20550     20548     20547     20549     20548     20547     20550
     20549     20547     20550     20547     20550     20551     20547     20550     20552
     20547     20550     20553     20551     20550     20552     20551     20550     20553
     20552     20550     20553     20550     20553     20554     20550     20553     20555
     20550     20553     20556     20554     20553     20555     20554     20553     20556
     20555     20553     20556     20553     20556     20557     20553     20556     20558
     20553     20556     20559     20557     20556     20558     20557     20556     20559
     20558     20556     20559     20556     20559     20560     20556     20559     20561
     20556     20559     20562     20560     20559     20561     20560     20559     20562
     20561     20559     20562     20559     20562     20563     20559     20562     20564
     20559     20562     20565     20563     20562     20564     20563     20562     20565
     20564     20562     20565     20562     20565     20566     20562     20565     20567
     20562     20565     20568     20566     20565     20567     20566     20565     20568
     20567     20565     20568     20565     20568     20569     20565     20568     20570
     20565     20568     20571     20569     20568     20570     20569     20568     20571
     20570     20568     20571     20522     20572     20573     20522     20572     20574
     20522     20572     20575     20573     20572     20574     20573     20572     20575
     20574     20572     20575     20572     20575     20576     20572     20575     20577
     20572     20575     20578     20576     20575     20577     20576     20575     20578
     20577     20575     20578     20575     20578     20579     20575     20578     20580
     20575     20578     20581     20579     20578     20580     20579     20578     20581
     20580     20578     20581     20578     20581     20582     20578     20581     20583
     20578     20581     20584     20582     20581     20583     20582     20581     20584
     20583     20581     20584     20581     20584     20585     20581     20584     20586
     20581     20584     20587     20585     20584     20586     20585     20584     20587
     20586     20584     20587     20584     20587     20588     20584     20587     20589
     20584     20587     20590     20588     20587     20589     20588     20587     20590
     20589     20587     20590     20587     20590     20591     20587     20590     20592
     20587     20590     20593     20591     20590     20592     20591     20590     20593
     20592     20590     20593     20590     20593     20594     20590     20593     20595
     20590     20593     20596     20594     20593     20595     20594     20593     20596
     20595     20593     20596     20593     20596     20597     20593     20596     20598
     20593     20596     20599     20597     20596     20598     20597     20596     20599
     20598     20596     20599     20596     20599     20600     20596     20599     20601
     20596     20599     20602     20600     20599     20601     20600     20599     20602
     20601     20599     20602     20599     20602     20603     20599     20602     20604
     20599     20602     20605     20603     20602     20604     20603     20602     20605
     20604     20602     20605     20602     20605     20606     20602     20605     20607
     20602     20605     20608     20606     20605     20607     20606     20605     20608
     20607     20605     20608     20605     20608     20609     20605     20608     20610
     20605     20608     20611     20609     20608     20610     20609     20608     20611
     20610     20608     20611     20608     20611     20612     20608     20611     20613
     20608     20611     20614     20612     20611     20613     20612     20611     20614
     20613     20611     20614     20611     20614     20615     20611     20614     20616
     20611     20614     20617     20615     20614     20616     20615     20614     20617
     20616     20614     20617     20614     20617     20618     20614     20617     20619
     20614     20617     20620     20618     20617     20619     20618     20617     20620
     20619     20617     20620      3110      3109      3111      3110      3109      3113
      3110      3109      3155      3111      3109      3113      3111      3109      3155
      3113      3109      3155      3109      3111      3112      3109      3113      3114
      3109      3113      3115      3109      3113      3116      3114      3113      3115
      3114      3113      3116      3115      3113      3116      3113      3116      3117
      3113      3116      3147      3117      3116      3147      3116      3117      3118
      3116      3117      3119      3118      3117      3119      3117      3119      3120
      3117      3119      3121      3117      3119      3122      3120      3119      3121
      3120      3119      3122      3121      3119      3122      3119      3122      3123
      3119      3122      3124      3119      3122      3145      3123      3122      3124
      3123      3122      3145      3124      3122      3145      3122      3124      3125
      3122      3124      3126      3122      3124      3134      3125      3124      3126
      3125      3124      3134      3126      3124      3134      3124      3126      3127
      3124      3126      3128      3124      3126      3129      3127      3126      3128
      3127      3126      3129      3128      3126      3129      3126      3129      3130
      3126      3129      3131      3126      3129      3132      3130      3129      3131
      3130      3129      3132      3131      3129      3132      3129      3132      3133
      3129      3132      3134      3129      3132      3158      3133      3132      3134
      3133      3132      3158      3134      3132      3158      3124      3134      3132
      3124      3134      3135      3124      3134      3139      3132      3134      3135
      3132      3134      3139      3135      3134      3139      3134      3135      3136
      3134      3135      3137      3134      3135      3138      3136      3135      3137
      3136      3135      3138      3137      3135      3138      3134      3139      3140
      3134      3139      3141      3134      3139      3142      3140      3139      3141
      3140      3139      3142      3141      3139      3142      3139      3142      3143
      3139      3142      3144      3139      3142      3145      3143      3142      3144
      3143      3142      3145      3144      3142      3145      3122      3145      3142
      3122      3145      3146      3122      3145      3147      3142      3145      3146
      3142      3145      3147      3146      3145      3147      3116      3147      3145
      3116      3147      3148      3116      3147      3152      3145      3147      3148
      3145      3147      3152      3148      3147      3152      3147      3148      3149
      3147      3148      3150      3147      3148      3151      3149      3148      3150
      3149      3148      3151      3150      3148      3151      3147      3152      3153
      3147      3152      3154      3147      3152      3155      3153      3152      3154
      3153      3152      3155      3154      3152      3155      3109      3155      3152
      3109      3155      3156      3109      3155      3157      3152      3155      3156
      3152      3155      3157      3156      3155      3157      3132      3158      3159
      3132      3158      3160      3132      3158      3164      3159      3158      3160
      3159      3158      3164      3160      3158      3164      3158      3160      3161
      3158      3160      3162      3158      3160      3163      3161      3160      3162
      3161      3160      3163      3162      3160      3163      3158      3164      3165
      3158      3164      3166      3158      3164      3167      3165      3164      3166
      3165      3164      3167      3166      3164      3167      3164      3167      3168
      3164      3167      3169      3164      3167      3170      3168      3167      3169
      3168      3167      3170      3169      3167      3170      3167      3170      3171
      3167      3170      3172      3167      3170      3173      3171      3170      3172
      3171      3170      3173      3172      3170      3173      3170      3173      3174
      3170      3173      3175      3170      3173      3179      3174      3173      3175
      3174      3173      3179      3175      3173      3179      3173      3175      3176
      3173      3175      3177      3173      3175      3178      3176      3175      3177
      3176      3175      3178      3177      3175      3178      3173      3179      3180
      3173      3179      3181      3173      3179      3182      3180      3179      3181
      3180      3179      3182      3181      3179      3182      5266      5265      5269
      5266      5265      5273      5266      5265      5277      5269      5265      5273
      5269      5265      5277      5273      5265      5277      5265      5266      5267
      5265      5266      5268      5265      5266      5281      5267      5266      5268
      5267      5266      5281      5268      5266      5281      5265      5269      5270
      5265      5269      5271      5265      5269      5272      5270      5269      5271
      5270      5269      5272      5271      5269      5272      5265      5273      5274
      5265      5273      5275      5265      5273      5276      5274      5273      5275
      5274      5273      5276      5275      5273      5276      5265      5277      5278
      5265      5277      5279      5265      5277      5280      5278      5277      5279
      5278      5277      5280      5279      5277      5280      5266      5281      5282
      5266      5281      5283      5266      5281      5287      5282      5281      5283
      5282      5281      5287      5283      5281      5287      5285      5284      5286
      5285      5284      5287      5285      5284      5288      5286      5284      5287
      5286      5284      5288      5287      5284      5288      5281      5287      5284
      5284      5288      5289      5288      5289      5290      5288      5289      5291
      5288      5289      5292      5290      5289      5291      5290      5289      5292
      5291      5289      5292      5289      5292      5293      5289      5292      5294
      5289      5292      5300      5293      5292      5294      5293      5292      5300
      5294      5292      5300      5292      5294      5295      5294      5295      5296
      5294      5295      5297      5296      5295      5297      5295      5297      5298
      5295      5297      5299      5295      5297      5309      5298      5297      5299
      5298      5297      5309      5299      5297      5309      5292      5300      5301
      5292      5300      5302      5292      5300      5303      5301      5300      5302
      5301      5300      5303      5302      5300      5303      5300      5303      5304
      5303      5304      5305      5303      5304      5306      5305      5304      5306
      5304      5306      5307      5304      5306      5308      5304      5306      5356
      5307      5306      5308      5307      5306      5356      5308      5306      5356
      5297      5309      5310      5297      5309      5311      5297      5309      5312
      5310      5309      5311      5310      5309      5312      5311      5309      5312
      5309      5312      5313      5309      5312      5314      5309      5312      5315
      5313      5312      5314      5313      5312      5315      5314      5312      5315
      5312      5315      5316      5312      5315      5317      5316      5315      5317
      5315      5317      5318      5315      5317      5319      5318      5317      5319
      5317      5319      5320      5317      5319      5321      5317      5319      5322
      5320      5319      5321      5320      5319      5322      5321      5319      5322
      5319      5322      5323      5319      5322      5324      5323      5322      5324
      5322      5324      5325      5322      5324      5326      5325      5324      5326
      5324      5326      5327      5324      5326      5328      5324      5326      5329
      5327      5326      5328      5327      5326      5329      5328      5326      5329
      5326      5329      5330      5326      5329      5331      5330      5329      5331
      5329      5331      5332      5329      5331      5333      5332      5331      5333
      5331      5333      5334      5331      5333      5335      5331      5333      5336
      5334      5333      5335      5334      5333      5336      5335      5333      5336
      5333      5336      5337      5333      5336      5338      5337      5336      5338
      5336      5338      5339      5336      5338      5340      5339      5338      5340
      5338      5340      5341      5338      5340      5342      5338      5340      5343
      5341      5340      5342      5341      5340      5343      5342      5340      5343
      5340      5343      5344      5340      5343      5345      5340      5343      5346
      5344      5343      5345      5344      5343      5346      5345      5343      5346
      5343      5346      5347      5343      5346      5348      5343      5346      5349
      5347      5346      5348      5347      5346      5349      5348      5346      5349
      5346      5349      5350      5346      5349      5351      5346      5349      5352
      5350      5349      5351      5350      5349      5352      5351      5349      5352
      5349      5352      5353      5349      5352      5354      5349      5352      5355
      5353      5352      5354      5353      5352      5355      5354      5352      5355
      5306      5356      5357      5306      5356      5358      5306      5356      5359
      5357      5356      5358      5357      5356      5359      5358      5356      5359
      5356      5359      5360      5356      5359      5361      5356      5359      5362
      5360      5359      5361      5360      5359      5362      5361      5359      5362
      5359      5362      5363      5359      5362      5364      5359      5362      5365
      5363      5362      5364      5363      5362      5365      5364      5362      5365
      5362      5365      5366      5362      5365      5367      5362      5365      5368
      5366      5365      5367      5366      5365      5368      5367      5365      5368
      5365      5368      5369      5365      5368      5370      5365      5368      5371
      5369      5368      5370      5369      5368      5371      5370      5368      5371
      5368      5371      5372      5368      5371      5373      5368      5371      5374
      5372      5371      5373      5372      5371      5374      5373      5371      5374
      5371      5374      5375      5371      5374      5376      5371      5374      5377
      5375      5374      5376      5375      5374      5377      5376      5374      5377
      5374      5377      5378      5374      5377      5379      5374      5377      5380
      5378      5377      5379      5378      5377      5380      5379      5377      5380
      5377      5380      5381      5377      5380      5382      5377      5380      5383
      5381      5380      5382      5381      5380      5383      5382      5380      5383
      5380      5383      5384      5380      5383      5385      5380      5383      5386
      5384      5383      5385      5384      5383      5386      5385      5383      5386
      5383      5386      5387      5383      5386      5388      5383      5386      5389
      5387      5386      5388      5387      5386      5389      5388      5386      5389
      5386      5389      5390      5386      5389      5391      5386      5389      5392
      5390      5389      5391      5390      5389      5392      5391      5389      5392
      5389      5392      5393      5389      5392      5394      5389      5392      5395
      5393      5392      5394      5393      5392      5395      5394      5392      5395
      5392      5395      5396      5392      5395      5397      5392      5395      5398
      5396      5395      5397      5396      5395      5398      5397      5395      5398
      5395      5398      5399      5395      5398      5400      5395      5398      5401
      5399      5398      5400      5399      5398      5401      5400      5398      5401
      5398      5401      5402      5398      5401      5403      5398      5401      5404
      5402      5401      5403      5402      5401      5404      5403      5401      5404
      9610      9609      9611      9610      9609      9612      9610      9609      9613
      9611      9609      9612      9611      9609      9613      9612      9609      9613
      9609      9613      9614      9609      9613      9615      9609      9613      9618
      9614      9613      9615      9614      9613      9618      9615      9613      9618
      9613      9615      9616      9613      9615      9617      9616      9615      9617
      9613      9618      9619      9613      9618      9620      9613      9618      9624
      9619      9618      9620      9619      9618      9624      9620      9618      9624
      9622      9621      9623      9622      9621      9624      9622      9621      9625
      9623      9621      9624      9623      9621      9625      9624      9621      9625
      9618      9624      9621      9621      9625      9626      9625      9626      9627
      9625      9626      9628      9625      9626      9629      9627      9626      9628
      9627      9626      9629      9628      9626      9629      9626      9629      9630
      9626      9629      9631      9626      9629      9637      9630      9629      9631
      9630      9629      9637      9631      9629      9637      9629      9631      9632
      9631      9632      9633      9631      9632      9634      9633      9632      9634
      9632      9634      9635      9632      9634      9636      9632      9634      9646
      9635      9634      9636      9635      9634      9646      9636      9634      9646
      9629      9637      9638      9629      9637      9639      9629      9637      9640
      9638      9637      9639      9638      9637      9640      9639      9637      9640
      9637      9640      9641      9640      9641      9642      9640      9641      9643
      9642      9641      9643      9641      9643      9644      9641      9643      9645
      9641      9643      9693      9644      9643      9645      9644      9643      9693
      9645      9643      9693      9634      9646      9647      9634      9646      9648
      9634      9646      9649      9647      9646      9648      9647      9646      9649
      9648      9646      9649      9646      9649      9650      9646      9649      9651
      9646      9649      9652      9650      9649      9651      9650      9649      9652
      9651      9649      9652      9649      9652      9653      9649      9652      9654
      9653      9652      9654      9652      9654      9655      9652      9654      9656
      9655      9654      9656      9654      9656      9657      9654      9656      9658
      9654      9656      9659      9657      9656      9658      9657      9656      9659
      9658      9656      9659      9656      9659      9660      9656      9659      9661
      9660      9659      9661      9659      9661      9662      9659      9661      9663
      9662      9661      9663      9661      9663      9664      9661      9663      9665
      9661      9663      9666      9664      9663      9665      9664      9663      9666
      9665      9663      9666      9663      9666      9667      9663      9666      9668
      9667      9666      9668      9666      9668      9669      9666      9668      9670
      9669      9668      9670      9668      9670      9671      9668      9670      9672
      9668      9670      9673      9671      9670      9672      9671      9670      9673
      9672      9670      9673      9670      9673      9674      9670      9673      9675
      9674      9673      9675      9673      9675      9676      9673      9675      9677
      9676      9675      9677      9675      9677      9678      9675      9677      9679
      9675      9677      9680      9678      9677      9679      9678      9677      9680
      9679      9677      9680      9677      9680      9681      9677      9680      9682
      9677      9680      9683      9681      9680      9682      9681      9680      9683
      9682      9680      9683      9680      9683      9684      9680      9683      9685
      9680      9683      9686      9684      9683      9685      9684      9683      9686
      9685      9683      9686      9683      9686      9687      9683      9686      9688
      9683      9686      9689      9687      9686      9688      9687      9686      9689
      9688      9686      9689      9686      9689      9690      9686      9689      9691
      9686      9689      9692      9690      9689      9691      9690      9689      9692
      9691      9689      9692      9643      9693      9694      9643      9693      9695
      9643      9693      9696      9694      9693      9695      9694      9693      9696
      9695      9693      9696      9693      9696      9697      9693      9696      9698
      9693      9696      9699      9697      9696      9698      9697      9696      9699
      9698      9696      9699      9696      9699      9700      9696      9699      9701
      9696      9699      9702      9700      9699      9701      9700      9699      9702
      9701      9699      9702      9699      9702      9703      9699      9702      9704
      9699      9702      9705      9703      9702      9704      9703      9702      9705
      9704      9702      9705      9702      9705      9706      9702      9705      9707
      9702      9705      9708      9706      9705      9707      9706      9705      9708
      9707      9705      9708      9705      9708      9709      9705      9708      9710
      9705      9708      9711      9709      9708      9710      9709      9708      9711
      9710      9708      9711      9708      9711      9712      9708      9711      9713
      9708      9711      9714      9712      9711      9713      9712      9711      9714
      9713      9711      9714      9711      9714      9715      9711      9714      9716
      9711      9714      9717      9715      9714      9716      9715      9714      9717
      9716      9714      9717      9714      9717      9718      9714      9717      9719
      9714      9717      9720      9718      9717      9719      9718      9717      9720
      9719      9717      9720      9717      9720      9721      9717      9720      9722
      9717      9720      9723      9721      9720      9722      9721      9720      9723
      9722      9720      9723      9720      9723      9724      9720      9723      9725
      9720      9723      9726      9724      9723      9725      9724      9723      9726
      9725      9723      9726      9723      9726      9727      9723      9726      9728
      9723      9726      9729      9727      9726      9728      9727      9726      9729
      9728      9726      9729      9726      9729      9730      9726      9729      9731
      9726      9729      9732      9730      9729      9731      9730      9729      9732
      9731      9729      9732      9729      9732      9733      9729      9732      9734
      9729      9732      9735      9733      9732      9734      9733      9732      9735
      9734      9732      9735      9732      9735      9736      9732      9735      9737
      9732      9735      9738      9736      9735      9737      9736      9735      9738
      9737      9735      9738      9735      9738      9739      9735      9738      9740
      9735      9738      9741      9739      9738      9740      9739      9738      9741
      9740      9738      9741      6792      6791      6796      6792      6791      6800
      6792      6791      6804      6796      6791      6800      6796      6791      6804
      6800      6791      6804      6791      6792      6793      6791      6792      6794
      6791      6792      6795      6793      6792      6794      6793      6792      6795
      6794      6792      6795      6791      6796      6797      6791      6796      6798
      6791      6796      6799      6797      6796      6798      6797      6796      6799
      6798      6796      6799      6791      6800      6801      6791      6800      6802
      6791      6800      6803      6801      6800      6802      6801      6800      6803
      6802      6800      6803      6791      6804      6805      6791      6804      6806
      6791      6804      6807      6805      6804      6806      6805      6804      6807
      6806      6804      6807      6804      6807      6808      6804      6807      6809
      6804      6807      6813      6808      6807      6809      6808      6807      6813
      6809      6807      6813      6811      6810      6812      6811      6810      6813
      6811      6810      6814      6812      6810      6813      6812      6810      6814
      6813      6810      6814      6807      6813      6810      6810      6814      6815
      6814      6815      6816      6814      6815      6817      6814      6815      6818
      6816      6815      6817      6816      6815      6818      6817      6815      6818
      6815      6818      6819      6815      6818      6820      6815      6818      6826
      6819      6818      6820      6819      6818      6826      6820      6818      6826
      6818      6820      6821      6820      6821      6822      6820      6821      6823
      6822      6821      6823      6821      6823      6824      6821      6823      6825
      6821      6823      6835      6824      6823      6825      6824      6823      6835
      6825      6823      6835      6818      6826      6827      6818      6826      6828
      6818      6826      6829      6827      6826      6828      6827      6826      6829
      6828      6826      6829      6826      6829      6830      6829      6830      6831
      6829      6830      6832      6831      6830      6832      6830      6832      6833
      6830      6832      6834      6830      6832      6880      6833      6832      6834
      6833      6832      6880      6834      6832      6880      6823      6835      6836
      6823      6835      6837      6823      6835      6838      6836      6835      6837
      6836      6835      6838      6837      6835      6838      6835      6838      6839
      6835      6838      6840      6835      6838      6841      6839      6838      6840
      6839      6838      6841      6840      6838      6841      6838      6841      6842
      6838      6841      6843      6838      6841      6844      6842      6841      6843
      6842      6841      6844      6843      6841      6844      6841      6844      6845
      6841      6844      6846      6841      6844      6847      6845      6844      6846
      6845      6844      6847      6846      6844      6847      6844      6847      6848
      6844      6847      6849      6844      6847      6850      6848      6847      6849
      6848      6847      6850      6849      6847      6850      6847      6850      6851
      6847      6850      6852      6847      6850      6853      6851      6850      6852
      6851      6850      6853      6852      6850      6853      6850      6853      6854
      6850      6853      6855      6854      6853      6855      6853      6855      6856
      6853      6855      6857      6856      6855      6857      6855      6857      6858
      6855      6857      6859      6855      6857      6860      6858      6857      6859
      6858      6857      6860      6859      6857      6860      6857      6860      6861
      6857      6860      6862      6861      6860      6862      6860      6862      6863
      6860      6862      6864      6863      6862      6864      6862      6864      6865
      6862      6864      6866      6862      6864      6867      6865      6864      6866
      6865      6864      6867      6866      6864      6867      6864      6867      6868
      6864      6867      6869      6864      6867      6870      6868      6867      6869
      6868      6867      6870      6869      6867      6870      6867      6870      6871
      6867      6870      6872      6867      6870      6873      6871      6870      6872
      6871      6870      6873      6872      6870      6873      6870      6873      6874
      6870      6873      6875      6870      6873      6876      6874      6873      6875
      6874      6873      6876      6875      6873      6876      6873      6876      6877
      6873      6876      6878      6873      6876      6879      6877      6876      6878
      6877      6876      6879      6878      6876      6879      6832      6880      6881
      6832      6880      6882      6832      6880      6883      6881      6880      6882
      6881      6880      6883      6882      6880      6883      6880      6883      6884
      6880      6883      6885      6880      6883      6886      6884      6883      6885
      6884      6883      6886      6885      6883      6886      6883      6886      6887
      6883      6886      6888      6883      6886      6889      6887      6886      6888
      6887      6886      6889      6888      6886      6889      6886      6889      6890
      6886      6889      6891      6886      6889      6892      6890      6889      6891
      6890      6889      6892      6891      6889      6892      6889      6892      6893
      6889      6892      6894      6889      6892      6895      6893      6892      6894
      6893      6892      6895      6894      6892      6895      6892      6895      6896
      6892      6895      6897      6892      6895      6898      6896      6895      6897
      6896      6895      6898      6897      6895      6898      6895      6898      6899
      6895      6898      6900      6895      6898      6901      6899      6898      6900
      6899      6898      6901      6900      6898      6901      6898      6901      6902
      6898      6901      6903      6898      6901      6904      6902      6901      6903
      6902      6901      6904      6903      6901      6904      6901      6904      6905
      6901      6904      6906      6901      6904      6907      6905      6904      6906
      6905      6904      6907      6906      6904      6907      6904      6907      6908
      6904      6907      6909      6904      6907      6910      6908      6907      6909
      6908      6907      6910      6909      6907      6910      6907      6910      6911
      6907      6910      6912      6907      6910      6913      6911      6910      6912
      6911      6910      6913      6912      6910      6913      6910      6913      6914
      6910      6913      6915      6910      6913      6916      6914      6913      6915
      6914      6913      6916      6915      6913      6916      6913      6916      6917
      6913      6916      6918      6913      6916      6919      6917      6916      6918
      6917      6916      6919      6918      6916      6919      6916      6919      6920
      6916      6919      6921      6916      6919      6922      6920      6919      6921
      6920      6919      6922      6921      6919      6922      6919      6922      6923
      6919      6922      6924      6919      6922      6925      6923      6922      6924
      6923      6922      6925      6924      6922      6925      6922      6925      6926
      6922      6925      6927      6922      6925      6928      6926      6925      6927
      6926      6925      6928      6927      6925      6928      3184      3183      3185
      3184      3183      3187      3184      3183      3229      3185      3183      3187
      3185      3183      3229      3187      3183      3229      3183      3185      3186
      3183      3187      3188      3183      3187      3189      3183      3187      3190
      3188      3187      3189      3188      3187      3190      3189      3187      3190
      3187      3190      3191      3187      3190      3221      3191      3190      3221
      3190      3191      3192      3190      3191      3193      3192      3191      3193
      3191      3193      3194      3191      3193      3195      3191      3193      3196
      3194      3193      3195      3194      3193      3196      3195      3193      3196
      3193      3196      3197      3193      3196      3198      3193      3196      3219
      3197      3196      3198      3197      3196      3219      3198      3196      3219
      3196      3198      3199      3196      3198      3200      3196      3198      3208
      3199      3198      3200      3199      3198      3208      3200      3198      3208
      3198      3200      3201      3198      3200      3202      3198      3200      3203
      3201      3200      3202      3201      3200      3203      3202      3200      3203
      3200      3203      3204      3200      3203      3205      3200      3203      3206
      3204      3203      3205      3204      3203      3206      3205      3203      3206
      3203      3206      3207      3203      3206      3208      3203      3206      3232
      3207      3206      3208      3207      3206      3232      3208      3206      3232
      3198      3208      3206      3198      3208      3209      3198      3208      3213
      3206      3208      3209      3206      3208      3213      3209      3208      3213
      3208      3209      3210      3208      3209      3211      3208      3209      3212
      3210      3209      3211      3210      3209      3212      3211      3209      3212
      3208      3213      3214      3208      3213      3215      3208      3213      3216
      3214      3213      3215      3214      3213      3216      3215      3213      3216
      3213      3216      3217      3213      3216      3218      3213      3216      3219
      3217      3216      3218      3217      3216      3219      3218      3216      3219
      3196      3219      3216      3196      3219      3220      3196      3219      3221
      3216      3219      3220      3216      3219      3221      3220      3219      3221
      3190      3221      3219      3190      3221      3222      3190      3221      3226
      3219      3221      3222      3219      3221      3226      3222      3221      3226
      3221      3222      3223      3221      3222      3224      3221      3222      3225
      3223      3222      3224      3223      3222      3225      3224      3222      3225
      3221      3226      3227      3221      3226      3228      3221      3226      3229
      3227      3226      3228      3227      3226      3229      3228      3226      3229
      3183      3229      3226      3183      3229      3230      3183      3229      3231
      3226      3229      3230      3226      3229      3231      3230      3229      3231
      3206      3232      3233      3206      3232      3234      3206      3232      3238
      3233      3232      3234      3233      3232      3238      3234      3232      3238
      3232      3234      3235      3232      3234      3236      3232      3234      3237
      3235      3234      3236      3235      3234      3237      3236      3234      3237
      3232      3238      3239      3232      3238      3240      3232      3238      3241
      3239      3238      3240      3239      3238      3241      3240      3238      3241
      3238      3241      3242      3238      3241      3243      3238      3241      3244
      3242      3241      3243      3242      3241      3244      3243      3241      3244
      3241      3244      3245      3241      3244      3246      3241      3244      3247
      3245      3244      3246      3245      3244      3247      3246      3244      3247
      3244      3247      3248      3244      3247      3249      3244      3247      3253
      3248      3247      3249      3248      3247      3253      3249      3247      3253
      3247      3249      3250      3247      3249      3251      3247      3249      3252
      3250      3249      3251      3250      3249      3252      3251      3249      3252
      3247      3253      3254      3247      3253      3255      3247      3253      3256
      3254      3253      3255      3254      3253      3256      3255      3253      3256
      5406      5405      5409      5406      5405      5413      5406      5405      5417
      5409      5405      5413      5409      5405      5417      5413      5405      5417
      5405      5406      5407      5405      5406      5408      5405      5406      5421
      5407      5406      5408      5407      5406      5421      5408      5406      5421
      5405      5409      5410      5405      5409      5411      5405      5409      5412
      5410      5409      5411      5410      5409      5412      5411      5409      5412
      5405      5413      5414      5405      5413      5415      5405      5413      5416
      5414      5413      5415      5414      5413      5416      5415      5413      5416
      5405      5417      5418      5405      5417      5419      5405      5417      5420
      5418      5417      5419      5418      5417      5420      5419      5417      5420
      5406      5421      5422      5406      5421      5423      5406      5421      5427
      5422      5421      5423      5422      5421      5427      5423      5421      5427
      5425      5424      5426      5425      5424      5427      5425      5424      5428
      5426      5424      5427      5426      5424      5428      5427      5424      5428
      5421      5427      5424      5424      5428      5429      5428      5429      5430
      5428      5429      5431      5428      5429      5432      5430      5429      5431
      5430      5429      5432      5431      5429      5432      5429      5432      5433
      5429      5432      5434      5429      5432      5440      5433      5432      5434
      5433      5432      5440      5434      5432      5440      5432      5434      5435
      5434      5435      5436      5434      5435      5437      5436      5435      5437
      5435      5437      5438      5435      5437      5439      5435      5437      5449
      5438      5437      5439      5438      5437      5449      5439      5437      5449
      5432      5440      5441      5432      5440      5442      5432      5440      5443
      5441      5440      5442      5441      5440      5443      5442      5440      5443
      5440      5443      5444      5443      5444      5445      5443      5444      5446
      5445      5444      5446      5444      5446      5447      5444      5446      5448
      5444      5446      5496      5447      5446      5448      5447      5446      5496
      5448      5446      5496      5437      5449      5450      5437      5449      5451
      5437      5449      5452      5450      5449      5451      5450      5449      5452
      5451      5449      5452      5449      5452      5453      5449      5452      5454
      5449      5452      5455      5453      5452      5454      5453      5452      5455
      5454      5452      5455      5452      5455      5456      5452      5455      5457
      5456      5455      5457      5455      5457      5458      5455      5457      5459
      5458      5457      5459      5457      5459      5460      5457      5459      5461
      5457      5459      5462      5460      5459      5461      5460      5459      5462
      5461      5459      5462      5459      5462      5463      5459      5462      5464
      5463      5462      5464      5462      5464      5465      5462      5464      5466
      5465      5464      5466      5464      5466      5467      5464      5466      5468
      5464      5466      5469      5467      5466      5468      5467      5466      5469
      5468      5466      5469      5466      5469      5470      5466      5469      5471
      5470      5469      5471      5469      5471      5472      5469      5471      5473
      5472      5471      5473      5471      5473      5474      5471      5473      5475
      5471      5473      5476      5474      5473      5475      5474      5473      5476
      5475      5473      5476      5473      5476      5477      5473      5476      5478
      5477      5476      5478      5476      5478      5479      5476      5478      5480
      5479      5478      5480      5478      5480      5481      5478      5480      5482
      5478      5480      5483      5481      5480      5482      5481      5480      5483
      5482      5480      5483      5480      5483      5484      5480      5483      5485
      5480      5483      5486      5484      5483      5485      5484      5483      5486
      5485      5483      5486      5483      5486      5487      5483      5486      5488
      5483      5486      5489      5487      5486      5488      5487      5486      5489
      5488      5486      5489      5486      5489      5490      5486      5489      5491
      5486      5489      5492      5490      5489      5491      5490      5489      5492
      5491      5489      5492      5489      5492      5493      5489      5492      5494
      5489      5492      5495      5493      5492      5494      5493      5492      5495
      5494      5492      5495      5446      5496      5497      5446      5496      5498
      5446      5496      5499      5497      5496      5498      5497      5496      5499
      5498      5496      5499      5496      5499      5500      5496      5499      5501
      5496      5499      5502      5500      5499      5501      5500      5499      5502
      5501      5499      5502      5499      5502      5503      5499      5502      5504
      5499      5502      5505      5503      5502      5504      5503      5502      5505
      5504      5502      5505      5502      5505      5506      5502      5505      5507
      5502      5505      5508      5506      5505      5507      5506      5505      5508
      5507      5505      5508      5505      5508      5509      5505      5508      5510
      5505      5508      5511      5509      5508      5510      5509      5508      5511
      5510      5508      5511      5508      5511      5512      5508      5511      5513
      5508      5511      5514      5512      5511      5513      5512      5511      5514
      5513      5511      5514      5511      5514      5515      5511      5514      5516
      5511      5514      5517      5515      5514      5516      5515      5514      5517
      5516      5514      5517      5514      5517      5518      5514      5517      5519
      5514      5517      5520      5518      5517      5519      5518      5517      5520
      5519      5517      5520      5517      5520      5521      5517      5520      5522
      5517      5520      5523      5521      5520      5522      5521      5520      5523
      5522      5520      5523      5520      5523      5524      5520      5523      5525
      5520      5523      5526      5524      5523      5525      5524      5523      5526
      5525      5523      5526      5523      5526      5527      5523      5526      5528
      5523      5526      5529      5527      5526      5528      5527      5526      5529
      5528      5526      5529      5526      5529      5530      5526      5529      5531
      5526      5529      5532      5530      5529      5531      5530      5529      5532
      5531      5529      5532      5529      5532      5533      5529      5532      5534
      5529      5532      5535      5533      5532      5534      5533      5532      5535
      5534      5532      5535      5532      5535      5536      5532      5535      5537
      5532      5535      5538      5536      5535      5537      5536      5535      5538
      5537      5535      5538      5535      5538      5539      5535      5538      5540
      5535      5538      5541      5539      5538      5540      5539      5538      5541
      5540      5538      5541      5538      5541      5542      5538      5541      5543
      5538      5541      5544      5542      5541      5543      5542      5541      5544
      5543      5541      5544     14596     14595     14600     14596     14595     14604
     14596     14595     14608     14600     14595     14604     14600     14595     14608
     14604     14595     14608     14595     14596     14597     14595     14596     14598
     14595     14596     14599     14597     14596     14598     14597     14596     14599
     14598     14596     14599     14595     14600     14601     14595     14600     14602
     14595     14600     14603     14601     14600     14602     14601     14600     14603
     14602     14600     14603     14595     14604     14605     14595     14604     14606
     14595     14604     14607     14605     14604     14606     14605     14604     14607
     14606     14604     14607     14595     14608     14609     14595     14608     14610
     14595     14608     14611     14609     14608     14610     14609     14608     14611
     14610     14608     14611     14608     14611     14612     14608     14611     14613
     14608     14611     14618     14612     14611     14613     14612     14611     14618
     14613     14611     14618     14615     14614     14616     14615     14614     14617
     14615     14614     14618     14616     14614     14617     14616     14614     14618
     14617     14614     14618     14614     14617     14619     14611     14618     14614
     14617     14619     14620     14617     14619     14621     14617     14619     14624
     14620     14619     14621     14620     14619     14624     14621     14619     14624
     14623     14622     14624     14623     14622     14674     14624     14622     14674
     14619     14624     14622     14619     14624     14625     14619     14624     14626
     14622     14624     14625     14622     14624     14626     14625     14624     14626
     14624     14626     14627     14624     14626     14628     14624     14626     14630
     14627     14626     14628     14627     14626     14630     14628     14626     14630
     14626     14628     14629     14626     14630     14631     14626     14630     14632
     14631     14630     14632     14630     14632     14633     14630     14632     14634
     14633     14632     14634     14632     14634     14635     14632     14634     14636
     14632     14634     14637     14635     14634     14636     14635     14634     14637
     14636     14634     14637     14634     14637     14638     14634     14637     14639
     14634     14637     14640     14638     14637     14639     14638     14637     14640
     14639     14637     14640     14637     14640     14641     14637     14640     14642
     14637     14640     14643     14641     14640     14642     14641     14640     14643
     14642     14640     14643     14640     14643     14644     14640     14643     14645
     14640     14643     14646     14644     14643     14645     14644     14643     14646
     14645     14643     14646     14643     14646     14647     14643     14646     14648
     14643     14646     14649     14647     14646     14648     14647     14646     14649
     14648     14646     14649     14646     14649     14650     14646     14649     14651
     14646     14649     14652     14650     14649     14651     14650     14649     14652
     14651     14649     14652     14649     14652     14653     14649     14652     14654
     14649     14652     14655     14653     14652     14654     14653     14652     14655
     14654     14652     14655     14652     14655     14656     14652     14655     14657
     14652     14655     14658     14656     14655     14657     14656     14655     14658
     14657     14655     14658     14655     14658     14659     14655     14658     14660
     14655     14658     14661     14659     14658     14660     14659     14658     14661
     14660     14658     14661     14658     14661     14662     14658     14661     14663
     14658     14661     14664     14662     14661     14663     14662     14661     14664
     14663     14661     14664     14661     14664     14665     14661     14664     14666
     14661     14664     14667     14665     14664     14666     14665     14664     14667
     14666     14664     14667     14664     14667     14668     14664     14667     14669
     14664     14667     14670     14668     14667     14669     14668     14667     14670
     14669     14667     14670     14667     14670     14671     14667     14670     14672
     14667     14670     14673     14671     14670     14672     14671     14670     14673
     14672     14670     14673     14622     14674     14675     14622     14674     14676
     14675     14674     14676     14674     14676     14677     14674     14676     14678
     14674     14676     14679     14677     14676     14678     14677     14676     14679
     14678     14676     14679     14676     14679     14680     14676     14679     14681
     14676     14679     14682     14680     14679     14681     14680     14679     14682
     14681     14679     14682     14679     14682     14683     14679     14682     14684
     14679     14682     14685     14683     14682     14684     14683     14682     14685
     14684     14682     14685     14682     14685     14686     14682     14685     14687
     14682     14685     14688     14686     14685     14687     14686     14685     14688
     14687     14685     14688     14685     14688     14689     14685     14688     14690
     14685     14688     14691     14689     14688     14690     14689     14688     14691
     14690     14688     14691     14688     14691     14692     14688     14691     14693
     14688     14691     14694     14692     14691     14693     14692     14691     14694
     14693     14691     14694     14691     14694     14695     14691     14694     14696
     14691     14694     14697     14695     14694     14696     14695     14694     14697
     14696     14694     14697     14694     14697     14698     14694     14697     14699
     14698     14697     14699     14697     14699     14700     14697     14699     14701
     14700     14699     14701     14699     14701     14702     14699     14701     14703
     14699     14701     14704     14702     14701     14703     14702     14701     14704
     14703     14701     14704     14701     14704     14705     14701     14704     14706
     14701     14704     14707     14705     14704     14706     14705     14704     14707
     14706     14704     14707     14704     14707     14708     14704     14707     14709
     14704     14707     14710     14708     14707     14709     14708     14707     14710
     14709     14707     14710     14707     14710     14711     14707     14710     14712
     14707     14710     14713     14711     14710     14712     14711     14710     14713
     14712     14710     14713     14710     14713     14714     14710     14713     14715
     14710     14713     14716     14714     14713     14715     14714     14713     14716
     14715     14713     14716     14713     14716     14717     14713     14716     14718
     14713     14716     14719     14717     14716     14718     14717     14716     14719
     14718     14716     14719     14716     14719     14720     14716     14719     14721
     14716     14719     14722     14720     14719     14721     14720     14719     14722
     14721     14719     14722     14719     14722     14723     14719     14722     14724
     14719     14722     14725     14723     14722     14724     14723     14722     14725
     14724     14722     14725      3258      3257      3259      3258      3257      3261
      3258      3257      3303      3259      3257      3261      3259      3257      3303
      3261      3257      3303      3257      3259      3260      3257      3261      3262
      3257      3261      3263      3257      3261      3264      3262      3261      3263
      3262      3261      3264      3263      3261      3264      3261      3264      3265
      3261      3264      3295      3265      3264      3295      3264      3265      3266
      3264      3265      3267      3266      3265      3267      3265      3267      3268
      3265      3267      3269      3265      3267      3270      3268      3267      3269
      3268      3267      3270      3269      3267      3270      3267      3270      3271
      3267      3270      3272      3267      3270      3293      3271      3270      3272
      3271      3270      3293      3272      3270      3293      3270      3272      3273
      3270      3272      3274      3270      3272      3282      3273      3272      3274
      3273      3272      3282      3274      3272      3282      3272      3274      3275
      3272      3274      3276      3272      3274      3277      3275      3274      3276
      3275      3274      3277      3276      3274      3277      3274      3277      3278
      3274      3277      3279      3274      3277      3280      3278      3277      3279
      3278      3277      3280      3279      3277      3280      3277      3280      3281
      3277      3280      3282      3277      3280      3306      3281      3280      3282
      3281      3280      3306      3282      3280      3306      3272      3282      3280
      3272      3282      3283      3272      3282      3287      3280      3282      3283
      3280      3282      3287      3283      3282      3287      3282      3283      3284
      3282      3283      3285      3282      3283      3286      3284      3283      3285
      3284      3283      3286      3285      3283      3286      3282      3287      3288
      3282      3287      3289      3282      3287      3290      3288      3287      3289
      3288      3287      3290      3289      3287      3290      3287      3290      3291
      3287      3290      3292      3287      3290      3293      3291      3290      3292
      3291      3290      3293      3292      3290      3293      3270      3293      3290
      3270      3293      3294      3270      3293      3295      3290      3293      3294
      3290      3293      3295      3294      3293      3295      3264      3295      3293
      3264      3295      3296      3264      3295      3300      3293      3295      3296
      3293      3295      3300      3296      3295      3300      3295      3296      3297
      3295      3296      3298      3295      3296      3299      3297      3296      3298
      3297      3296      3299      3298      3296      3299      3295      3300      3301
      3295      3300      3302      3295      3300      3303      3301      3300      3302
      3301      3300      3303      3302      3300      3303      3257      3303      3300
      3257      3303      3304      3257      3303      3305      3300      3303      3304
      3300      3303      3305      3304      3303      3305      3280      3306      3307
      3280      3306      3308      3280      3306      3312      3307      3306      3308
      3307      3306      3312      3308      3306      3312      3306      3308      3309
      3306      3308      3310      3306      3308      3311      3309      3308      3310
      3309      3308      3311      3310      3308      3311      3306      3312      3313
      3306      3312      3314      3306      3312      3315      3313      3312      3314
      3313      3312      3315      3314      3312      3315      3312      3315      3316
      3312      3315      3317      3312      3315      3318      3316      3315      3317
      3316      3315      3318      3317      3315      3318      3315      3318      3319
      3315      3318      3320      3315      3318      3321      3319      3318      3320
      3319      3318      3321      3320      3318      3321      3318      3321      3322
      3318      3321      3323      3318      3321      3327      3322      3321      3323
      3322      3321      3327      3323      3321      3327      3321      3323      3324
      3321      3323      3325      3321      3323      3326      3324      3323      3325
      3324      3323      3326      3325      3323      3326      3321      3327      3328
      3321      3327      3329      3321      3327      3330      3328      3327      3329
      3328      3327      3330      3329      3327      3330     14727     14726     14731
     14727     14726     14735     14727     14726     14739     14731     14726     14735
     14731     14726     14739     14735     14726     14739     14726     14727     14728
     14726     14727     14729     14726     14727     14730     14728     14727     14729
     14728     14727     14730     14729     14727     14730     14726     14731     14732
     14726     14731     14733     14726     14731     14734     14732     14731     14733
     14732     14731     14734     14733     14731     14734     14726     14735     14736
     14726     14735     14737     14726     14735     14738     14736     14735     14737
     14736     14735     14738     14737     14735     14738     14726     14739     14740
     14726     14739     14741     14726     14739     14742     14740     14739     14741
     14740     14739     14742     14741     14739     14742     14739     14742     14743
     14739     14742     14744     14739     14742     14749     14743     14742     14744
     14743     14742     14749     14744     14742     14749     14746     14745     14747
     14746     14745     14748     14746     14745     14749     14747     14745     14748
     14747     14745     14749     14748     14745     14749     14745     14748     14750
     14742     14749     14745     14748     14750     14751     14748     14750     14752
     14748     14750     14755     14751     14750     14752     14751     14750     14755
     14752     14750     14755     14754     14753     14755     14754     14753     14805
     14755     14753     14805     14750     14755     14753     14750     14755     14756
     14750     14755     14757     14753     14755     14756     14753     14755     14757
     14756     14755     14757     14755     14757     14758     14755     14757     14759
     14755     14757     14761     14758     14757     14759     14758     14757     14761
     14759     14757     14761     14757     14759     14760     14757     14761     14762
     14757     14761     14763     14762     14761     14763     14761     14763     14764
     14761     14763     14765     14764     14763     14765     14763     14765     14766
     14763     14765     14767     14763     14765     14768     14766     14765     14767
     14766     14765     14768     14767     14765     14768     14765     14768     14769
     14765     14768     14770     14765     14768     14771     14769     14768     14770
     14769     14768     14771     14770     14768     14771     14768     14771     14772
     14768     14771     14773     14768     14771     14774     14772     14771     14773
     14772     14771     14774     14773     14771     14774     14771     14774     14775
     14771     14774     14776     14771     14774     14777     14775     14774     14776
     14775     14774     14777     14776     14774     14777     14774     14777     14778
     14774     14777     14779     14774     14777     14780     14778     14777     14779
     14778     14777     14780     14779     14777     14780     14777     14780     14781
     14777     14780     14782     14777     14780     14783     14781     14780     14782
     14781     14780     14783     14782     14780     14783     14780     14783     14784
     14780     14783     14785     14780     14783     14786     14784     14783     14785
     14784     14783     14786     14785     14783     14786     14783     14786     14787
     14783     14786     14788     14783     14786     14789     14787     14786     14788
     14787     14786     14789     14788     14786     14789     14786     14789     14790
     14786     14789     14791     14786     14789     14792     14790     14789     14791
     14790     14789     14792     14791     14789     14792     14789     14792     14793
     14789     14792     14794     14789     14792     14795     14793     14792     14794
     14793     14792     14795     14794     14792     14795     14792     14795     14796
     14792     14795     14797     14792     14795     14798     14796     14795     14797
     14796     14795     14798     14797     14795     14798     14795     14798     14799
     14795     14798     14800     14795     14798     14801     14799     14798     14800
     14799     14798     14801     14800     14798     14801     14798     14801     14802
     14798     14801     14803     14798     14801     14804     14802     14801     14803
     14802     14801     14804     14803     14801     14804     14753     14805     14806
     14753     14805     14807     14806     14805     14807     14805     14807     14808
     14805     14807     14809     14805     14807     14810     14808     14807     14809
     14808     14807     14810     14809     14807     14810     14807     14810     14811
     14807     14810     14812     14807     14810     14813     14811     14810     14812
     14811     14810     14813     14812     14810     14813     14810     14813     14814
     14810     14813     14815     14810     14813     14816     14814     14813     14815
     14814     14813     14816     14815     14813     14816     14813     14816     14817
     14813     14816     14818     14813     14816     14819     14817     14816     14818
     14817     14816     14819     14818     14816     14819     14816     14819     14820
     14816     14819     14821     14816     14819     14822     14820     14819     14821
     14820     14819     14822     14821     14819     14822     14819     14822     14823
     14819     14822     14824     14819     14822     14825     14823     14822     14824
     14823     14822     14825     14824     14822     14825     14822     14825     14826
     14822     14825     14827     14822     14825     14828     14826     14825     14827
     14826     14825     14828     14827     14825     14828     14825     14828     14829
     14825     14828     14830     14829     14828     14830     14828     14830     14831
     14828     14830     14832     14831     14830     14832     14830     14832     14833
     14830     14832     14834     14830     14832     14835     14833     14832     14834
     14833     14832     14835     14834     14832     14835     14832     14835     14836
     14832     14835     14837     14832     14835     14838     14836     14835     14837
     14836     14835     14838     14837     14835     14838     14835     14838     14839
     14835     14838     14840     14835     14838     14841     14839     14838     14840
     14839     14838     14841     14840     14838     14841     14838     14841     14842
     14838     14841     14843     14838     14841     14844     14842     14841     14843
     14842     14841     14844     14843     14841     14844     14841     14844     14845
     14841     14844     14846     14841     14844     14847     14845     14844     14846
     14845     14844     14847     14846     14844     14847     14844     14847     14848
     14844     14847     14849     14844     14847     14850     14848     14847     14849
     14848     14847     14850     14849     14847     14850     14847     14850     14851
     14847     14850     14852     14847     14850     14853     14851     14850     14852
     14851     14850     14853     14852     14850     14853     14850     14853     14854
     14850     14853     14855     14850     14853     14856     14854     14853     14855
     14854     14853     14856     14855     14853     14856     18395     18394     18396
     18395     18394     18397     18395     18394     18398     18396     18394     18397
     18396     18394     18398     18397     18394     18398     18394     18398     18399
     18394     18398     18400     18394     18398     18401     18399     18398     18400
     18399     18398     18401     18400     18398     18401     18398     18401     18402
     18398     18401     18403     18398     18401     18407     18402     18401     18403
     18402     18401     18407     18403     18401     18407     18405     18404     18406
     18405     18404     18407     18405     18404     18408     18406     18404     18407
     18406     18404     18408     18407     18404     18408     18401     18407     18404
     18404     18408     18409     18408     18409     18410     18408     18409     18411
     18408     18409     18412     18410     18409     18411     18410     18409     18412
     18411     18409     18412     18409     18412     18413     18409     18412     18414
     18409     18412     18420     18413     18412     18414     18413     18412     18420
     18414     18412     18420     18412     18414     18415     18414     18415     18416
     18414     18415     18417     18416     18415     18417     18415     18417     18418
     18415     18417     18419     18415     18417     18429     18418     18417     18419
     18418     18417     18429     18419     18417     18429     18412     18420     18421
     18412     18420     18422     18412     18420     18423     18421     18420     18422
     18421     18420     18423     18422     18420     18423     18420     18423     18424
     18423     18424     18425     18423     18424     18426     18425     18424     18426
     18424     18426     18427     18424     18426     18428     18424     18426     18476
     18427     18426     18428     18427     18426     18476     18428     18426     18476
     18417     18429     18430     18417     18429     18431     18417     18429     18432
     18430     18429     18431     18430     18429     18432     18431     18429     18432
     18429     18432     18433     18429     18432     18434     18429     18432     18435
     18433     18432     18434     18433     18432     18435     18434     18432     18435
     18432     18435     18436     18432     18435     18437     18436     18435     18437
     18435     18437     18438     18435     18437     18439     18438     18437     18439
     18437     18439     18440     18437     18439     18441     18437     18439     18442
     18440     18439     18441     18440     18439     18442     18441     18439     18442
     18439     18442     18443     18439     18442     18444     18443     18442     18444
     18442     18444     18445     18442     18444     18446     18445     18444     18446
     18444     18446     18447     18444     18446     18448     18444     18446     18449
     18447     18446     18448     18447     18446     18449     18448     18446     18449
     18446     18449     18450     18446     18449     18451     18450     18449     18451
     18449     18451     18452     18449     18451     18453     18452     18451     18453
     18451     18453     18454     18451     18453     18455     18451     18453     18456
     18454     18453     18455     18454     18453     18456     18455     18453     18456
     18453     18456     18457     18453     18456     18458     18457     18456     18458
     18456     18458     18459     18456     18458     18460     18459     18458     18460
     18458     18460     18461     18458     18460     18462     18458     18460     18463
     18461     18460     18462     18461     18460     18463     18462     18460     18463
     18460     18463     18464     18460     18463     18465     18460     18463     18466
     18464     18463     18465     18464     18463     18466     18465     18463     18466
     18463     18466     18467     18463     18466     18468     18463     18466     18469
     18467     18466     18468     18467     18466     18469     18468     18466     18469
     18466     18469     18470     18466     18469     18471     18466     18469     18472
     18470     18469     18471     18470     18469     18472     18471     18469     18472
     18469     18472     18473     18469     18472     18474     18469     18472     18475
     18473     18472     18474     18473     18472     18475     18474     18472     18475
     18426     18476     18477     18426     18476     18478     18426     18476     18479
     18477     18476     18478     18477     18476     18479     18478     18476     18479
     18476     18479     18480     18476     18479     18481     18476     18479     18482
     18480     18479     18481     18480     18479     18482     18481     18479     18482
     18479     18482     18483     18479     18482     18484     18479     18482     18485
     18483     18482     18484     18483     18482     18485     18484     18482     18485
     18482     18485     18486     18482     18485     18487     18482     18485     18488
     18486     18485     18487     18486     18485     18488     18487     18485     18488
     18485     18488     18489     18485     18488     18490     18485     18488     18491
     18489     18488     18490     18489     18488     18491     18490     18488     18491
     18488     18491     18492     18488     18491     18493     18488     18491     18494
     18492     18491     18493     18492     18491     18494     18493     18491     18494
     18491     18494     18495     18491     18494     18496     18491     18494     18497
     18495     18494     18496     18495     18494     18497     18496     18494     18497
     18494     18497     18498     18494     18497     18499     18494     18497     18500
     18498     18497     18499     18498     18497     18500     18499     18497     18500
     18497     18500     18501     18497     18500     18502     18497     18500     18503
     18501     18500     18502     18501     18500     18503     18502     18500     18503
     18500     18503     18504     18500     18503     18505     18500     18503     18506
     18504     18503     18505     18504     18503     18506     18505     18503     18506
     18503     18506     18507     18503     18506     18508     18503     18506     18509
     18507     18506     18508     18507     18506     18509     18508     18506     18509
     18506     18509     18510     18506     18509     18511     18506     18509     18512
     18510     18509     18511     18510     18509     18512     18511     18509     18512
     18509     18512     18513     18509     18512     18514     18509     18512     18515
     18513     18512     18514     18513     18512     18515     18514     18512     18515
     18512     18515     18516     18512     18515     18517     18512     18515     18518
     18516     18515     18517     18516     18515     18518     18517     18515     18518
     18515     18518     18519     18515     18518     18520     18515     18518     18521
     18519     18518     18520     18519     18518     18521     18520     18518     18521
     18518     18521     18522     18518     18521     18523     18518     18521     18524
     18522     18521     18523     18522     18521     18524     18523     18521     18524
     14858     14857     14862     14858     14857     14866     14858     14857     14870
     14862     14857     14866     14862     14857     14870     14866     14857     14870
     14857     14858     14859     14857     14858     14860     14857     14858     14861
     14859     14858     14860     14859     14858     14861     14860     14858     14861
     14857     14862     14863     14857     14862     14864     14857     14862     14865
     14863     14862     14864     14863     14862     14865     14864     14862     14865
     14857     14866     14867     14857     14866     14868     14857     14866     14869
     14867     14866     14868     14867     14866     14869     14868     14866     14869
     14857     14870     14871     14857     14870     14872     14857     14870     14873
     14871     14870     14872     14871     14870     14873     14872     14870     14873
     14870     14873     14874     14870     14873     14875     14870     14873     14880
     14874     14873     14875     14874     14873     14880     14875     14873     14880
     14877     14876     14878     14877     14876     14879     14877     14876     14880
     14878     14876     14879     14878     14876     14880     14879     14876     14880
     14876     14879     14881     14873     14880     14876     14879     14881     14882
     14879     14881     14883     14879     14881     14886     14882     14881     14883
     14882     14881     14886     14883     14881     14886     14885     14884     14886
     14885     14884     14936     14886     14884     14936     14881     14886     14884
     14881     14886     14887     14881     14886     14888     14884     14886     14887
     14884     14886     14888     14887     14886     14888     14886     14888     14889
     14886     14888     14890     14886     14888     14892     14889     14888     14890
     14889     14888     14892     14890     14888     14892     14888     14890     14891
     14888     14892     14893     14888     14892     14894     14893     14892     14894
     14892     14894     14895     14892     14894     14896     14895     14894     14896
     14894     14896     14897     14894     14896     14898     14894     14896     14899
     14897     14896     14898     14897     14896     14899     14898     14896     14899
     14896     14899     14900     14896     14899     14901     14896     14899     14902
     14900     14899     14901     14900     14899     14902     14901     14899     14902
     14899     14902     14903     14899     14902     14904     14899     14902     14905
     14903     14902     14904     14903     14902     14905     14904     14902     14905
     14902     14905     14906     14902     14905     14907     14902     14905     14908
     14906     14905     14907     14906     14905     14908     14907     14905     14908
     14905     14908     14909     14905     14908     14910     14905     14908     14911
     14909     14908     14910     14909     14908     14911     14910     14908     14911
     14908     14911     14912     14908     14911     14913     14908     14911     14914
     14912     14911     14913     14912     14911     14914     14913     14911     14914
     14911     14914     14915     14911     14914     14916     14911     14914     14917
     14915     14914     14916     14915     14914     14917     14916     14914     14917
     14914     14917     14918     14914     14917     14919     14914     14917     14920
     14918     14917     14919     14918     14917     14920     14919     14917     14920
     14917     14920     14921     14917     14920     14922     14917     14920     14923
     14921     14920     14922     14921     14920     14923     14922     14920     14923
     14920     14923     14924     14920     14923     14925     14920     14923     14926
     14924     14923     14925     14924     14923     14926     14925     14923     14926
     14923     14926     14927     14923     14926     14928     14923     14926     14929
     14927     14926     14928     14927     14926     14929     14928     14926     14929
     14926     14929     14930     14926     14929     14931     14926     14929     14932
     14930     14929     14931     14930     14929     14932     14931     14929     14932
     14929     14932     14933     14929     14932     14934     14929     14932     14935
     14933     14932     14934     14933     14932     14935     14934     14932     14935
     14884     14936     14937     14884     14936     14938     14937     14936     14938
     14936     14938     14939     14936     14938     14940     14936     14938     14941
     14939     14938     14940     14939     14938     14941     14940     14938     14941
     14938     14941     14942     14938     14941     14943     14938     14941     14944
     14942     14941     14943     14942     14941     14944     14943     14941     14944
     14941     14944     14945     14941     14944     14946     14941     14944     14947
     14945     14944     14946     14945     14944     14947     14946     14944     14947
     14944     14947     14948     14944     14947     14949     14944     14947     14950
     14948     14947     14949     14948     14947     14950     14949     14947     14950
     14947     14950     14951     14947     14950     14952     14947     14950     14953
     14951     14950     14952     14951     14950     14953     14952     14950     14953
     14950     14953     14954     14950     14953     14955     14950     14953     14956
     14954     14953     14955     14954     14953     14956     14955     14953     14956
     14953     14956     14957     14953     14956     14958     14953     14956     14959
     14957     14956     14958     14957     14956     14959     14958     14956     14959
     14956     14959     14960     14956     14959     14961     14960     14959     14961
     14959     14961     14962     14959     14961     14963     14962     14961     14963
     14961     14963     14964     14961     14963     14965     14961     14963     14966
     14964     14963     14965     14964     14963     14966     14965     14963     14966
     14963     14966     14967     14963     14966     14968     14963     14966     14969
     14967     14966     14968     14967     14966     14969     14968     14966     14969
     14966     14969     14970     14966     14969     14971     14966     14969     14972
     14970     14969     14971     14970     14969     14972     14971     14969     14972
     14969     14972     14973     14969     14972     14974     14969     14972     14975
     14973     14972     14974     14973     14972     14975     14974     14972     14975
     14972     14975     14976     14972     14975     14977     14972     14975     14978
     14976     14975     14977     14976     14975     14978     14977     14975     14978
     14975     14978     14979     14975     14978     14980     14975     14978     14981
     14979     14978     14980     14979     14978     14981     14980     14978     14981
     14978     14981     14982     14978     14981     14983     14978     14981     14984
     14982     14981     14983     14982     14981     14984     14983     14981     14984
     14981     14984     14985     14981     14984     14986     14981     14984     14987
     14985     14984     14986     14985     14984     14987     14986     14984     14987
      3332      3331      3333      3332      3331      3335      3332      3331      3377
      3333      3331      3335      3333      3331      3377      3335      3331      3377
      3331      3333      3334      3331      3335      3336      3331      3335      3337
      3331      3335      3338      3336      3335      3337      3336      3335      3338
      3337      3335      3338      3335      3338      3339      3335      3338      3369
      3339      3338      3369      3338      3339      3340      3338      3339      3341
      3340      3339      3341      3339      3341      3342      3339      3341      3343
      3339      3341      3344      3342      3341      3343      3342      3341      3344
      3343      3341      3344      3341      3344      3345      3341      3344      3346
      3341      3344      3367      3345      3344      3346      3345      3344      3367
      3346      3344      3367      3344      3346      3347      3344      3346      3348
      3344      3346      3356      3347      3346      3348      3347      3346      3356
      3348      3346      3356      3346      3348      3349      3346      3348      3350
      3346      3348      3351      3349      3348      3350      3349      3348      3351
      3350      3348      3351      3348      3351      3352      3348      3351      3353
      3348      3351      3354      3352      3351      3353      3352      3351      3354
      3353      3351      3354      3351      3354      3355      3351      3354      3356
      3351      3354      3380      3355      3354      3356      3355      3354      3380
      3356      3354      3380      3346      3356      3354      3346      3356      3357
      3346      3356      3361      3354      3356      3357      3354      3356      3361
      3357      3356      3361      3356      3357      3358      3356      3357      3359
      3356      3357      3360      3358      3357      3359      3358      3357      3360
      3359      3357      3360      3356      3361      3362      3356      3361      3363
      3356      3361      3364      3362      3361      3363      3362      3361      3364
      3363      3361      3364      3361      3364      3365      3361      3364      3366
      3361      3364      3367      3365      3364      3366      3365      3364      3367
      3366      3364      3367      3344      3367      3364      3344      3367      3368
      3344      3367      3369      3364      3367      3368      3364      3367      3369
      3368      3367      3369      3338      3369      3367      3338      3369      3370
      3338      3369      3374      3367      3369      3370      3367      3369      3374
      3370      3369      3374      3369      3370      3371      3369      3370      3372
      3369      3370      3373      3371      3370      3372      3371      3370      3373
      3372      3370      3373      3369      3374      3375      3369      3374      3376
      3369      3374      3377      3375      3374      3376      3375      3374      3377
      3376      3374      3377      3331      3377      3374      3331      3377      3378
      3331      3377      3379      3374      3377      3378      3374      3377      3379
      3378      3377      3379      3354      3380      3381      3354      3380      3382
      3354      3380      3386      3381      3380      3382      3381      3380      3386
      3382      3380      3386      3380      3382      3383      3380      3382      3384
      3380      3382      3385      3383      3382      3384      3383      3382      3385
      3384      3382      3385      3380      3386      3387      3380      3386      3388
      3380      3386      3389      3387      3386      3388      3387      3386      3389
      3388      3386      3389      3386      3389      3390      3386      3389      3391
      3386      3389      3392      3390      3389      3391      3390      3389      3392
      3391      3389      3392      3389      3392      3393      3389      3392      3394
      3389      3392      3395      3393      3392      3394      3393      3392      3395
      3394      3392      3395      3392      3395      3396      3392      3395      3397
      3392      3395      3401      3396      3395      3397      3396      3395      3401
      3397      3395      3401      3395      3397      3398      3395      3397      3399
      3395      3397      3400      3398      3397      3399      3398      3397      3400
      3399      3397      3400      3395      3401      3402      3395      3401      3403
      3395      3401      3404      3402      3401      3403      3402      3401      3404
      3403      3401      3404     14989     14988     14993     14989     14988     14997
     14989     14988     15001     14993     14988     14997     14993     14988     15001
     14997     14988     15001     14988     14989     14990     14988     14989     14991
     14988     14989     14992     14990     14989     14991     14990     14989     14992
     14991     14989     14992     14988     14993     14994     14988     14993     14995
     14988     14993     14996     14994     14993     14995     14994     14993     14996
     14995     14993     14996     14988     14997     14998     14988     14997     14999
     14988     14997     15000     14998     14997     14999     14998     14997     15000
     14999     14997     15000     14988     15001     15002     14988     15001     15003
     14988     15001     15004     15002     15001     15003     15002     15001     15004
     15003     15001     15004     15001     15004     15005     15001     15004     15006
     15001     15004     15011     15005     15004     15006     15005     15004     15011
     15006     15004     15011     15008     15007     15009     15008     15007     15010
     15008     15007     15011     15009     15007     15010     15009     15007     15011
     15010     15007     15011     15007     15010     15012     15004     15011     15007
     15010     15012     15013     15010     15012     15014     15010     15012     15017
     15013     15012     15014     15013     15012     15017     15014     15012     15017
     15016     15015     15017     15016     15015     15067     15017     15015     15067
     15012     15017     15015     15012     15017     15018     15012     15017     15019
     15015     15017     15018     15015     15017     15019     15018     15017     15019
     15017     15019     15020     15017     15019     15021     15017     15019     15023
     15020     15019     15021     15020     15019     15023     15021     15019     15023
     15019     15021     15022     15019     15023     15024     15019     15023     15025
     15024     15023     15025     15023     15025     15026     15023     15025     15027
     15026     15025     15027     15025     15027     15028     15025     15027     15029
     15025     15027     15030     15028     15027     15029     15028     15027     15030
     15029     15027     15030     15027     15030     15031     15027     15030     15032
     15027     15030     15033     15031     15030     15032     15031     15030     15033
     15032     15030     15033     15030     15033     15034     15030     15033     15035
     15030     15033     15036     15034     15033     15035     15034     15033     15036
     15035     15033     15036     15033     15036     15037     15033     15036     15038
     15033     15036     15039     15037     15036     15038     15037     15036     15039
     15038     15036     15039     15036     15039     15040     15036     15039     15041
     15036     15039     15042     15040     15039     15041     15040     15039     15042
     15041     15039     15042     15039     15042     15043     15039     15042     15044
     15039     15042     15045     15043     15042     15044     15043     15042     15045
     15044     15042     15045     15042     15045     15046     15042     15045     15047
     15042     15045     15048     15046     15045     15047     15046     15045     15048
     15047     15045     15048     15045     15048     15049     15045     15048     15050
     15045     15048     15051     15049     15048     15050     15049     15048     15051
     15050     15048     15051     15048     15051     15052     15048     15051     15053
     15048     15051     15054     15052     15051     15053     15052     15051     15054
     15053     15051     15054     15051     15054     15055     15051     15054     15056
     15051     15054     15057     15055     15054     15056     15055     15054     15057
     15056     15054     15057     15054     15057     15058     15054     15057     15059
     15054     15057     15060     15058     15057     15059     15058     15057     15060
     15059     15057     15060     15057     15060     15061     15057     15060     15062
     15057     15060     15063     15061     15060     15062     15061     15060     15063
     15062     15060     15063     15060     15063     15064     15060     15063     15065
     15060     15063     15066     15064     15063     15065     15064     15063     15066
     15065     15063     15066     15015     15067     15068     15015     15067     15069
     15068     15067     15069     15067     15069     15070     15067     15069     15071
     15067     15069     15072     15070     15069     15071     15070     15069     15072
     15071     15069     15072     15069     15072     15073     15069     15072     15074
     15069     15072     15075     15073     15072     15074     15073     15072     15075
     15074     15072     15075     15072     15075     15076     15072     15075     15077
     15072     15075     15078     15076     15075     15077     15076     15075     15078
     15077     15075     15078     15075     15078     15079     15075     15078     15080
     15075     15078     15081     15079     15078     15080     15079     15078     15081
     15080     15078     15081     15078     15081     15082     15078     15081     15083
     15078     15081     15084     15082     15081     15083     15082     15081     15084
     15083     15081     15084     15081     15084     15085     15081     15084     15086
     15081     15084     15087     15085     15084     15086     15085     15084     15087
     15086     15084     15087     15084     15087     15088     15084     15087     15089
     15084     15087     15090     15088     15087     15089     15088     15087     15090
     15089     15087     15090     15087     15090     15091     15087     15090     15092
     15091     15090     15092     15090     15092     15093     15090     15092     15094
     15093     15092     15094     15092     15094     15095     15092     15094     15096
     15092     15094     15097     15095     15094     15096     15095     15094     15097
     15096     15094     15097     15094     15097     15098     15094     15097     15099
     15094     15097     15100     15098     15097     15099     15098     15097     15100
     15099     15097     15100     15097     15100     15101     15097     15100     15102
     15097     15100     15103     15101     15100     15102     15101     15100     15103
     15102     15100     15103     15100     15103     15104     15100     15103     15105
     15100     15103     15106     15104     15103     15105     15104     15103     15106
     15105     15103     15106     15103     15106     15107     15103     15106     15108
     15103     15106     15109     15107     15106     15108     15107     15106     15109
     15108     15106     15109     15106     15109     15110     15106     15109     15111
     15106     15109     15112     15110     15109     15111     15110     15109     15112
     15111     15109     15112     15109     15112     15113     15109     15112     15114
     15109     15112     15115     15113     15112     15114     15113     15112     15115
     15114     15112     15115     15112     15115     15116     15112     15115     15117
     15112     15115     15118     15116     15115     15117     15116     15115     15118
     15117     15115     15118      9743      9742      9744      9743      9742      9745
      9743      9742      9746      9744      9742      9745      9744      9742      9746
      9745      9742      9746      9742      9746      9747      9742      9746      9748
      9742      9746      9751      9747      9746      9748      9747      9746      9751
      9748      9746      9751      9746      9748      9749      9746      9748      9750
      9749      9748      9750      9746      9751      9752      9746      9751      9753
      9746      9751      9757      9752      9751      9753      9752      9751      9757
      9753      9751      9757      9755      9754      9756      9755      9754      9757
      9755      9754      9758      9756      9754      9757      9756      9754      9758
      9757      9754      9758      9751      9757      9754      9754      9758      9759
      9758      9759      9760      9758      9759      9761      9758      9759      9762
      9760      9759      9761      9760      9759      9762      9761      9759      9762
      9759      9762      9763      9759      9762      9764      9759      9762      9770
      9763      9762      9764      9763      9762      9770      9764      9762      9770
      9762      9764      9765      9764      9765      9766      9764      9765      9767
      9766      9765      9767      9765      9767      9768      9765      9767      9769
      9765      9767      9779      9768      9767      9769      9768      9767      9779
      9769      9767      9779      9762      9770      9771      9762      9770      9772
      9762      9770      9773      9771      9770      9772      9771      9770      9773
      9772      9770      9773      9770      9773      9774      9773      9774      9775
      9773      9774      9776      9775      9774      9776      9774      9776      9777
      9774      9776      9778      9774      9776      9826      9777      9776      9778
      9777      9776      9826      9778      9776      9826      9767      9779      9780
      9767      9779      9781      9767      9779      9782      9780      9779      9781
      9780      9779      9782      9781      9779      9782      9779      9782      9783
      9779      9782      9784      9779      9782      9785      9783      9782      9784
      9783      9782      9785      9784      9782      9785      9782      9785      9786
      9782      9785      9787      9786      9785      9787      9785      9787      9788
      9785      9787      9789      9788      9787      9789      9787      9789      9790
      9787      9789      9791      9787      9789      9792      9790      9789      9791
      9790      9789      9792      9791      9789      9792      9789      9792      9793
      9789      9792      9794      9793      9792      9794      9792      9794      9795
      9792      9794      9796      9795      9794      9796      9794      9796      9797
      9794      9796      9798      9794      9796      9799      9797      9796      9798
      9797      9796      9799      9798      9796      9799      9796      9799      9800
      9796      9799      9801      9800      9799      9801      9799      9801      9802
      9799      9801      9803      9802      9801      9803      9801      9803      9804
      9801      9803      9805      9801      9803      9806      9804      9803      9805
      9804      9803      9806      9805      9803      9806      9803      9806      9807
      9803      9806      9808      9807      9806      9808      9806      9808      9809
      9806      9808      9810      9809      9808      9810      9808      9810      9811
      9808      9810      9812      9808      9810      9813      9811      9810      9812
      9811      9810      9813      9812      9810      9813      9810      9813      9814
      9810      9813      9815      9810      9813      9816      9814      9813      9815
      9814      9813      9816      9815      9813      9816      9813      9816      9817
      9813      9816      9818      9813      9816      9819      9817      9816      9818
      9817      9816      9819      9818      9816      9819      9816      9819      9820
      9816      9819      9821      9816      9819      9822      9820      9819      9821
      9820      9819      9822      9821      9819      9822      9819      9822      9823
      9819      9822      9824      9819      9822      9825      9823      9822      9824
      9823      9822      9825      9824      9822      9825      9776      9826      9827
      9776      9826      9828      9776      9826      9829      9827      9826      9828
      9827      9826      9829      9828      9826      9829      9826      9829      9830
      9826      9829      9831      9826      9829      9832      9830      9829      9831
      9830      9829      9832      9831      9829      9832      9829      9832      9833
      9829      9832      9834      9829      9832      9835      9833      9832      9834
      9833      9832      9835      9834      9832      9835      9832      9835      9836
      9832      9835      9837      9832      9835      9838      9836      9835      9837
      9836      9835      9838      9837      9835      9838      9835      9838      9839
      9835      9838      9840      9835      9838      9841      9839      9838      9840
      9839      9838      9841      9840      9838      9841      9838      9841      9842
      9838      9841      9843      9838      9841      9844      9842      9841      9843
      9842      9841      9844      9843      9841      9844      9841      9844      9845
      9841      9844      9846      9841      9844      9847      9845      9844      9846
      9845      9844      9847      9846      9844      9847      9844      9847      9848
      9844      9847      9849      9844      9847      9850      9848      9847      9849
      9848      9847      9850      9849      9847      9850      9847      9850      9851
      9847      9850      9852      9847      9850      9853      9851      9850      9852
      9851      9850      9853      9852      9850      9853      9850      9853      9854
      9850      9853      9855      9850      9853      9856      9854      9853      9855
      9854      9853      9856      9855      9853      9856      9853      9856      9857
      9853      9856      9858      9853      9856      9859      9857      9856      9858
      9857      9856      9859      9858      9856      9859      9856      9859      9860
      9856      9859      9861      9856      9859      9862      9860      9859      9861
      9860      9859      9862      9861      9859      9862      9859      9862      9863
      9859      9862      9864      9859      9862      9865      9863      9862      9864
      9863      9862      9865      9864      9862      9865      9862      9865      9866
      9862      9865      9867      9862      9865      9868      9866      9865      9867
      9866      9865      9868      9867      9865      9868      9865      9868      9869
      9865      9868      9870      9865      9868      9871      9869      9868      9870
      9869      9868      9871      9870      9868      9871      9868      9871      9872
      9868      9871      9873      9868      9871      9874      9872      9871      9873
      9872      9871      9874      9873      9871      9874     18526     18525     18527
     18526     18525     18528     18526     18525     18529     18527     18525     18528
     18527     18525     18529     18528     18525     18529     18525     18529     18530
     18525     18529     18531     18525     18529     18532     18530     18529     18531
     18530     18529     18532     18531     18529     18532     18529     18532     18533
     18529     18532     18534     18529     18532     18538     18533     18532     18534
     18533     18532     18538     18534     18532     18538     18536     18535     18537
     18536     18535     18538     18536     18535     18539     18537     18535     18538
     18537     18535     18539     18538     18535     18539     18532     18538     18535
     18535     18539     18540     18539     18540     18541     18539     18540     18542
     18539     18540     18543     18541     18540     18542     18541     18540     18543
     18542     18540     18543     18540     18543     18544     18540     18543     18545
     18540     18543     18551     18544     18543     18545     18544     18543     18551
     18545     18543     18551     18543     18545     18546     18545     18546     18547
     18545     18546     18548     18547     18546     18548     18546     18548     18549
     18546     18548     18550     18546     18548     18560     18549     18548     18550
     18549     18548     18560     18550     18548     18560     18543     18551     18552
     18543     18551     18553     18543     18551     18554     18552     18551     18553
     18552     18551     18554     18553     18551     18554     18551     18554     18555
     18554     18555     18556     18554     18555     18557     18556     18555     18557
     18555     18557     18558     18555     18557     18559     18555     18557     18607
     18558     18557     18559     18558     18557     18607     18559     18557     18607
     18548     18560     18561     18548     18560     18562     18548     18560     18563
     18561     18560     18562     18561     18560     18563     18562     18560     18563
     18560     18563     18564     18560     18563     18565     18560     18563     18566
     18564     18563     18565     18564     18563     18566     18565     18563     18566
     18563     18566     18567     18563     18566     18568     18567     18566     18568
     18566     18568     18569     18566     18568     18570     18569     18568     18570
     18568     18570     18571     18568     18570     18572     18568     18570     18573
     18571     18570     18572     18571     18570     18573     18572     18570     18573
     18570     18573     18574     18570     18573     18575     18574     18573     18575
     18573     18575     18576     18573     18575     18577     18576     18575     18577
     18575     18577     18578     18575     18577     18579     18575     18577     18580
     18578     18577     18579     18578     18577     18580     18579     18577     18580
     18577     18580     18581     18577     18580     18582     18581     18580     18582
     18580     18582     18583     18580     18582     18584     18583     18582     18584
     18582     18584     18585     18582     18584     18586     18582     18584     18587
     18585     18584     18586     18585     18584     18587     18586     18584     18587
     18584     18587     18588     18584     18587     18589     18588     18587     18589
     18587     18589     18590     18587     18589     18591     18590     18589     18591
     18589     18591     18592     18589     18591     18593     18589     18591     18594
     18592     18591     18593     18592     18591     18594     18593     18591     18594
     18591     18594     18595     18591     18594     18596     18591     18594     18597
     18595     18594     18596     18595     18594     18597     18596     18594     18597
     18594     18597     18598     18594     18597     18599     18594     18597     18600
     18598     18597     18599     18598     18597     18600     18599     18597     18600
     18597     18600     18601     18597     18600     18602     18597     18600     18603
     18601     18600     18602     18601     18600     18603     18602     18600     18603
     18600     18603     18604     18600     18603     18605     18600     18603     18606
     18604     18603     18605     18604     18603     18606     18605     18603     18606
     18557     18607     18608     18557     18607     18609     18557     18607     18610
     18608     18607     18609     18608     18607     18610     18609     18607     18610
     18607     18610     18611     18607     18610     18612     18607     18610     18613
     18611     18610     18612     18611     18610     18613     18612     18610     18613
     18610     18613     18614     18610     18613     18615     18610     18613     18616
     18614     18613     18615     18614     18613     18616     18615     18613     18616
     18613     18616     18617     18613     18616     18618     18613     18616     18619
     18617     18616     18618     18617     18616     18619     18618     18616     18619
     18616     18619     18620     18616     18619     18621     18616     18619     18622
     18620     18619     18621     18620     18619     18622     18621     18619     18622
     18619     18622     18623     18619     18622     18624     18619     18622     18625
     18623     18622     18624     18623     18622     18625     18624     18622     18625
     18622     18625     18626     18622     18625     18627     18622     18625     18628
     18626     18625     18627     18626     18625     18628     18627     18625     18628
     18625     18628     18629     18625     18628     18630     18625     18628     18631
     18629     18628     18630     18629     18628     18631     18630     18628     18631
     18628     18631     18632     18628     18631     18633     18628     18631     18634
     18632     18631     18633     18632     18631     18634     18633     18631     18634
     18631     18634     18635     18631     18634     18636     18631     18634     18637
     18635     18634     18636     18635     18634     18637     18636     18634     18637
     18634     18637     18638     18634     18637     18639     18634     18637     18640
     18638     18637     18639     18638     18637     18640     18639     18637     18640
     18637     18640     18641     18637     18640     18642     18637     18640     18643
     18641     18640     18642     18641     18640     18643     18642     18640     18643
     18640     18643     18644     18640     18643     18645     18640     18643     18646
     18644     18643     18645     18644     18643     18646     18645     18643     18646
     18643     18646     18647     18643     18646     18648     18643     18646     18649
     18647     18646     18648     18647     18646     18649     18648     18646     18649
     18646     18649     18650     18646     18649     18651     18646     18649     18652
     18650     18649     18651     18650     18649     18652     18651     18649     18652
     18649     18652     18653     18649     18652     18654     18649     18652     18655
     18653     18652     18654     18653     18652     18655     18654     18652     18655
     22120     22119     22123     22120     22119     22127     22120     22119     22131
     22123     22119     22127     22123     22119     22131     22127     22119     22131
     22119     22120     22121     22119     22120     22122     22119     22120     22135
     22121     22120     22122     22121     22120     22135     22122     22120     22135
     22119     22123     22124     22119     22123     22125     22119     22123     22126
     22124     22123     22125     22124     22123     22126     22125     22123     22126
     22119     22127     22128     22119     22127     22129     22119     22127     22130
     22128     22127     22129     22128     22127     22130     22129     22127     22130
     22119     22131     22132     22119     22131     22133     22119     22131     22134
     22132     22131     22133     22132     22131     22134     22133     22131     22134
     22120     22135     22136     22120     22135     22137     22120     22135     22141
     22136     22135     22137     22136     22135     22141     22137     22135     22141
     22139     22138     22140     22139     22138     22141     22139     22138     22142
     22140     22138     22141     22140     22138     22142     22141     22138     22142
     22135     22141     22138     22138     22142     22143     22142     22143     22144
     22142     22143     22145     22142     22143     22146     22144     22143     22145
     22144     22143     22146     22145     22143     22146     22143     22146     22147
     22143     22146     22148     22143     22146     22154     22147     22146     22148
     22147     22146     22154     22148     22146     22154     22146     22148     22149
     22148     22149     22150     22148     22149     22151     22150     22149     22151
     22149     22151     22152     22149     22151     22153     22149     22151     22163
     22152     22151     22153     22152     22151     22163     22153     22151     22163
     22146     22154     22155     22146     22154     22156     22146     22154     22157
     22155     22154     22156     22155     22154     22157     22156     22154     22157
     22154     22157     22158     22157     22158     22159     22157     22158     22160
     22159     22158     22160     22158     22160     22161     22158     22160     22162
     22158     22160     22210     22161     22160     22162     22161     22160     22210
     22162     22160     22210     22151     22163     22164     22151     22163     22165
     22151     22163     22166     22164     22163     22165     22164     22163     22166
     22165     22163     22166     22163     22166     22167     22163     22166     22168
     22163     22166     22169     22167     22166     22168     22167     22166     22169
     22168     22166     22169     22166     22169     22170     22166     22169     22171
     22166     22169     22172     22170     22169     22171     22170     22169     22172
     22171     22169     22172     22169     22172     22173     22169     22172     22174
     22169     22172     22175     22173     22172     22174     22173     22172     22175
     22174     22172     22175     22172     22175     22176     22172     22175     22177
     22172     22175     22178     22176     22175     22177     22176     22175     22178
     22177     22175     22178     22175     22178     22179     22175     22178     22180
     22175     22178     22181     22179     22178     22180     22179     22178     22181
     22180     22178     22181     22178     22181     22182     22178     22181     22183
     22182     22181     22183     22181     22183     22184     22181     22183     22185
     22184     22183     22185     22183     22185     22186     22183     22185     22187
     22183     22185     22188     22186     22185     22187     22186     22185     22188
     22187     22185     22188     22185     22188     22189     22185     22188     22190
     22185     22188     22191     22189     22188     22190     22189     22188     22191
     22190     22188     22191     22188     22191     22192     22188     22191     22193
     22188     22191     22194     22192     22191     22193     22192     22191     22194
     22193     22191     22194     22191     22194     22195     22191     22194     22196
     22191     22194     22197     22195     22194     22196     22195     22194     22197
     22196     22194     22197     22194     22197     22198     22194     22197     22199
     22194     22197     22200     22198     22197     22199     22198     22197     22200
     22199     22197     22200     22197     22200     22201     22197     22200     22202
     22197     22200     22203     22201     22200     22202     22201     22200     22203
     22202     22200     22203     22200     22203     22204     22200     22203     22205
     22200     22203     22206     22204     22203     22205     22204     22203     22206
     22205     22203     22206     22203     22206     22207     22203     22206     22208
     22203     22206     22209     22207     22206     22208     22207     22206     22209
     22208     22206     22209     22160     22210     22211     22160     22210     22212
     22160     22210     22213     22211     22210     22212     22211     22210     22213
     22212     22210     22213     22210     22213     22214     22210     22213     22215
     22210     22213     22216     22214     22213     22215     22214     22213     22216
     22215     22213     22216     22213     22216     22217     22213     22216     22218
     22213     22216     22219     22217     22216     22218     22217     22216     22219
     22218     22216     22219     22216     22219     22220     22216     22219     22221
     22216     22219     22222     22220     22219     22221     22220     22219     22222
     22221     22219     22222     22219     22222     22223     22219     22222     22224
     22219     22222     22225     22223     22222     22224     22223     22222     22225
     22224     22222     22225     22222     22225     22226     22222     22225     22227
     22222     22225     22228     22226     22225     22227     22226     22225     22228
     22227     22225     22228     22225     22228     22229     22225     22228     22230
     22225     22228     22231     22229     22228     22230     22229     22228     22231
     22230     22228     22231     22228     22231     22232     22228     22231     22233
     22228     22231     22234     22232     22231     22233     22232     22231     22234
     22233     22231     22234     22231     22234     22235     22231     22234     22236
     22231     22234     22237     22235     22234     22236     22235     22234     22237
     22236     22234     22237     22234     22237     22238     22234     22237     22239
     22234     22237     22240     22238     22237     22239     22238     22237     22240
     22239     22237     22240     22237     22240     22241     22237     22240     22242
     22237     22240     22243     22241     22240     22242     22241     22240     22243
     22242     22240     22243     22240     22243     22244     22240     22243     22245
     22240     22243     22246     22244     22243     22245     22244     22243     22246
     22245     22243     22246     22243     22246     22247     22243     22246     22248
     22243     22246     22249     22247     22246     22248     22247     22246     22249
     22248     22246     22249     22246     22249     22250     22246     22249     22251
     22246     22249     22252     22250     22249     22251     22250     22249     22252
     22251     22249     22252     20622     20621     20623     20622     20621     20624
     20622     20621     20625     20623     20621     20624     20623     20621     20625
     20624     20621     20625     20621     20625     20626     20621     20625     20627
     20621     20625     20628     20626     20625     20627     20626     20625     20628
     20627     20625     20628     20625     20628     20629     20625     20628     20630
     20625     20628     20634     20629     20628     20630     20629     20628     20634
     20630     20628     20634     20632     20631     20633     20632     20631     20634
     20632     20631     20635     20633     20631     20634     20633     20631     20635
     20634     20631     20635     20628     20634     20631     20631     20635     20636
     20635     20636     20637     20635     20636     20638     20635     20636     20639
     20637     20636     20638     20637     20636     20639     20638     20636     20639
     20636     20639     20640     20636     20639     20641     20636     20639     20647
     20640     20639     20641     20640     20639     20647     20641     20639     20647
     20639     20641     20642     20641     20642     20643     20641     20642     20644
     20643     20642     20644     20642     20644     20645     20642     20644     20646
     20642     20644     20656     20645     20644     20646     20645     20644     20656
     20646     20644     20656     20639     20647     20648     20639     20647     20649
     20639     20647     20650     20648     20647     20649     20648     20647     20650
     20649     20647     20650     20647     20650     20651     20650     20651     20652
     20650     20651     20653     20652     20651     20653     20651     20653     20654
     20651     20653     20655     20651     20653     20703     20654     20653     20655
     20654     20653     20703     20655     20653     20703     20644     20656     20657
     20644     20656     20658     20644     20656     20659     20657     20656     20658
     20657     20656     20659     20658     20656     20659     20656     20659     20660
     20656     20659     20661     20656     20659     20662     20660     20659     20661
     20660     20659     20662     20661     20659     20662     20659     20662     20663
     20659     20662     20664     20659     20662     20665     20663     20662     20664
     20663     20662     20665     20664     20662     20665     20662     20665     20666
     20662     20665     20667     20662     20665     20668     20666     20665     20667
     20666     20665     20668     20667     20665     20668     20665     20668     20669
     20665     20668     20670     20665     20668     20671     20669     20668     20670
     20669     20668     20671     20670     20668     20671     20668     20671     20672
     20668     20671     20673     20668     20671     20674     20672     20671     20673
     20672     20671     20674     20673     20671     20674     20671     20674     20675
     20671     20674     20676     20675     20674     20676     20674     20676     20677
     20674     20676     20678     20677     20676     20678     20676     20678     20679
     20676     20678     20680     20676     20678     20681     20679     20678     20680
     20679     20678     20681     20680     20678     20681     20678     20681     20682
     20678     20681     20683     20678     20681     20684     20682     20681     20683
     20682     20681     20684     20683     20681     20684     20681     20684     20685
     20681     20684     20686     20681     20684     20687     20685     20684     20686
     20685     20684     20687     20686     20684     20687     20684     20687     20688
     20684     20687     20689     20684     20687     20690     20688     20687     20689
     20688     20687     20690     20689     20687     20690     20687     20690     20691
     20687     20690     20692     20687     20690     20693     20691     20690     20692
     20691     20690     20693     20692     20690     20693     20690     20693     20694
     20690     20693     20695     20690     20693     20696     20694     20693     20695
     20694     20693     20696     20695     20693     20696     20693     20696     20697
     20693     20696     20698     20693     20696     20699     20697     20696     20698
     20697     20696     20699     20698     20696     20699     20696     20699     20700
     20696     20699     20701     20696     20699     20702     20700     20699     20701
     20700     20699     20702     20701     20699     20702     20653     20703     20704
     20653     20703     20705     20653     20703     20706     20704     20703     20705
     20704     20703     20706     20705     20703     20706     20703     20706     20707
     20703     20706     20708     20703     20706     20709     20707     20706     20708
     20707     20706     20709     20708     20706     20709     20706     20709     20710
     20706     20709     20711     20706     20709     20712     20710     20709     20711
     20710     20709     20712     20711     20709     20712     20709     20712     20713
     20709     20712     20714     20709     20712     20715     20713     20712     20714
     20713     20712     20715     20714     20712     20715     20712     20715     20716
     20712     20715     20717     20712     20715     20718     20716     20715     20717
     20716     20715     20718     20717     20715     20718     20715     20718     20719
     20715     20718     20720     20715     20718     20721     20719     20718     20720
     20719     20718     20721     20720     20718     20721     20718     20721     20722
     20718     20721     20723     20718     20721     20724     20722     20721     20723
     20722     20721     20724     20723     20721     20724     20721     20724     20725
     20721     20724     20726     20721     20724     20727     20725     20724     20726
     20725     20724     20727     20726     20724     20727     20724     20727     20728
     20724     20727     20729     20724     20727     20730     20728     20727     20729
     20728     20727     20730     20729     20727     20730     20727     20730     20731
     20727     20730     20732     20727     20730     20733     20731     20730     20732
     20731     20730     20733     20732     20730     20733     20730     20733     20734
     20730     20733     20735     20730     20733     20736     20734     20733     20735
     20734     20733     20736     20735     20733     20736     20733     20736     20737
     20733     20736     20738     20733     20736     20739     20737     20736     20738
     20737     20736     20739     20738     20736     20739     20736     20739     20740
     20736     20739     20741     20736     20739     20742     20740     20739     20741
     20740     20739     20742     20741     20739     20742     20739     20742     20743
     20739     20742     20744     20739     20742     20745     20743     20742     20744
     20743     20742     20745     20744     20742     20745     20742     20745     20746
     20742     20745     20747     20742     20745     20748     20746     20745     20747
     20746     20745     20748     20747     20745     20748     20745     20748     20749
     20745     20748     20750     20745     20748     20751     20749     20748     20750
     20749     20748     20751     20750     20748     20751      3406      3405      3407
      3406      3405      3409      3406      3405      3451      3407      3405      3409
      3407      3405      3451      3409      3405      3451      3405      3407      3408
      3405      3409      3410      3405      3409      3411      3405      3409      3412
      3410      3409      3411      3410      3409      3412      3411      3409      3412
      3409      3412      3413      3409      3412      3443      3413      3412      3443
      3412      3413      3414      3412      3413      3415      3414      3413      3415
      3413      3415      3416      3413      3415      3417      3413      3415      3418
      3416      3415      3417      3416      3415      3418      3417      3415      3418
      3415      3418      3419      3415      3418      3420      3415      3418      3441
      3419      3418      3420      3419      3418      3441      3420      3418      3441
      3418      3420      3421      3418      3420      3422      3418      3420      3430
      3421      3420      3422      3421      3420      3430      3422      3420      3430
      3420      3422      3423      3420      3422      3424      3420      3422      3425
      3423      3422      3424      3423      3422      3425      3424      3422      3425
      3422      3425      3426      3422      3425      3427      3422      3425      3428
      3426      3425      3427      3426      3425      3428      3427      3425      3428
      3425      3428      3429      3425      3428      3430      3425      3428      3454
      3429      3428      3430      3429      3428      3454      3430      3428      3454
      3420      3430      3428      3420      3430      3431      3420      3430      3435
      3428      3430      3431      3428      3430      3435      3431      3430      3435
      3430      3431      3432      3430      3431      3433      3430      3431      3434
      3432      3431      3433      3432      3431      3434      3433      3431      3434
      3430      3435      3436      3430      3435      3437      3430      3435      3438
      3436      3435      3437      3436      3435      3438      3437      3435      3438
      3435      3438      3439      3435      3438      3440      3435      3438      3441
      3439      3438      3440      3439      3438      3441      3440      3438      3441
      3418      3441      3438      3418      3441      3442      3418      3441      3443
      3438      3441      3442      3438      3441      3443      3442      3441      3443
      3412      3443      3441      3412      3443      3444      3412      3443      3448
      3441      3443      3444      3441      3443      3448      3444      3443      3448
      3443      3444      3445      3443      3444      3446      3443      3444      3447
      3445      3444      3446      3445      3444      3447      3446      3444      3447
      3443      3448      3449      3443      3448      3450      3443      3448      3451
      3449      3448      3450      3449      3448      3451      3450      3448      3451
      3405      3451      3448      3405      3451      3452      3405      3451      3453
      3448      3451      3452      3448      3451      3453      3452      3451      3453
      3428      3454      3455      3428      3454      3456      3428      3454      3460
      3455      3454      3456      3455      3454      3460      3456      3454      3460
      3454      3456      3457      3454      3456      3458      3454      3456      3459
      3457      3456      3458      3457      3456      3459      3458      3456      3459
      3454      3460      3461      3454      3460      3462      3454      3460      3463
      3461      3460      3462      3461      3460      3463      3462      3460      3463
      3460      3463      3464      3460      3463      3465      3460      3463      3466
      3464      3463      3465      3464      3463      3466      3465      3463      3466
      3463      3466      3467      3463      3466      3468      3463      3466      3469
      3467      3466      3468      3467      3466      3469      3468      3466      3469
      3466      3469      3470      3466      3469      3471      3466      3469      3475
      3470      3469      3471      3470      3469      3475      3471      3469      3475
      3469      3471      3472      3469      3471      3473      3469      3471      3474
      3472      3471      3473      3472      3471      3474      3473      3471      3474
      3469      3475      3476      3469      3475      3477      3469      3475      3478
      3476      3475      3477      3476      3475      3478      3477      3475      3478
      6930      6929      6934      6930      6929      6938      6930      6929      6942
      6934      6929      6938      6934      6929      6942      6938      6929      6942
      6929      6930      6931      6929      6930      6932      6929      6930      6933
      6931      6930      6932      6931      6930      6933      6932      6930      6933
      6929      6934      6935      6929      6934      6936      6929      6934      6937
      6935      6934      6936      6935      6934      6937      6936      6934      6937
      6929      6938      6939      6929      6938      6940      6929      6938      6941
      6939      6938      6940      6939      6938      6941      6940      6938      6941
      6929      6942      6943      6929      6942      6944      6929      6942      6945
      6943      6942      6944      6943      6942      6945      6944      6942      6945
      6942      6945      6946      6942      6945      6947      6942      6945      6951
      6946      6945      6947      6946      6945      6951      6947      6945      6951
      6949      6948      6950      6949      6948      6951      6949      6948      6952
      6950      6948      6951      6950      6948      6952      6951      6948      6952
      6945      6951      6948      6948      6952      6953      6952      6953      6954
      6952      6953      6955      6952      6953      6956      6954      6953      6955
      6954      6953      6956      6955      6953      6956      6953      6956      6957
      6953      6956      6958      6953      6956      6964      6957      6956      6958
      6957      6956      6964      6958      6956      6964      6956      6958      6959
      6958      6959      6960      6958      6959      6961      6960      6959      6961
      6959      6961      6962      6959      6961      6963      6959      6961      6973
      6962      6961      6963      6962      6961      6973      6963      6961      6973
      6956      6964      6965      6956      6964      6966      6956      6964      6967
      6965      6964      6966      6965      6964      6967      6966      6964      6967
      6964      6967      6968      6967      6968      6969      6967      6968      6970
      6969      6968      6970      6968      6970      6971      6968      6970      6972
      6968      6970      7018      6971      6970      6972      6971      6970      7018
      6972      6970      7018      6961      6973      6974      6961      6973      6975
      6961      6973      6976      6974      6973      6975      6974      6973      6976
      6975      6973      6976      6973      6976      6977      6973      6976      6978
      6973      6976      6979      6977      6976      6978      6977      6976      6979
      6978      6976      6979      6976      6979      6980      6976      6979      6981
      6976      6979      6982      6980      6979      6981      6980      6979      6982
      6981      6979      6982      6979      6982      6983      6979      6982      6984
      6979      6982      6985      6983      6982      6984      6983      6982      6985
      6984      6982      6985      6982      6985      6986      6982      6985      6987
      6982      6985      6988      6986      6985      6987      6986      6985      6988
      6987      6985      6988      6985      6988      6989      6985      6988      6990
      6985      6988      6991      6989      6988      6990      6989      6988      6991
      6990      6988      6991      6988      6991      6992      6988      6991      6993
      6992      6991      6993      6991      6993      6994      6991      6993      6995
      6994      6993      6995      6993      6995      6996      6993      6995      6997
      6993      6995      6998      6996      6995      6997      6996      6995      6998
      6997      6995      6998      6995      6998      6999      6995      6998      7000
      6999      6998      7000      6998      7000      7001      6998      7000      7002
      7001      7000      7002      7000      7002      7003      7000      7002      7004
      7000      7002      7005      7003      7002      7004      7003      7002      7005
      7004      7002      7005      7002      7005      7006      7002      7005      7007
      7002      7005      7008      7006      7005      7007      7006      7005      7008
      7007      7005      7008      7005      7008      7009      7005      7008      7010
      7005      7008      7011      7009      7008      7010      7009      7008      7011
      7010      7008      7011      7008      7011      7012      7008      7011      7013
      7008      7011      7014      7012      7011      7013      7012      7011      7014
      7013      7011      7014      7011      7014      7015      7011      7014      7016
      7011      7014      7017      7015      7014      7016      7015      7014      7017
      7016      7014      7017      6970      7018      7019      6970      7018      7020
      6970      7018      7021      7019      7018      7020      7019      7018      7021
      7020      7018      7021      7018      7021      7022      7018      7021      7023
      7018      7021      7024      7022      7021      7023      7022      7021      7024
      7023      7021      7024      7021      7024      7025      7021      7024      7026
      7021      7024      7027      7025      7024      7026      7025      7024      7027
      7026      7024      7027      7024      7027      7028      7024      7027      7029
      7024      7027      7030      7028      7027      7029      7028      7027      7030
      7029      7027      7030      7027      7030      7031      7027      7030      7032
      7027      7030      7033      7031      7030      7032      7031      7030      7033
      7032      7030      7033      7030      7033      7034      7030      7033      7035
      7030      7033      7036      7034      7033      7035      7034      7033      7036
      7035      7033      7036      7033      7036      7037      7033      7036      7038
      7033      7036      7039      7037      7036      7038      7037      7036      7039
      7038      7036      7039      7036      7039      7040      7036      7039      7041
      7036      7039      7042      7040      7039      7041      7040      7039      7042
      7041      7039      7042      7039      7042      7043      7039      7042      7044
      7039      7042      7045      7043      7042      7044      7043      7042      7045
      7044      7042      7045      7042      7045      7046      7042      7045      7047
      7042      7045      7048      7046      7045      7047      7046      7045      7048
      7047      7045      7048      7045      7048      7049      7045      7048      7050
      7045      7048      7051      7049      7048      7050      7049      7048      7051
      7050      7048      7051      7048      7051      7052      7048      7051      7053
      7048      7051      7054      7052      7051      7053      7052      7051      7054
      7053      7051      7054      7051      7054      7055      7051      7054      7056
      7051      7054      7057      7055      7054      7056      7055      7054      7057
      7056      7054      7057      7054      7057      7058      7054      7057      7059
      7054      7057      7060      7058      7057      7059      7058      7057      7060
      7059      7057      7060      7057      7060      7061      7057      7060      7062
      7057      7060      7063      7061      7060      7062      7061      7060      7063
      7062      7060      7063      7060      7063      7064      7060      7063      7065
      7060      7063      7066      7064      7063      7065      7064      7063      7066
      7065      7063      7066     20753     20752     20754     20753     20752     20755
     20753     20752     20756     20754     20752     20755     20754     20752     20756
     20755     20752     20756     20752     20756     20757     20752     20756     20758
     20752     20756     20759     20757     20756     20758     20757     20756     20759
     20758     20756     20759     20756     20759     20760     20756     20759     20761
     20756     20759     20765     20760     20759     20761     20760     20759     20765
     20761     20759     20765     20763     20762     20764     20763     20762     20765
     20763     20762     20766     20764     20762     20765     20764     20762     20766
     20765     20762     20766     20759     20765     20762     20762     20766     20767
     20766     20767     20768     20766     20767     20769     20766     20767     20770
     20768     20767     20769     20768     20767     20770     20769     20767     20770
     20767     20770     20771     20767     20770     20772     20767     20770     20778
     20771     20770     20772     20771     20770     20778     20772     20770     20778
     20770     20772     20773     20772     20773     20774     20772     20773     20775
     20774     20773     20775     20773     20775     20776     20773     20775     20777
     20773     20775     20787     20776     20775     20777     20776     20775     20787
     20777     20775     20787     20770     20778     20779     20770     20778     20780
     20770     20778     20781     20779     20778     20780     20779     20778     20781
     20780     20778     20781     20778     20781     20782     20781     20782     20783
     20781     20782     20784     20783     20782     20784     20782     20784     20785
     20782     20784     20786     20782     20784     20834     20785     20784     20786
     20785     20784     20834     20786     20784     20834     20775     20787     20788
     20775     20787     20789     20775     20787     20790     20788     20787     20789
     20788     20787     20790     20789     20787     20790     20787     20790     20791
     20787     20790     20792     20787     20790     20793     20791     20790     20792
     20791     20790     20793     20792     20790     20793     20790     20793     20794
     20790     20793     20795     20790     20793     20796     20794     20793     20795
     20794     20793     20796     20795     20793     20796     20793     20796     20797
     20793     20796     20798     20793     20796     20799     20797     20796     20798
     20797     20796     20799     20798     20796     20799     20796     20799     20800
     20796     20799     20801     20796     20799     20802     20800     20799     20801
     20800     20799     20802     20801     20799     20802     20799     20802     20803
     20799     20802     20804     20799     20802     20805     20803     20802     20804
     20803     20802     20805     20804     20802     20805     20802     20805     20806
     20802     20805     20807     20806     20805     20807     20805     20807     20808
     20805     20807     20809     20808     20807     20809     20807     20809     20810
     20807     20809     20811     20807     20809     20812     20810     20809     20811
     20810     20809     20812     20811     20809     20812     20809     20812     20813
     20809     20812     20814     20809     20812     20815     20813     20812     20814
     20813     20812     20815     20814     20812     20815     20812     20815     20816
     20812     20815     20817     20812     20815     20818     20816     20815     20817
     20816     20815     20818     20817     20815     20818     20815     20818     20819
     20815     20818     20820     20815     20818     20821     20819     20818     20820
     20819     20818     20821     20820     20818     20821     20818     20821     20822
     20818     20821     20823     20818     20821     20824     20822     20821     20823
     20822     20821     20824     20823     20821     20824     20821     20824     20825
     20821     20824     20826     20821     20824     20827     20825     20824     20826
     20825     20824     20827     20826     20824     20827     20824     20827     20828
     20824     20827     20829     20824     20827     20830     20828     20827     20829
     20828     20827     20830     20829     20827     20830     20827     20830     20831
     20827     20830     20832     20827     20830     20833     20831     20830     20832
     20831     20830     20833     20832     20830     20833     20784     20834     20835
     20784     20834     20836     20784     20834     20837     20835     20834     20836
     20835     20834     20837     20836     20834     20837     20834     20837     20838
     20834     20837     20839     20834     20837     20840     20838     20837     20839
     20838     20837     20840     20839     20837     20840     20837     20840     20841
     20837     20840     20842     20837     20840     20843     20841     20840     20842
     20841     20840     20843     20842     20840     20843     20840     20843     20844
     20840     20843     20845     20840     20843     20846     20844     20843     20845
     20844     20843     20846     20845     20843     20846     20843     20846     20847
     20843     20846     20848     20843     20846     20849     20847     20846     20848
     20847     20846     20849     20848     20846     20849     20846     20849     20850
     20846     20849     20851     20846     20849     20852     20850     20849     20851
     20850     20849     20852     20851     20849     20852     20849     20852     20853
     20849     20852     20854     20849     20852     20855     20853     20852     20854
     20853     20852     20855     20854     20852     20855     20852     20855     20856
     20852     20855     20857     20852     20855     20858     20856     20855     20857
     20856     20855     20858     20857     20855     20858     20855     20858     20859
     20855     20858     20860     20855     20858     20861     20859     20858     20860
     20859     20858     20861     20860     20858     20861     20858     20861     20862
     20858     20861     20863     20858     20861     20864     20862     20861     20863
     20862     20861     20864     20863     20861     20864     20861     20864     20865
     20861     20864     20866     20861     20864     20867     20865     20864     20866
     20865     20864     20867     20866     20864     20867     20864     20867     20868
     20864     20867     20869     20864     20867     20870     20868     20867     20869
     20868     20867     20870     20869     20867     20870     20867     20870     20871
     20867     20870     20872     20867     20870     20873     20871     20870     20872
     20871     20870     20873     20872     20870     20873     20870     20873     20874
     20870     20873     20875     20870     20873     20876     20874     20873     20875
     20874     20873     20876     20875     20873     20876     20873     20876     20877
     20873     20876     20878     20873     20876     20879     20877     20876     20878
     20877     20876     20879     20878     20876     20879     20876     20879     20880
     20876     20879     20881     20876     20879     20882     20880     20879     20881
     20880     20879     20882     20881     20879     20882     21432     21431     21433
     21432     21431     21435     21432     21431     21451     21433     21431     21435
     21433     21431     21451     21435     21431     21451     21431     21433     21434
     21431     21435     21436     21431     21435     21437     21431     21435     21439
     21436     21435     21437     21436     21435     21439     21437     21435     21439
     21435     21437     21438     21435     21439     21440     21435     21439     21441
     21435     21439     21443     21440     21439     21441     21440     21439     21443
     21441     21439     21443     21439     21441     21442     21439     21443     21444
     21439     21443     21445     21439     21443     21447     21444     21443     21445
     21444     21443     21447     21445     21443     21447     21443     21445     21446
     21443     21447     21448     21443     21447     21449     21443     21447     21451
     21448     21447     21449     21448     21447     21451     21449     21447     21451
     21447     21449     21450     21431     21451     21447     21431     21451     21452
     21431     21451     21456     21447     21451     21452     21447     21451     21456
     21452     21451     21456     21454     21453     21455     21454     21453     21456
     21454     21453     21457     21455     21453     21456     21455     21453     21457
     21456     21453     21457     21451     21456     21453     21453     21457     21458
     21457     21458     21459     21457     21458     21460     21457     21458     21461
     21459     21458     21460     21459     21458     21461     21460     21458     21461
     21458     21461     21462     21458     21461     21463     21458     21461     21469
     21462     21461     21463     21462     21461     21469     21463     21461     21469
     21461     21463     21464     21463     21464     21465     21463     21464     21466
     21465     21464     21466     21464     21466     21467     21464     21466     21468
     21464     21466     21478     21467     21466     21468     21467     21466     21478
     21468     21466     21478     21461     21469     21470     21461     21469     21471
     21461     21469     21472     21470     21469     21471     21470     21469     21472
     21471     21469     21472     21469     21472     21473     21472     21473     21474
     21472     21473     21475     21474     21473     21475     21473     21475     21476
     21473     21475     21477     21473     21475     21525     21476     21475     21477
     21476     21475     21525     21477     21475     21525     21466     21478     21479
     21466     21478     21480     21466     21478     21481     21479     21478     21480
     21479     21478     21481     21480     21478     21481     21478     21481     21482
     21478     21481     21483     21478     21481     21484     21482     21481     21483
     21482     21481     21484     21483     21481     21484     21481     21484     21485
     21481     21484     21486     21485     21484     21486     21484     21486     21487
     21484     21486     21488     21487     21486     21488     21486     21488     21489
     21486     21488     21490     21486     21488     21491     21489     21488     21490
     21489     21488     21491     21490     21488     21491     21488     21491     21492
     21488     21491     21493     21492     21491     21493     21491     21493     21494
     21491     21493     21495     21494     21493     21495     21493     21495     21496
     21493     21495     21497     21493     21495     21498     21496     21495     21497
     21496     21495     21498     21497     21495     21498     21495     21498     21499
     21495     21498     21500     21499     21498     21500     21498     21500     21501
     21498     21500     21502     21501     21500     21502     21500     21502     21503
     21500     21502     21504     21500     21502     21505     21503     21502     21504
     21503     21502     21505     21504     21502     21505     21502     21505     21506
     21502     21505     21507     21506     21505     21507     21505     21507     21508
     21505     21507     21509     21508     21507     21509     21507     21509     21510
     21507     21509     21511     21507     21509     21512     21510     21509     21511
     21510     21509     21512     21511     21509     21512     21509     21512     21513
     21509     21512     21514     21509     21512     21515     21513     21512     21514
     21513     21512     21515     21514     21512     21515     21512     21515     21516
     21512     21515     21517     21512     21515     21518     21516     21515     21517
     21516     21515     21518     21517     21515     21518     21515     21518     21519
     21515     21518     21520     21515     21518     21521     21519     21518     21520
     21519     21518     21521     21520     21518     21521     21518     21521     21522
     21518     21521     21523     21518     21521     21524     21522     21521     21523
     21522     21521     21524     21523     21521     21524     21475     21525     21526
     21475     21525     21527     21475     21525     21528     21526     21525     21527
     21526     21525     21528     21527     21525     21528     21525     21528     21529
     21525     21528     21530     21525     21528     21531     21529     21528     21530
     21529     21528     21531     21530     21528     21531     21528     21531     21532
     21528     21531     21533     21528     21531     21534     21532     21531     21533
     21532     21531     21534     21533     21531     21534     21531     21534     21535
     21531     21534     21536     21531     21534     21537     21535     21534     21536
     21535     21534     21537     21536     21534     21537     21534     21537     21538
     21534     21537     21539     21534     21537     21540     21538     21537     21539
     21538     21537     21540     21539     21537     21540     21537     21540     21541
     21537     21540     21542     21537     21540     21543     21541     21540     21542
     21541     21540     21543     21542     21540     21543     21540     21543     21544
     21540     21543     21545     21540     21543     21546     21544     21543     21545
     21544     21543     21546     21545     21543     21546     21543     21546     21547
     21543     21546     21548     21543     21546     21549     21547     21546     21548
     21547     21546     21549     21548     21546     21549     21546     21549     21550
     21546     21549     21551     21546     21549     21552     21550     21549     21551
     21550     21549     21552     21551     21549     21552     21549     21552     21553
     21549     21552     21554     21549     21552     21555     21553     21552     21554
     21553     21552     21555     21554     21552     21555     21552     21555     21556
     21552     21555     21557     21552     21555     21558     21556     21555     21557
     21556     21555     21558     21557     21555     21558     21555     21558     21559
     21555     21558     21560     21555     21558     21561     21559     21558     21560
     21559     21558     21561     21560     21558     21561     21558     21561     21562
     21558     21561     21563     21558     21561     21564     21562     21561     21563
     21562     21561     21564     21563     21561     21564     21561     21564     21565
     21561     21564     21566     21561     21564     21567     21565     21564     21566
     21565     21564     21567     21566     21564     21567     21564     21567     21568
     21564     21567     21569     21564     21567     21570     21568     21567     21569
     21568     21567     21570     21569     21567     21570     21567     21570     21571
     21567     21570     21572     21567     21570     21573     21571     21570     21572
     21571     21570     21573     21572     21570     21573     21575     21574     21576
     21575     21574     21578     21575     21574     21594     21576     21574     21578
     21576     21574     21594     21578     21574     21594     21574     21576     21577
     21574     21578     21579     21574     21578     21580     21574     21578     21582
     21579     21578     21580     21579     21578     21582     21580     21578     21582
     21578     21580     21581     21578     21582     21583     21578     21582     21584
     21578     21582     21586     21583     21582     21584     21583     21582     21586
     21584     21582     21586     21582     21584     21585     21582     21586     21587
     21582     21586     21588     21582     21586     21590     21587     21586     21588
     21587     21586     21590     21588     21586     21590     21586     21588     21589
     21586     21590     21591     21586     21590     21592     21586     21590     21594
     21591     21590     21592     21591     21590     21594     21592     21590     21594
     21590     21592     21593     21574     21594     21590     21574     21594     21595
     21574     21594     21599     21590     21594     21595     21590     21594     21599
     21595     21594     21599     21597     21596     21598     21597     21596     21599
     21597     21596     21600     21598     21596     21599     21598     21596     21600
     21599     21596     21600     21594     21599     21596     21596     21600     21601
     21600     21601     21602     21600     21601     21603     21600     21601     21604
     21602     21601     21603     21602     21601     21604     21603     21601     21604
     21601     21604     21605     21601     21604     21606     21601     21604     21612
     21605     21604     21606     21605     21604     21612     21606     21604     21612
     21604     21606     21607     21606     21607     21608     21606     21607     21609
     21608     21607     21609     21607     21609     21610     21607     21609     21611
     21607     21609     21621     21610     21609     21611     21610     21609     21621
     21611     21609     21621     21604     21612     21613     21604     21612     21614
     21604     21612     21615     21613     21612     21614     21613     21612     21615
     21614     21612     21615     21612     21615     21616     21615     21616     21617
     21615     21616     21618     21617     21616     21618     21616     21618     21619
     21616     21618     21620     21616     21618     21668     21619     21618     21620
     21619     21618     21668     21620     21618     21668     21609     21621     21622
     21609     21621     21623     21609     21621     21624     21622     21621     21623
     21622     21621     21624     21623     21621     21624     21621     21624     21625
     21621     21624     21626     21621     21624     21627     21625     21624     21626
     21625     21624     21627     21626     21624     21627     21624     21627     21628
     21624     21627     21629     21628     21627     21629     21627     21629     21630
     21627     21629     21631     21630     21629     21631     21629     21631     21632
     21629     21631     21633     21629     21631     21634     21632     21631     21633
     21632     21631     21634     21633     21631     21634     21631     21634     21635
     21631     21634     21636     21635     21634     21636     21634     21636     21637
     21634     21636     21638     21637     21636     21638     21636     21638     21639
     21636     21638     21640     21636     21638     21641     21639     21638     21640
     21639     21638     21641     21640     21638     21641     21638     21641     21642
     21638     21641     21643     21642     21641     21643     21641     21643     21644
     21641     21643     21645     21644     21643     21645     21643     21645     21646
     21643     21645     21647     21643     21645     21648     21646     21645     21647
     21646     21645     21648     21647     21645     21648     21645     21648     21649
     21645     21648     21650     21649     21648     21650     21648     21650     21651
     21648     21650     21652     21651     21650     21652     21650     21652     21653
     21650     21652     21654     21650     21652     21655     21653     21652     21654
     21653     21652     21655     21654     21652     21655     21652     21655     21656
     21652     21655     21657     21652     21655     21658     21656     21655     21657
     21656     21655     21658     21657     21655     21658     21655     21658     21659
     21655     21658     21660     21655     21658     21661     21659     21658     21660
     21659     21658     21661     21660     21658     21661     21658     21661     21662
     21658     21661     21663     21658     21661     21664     21662     21661     21663
     21662     21661     21664     21663     21661     21664     21661     21664     21665
     21661     21664     21666     21661     21664     21667     21665     21664     21666
     21665     21664     21667     21666     21664     21667     21618     21668     21669
     21618     21668     21670     21618     21668     21671     21669     21668     21670
     21669     21668     21671     21670     21668     21671     21668     21671     21672
     21668     21671     21673     21668     21671     21674     21672     21671     21673
     21672     21671     21674     21673     21671     21674     21671     21674     21675
     21671     21674     21676     21671     21674     21677     21675     21674     21676
     21675     21674     21677     21676     21674     21677     21674     21677     21678
     21674     21677     21679     21674     21677     21680     21678     21677     21679
     21678     21677     21680     21679     21677     21680     21677     21680     21681
     21677     21680     21682     21677     21680     21683     21681     21680     21682
     21681     21680     21683     21682     21680     21683     21680     21683     21684
     21680     21683     21685     21680     21683     21686     21684     21683     21685
     21684     21683     21686     21685     21683     21686     21683     21686     21687
     21683     21686     21688     21683     21686     21689     21687     21686     21688
     21687     21686     21689     21688     21686     21689     21686     21689     21690
     21686     21689     21691     21686     21689     21692     21690     21689     21691
     21690     21689     21692     21691     21689     21692     21689     21692     21693
     21689     21692     21694     21689     21692     21695     21693     21692     21694
     21693     21692     21695     21694     21692     21695     21692     21695     21696
     21692     21695     21697     21692     21695     21698     21696     21695     21697
     21696     21695     21698     21697     21695     21698     21695     21698     21699
     21695     21698     21700     21695     21698     21701     21699     21698     21700
     21699     21698     21701     21700     21698     21701     21698     21701     21702
     21698     21701     21703     21698     21701     21704     21702     21701     21703
     21702     21701     21704     21703     21701     21704     21701     21704     21705
     21701     21704     21706     21701     21704     21707     21705     21704     21706
     21705     21704     21707     21706     21704     21707     21704     21707     21708
     21704     21707     21709     21704     21707     21710     21708     21707     21709
     21708     21707     21710     21709     21707     21710     21707     21710     21711
     21707     21710     21712     21707     21710     21713     21711     21710     21712
     21711     21710     21713     21712     21710     21713     21710     21713     21714
     21710     21713     21715     21710     21713     21716     21714     21713     21715
     21714     21713     21716     21715     21713     21716     20884     20883     20885
     20884     20883     20886     20884     20883     20887     20885     20883     20886
     20885     20883     20887     20886     20883     20887     20883     20887     20888
     20883     20887     20889     20883     20887     20890     20888     20887     20889
     20888     20887     20890     20889     20887     20890     20887     20890     20891
     20887     20890     20892     20887     20890     20896     20891     20890     20892
     20891     20890     20896     20892     20890     20896     20894     20893     20895
     20894     20893     20896     20894     20893     20897     20895     20893     20896
     20895     20893     20897     20896     20893     20897     20890     20896     20893
     20893     20897     20898     20897     20898     20899     20897     20898     20900
     20897     20898     20901     20899     20898     20900     20899     20898     20901
     20900     20898     20901     20898     20901     20902     20898     20901     20903
     20898     20901     20909     20902     20901     20903     20902     20901     20909
     20903     20901     20909     20901     20903     20904     20903     20904     20905
     20903     20904     20906     20905     20904     20906     20904     20906     20907
     20904     20906     20908     20904     20906     20918     20907     20906     20908
     20907     20906     20918     20908     20906     20918     20901     20909     20910
     20901     20909     20911     20901     20909     20912     20910     20909     20911
     20910     20909     20912     20911     20909     20912     20909     20912     20913
     20912     20913     20914     20912     20913     20915     20914     20913     20915
     20913     20915     20916     20913     20915     20917     20913     20915     20965
     20916     20915     20917     20916     20915     20965     20917     20915     20965
     20906     20918     20919     20906     20918     20920     20906     20918     20921
     20919     20918     20920     20919     20918     20921     20920     20918     20921
     20918     20921     20922     20918     20921     20923     20918     20921     20924
     20922     20921     20923     20922     20921     20924     20923     20921     20924
     20921     20924     20925     20921     20924     20926     20921     20924     20927
     20925     20924     20926     20925     20924     20927     20926     20924     20927
     20924     20927     20928     20924     20927     20929     20924     20927     20930
     20928     20927     20929     20928     20927     20930     20929     20927     20930
     20927     20930     20931     20927     20930     20932     20927     20930     20933
     20931     20930     20932     20931     20930     20933     20932     20930     20933
     20930     20933     20934     20930     20933     20935     20930     20933     20936
     20934     20933     20935     20934     20933     20936     20935     20933     20936
     20933     20936     20937     20933     20936     20938     20937     20936     20938
     20936     20938     20939     20936     20938     20940     20939     20938     20940
     20938     20940     20941     20938     20940     20942     20938     20940     20943
     20941     20940     20942     20941     20940     20943     20942     20940     20943
     20940     20943     20944     20940     20943     20945     20940     20943     20946
     20944     20943     20945     20944     20943     20946     20945     20943     20946
     20943     20946     20947     20943     20946     20948     20943     20946     20949
     20947     20946     20948     20947     20946     20949     20948     20946     20949
     20946     20949     20950     20946     20949     20951     20946     20949     20952
     20950     20949     20951     20950     20949     20952     20951     20949     20952
     20949     20952     20953     20949     20952     20954     20949     20952     20955
     20953     20952     20954     20953     20952     20955     20954     20952     20955
     20952     20955     20956     20952     20955     20957     20952     20955     20958
     20956     20955     20957     20956     20955     20958     20957     20955     20958
     20955     20958     20959     20955     20958     20960     20955     20958     20961
     20959     20958     20960     20959     20958     20961     20960     20958     20961
     20958     20961     20962     20958     20961     20963     20958     20961     20964
     20962     20961     20963     20962     20961     20964     20963     20961     20964
     20915     20965     20966     20915     20965     20967     20915     20965     20968
     20966     20965     20967     20966     20965     20968     20967     20965     20968
     20965     20968     20969     20965     20968     20970     20965     20968     20971
     20969     20968     20970     20969     20968     20971     20970     20968     20971
     20968     20971     20972     20968     20971     20973     20968     20971     20974
     20972     20971     20973     20972     20971     20974     20973     20971     20974
     20971     20974     20975     20971     20974     20976     20971     20974     20977
     20975     20974     20976     20975     20974     20977     20976     20974     20977
     20974     20977     20978     20974     20977     20979     20974     20977     20980
     20978     20977     20979     20978     20977     20980     20979     20977     20980
     20977     20980     20981     20977     20980     20982     20977     20980     20983
     20981     20980     20982     20981     20980     20983     20982     20980     20983
     20980     20983     20984     20980     20983     20985     20980     20983     20986
     20984     20983     20985     20984     20983     20986     20985     20983     20986
     20983     20986     20987     20983     20986     20988     20983     20986     20989
     20987     20986     20988     20987     20986     20989     20988     20986     20989
     20986     20989     20990     20986     20989     20991     20986     20989     20992
     20990     20989     20991     20990     20989     20992     20991     20989     20992
     20989     20992     20993     20989     20992     20994     20989     20992     20995
     20993     20992     20994     20993     20992     20995     20994     20992     20995
     20992     20995     20996     20992     20995     20997     20992     20995     20998
     20996     20995     20997     20996     20995     20998     20997     20995     20998
     20995     20998     20999     20995     20998     21000     20995     20998     21001
     20999     20998     21000     20999     20998     21001     21000     20998     21001
     20998     21001     21002     20998     21001     21003     20998     21001     21004
     21002     21001     21003     21002     21001     21004     21003     21001     21004
     21001     21004     21005     21001     21004     21006     21001     21004     21007
     21005     21004     21006     21005     21004     21007     21006     21004     21007
     21004     21007     21008     21004     21007     21009     21004     21007     21010
     21008     21007     21009     21008     21007     21010     21009     21007     21010
     21007     21010     21011     21007     21010     21012     21007     21010     21013
     21011     21010     21012     21011     21010     21013     21012     21010     21013
      5546      5545      5549      5546      5545      5553      5546      5545      5557
      5549      5545      5553      5549      5545      5557      5553      5545      5557
      5545      5546      5547      5545      5546      5548      5545      5546      5561
      5547      5546      5548      5547      5546      5561      5548      5546      5561
      5545      5549      5550      5545      5549      5551      5545      5549      5552
      5550      5549      5551      5550      5549      5552      5551      5549      5552
      5545      5553      5554      5545      5553      5555      5545      5553      5556
      5554      5553      5555      5554      5553      5556      5555      5553      5556
      5545      5557      5558      5545      5557      5559      5545      5557      5560
      5558      5557      5559      5558      5557      5560      5559      5557      5560
      5546      5561      5562      5546      5561      5563      5546      5561      5567
      5562      5561      5563      5562      5561      5567      5563      5561      5567
      5565      5564      5566      5565      5564      5567      5565      5564      5568
      5566      5564      5567      5566      5564      5568      5567      5564      5568
      5561      5567      5564      5564      5568      5569      5568      5569      5570
      5568      5569      5571      5568      5569      5572      5570      5569      5571
      5570      5569      5572      5571      5569      5572      5569      5572      5573
      5569      5572      5574      5569      5572      5580      5573      5572      5574
      5573      5572      5580      5574      5572      5580      5572      5574      5575
      5574      5575      5576      5574      5575      5577      5576      5575      5577
      5575      5577      5578      5575      5577      5579      5575      5577      5589
      5578      5577      5579      5578      5577      5589      5579      5577      5589
      5572      5580      5581      5572      5580      5582      5572      5580      5583
      5581      5580      5582      5581      5580      5583      5582      5580      5583
      5580      5583      5584      5583      5584      5585      5583      5584      5586
      5585      5584      5586      5584      5586      5587      5584      5586      5588
      5584      5586      5636      5587      5586      5588      5587      5586      5636
      5588      5586      5636      5577      5589      5590      5577      5589      5591
      5577      5589      5592      5590      5589      5591      5590      5589      5592
      5591      5589      5592      5589      5592      5593      5589      5592      5594
      5589      5592      5595      5593      5592      5594      5593      5592      5595
      5594      5592      5595      5592      5595      5596      5592      5595      5597
      5596      5595      5597      5595      5597      5598      5595      5597      5599
      5598      5597      5599      5597      5599      5600      5597      5599      5601
      5597      5599      5602      5600      5599      5601      5600      5599      5602
      5601      5599      5602      5599      5602      5603      5599      5602      5604
      5603      5602      5604      5602      5604      5605      5602      5604      5606
      5605      5604      5606      5604      5606      5607      5604      5606      5608
      5604      5606      5609      5607      5606      5608      5607      5606      5609
      5608      5606      5609      5606      5609      5610      5606      5609      5611
      5610      5609      5611      5609      5611      5612      5609      5611      5613
      5612      5611      5613      5611      5613      5614      5611      5613      5615
      5611      5613      5616      5614      5613      5615      5614      5613      5616
      5615      5613      5616      5613      5616      5617      5613      5616      5618
      5617      5616      5618      5616      5618      5619      5616      5618      5620
      5619      5618      5620      5618      5620      5621      5618      5620      5622
      5618      5620      5623      5621      5620      5622      5621      5620      5623
      5622      5620      5623      5620      5623      5624      5620      5623      5625
      5620      5623      5626      5624      5623      5625      5624      5623      5626
      5625      5623      5626      5623      5626      5627      5623      5626      5628
      5623      5626      5629      5627      5626      5628      5627      5626      5629
      5628      5626      5629      5626      5629      5630      5626      5629      5631
      5626      5629      5632      5630      5629      5631      5630      5629      5632
      5631      5629      5632      5629      5632      5633      5629      5632      5634
      5629      5632      5635      5633      5632      5634      5633      5632      5635
      5634      5632      5635      5586      5636      5637      5586      5636      5638
      5586      5636      5639      5637      5636      5638      5637      5636      5639
      5638      5636      5639      5636      5639      5640      5636      5639      5641
      5636      5639      5642      5640      5639      5641      5640      5639      5642
      5641      5639      5642      5639      5642      5643      5639      5642      5644
      5639      5642      5645      5643      5642      5644      5643      5642      5645
      5644      5642      5645      5642      5645      5646      5642      5645      5647
      5642      5645      5648      5646      5645      5647      5646      5645      5648
      5647      5645      5648      5645      5648      5649      5645      5648      5650
      5645      5648      5651      5649      5648      5650      5649      5648      5651
      5650      5648      5651      5648      5651      5652      5648      5651      5653
      5648      5651      5654      5652      5651      5653      5652      5651      5654
      5653      5651      5654      5651      5654      5655      5651      5654      5656
      5651      5654      5657      5655      5654      5656      5655      5654      5657
      5656      5654      5657      5654      5657      5658      5654      5657      5659
      5654      5657      5660      5658      5657      5659      5658      5657      5660
      5659      5657      5660      5657      5660      5661      5657      5660      5662
      5657      5660      5663      5661      5660      5662      5661      5660      5663
      5662      5660      5663      5660      5663      5664      5660      5663      5665
      5660      5663      5666      5664      5663      5665      5664      5663      5666
      5665      5663      5666      5663      5666      5667      5663      5666      5668
      5663      5666      5669      5667      5666      5668      5667      5666      5669
      5668      5666      5669      5666      5669      5670      5666      5669      5671
      5666      5669      5672      5670      5669      5671      5670      5669      5672
      5671      5669      5672      5669      5672      5673      5669      5672      5674
      5669      5672      5675      5673      5672      5674      5673      5672      5675
      5674      5672      5675      5672      5675      5676      5672      5675      5677
      5672      5675      5678      5676      5675      5677      5676      5675      5678
      5677      5675      5678      5675      5678      5679      5675      5678      5680
      5675      5678      5681      5679      5678      5680      5679      5678      5681
      5680      5678      5681      5678      5681      5682      5678      5681      5683
      5678      5681      5684      5682      5681      5683      5682      5681      5684
      5683      5681      5684      3480      3479      3481      3480      3479      3483
      3480      3479      3525      3481      3479      3483      3481      3479      3525
      3483      3479      3525      3479      3481      3482      3479      3483      3484
      3479      3483      3485      3479      3483      3486      3484      3483      3485
      3484      3483      3486      3485      3483      3486      3483      3486      3487
      3483      3486      3517      3487      3486      3517      3486      3487      3488
      3486      3487      3489      3488      3487      3489      3487      3489      3490
      3487      3489      3491      3487      3489      3492      3490      3489      3491
      3490      3489      3492      3491      3489      3492      3489      3492      3493
      3489      3492      3494      3489      3492      3515      3493      3492      3494
      3493      3492      3515      3494      3492      3515      3492      3494      3495
      3492      3494      3496      3492      3494      3504      3495      3494      3496
      3495      3494      3504      3496      3494      3504      3494      3496      3497
      3494      3496      3498      3494      3496      3499      3497      3496      3498
      3497      3496      3499      3498      3496      3499      3496      3499      3500
      3496      3499      3501      3496      3499      3502      3500      3499      3501
      3500      3499      3502      3501      3499      3502      3499      3502      3503
      3499      3502      3504      3499      3502      3528      3503      3502      3504
      3503      3502      3528      3504      3502      3528      3494      3504      3502
      3494      3504      3505      3494      3504      3509      3502      3504      3505
      3502      3504      3509      3505      3504      3509      3504      3505      3506
      3504      3505      3507      3504      3505      3508      3506      3505      3507
      3506      3505      3508      3507      3505      3508      3504      3509      3510
      3504      3509      3511      3504      3509      3512      3510      3509      3511
      3510      3509      3512      3511      3509      3512      3509      3512      3513
      3509      3512      3514      3509      3512      3515      3513      3512      3514
      3513      3512      3515      3514      3512      3515      3492      3515      3512
      3492      3515      3516      3492      3515      3517      3512      3515      3516
      3512      3515      3517      3516      3515      3517      3486      3517      3515
      3486      3517      3518      3486      3517      3522      3515      3517      3518
      3515      3517      3522      3518      3517      3522      3517      3518      3519
      3517      3518      3520      3517      3518      3521      3519      3518      3520
      3519      3518      3521      3520      3518      3521      3517      3522      3523
      3517      3522      3524      3517      3522      3525      3523      3522      3524
      3523      3522      3525      3524      3522      3525      3479      3525      3522
      3479      3525      3526      3479      3525      3527      3522      3525      3526
      3522      3525      3527      3526      3525      3527      3502      3528      3529
      3502      3528      3530      3502      3528      3534      3529      3528      3530
      3529      3528      3534      3530      3528      3534      3528      3530      3531
      3528      3530      3532      3528      3530      3533      3531      3530      3532
      3531      3530      3533      3532      3530      3533      3528      3534      3535
      3528      3534      3536      3528      3534      3537      3535      3534      3536
      3535      3534      3537      3536      3534      3537      3534      3537      3538
      3534      3537      3539      3534      3537      3540      3538      3537      3539
      3538      3537      3540      3539      3537      3540      3537      3540      3541
      3537      3540      3542      3537      3540      3543      3541      3540      3542
      3541      3540      3543      3542      3540      3543      3540      3543      3544
      3540      3543      3545      3540      3543      3549      3544      3543      3545
      3544      3543      3549      3545      3543      3549      3543      3545      3546
      3543      3545      3547      3543      3545      3548      3546      3545      3547
      3546      3545      3548      3547      3545      3548      3543      3549      3550
      3543      3549      3551      3543      3549      3552      3550      3549      3551
      3550      3549      3552      3551      3549      3552     18657     18656     18658
     18657     18656     18659     18657     18656     18660     18658     18656     18659
     18658     18656     18660     18659     18656     18660     18656     18660     18661
     18656     18660     18662     18656     18660     18663     18661     18660     18662
     18661     18660     18663     18662     18660     18663     18660     18663     18664
     18660     18663     18665     18660     18663     18669     18664     18663     18665
     18664     18663     18669     18665     18663     18669     18667     18666     18668
     18667     18666     18669     18667     18666     18670     18668     18666     18669
     18668     18666     18670     18669     18666     18670     18663     18669     18666
     18666     18670     18671     18670     18671     18672     18670     18671     18673
     18670     18671     18674     18672     18671     18673     18672     18671     18674
     18673     18671     18674     18671     18674     18675     18671     18674     18676
     18671     18674     18682     18675     18674     18676     18675     18674     18682
     18676     18674     18682     18674     18676     18677     18676     18677     18678
     18676     18677     18679     18678     18677     18679     18677     18679     18680
     18677     18679     18681     18677     18679     18691     18680     18679     18681
     18680     18679     18691     18681     18679     18691     18674     18682     18683
     18674     18682     18684     18674     18682     18685     18683     18682     18684
     18683     18682     18685     18684     18682     18685     18682     18685     18686
     18685     18686     18687     18685     18686     18688     18687     18686     18688
     18686     18688     18689     18686     18688     18690     18686     18688     18738
     18689     18688     18690     18689     18688     18738     18690     18688     18738
     18679     18691     18692     18679     18691     18693     18679     18691     18694
     18692     18691     18693     18692     18691     18694     18693     18691     18694
     18691     18694     18695     18691     18694     18696     18691     18694     18697
     18695     18694     18696     18695     18694     18697     18696     18694     18697
     18694     18697     18698     18694     18697     18699     18698     18697     18699
     18697     18699     18700     18697     18699     18701     18700     18699     18701
     18699     18701     18702     18699     18701     18703     18699     18701     18704
     18702     18701     18703     18702     18701     18704     18703     18701     18704
     18701     18704     18705     18701     18704     18706     18705     18704     18706
     18704     18706     18707     18704     18706     18708     18707     18706     18708
     18706     18708     18709     18706     18708     18710     18706     18708     18711
     18709     18708     18710     18709     18708     18711     18710     18708     18711
     18708     18711     18712     18708     18711     18713     18712     18711     18713
     18711     18713     18714     18711     18713     18715     18714     18713     18715
     18713     18715     18716     18713     18715     18717     18713     18715     18718
     18716     18715     18717     18716     18715     18718     18717     18715     18718
     18715     18718     18719     18715     18718     18720     18719     18718     18720
     18718     18720     18721     18718     18720     18722     18721     18720     18722
     18720     18722     18723     18720     18722     18724     18720     18722     18725
     18723     18722     18724     18723     18722     18725     18724     18722     18725
     18722     18725     18726     18722     18725     18727     18722     18725     18728
     18726     18725     18727     18726     18725     18728     18727     18725     18728
     18725     18728     18729     18725     18728     18730     18725     18728     18731
     18729     18728     18730     18729     18728     18731     18730     18728     18731
     18728     18731     18732     18728     18731     18733     18728     18731     18734
     18732     18731     18733     18732     18731     18734     18733     18731     18734
     18731     18734     18735     18731     18734     18736     18731     18734     18737
     18735     18734     18736     18735     18734     18737     18736     18734     18737
     18688     18738     18739     18688     18738     18740     18688     18738     18741
     18739     18738     18740     18739     18738     18741     18740     18738     18741
     18738     18741     18742     18738     18741     18743     18738     18741     18744
     18742     18741     18743     18742     18741     18744     18743     18741     18744
     18741     18744     18745     18741     18744     18746     18741     18744     18747
     18745     18744     18746     18745     18744     18747     18746     18744     18747
     18744     18747     18748     18744     18747     18749     18744     18747     18750
     18748     18747     18749     18748     18747     18750     18749     18747     18750
     18747     18750     18751     18747     18750     18752     18747     18750     18753
     18751     18750     18752     18751     18750     18753     18752     18750     18753
     18750     18753     18754     18750     18753     18755     18750     18753     18756
     18754     18753     18755     18754     18753     18756     18755     18753     18756
     18753     18756     18757     18753     18756     18758     18753     18756     18759
     18757     18756     18758     18757     18756     18759     18758     18756     18759
     18756     18759     18760     18756     18759     18761     18756     18759     18762
     18760     18759     18761     18760     18759     18762     18761     18759     18762
     18759     18762     18763     18759     18762     18764     18759     18762     18765
     18763     18762     18764     18763     18762     18765     18764     18762     18765
     18762     18765     18766     18762     18765     18767     18762     18765     18768
     18766     18765     18767     18766     18765     18768     18767     18765     18768
     18765     18768     18769     18765     18768     18770     18765     18768     18771
     18769     18768     18770     18769     18768     18771     18770     18768     18771
     18768     18771     18772     18768     18771     18773     18768     18771     18774
     18772     18771     18773     18772     18771     18774     18773     18771     18774
     18771     18774     18775     18771     18774     18776     18771     18774     18777
     18775     18774     18776     18775     18774     18777     18776     18774     18777
     18774     18777     18778     18774     18777     18779     18774     18777     18780
     18778     18777     18779     18778     18777     18780     18779     18777     18780
     18777     18780     18781     18777     18780     18782     18777     18780     18783
     18781     18780     18782     18781     18780     18783     18782     18780     18783
     18780     18783     18784     18780     18783     18785     18780     18783     18786
     18784     18783     18785     18784     18783     18786     18785     18783     18786
     15120     15119     15124     15120     15119     15128     15120     15119     15132
     15124     15119     15128     15124     15119     15132     15128     15119     15132
     15119     15120     15121     15119     15120     15122     15119     15120     15123
     15121     15120     15122     15121     15120     15123     15122     15120     15123
     15119     15124     15125     15119     15124     15126     15119     15124     15127
     15125     15124     15126     15125     15124     15127     15126     15124     15127
     15119     15128     15129     15119     15128     15130     15119     15128     15131
     15129     15128     15130     15129     15128     15131     15130     15128     15131
     15119     15132     15133     15119     15132     15134     15119     15132     15135
     15133     15132     15134     15133     15132     15135     15134     15132     15135
     15132     15135     15136     15132     15135     15137     15132     15135     15142
     15136     15135     15137     15136     15135     15142     15137     15135     15142
     15139     15138     15140     15139     15138     15141     15139     15138     15142
     15140     15138     15141     15140     15138     15142     15141     15138     15142
     15138     15141     15143     15135     15142     15138     15141     15143     15144
     15141     15143     15145     15141     15143     15148     15144     15143     15145
     15144     15143     15148     15145     15143     15148     15147     15146     15148
     15147     15146     15198     15148     15146     15198     15143     15148     15146
     15143     15148     15149     15143     15148     15150     15146     15148     15149
     15146     15148     15150     15149     15148     15150     15148     15150     15151
     15148     15150     15152     15148     15150     15154     15151     15150     15152
     15151     15150     15154     15152     15150     15154     15150     15152     15153
     15150     15154     15155     15150     15154     15156     15155     15154     15156
     15154     15156     15157     15154     15156     15158     15157     15156     15158
     15156     15158     15159     15156     15158     15160     15156     15158     15161
     15159     15158     15160     15159     15158     15161     15160     15158     15161
     15158     15161     15162     15158     15161     15163     15158     15161     15164
     15162     15161     15163     15162     15161     15164     15163     15161     15164
     15161     15164     15165     15161     15164     15166     15161     15164     15167
     15165     15164     15166     15165     15164     15167     15166     15164     15167
     15164     15167     15168     15164     15167     15169     15164     15167     15170
     15168     15167     15169     15168     15167     15170     15169     15167     15170
     15167     15170     15171     15167     15170     15172     15167     15170     15173
     15171     15170     15172     15171     15170     15173     15172     15170     15173
     15170     15173     15174     15170     15173     15175     15170     15173     15176
     15174     15173     15175     15174     15173     15176     15175     15173     15176
     15173     15176     15177     15173     15176     15178     15173     15176     15179
     15177     15176     15178     15177     15176     15179     15178     15176     15179
     15176     15179     15180     15176     15179     15181     15176     15179     15182
     15180     15179     15181     15180     15179     15182     15181     15179     15182
     15179     15182     15183     15179     15182     15184     15179     15182     15185
     15183     15182     15184     15183     15182     15185     15184     15182     15185
     15182     15185     15186     15182     15185     15187     15182     15185     15188
     15186     15185     15187     15186     15185     15188     15187     15185     15188
     15185     15188     15189     15185     15188     15190     15185     15188     15191
     15189     15188     15190     15189     15188     15191     15190     15188     15191
     15188     15191     15192     15188     15191     15193     15188     15191     15194
     15192     15191     15193     15192     15191     15194     15193     15191     15194
     15191     15194     15195     15191     15194     15196     15191     15194     15197
     15195     15194     15196     15195     15194     15197     15196     15194     15197
     15146     15198     15199     15146     15198     15200     15199     15198     15200
     15198     15200     15201     15198     15200     15202     15198     15200     15203
     15201     15200     15202     15201     15200     15203     15202     15200     15203
     15200     15203     15204     15200     15203     15205     15200     15203     15206
     15204     15203     15205     15204     15203     15206     15205     15203     15206
     15203     15206     15207     15203     15206     15208     15203     15206     15209
     15207     15206     15208     15207     15206     15209     15208     15206     15209
     15206     15209     15210     15206     15209     15211     15206     15209     15212
     15210     15209     15211     15210     15209     15212     15211     15209     15212
     15209     15212     15213     15209     15212     15214     15209     15212     15215
     15213     15212     15214     15213     15212     15215     15214     15212     15215
     15212     15215     15216     15212     15215     15217     15212     15215     15218
     15216     15215     15217     15216     15215     15218     15217     15215     15218
     15215     15218     15219     15215     15218     15220     15215     15218     15221
     15219     15218     15220     15219     15218     15221     15220     15218     15221
     15218     15221     15222     15218     15221     15223     15222     15221     15223
     15221     15223     15224     15221     15223     15225     15224     15223     15225
     15223     15225     15226     15223     15225     15227     15223     15225     15228
     15226     15225     15227     15226     15225     15228     15227     15225     15228
     15225     15228     15229     15225     15228     15230     15225     15228     15231
     15229     15228     15230     15229     15228     15231     15230     15228     15231
     15228     15231     15232     15228     15231     15233     15228     15231     15234
     15232     15231     15233     15232     15231     15234     15233     15231     15234
     15231     15234     15235     15231     15234     15236     15231     15234     15237
     15235     15234     15236     15235     15234     15237     15236     15234     15237
     15234     15237     15238     15234     15237     15239     15234     15237     15240
     15238     15237     15239     15238     15237     15240     15239     15237     15240
     15237     15240     15241     15237     15240     15242     15237     15240     15243
     15241     15240     15242     15241     15240     15243     15242     15240     15243
     15240     15243     15244     15240     15243     15245     15240     15243     15246
     15244     15243     15245     15244     15243     15246     15245     15243     15246
     15243     15246     15247     15243     15246     15248     15243     15246     15249
     15247     15246     15248     15247     15246     15249     15248     15246     15249
      3554      3553      3555      3554      3553      3557      3554      3553      3599
      3555      3553      3557      3555      3553      3599      3557      3553      3599
      3553      3555      3556      3553      3557      3558      3553      3557      3559
      3553      3557      3560      3558      3557      3559      3558      3557      3560
      3559      3557      3560      3557      3560      3561      3557      3560      3591
      3561      3560      3591      3560      3561      3562      3560      3561      3563
      3562      3561      3563      3561      3563      3564      3561      3563      3565
      3561      3563      3566      3564      3563      3565      3564      3563      3566
      3565      3563      3566      3563      3566      3567      3563      3566      3568
      3563      3566      3589      3567      3566      3568      3567      3566      3589
      3568      3566      3589      3566      3568      3569      3566      3568      3570
      3566      3568      3578      3569      3568      3570      3569      3568      3578
      3570      3568      3578      3568      3570      3571      3568      3570      3572
      3568      3570      3573      3571      3570      3572      3571      3570      3573
      3572      3570      3573      3570      3573      3574      3570      3573      3575
      3570      3573      3576      3574      3573      3575      3574      3573      3576
      3575      3573      3576      3573      3576      3577      3573      3576      3578
      3573      3576      3602      3577      3576      3578      3577      3576      3602
      3578      3576      3602      3568      3578      3576      3568      3578      3579
      3568      3578      3583      3576      3578      3579      3576      3578      3583
      3579      3578      3583      3578      3579      3580      3578      3579      3581
      3578      3579      3582      3580      3579      3581      3580      3579      3582
      3581      3579      3582      3578      3583      3584      3578      3583      3585
      3578      3583      3586      3584      3583      3585      3584      3583      3586
      3585      3583      3586      3583      3586      3587      3583      3586      3588
      3583      3586      3589      3587      3586      3588      3587      3586      3589
      3588      3586      3589      3566      3589      3586      3566      3589      3590
      3566      3589      3591      3586      3589      3590      3586      3589      3591
      3590      3589      3591      3560      3591      3589      3560      3591      3592
      3560      3591      3596      3589      3591      3592      3589      3591      3596
      3592      3591      3596      3591      3592      3593      3591      3592      3594
      3591      3592      3595      3593      3592      3594      3593      3592      3595
      3594      3592      3595      3591      3596      3597      3591      3596      3598
      3591      3596      3599      3597      3596      3598      3597      3596      3599
      3598      3596      3599      3553      3599      3596      3553      3599      3600
      3553      3599      3601      3596      3599      3600      3596      3599      3601
      3600      3599      3601      3576      3602      3603      3576      3602      3604
      3576      3602      3608      3603      3602      3604      3603      3602      3608
      3604      3602      3608      3602      3604      3605      3602      3604      3606
      3602      3604      3607      3605      3604      3606      3605      3604      3607
      3606      3604      3607      3602      3608      3609      3602      3608      3610
      3602      3608      3611      3609      3608      3610      3609      3608      3611
      3610      3608      3611      3608      3611      3612      3608      3611      3613
      3608      3611      3614      3612      3611      3613      3612      3611      3614
      3613      3611      3614      3611      3614      3615      3611      3614      3616
      3611      3614      3617      3615      3614      3616      3615      3614      3617
      3616      3614      3617      3614      3617      3618      3614      3617      3619
      3614      3617      3623      3618      3617      3619      3618      3617      3623
      3619      3617      3623      3617      3619      3620      3617      3619      3621
      3617      3619      3622      3620      3619      3621      3620      3619      3622
      3621      3619      3622      3617      3623      3624      3617      3623      3625
      3617      3623      3626      3624      3623      3625      3624      3623      3626
      3625      3623      3626     18788     18787     18789     18788     18787     18790
     18788     18787     18791     18789     18787     18790     18789     18787     18791
     18790     18787     18791     18787     18791     18792     18787     18791     18793
     18787     18791     18794     18792     18791     18793     18792     18791     18794
     18793     18791     18794     18791     18794     18795     18791     18794     18796
     18791     18794     18800     18795     18794     18796     18795     18794     18800
     18796     18794     18800     18798     18797     18799     18798     18797     18800
     18798     18797     18801     18799     18797     18800     18799     18797     18801
     18800     18797     18801     18794     18800     18797     18797     18801     18802
     18801     18802     18803     18801     18802     18804     18801     18802     18805
     18803     18802     18804     18803     18802     18805     18804     18802     18805
     18802     18805     18806     18802     18805     18807     18802     18805     18813
     18806     18805     18807     18806     18805     18813     18807     18805     18813
     18805     18807     18808     18807     18808     18809     18807     18808     18810
     18809     18808     18810     18808     18810     18811     18808     18810     18812
     18808     18810     18822     18811     18810     18812     18811     18810     18822
     18812     18810     18822     18805     18813     18814     18805     18813     18815
     18805     18813     18816     18814     18813     18815     18814     18813     18816
     18815     18813     18816     18813     18816     18817     18816     18817     18818
     18816     18817     18819     18818     18817     18819     18817     18819     18820
     18817     18819     18821     18817     18819     18869     18820     18819     18821
     18820     18819     18869     18821     18819     18869     18810     18822     18823
     18810     18822     18824     18810     18822     18825     18823     18822     18824
     18823     18822     18825     18824     18822     18825     18822     18825     18826
     18822     18825     18827     18822     18825     18828     18826     18825     18827
     18826     18825     18828     18827     18825     18828     18825     18828     18829
     18825     18828     18830     18829     18828     18830     18828     18830     18831
     18828     18830     18832     18831     18830     18832     18830     18832     18833
     18830     18832     18834     18830     18832     18835     18833     18832     18834
     18833     18832     18835     18834     18832     18835     18832     18835     18836
     18832     18835     18837     18836     18835     18837     18835     18837     18838
     18835     18837     18839     18838     18837     18839     18837     18839     18840
     18837     18839     18841     18837     18839     18842     18840     18839     18841
     18840     18839     18842     18841     18839     18842     18839     18842     18843
     18839     18842     18844     18843     18842     18844     18842     18844     18845
     18842     18844     18846     18845     18844     18846     18844     18846     18847
     18844     18846     18848     18844     18846     18849     18847     18846     18848
     18847     18846     18849     18848     18846     18849     18846     18849     18850
     18846     18849     18851     18850     18849     18851     18849     18851     18852
     18849     18851     18853     18852     18851     18853     18851     18853     18854
     18851     18853     18855     18851     18853     18856     18854     18853     18855
     18854     18853     18856     18855     18853     18856     18853     18856     18857
     18853     18856     18858     18853     18856     18859     18857     18856     18858
     18857     18856     18859     18858     18856     18859     18856     18859     18860
     18856     18859     18861     18856     18859     18862     18860     18859     18861
     18860     18859     18862     18861     18859     18862     18859     18862     18863
     18859     18862     18864     18859     18862     18865     18863     18862     18864
     18863     18862     18865     18864     18862     18865     18862     18865     18866
     18862     18865     18867     18862     18865     18868     18866     18865     18867
     18866     18865     18868     18867     18865     18868     18819     18869     18870
     18819     18869     18871     18819     18869     18872     18870     18869     18871
     18870     18869     18872     18871     18869     18872     18869     18872     18873
     18869     18872     18874     18869     18872     18875     18873     18872     18874
     18873     18872     18875     18874     18872     18875     18872     18875     18876
     18872     18875     18877     18872     18875     18878     18876     18875     18877
     18876     18875     18878     18877     18875     18878     18875     18878     18879
     18875     18878     18880     18875     18878     18881     18879     18878     18880
     18879     18878     18881     18880     18878     18881     18878     18881     18882
     18878     18881     18883     18878     18881     18884     18882     18881     18883
     18882     18881     18884     18883     18881     18884     18881     18884     18885
     18881     18884     18886     18881     18884     18887     18885     18884     18886
     18885     18884     18887     18886     18884     18887     18884     18887     18888
     18884     18887     18889     18884     18887     18890     18888     18887     18889
     18888     18887     18890     18889     18887     18890     18887     18890     18891
     18887     18890     18892     18887     18890     18893     18891     18890     18892
     18891     18890     18893     18892     18890     18893     18890     18893     18894
     18890     18893     18895     18890     18893     18896     18894     18893     18895
     18894     18893     18896     18895     18893     18896     18893     18896     18897
     18893     18896     18898     18893     18896     18899     18897     18896     18898
     18897     18896     18899     18898     18896     18899     18896     18899     18900
     18896     18899     18901     18896     18899     18902     18900     18899     18901
     18900     18899     18902     18901     18899     18902     18899     18902     18903
     18899     18902     18904     18899     18902     18905     18903     18902     18904
     18903     18902     18905     18904     18902     18905     18902     18905     18906
     18902     18905     18907     18902     18905     18908     18906     18905     18907
     18906     18905     18908     18907     18905     18908     18905     18908     18909
     18905     18908     18910     18905     18908     18911     18909     18908     18910
     18909     18908     18911     18910     18908     18911     18908     18911     18912
     18908     18911     18913     18908     18911     18914     18912     18911     18913
     18912     18911     18914     18913     18911     18914     18911     18914     18915
     18911     18914     18916     18911     18914     18917     18915     18914     18916
     18915     18914     18917     18916     18914     18917     21015     21014     21016
     21015     21014     21017     21015     21014     21018     21016     21014     21017
     21016     21014     21018     21017     21014     21018     21014     21018     21019
     21014     21018     21020     21014     21018     21021     21019     21018     21020
     21019     21018     21021     21020     21018     21021     21018     21021     21022
     21018     21021     21023     21018     21021     21027     21022     21021     21023
     21022     21021     21027     21023     21021     21027     21025     21024     21026
     21025     21024     21027     21025     21024     21028     21026     21024     21027
     21026     21024     21028     21027     21024     21028     21021     21027     21024
     21024     21028     21029     21028     21029     21030     21028     21029     21031
     21028     21029     21032     21030     21029     21031     21030     21029     21032
     21031     21029     21032     21029     21032     21033     21029     21032     21034
     21029     21032     21040     21033     21032     21034     21033     21032     21040
     21034     21032     21040     21032     21034     21035     21034     21035     21036
     21034     21035     21037     21036     21035     21037     21035     21037     21038
     21035     21037     21039     21035     21037     21049     21038     21037     21039
     21038     21037     21049     21039     21037     21049     21032     21040     21041
     21032     21040     21042     21032     21040     21043     21041     21040     21042
     21041     21040     21043     21042     21040     21043     21040     21043     21044
     21043     21044     21045     21043     21044     21046     21045     21044     21046
     21044     21046     21047     21044     21046     21048     21044     21046     21096
     21047     21046     21048     21047     21046     21096     21048     21046     21096
     21037     21049     21050     21037     21049     21051     21037     21049     21052
     21050     21049     21051     21050     21049     21052     21051     21049     21052
     21049     21052     21053     21049     21052     21054     21049     21052     21055
     21053     21052     21054     21053     21052     21055     21054     21052     21055
     21052     21055     21056     21052     21055     21057     21052     21055     21058
     21056     21055     21057     21056     21055     21058     21057     21055     21058
     21055     21058     21059     21055     21058     21060     21055     21058     21061
     21059     21058     21060     21059     21058     21061     21060     21058     21061
     21058     21061     21062     21058     21061     21063     21058     21061     21064
     21062     21061     21063     21062     21061     21064     21063     21061     21064
     21061     21064     21065     21061     21064     21066     21061     21064     21067
     21065     21064     21066     21065     21064     21067     21066     21064     21067
     21064     21067     21068     21064     21067     21069     21068     21067     21069
     21067     21069     21070     21067     21069     21071     21070     21069     21071
     21069     21071     21072     21069     21071     21073     21069     21071     21074
     21072     21071     21073     21072     21071     21074     21073     21071     21074
     21071     21074     21075     21071     21074     21076     21071     21074     21077
     21075     21074     21076     21075     21074     21077     21076     21074     21077
     21074     21077     21078     21074     21077     21079     21074     21077     21080
     21078     21077     21079     21078     21077     21080     21079     21077     21080
     21077     21080     21081     21077     21080     21082     21077     21080     21083
     21081     21080     21082     21081     21080     21083     21082     21080     21083
     21080     21083     21084     21080     21083     21085     21080     21083     21086
     21084     21083     21085     21084     21083     21086     21085     21083     21086
     21083     21086     21087     21083     21086     21088     21083     21086     21089
     21087     21086     21088     21087     21086     21089     21088     21086     21089
     21086     21089     21090     21086     21089     21091     21086     21089     21092
     21090     21089     21091     21090     21089     21092     21091     21089     21092
     21089     21092     21093     21089     21092     21094     21089     21092     21095
     21093     21092     21094     21093     21092     21095     21094     21092     21095
     21046     21096     21097     21046     21096     21098     21046     21096     21099
     21097     21096     21098     21097     21096     21099     21098     21096     21099
     21096     21099     21100     21096     21099     21101     21096     21099     21102
     21100     21099     21101     21100     21099     21102     21101     21099     21102
     21099     21102     21103     21099     21102     21104     21099     21102     21105
     21103     21102     21104     21103     21102     21105     21104     21102     21105
     21102     21105     21106     21102     21105     21107     21102     21105     21108
     21106     21105     21107     21106     21105     21108     21107     21105     21108
     21105     21108     21109     21105     21108     21110     21105     21108     21111
     21109     21108     21110     21109     21108     21111     21110     21108     21111
     21108     21111     21112     21108     21111     21113     21108     21111     21114
     21112     21111     21113     21112     21111     21114     21113     21111     21114
     21111     21114     21115     21111     21114     21116     21111     21114     21117
     21115     21114     21116     21115     21114     21117     21116     21114     21117
     21114     21117     21118     21114     21117     21119     21114     21117     21120
     21118     21117     21119     21118     21117     21120     21119     21117     21120
     21117     21120     21121     21117     21120     21122     21117     21120     21123
     21121     21120     21122     21121     21120     21123     21122     21120     21123
     21120     21123     21124     21120     21123     21125     21120     21123     21126
     21124     21123     21125     21124     21123     21126     21125     21123     21126
     21123     21126     21127     21123     21126     21128     21123     21126     21129
     21127     21126     21128     21127     21126     21129     21128     21126     21129
     21126     21129     21130     21126     21129     21131     21126     21129     21132
     21130     21129     21131     21130     21129     21132     21131     21129     21132
     21129     21132     21133     21129     21132     21134     21129     21132     21135
     21133     21132     21134     21133     21132     21135     21134     21132     21135
     21132     21135     21136     21132     21135     21137     21132     21135     21138
     21136     21135     21137     21136     21135     21138     21137     21135     21138
     21135     21138     21139     21135     21138     21140     21135     21138     21141
     21139     21138     21140     21139     21138     21141     21140     21138     21141
     21138     21141     21142     21138     21141     21143     21138     21141     21144
     21142     21141     21143     21142     21141     21144     21143     21141     21144
      7068      7067      7072      7068      7067      7076      7068      7067      7080
      7072      7067      7076      7072      7067      7080      7076      7067      7080
      7067      7068      7069      7067      7068      7070      7067      7068      7071
      7069      7068      7070      7069      7068      7071      7070      7068      7071
      7067      7072      7073      7067      7072      7074      7067      7072      7075
      7073      7072      7074      7073      7072      7075      7074      7072      7075
      7067      7076      7077      7067      7076      7078      7067      7076      7079
      7077      7076      7078      7077      7076      7079      7078      7076      7079
      7067      7080      7081      7067      7080      7082      7067      7080      7083
      7081      7080      7082      7081      7080      7083      7082      7080      7083
      7080      7083      7084      7080      7083      7085      7080      7083      7089
      7084      7083      7085      7084      7083      7089      7085      7083      7089
      7087      7086      7088      7087      7086      7089      7087      7086      7090
      7088      7086      7089      7088      7086      7090      7089      7086      7090
      7083      7089      7086      7086      7090      7091      7090      7091      7092
      7090      7091      7093      7090      7091      7094      7092      7091      7093
      7092      7091      7094      7093      7091      7094      7091      7094      7095
      7091      7094      7096      7091      7094      7102      7095      7094      7096
      7095      7094      7102      7096      7094      7102      7094      7096      7097
      7096      7097      7098      7096      7097      7099      7098      7097      7099
      7097      7099      7100      7097      7099      7101      7097      7099      7111
      7100      7099      7101      7100      7099      7111      7101      7099      7111
      7094      7102      7103      7094      7102      7104      7094      7102      7105
      7103      7102      7104      7103      7102      7105      7104      7102      7105
      7102      7105      7106      7105      7106      7107      7105      7106      7108
      7107      7106      7108      7106      7108      7109      7106      7108      7110
      7106      7108      7156      7109      7108      7110      7109      7108      7156
      7110      7108      7156      7099      7111      7112      7099      7111      7113
      7099      7111      7114      7112      7111      7113      7112      7111      7114
      7113      7111      7114      7111      7114      7115      7111      7114      7116
      7111      7114      7117      7115      7114      7116      7115      7114      7117
      7116      7114      7117      7114      7117      7118      7114      7117      7119
      7114      7117      7120      7118      7117      7119      7118      7117      7120
      7119      7117      7120      7117      7120      7121      7117      7120      7122
      7117      7120      7123      7121      7120      7122      7121      7120      7123
      7122      7120      7123      7120      7123      7124      7120      7123      7125
      7120      7123      7126      7124      7123      7125      7124      7123      7126
      7125      7123      7126      7123      7126      7127      7123      7126      7128
      7123      7126      7129      7127      7126      7128      7127      7126      7129
      7128      7126      7129      7126      7129      7130      7126      7129      7131
      7130      7129      7131      7129      7131      7132      7129      7131      7133
      7132      7131      7133      7131      7133      7134      7131      7133      7135
      7131      7133      7136      7134      7133      7135      7134      7133      7136
      7135      7133      7136      7133      7136      7137      7133      7136      7138
      7137      7136      7138      7136      7138      7139      7136      7138      7140
      7139      7138      7140      7138      7140      7141      7138      7140      7142
      7138      7140      7143      7141      7140      7142      7141      7140      7143
      7142      7140      7143      7140      7143      7144      7140      7143      7145
      7140      7143      7146      7144      7143      7145      7144      7143      7146
      7145      7143      7146      7143      7146      7147      7143      7146      7148
      7143      7146      7149      7147      7146      7148      7147      7146      7149
      7148      7146      7149      7146      7149      7150      7146      7149      7151
      7146      7149      7152      7150      7149      7151      7150      7149      7152
      7151      7149      7152      7149      7152      7153      7149      7152      7154
      7149      7152      7155      7153      7152      7154      7153      7152      7155
      7154      7152      7155      7108      7156      7157      7108      7156      7158
      7108      7156      7159      7157      7156      7158      7157      7156      7159
      7158      7156      7159      7156      7159      7160      7156      7159      7161
      7156      7159      7162      7160      7159      7161      7160      7159      7162
      7161      7159      7162      7159      7162      7163      7159      7162      7164
      7159      7162      7165      7163      7162      7164      7163      7162      7165
      7164      7162      7165      7162      7165      7166      7162      7165      7167
      7162      7165      7168      7166      7165      7167      7166      7165      7168
      7167      7165      7168      7165      7168      7169      7165      7168      7170
      7165      7168      7171      7169      7168      7170      7169      7168      7171
      7170      7168      7171      7168      7171      7172      7168      7171      7173
      7168      7171      7174      7172      7171      7173      7172      7171      7174
      7173      7171      7174      7171      7174      7175      7171      7174      7176
      7171      7174      7177      7175      7174      7176      7175      7174      7177
      7176      7174      7177      7174      7177      7178      7174      7177      7179
      7174      7177      7180      7178      7177      7179      7178      7177      7180
      7179      7177      7180      7177      7180      7181      7177      7180      7182
      7177      7180      7183      7181      7180      7182      7181      7180      7183
      7182      7180      7183      7180      7183      7184      7180      7183      7185
      7180      7183      7186      7184      7183      7185      7184      7183      7186
      7185      7183      7186      7183      7186      7187      7183      7186      7188
      7183      7186      7189      7187      7186      7188      7187      7186      7189
      7188      7186      7189      7186      7189      7190      7186      7189      7191
      7186      7189      7192      7190      7189      7191      7190      7189      7192
      7191      7189      7192      7189      7192      7193      7189      7192      7194
      7189      7192      7195      7193      7192      7194      7193      7192      7195
      7194      7192      7195      7192      7195      7196      7192      7195      7197
      7192      7195      7198      7196      7195      7197      7196      7195      7198
      7197      7195      7198      7195      7198      7199      7195      7198      7200
      7195      7198      7201      7199      7198      7200      7199      7198      7201
      7200      7198      7201      7198      7201      7202      7198      7201      7203
      7198      7201      7204      7202      7201      7203      7202      7201      7204
      7203      7201      7204      5686      5685      5689      5686      5685      5693
      5686      5685      5697      5689      5685      5693      5689      5685      5697
      5693      5685      5697      5685      5686      5687      5685      5686      5688
      5685      5686      5701      5687      5686      5688      5687      5686      5701
      5688      5686      5701      5685      5689      5690      5685      5689      5691
      5685      5689      5692      5690      5689      5691      5690      5689      5692
      5691      5689      5692      5685      5693      5694      5685      5693      5695
      5685      5693      5696      5694      5693      5695      5694      5693      5696
      5695      5693      5696      5685      5697      5698      5685      5697      5699
      5685      5697      5700      5698      5697      5699      5698      5697      5700
      5699      5697      5700      5686      5701      5702      5686      5701      5703
      5686      5701      5707      5702      5701      5703      5702      5701      5707
      5703      5701      5707      5705      5704      5706      5705      5704      5707
      5705      5704      5708      5706      5704      5707      5706      5704      5708
      5707      5704      5708      5701      5707      5704      5704      5708      5709
      5708      5709      5710      5708      5709      5711      5708      5709      5712
      5710      5709      5711      5710      5709      5712      5711      5709      5712
      5709      5712      5713      5709      5712      5714      5709      5712      5720
      5713      5712      5714      5713      5712      5720      5714      5712      5720
      5712      5714      5715      5714      5715      5716      5714      5715      5717
      5716      5715      5717      5715      5717      5718      5715      5717      5719
      5715      5717      5729      5718      5717      5719      5718      5717      5729
      5719      5717      5729      5712      5720      5721      5712      5720      5722
      5712      5720      5723      5721      5720      5722      5721      5720      5723
      5722      5720      5723      5720      5723      5724      5723      5724      5725
      5723      5724      5726      5725      5724      5726      5724      5726      5727
      5724      5726      5728      5724      5726      5776      5727      5726      5728
      5727      5726      5776      5728      5726      5776      5717      5729      5730
      5717      5729      5731      5717      5729      5732      5730      5729      5731
      5730      5729      5732      5731      5729      5732      5729      5732      5733
      5729      5732      5734      5729      5732      5735      5733      5732      5734
      5733      5732      5735      5734      5732      5735      5732      5735      5736
      5732      5735      5737      5736      5735      5737      5735      5737      5738
      5735      5737      5739      5738      5737      5739      5737      5739      5740
      5737      5739      5741      5737      5739      5742      5740      5739      5741
      5740      5739      5742      5741      5739      5742      5739      5742      5743
      5739      5742      5744      5743      5742      5744      5742      5744      5745
      5742      5744      5746      5745      5744      5746      5744      5746      5747
      5744      5746      5748      5744      5746      5749      5747      5746      5748
      5747      5746      5749      5748      5746      5749      5746      5749      5750
      5746      5749      5751      5750      5749      5751      5749      5751      5752
      5749      5751      5753      5752      5751      5753      5751      5753      5754
      5751      5753      5755      5751      5753      5756      5754      5753      5755
      5754      5753      5756      5755      5753      5756      5753      5756      5757
      5753      5756      5758      5757      5756      5758      5756      5758      5759
      5756      5758      5760      5759      5758      5760      5758      5760      5761
      5758      5760      5762      5758      5760      5763      5761      5760      5762
      5761      5760      5763      5762      5760      5763      5760      5763      5764
      5760      5763      5765      5760      5763      5766      5764      5763      5765
      5764      5763      5766      5765      5763      5766      5763      5766      5767
      5763      5766      5768      5763      5766      5769      5767      5766      5768
      5767      5766      5769      5768      5766      5769      5766      5769      5770
      5766      5769      5771      5766      5769      5772      5770      5769      5771
      5770      5769      5772      5771      5769      5772      5769      5772      5773
      5769      5772      5774      5769      5772      5775      5773      5772      5774
      5773      5772      5775      5774      5772      5775      5726      5776      5777
      5726      5776      5778      5726      5776      5779      5777      5776      5778
      5777      5776      5779      5778      5776      5779      5776      5779      5780
      5776      5779      5781      5776      5779      5782      5780      5779      5781
      5780      5779      5782      5781      5779      5782      5779      5782      5783
      5779      5782      5784      5779      5782      5785      5783      5782      5784
      5783      5782      5785      5784      5782      5785      5782      5785      5786
      5782      5785      5787      5782      5785      5788      5786      5785      5787
      5786      5785      5788      5787      5785      5788      5785      5788      5789
      5785      5788      5790      5785      5788      5791      5789      5788      5790
      5789      5788      5791      5790      5788      5791      5788      5791      5792
      5788      5791      5793      5788      5791      5794      5792      5791      5793
      5792      5791      5794      5793      5791      5794      5791      5794      5795
      5791      5794      5796      5791      5794      5797      5795      5794      5796
      5795      5794      5797      5796      5794      5797      5794      5797      5798
      5794      5797      5799      5794      5797      5800      5798      5797      5799
      5798      5797      5800      5799      5797      5800      5797      5800      5801
      5797      5800      5802      5797      5800      5803      5801      5800      5802
      5801      5800      5803      5802      5800      5803      5800      5803      5804
      5800      5803      5805      5800      5803      5806      5804      5803      5805
      5804      5803      5806      5805      5803      5806      5803      5806      5807
      5803      5806      5808      5803      5806      5809      5807      5806      5808
      5807      5806      5809      5808      5806      5809      5806      5809      5810
      5806      5809      5811      5806      5809      5812      5810      5809      5811
      5810      5809      5812      5811      5809      5812      5809      5812      5813
      5809      5812      5814      5809      5812      5815      5813      5812      5814
      5813      5812      5815      5814      5812      5815      5812      5815      5816
      5812      5815      5817      5812      5815      5818      5816      5815      5817
      5816      5815      5818      5817      5815      5818      5815      5818      5819
      5815      5818      5820      5815      5818      5821      5819      5818      5820
      5819      5818      5821      5820      5818      5821      5818      5821      5822
      5818      5821      5823      5818      5821      5824      5822      5821      5823
      5822      5821      5824      5823      5821      5824      7206      7205      7210
      7206      7205      7214      7206      7205      7218      7210      7205      7214
      7210      7205      7218      7214      7205      7218      7205      7206      7207
      7205      7206      7208      7205      7206      7209      7207      7206      7208
      7207      7206      7209      7208      7206      7209      7205      7210      7211
      7205      7210      7212      7205      7210      7213      7211      7210      7212
      7211      7210      7213      7212      7210      7213      7205      7214      7215
      7205      7214      7216      7205      7214      7217      7215      7214      7216
      7215      7214      7217      7216      7214      7217      7205      7218      7219
      7205      7218      7220      7205      7218      7221      7219      7218      7220
      7219      7218      7221      7220      7218      7221      7218      7221      7222
      7218      7221      7223      7218      7221      7227      7222      7221      7223
      7222      7221      7227      7223      7221      7227      7225      7224      7226
      7225      7224      7227      7225      7224      7228      7226      7224      7227
      7226      7224      7228      7227      7224      7228      7221      7227      7224
      7224      7228      7229      7228      7229      7230      7228      7229      7231
      7228      7229      7232      7230      7229      7231      7230      7229      7232
      7231      7229      7232      7229      7232      7233      7229      7232      7234
      7229      7232      7240      7233      7232      7234      7233      7232      7240
      7234      7232      7240      7232      7234      7235      7234      7235      7236
      7234      7235      7237      7236      7235      7237      7235      7237      7238
      7235      7237      7239      7235      7237      7249      7238      7237      7239
      7238      7237      7249      7239      7237      7249      7232      7240      7241
      7232      7240      7242      7232      7240      7243      7241      7240      7242
      7241      7240      7243      7242      7240      7243      7240      7243      7244
      7243      7244      7245      7243      7244      7246      7245      7244      7246
      7244      7246      7247      7244      7246      7248      7244      7246      7294
      7247      7246      7248      7247      7246      7294      7248      7246      7294
      7237      7249      7250      7237      7249      7251      7237      7249      7252
      7250      7249      7251      7250      7249      7252      7251      7249      7252
      7249      7252      7253      7249      7252      7254      7249      7252      7255
      7253      7252      7254      7253      7252      7255      7254      7252      7255
      7252      7255      7256      7252      7255      7257      7252      7255      7258
      7256      7255      7257      7256      7255      7258      7257      7255      7258
      7255      7258      7259      7255      7258      7260      7255      7258      7261
      7259      7258      7260      7259      7258      7261      7260      7258      7261
      7258      7261      7262      7258      7261      7263      7258      7261      7264
      7262      7261      7263      7262      7261      7264      7263      7261      7264
      7261      7264      7265      7261      7264      7266      7261      7264      7267
      7265      7264      7266      7265      7264      7267      7266      7264      7267
      7264      7267      7268      7264      7267      7269      7268      7267      7269
      7267      7269      7270      7267      7269      7271      7270      7269      7271
      7269      7271      7272      7269      7271      7273      7269      7271      7274
      7272      7271      7273      7272      7271      7274      7273      7271      7274
      7271      7274      7275      7271      7274      7276      7275      7274      7276
      7274      7276      7277      7274      7276      7278      7277      7276      7278
      7276      7278      7279      7276      7278      7280      7276      7278      7281
      7279      7278      7280      7279      7278      7281      7280      7278      7281
      7278      7281      7282      7278      7281      7283      7278      7281      7284
      7282      7281      7283      7282      7281      7284      7283      7281      7284
      7281      7284      7285      7281      7284      7286      7281      7284      7287
      7285      7284      7286      7285      7284      7287      7286      7284      7287
      7284      7287      7288      7284      7287      7289      7284      7287      7290
      7288      7287      7289      7288      7287      7290      7289      7287      7290
      7287      7290      7291      7287      7290      7292      7287      7290      7293
      7291      7290      7292      7291      7290      7293      7292      7290      7293
      7246      7294      7295      7246      7294      7296      7246      7294      7297
      7295      7294      7296      7295      7294      7297      7296      7294      7297
      7294      7297      7298      7294      7297      7299      7294      7297      7300
      7298      7297      7299      7298      7297      7300      7299      7297      7300
      7297      7300      7301      7297      7300      7302      7297      7300      7303
      7301      7300      7302      7301      7300      7303      7302      7300      7303
      7300      7303      7304      7300      7303      7305      7300      7303      7306
      7304      7303      7305      7304      7303      7306      7305      7303      7306
      7303      7306      7307      7303      7306      7308      7303      7306      7309
      7307      7306      7308      7307      7306      7309      7308      7306      7309
      7306      7309      7310      7306      7309      7311      7306      7309      7312
      7310      7309      7311      7310      7309      7312      7311      7309      7312
      7309      7312      7313      7309      7312      7314      7309      7312      7315
      7313      7312      7314      7313      7312      7315      7314      7312      7315
      7312      7315      7316      7312      7315      7317      7312      7315      7318
      7316      7315      7317      7316      7315      7318      7317      7315      7318
      7315      7318      7319      7315      7318      7320      7315      7318      7321
      7319      7318      7320      7319      7318      7321      7320      7318      7321
      7318      7321      7322      7318      7321      7323      7318      7321      7324
      7322      7321      7323      7322      7321      7324      7323      7321      7324
      7321      7324      7325      7321      7324      7326      7321      7324      7327
      7325      7324      7326      7325      7324      7327      7326      7324      7327
      7324      7327      7328      7324      7327      7329      7324      7327      7330
      7328      7327      7329      7328      7327      7330      7329      7327      7330
      7327      7330      7331      7327      7330      7332      7327      7330      7333
      7331      7330      7332      7331      7330      7333      7332      7330      7333
      7330      7333      7334      7330      7333      7335      7330      7333      7336
      7334      7333      7335      7334      7333      7336      7335      7333      7336
      7333      7336      7337      7333      7336      7338      7333      7336      7339
      7337      7336      7338      7337      7336      7339      7338      7336      7339
      7336      7339      7340      7336      7339      7341      7336      7339      7342
      7340      7339      7341      7340      7339      7342      7341      7339      7342
      3628      3627      3629      3628      3627      3631      3628      3627      3673
      3629      3627      3631      3629      3627      3673      3631      3627      3673
      3627      3629      3630      3627      3631      3632      3627      3631      3633
      3627      3631      3634      3632      3631      3633      3632      3631      3634
      3633      3631      3634      3631      3634      3635      3631      3634      3665
      3635      3634      3665      3634      3635      3636      3634      3635      3637
      3636      3635      3637      3635      3637      3638      3635      3637      3639
      3635      3637      3640      3638      3637      3639      3638      3637      3640
      3639      3637      3640      3637      3640      3641      3637      3640      3642
      3637      3640      3663      3641      3640      3642      3641      3640      3663
      3642      3640      3663      3640      3642      3643      3640      3642      3644
      3640      3642      3652      3643      3642      3644      3643      3642      3652
      3644      3642      3652      3642      3644      3645      3642      3644      3646
      3642      3644      3647      3645      3644      3646      3645      3644      3647
      3646      3644      3647      3644      3647      3648      3644      3647      3649
      3644      3647      3650      3648      3647      3649      3648      3647      3650
      3649      3647      3650      3647      3650      3651      3647      3650      3652
      3647      3650      3676      3651      3650      3652      3651      3650      3676
      3652      3650      3676      3642      3652      3650      3642      3652      3653
      3642      3652      3657      3650      3652      3653      3650      3652      3657
      3653      3652      3657      3652      3653      3654      3652      3653      3655
      3652      3653      3656      3654      3653      3655      3654      3653      3656
      3655      3653      3656      3652      3657      3658      3652      3657      3659
      3652      3657      3660      3658      3657      3659      3658      3657      3660
      3659      3657      3660      3657      3660      3661      3657      3660      3662
      3657      3660      3663      3661      3660      3662      3661      3660      3663
      3662      3660      3663      3640      3663      3660      3640      3663      3664
      3640      3663      3665      3660      3663      3664      3660      3663      3665
      3664      3663      3665      3634      3665      3663      3634      3665      3666
      3634      3665      3670      3663      3665      3666      3663      3665      3670
      3666      3665      3670      3665      3666      3667      3665      3666      3668
      3665      3666      3669      3667      3666      3668      3667      3666      3669
      3668      3666      3669      3665      3670      3671      3665      3670      3672
      3665      3670      3673      3671      3670      3672      3671      3670      3673
      3672      3670      3673      3627      3673      3670      3627      3673      3674
      3627      3673      3675      3670      3673      3674      3670      3673      3675
      3674      3673      3675      3650      3676      3677      3650      3676      3678
      3650      3676      3682      3677      3676      3678      3677      3676      3682
      3678      3676      3682      3676      3678      3679      3676      3678      3680
      3676      3678      3681      3679      3678      3680      3679      3678      3681
      3680      3678      3681      3676      3682      3683      3676      3682      3684
      3676      3682      3685      3683      3682      3684      3683      3682      3685
      3684      3682      3685      3682      3685      3686      3682      3685      3687
      3682      3685      3688      3686      3685      3687      3686      3685      3688
      3687      3685      3688      3685      3688      3689      3685      3688      3690
      3685      3688      3691      3689      3688      3690      3689      3688      3691
      3690      3688      3691      3688      3691      3692      3688      3691      3693
      3688      3691      3697      3692      3691      3693      3692      3691      3697
      3693      3691      3697      3691      3693      3694      3691      3693      3695
      3691      3693      3696      3694      3693      3695      3694      3693      3696
      3695      3693      3696      3691      3697      3698      3691      3697      3699
      3691      3697      3700      3698      3697      3699      3698      3697      3700
      3699      3697      3700      3702      3701      3703      3702      3701      3705
      3702      3701      3747      3703      3701      3705      3703      3701      3747
      3705      3701      3747      3701      3703      3704      3701      3705      3706
      3701      3705      3707      3701      3705      3708      3706      3705      3707
      3706      3705      3708      3707      3705      3708      3705      3708      3709
      3705      3708      3739      3709      3708      3739      3708      3709      3710
      3708      3709      3711      3710      3709      3711      3709      3711      3712
      3709      3711      3713      3709      3711      3714      3712      3711      3713
      3712      3711      3714      3713      3711      3714      3711      3714      3715
      3711      3714      3716      3711      3714      3737      3715      3714      3716
      3715      3714      3737      3716      3714      3737      3714      3716      3717
      3714      3716      3718      3714      3716      3726      3717      3716      3718
      3717      3716      3726      3718      3716      3726      3716      3718      3719
      3716      3718      3720      3716      3718      3721      3719      3718      3720
      3719      3718      3721      3720      3718      3721      3718      3721      3722
      3718      3721      3723      3718      3721      3724      3722      3721      3723
      3722      3721      3724      3723      3721      3724      3721      3724      3725
      3721      3724      3726      3721      3724      3750      3725      3724      3726
      3725      3724      3750      3726      3724      3750      3716      3726      3724
      3716      3726      3727      3716      3726      3731      3724      3726      3727
      3724      3726      3731      3727      3726      3731      3726      3727      3728
      3726      3727      3729      3726      3727      3730      3728      3727      3729
      3728      3727      3730      3729      3727      3730      3726      3731      3732
      3726      3731      3733      3726      3731      3734      3732      3731      3733
      3732      3731      3734      3733      3731      3734      3731      3734      3735
      3731      3734      3736      3731      3734      3737      3735      3734      3736
      3735      3734      3737      3736      3734      3737      3714      3737      3734
      3714      3737      3738      3714      3737      3739      3734      3737      3738
      3734      3737      3739      3738      3737      3739      3708      3739      3737
      3708      3739      3740      3708      3739      3744      3737      3739      3740
      3737      3739      3744      3740      3739      3744      3739      3740      3741
      3739      3740      3742      3739      3740      3743      3741      3740      3742
      3741      3740      3743      3742      3740      3743      3739      3744      3745
      3739      3744      3746      3739      3744      3747      3745      3744      3746
      3745      3744      3747      3746      3744      3747      3701      3747      3744
      3701      3747      3748      3701      3747      3749      3744      3747      3748
      3744      3747      3749      3748      3747      3749      3724      3750      3751
      3724      3750      3752      3724      3750      3756      3751      3750      3752
      3751      3750      3756      3752      3750      3756      3750      3752      3753
      3750      3752      3754      3750      3752      3755      3753      3752      3754
      3753      3752      3755      3754      3752      3755      3750      3756      3757
      3750      3756      3758      3750      3756      3759      3757      3756      3758
      3757      3756      3759      3758      3756      3759      3756      3759      3760
      3756      3759      3761      3756      3759      3762      3760      3759      3761
      3760      3759      3762      3761      3759      3762      3759      3762      3763
      3759      3762      3764      3759      3762      3765      3763      3762      3764
      3763      3762      3765      3764      3762      3765      3762      3765      3766
      3762      3765      3767      3762      3765      3771      3766      3765      3767
      3766      3765      3771      3767      3765      3771      3765      3767      3768
      3765      3767      3769      3765      3767      3770      3768      3767      3769
      3768      3767      3770      3769      3767      3770      3765      3771      3772
      3765      3771      3773      3765      3771      3774      3772      3771      3773
      3772      3771      3774      3773      3771      3774     18919     18918     18920
     18919     18918     18921     18919     18918     18922     18920     18918     18921
     18920     18918     18922     18921     18918     18922     18918     18922     18923
     18918     18922     18924     18918     18922     18925     18923     18922     18924
     18923     18922     18925     18924     18922     18925     18922     18925     18926
     18922     18925     18927     18922     18925     18931     18926     18925     18927
     18926     18925     18931     18927     18925     18931     18929     18928     18930
     18929     18928     18931     18929     18928     18932     18930     18928     18931
     18930     18928     18932     18931     18928     18932     18925     18931     18928
     18928     18932     18933     18932     18933     18934     18932     18933     18935
     18932     18933     18936     18934     18933     18935     18934     18933     18936
     18935     18933     18936     18933     18936     18937     18933     18936     18938
     18933     18936     18944     18937     18936     18938     18937     18936     18944
     18938     18936     18944     18936     18938     18939     18938     18939     18940
     18938     18939     18941     18940     18939     18941     18939     18941     18942
     18939     18941     18943     18939     18941     18953     18942     18941     18943
     18942     18941     18953     18943     18941     18953     18936     18944     18945
     18936     18944     18946     18936     18944     18947     18945     18944     18946
     18945     18944     18947     18946     18944     18947     18944     18947     18948
     18947     18948     18949     18947     18948     18950     18949     18948     18950
     18948     18950     18951     18948     18950     18952     18948     18950     19000
     18951     18950     18952     18951     18950     19000     18952     18950     19000
     18941     18953     18954     18941     18953     18955     18941     18953     18956
     18954     18953     18955     18954     18953     18956     18955     18953     18956
     18953     18956     18957     18953     18956     18958     18953     18956     18959
     18957     18956     18958     18957     18956     18959     18958     18956     18959
     18956     18959     18960     18956     18959     18961     18960     18959     18961
     18959     18961     18962     18959     18961     18963     18962     18961     18963
     18961     18963     18964     18961     18963     18965     18961     18963     18966
     18964     18963     18965     18964     18963     18966     18965     18963     18966
     18963     18966     18967     18963     18966     18968     18967     18966     18968
     18966     18968     18969     18966     18968     18970     18969     18968     18970
     18968     18970     18971     18968     18970     18972     18968     18970     18973
     18971     18970     18972     18971     18970     18973     18972     18970     18973
     18970     18973     18974     18970     18973     18975     18974     18973     18975
     18973     18975     18976     18973     18975     18977     18976     18975     18977
     18975     18977     18978     18975     18977     18979     18975     18977     18980
     18978     18977     18979     18978     18977     18980     18979     18977     18980
     18977     18980     18981     18977     18980     18982     18981     18980     18982
     18980     18982     18983     18980     18982     18984     18983     18982     18984
     18982     18984     18985     18982     18984     18986     18982     18984     18987
     18985     18984     18986     18985     18984     18987     18986     18984     18987
     18984     18987     18988     18984     18987     18989     18984     18987     18990
     18988     18987     18989     18988     18987     18990     18989     18987     18990
     18987     18990     18991     18987     18990     18992     18987     18990     18993
     18991     18990     18992     18991     18990     18993     18992     18990     18993
     18990     18993     18994     18990     18993     18995     18990     18993     18996
     18994     18993     18995     18994     18993     18996     18995     18993     18996
     18993     18996     18997     18993     18996     18998     18993     18996     18999
     18997     18996     18998     18997     18996     18999     18998     18996     18999
     18950     19000     19001     18950     19000     19002     18950     19000     19003
     19001     19000     19002     19001     19000     19003     19002     19000     19003
     19000     19003     19004     19000     19003     19005     19000     19003     19006
     19004     19003     19005     19004     19003     19006     19005     19003     19006
     19003     19006     19007     19003     19006     19008     19003     19006     19009
     19007     19006     19008     19007     19006     19009     19008     19006     19009
     19006     19009     19010     19006     19009     19011     19006     19009     19012
     19010     19009     19011     19010     19009     19012     19011     19009     19012
     19009     19012     19013     19009     19012     19014     19009     19012     19015
     19013     19012     19014     19013     19012     19015     19014     19012     19015
     19012     19015     19016     19012     19015     19017     19012     19015     19018
     19016     19015     19017     19016     19015     19018     19017     19015     19018
     19015     19018     19019     19015     19018     19020     19015     19018     19021
     19019     19018     19020     19019     19018     19021     19020     19018     19021
     19018     19021     19022     19018     19021     19023     19018     19021     19024
     19022     19021     19023     19022     19021     19024     19023     19021     19024
     19021     19024     19025     19021     19024     19026     19021     19024     19027
     19025     19024     19026     19025     19024     19027     19026     19024     19027
     19024     19027     19028     19024     19027     19029     19024     19027     19030
     19028     19027     19029     19028     19027     19030     19029     19027     19030
     19027     19030     19031     19027     19030     19032     19027     19030     19033
     19031     19030     19032     19031     19030     19033     19032     19030     19033
     19030     19033     19034     19030     19033     19035     19030     19033     19036
     19034     19033     19035     19034     19033     19036     19035     19033     19036
     19033     19036     19037     19033     19036     19038     19033     19036     19039
     19037     19036     19038     19037     19036     19039     19038     19036     19039
     19036     19039     19040     19036     19039     19041     19036     19039     19042
     19040     19039     19041     19040     19039     19042     19041     19039     19042
     19039     19042     19043     19039     19042     19044     19039     19042     19045
     19043     19042     19044     19043     19042     19045     19044     19042     19045
     19042     19045     19046     19042     19045     19047     19042     19045     19048
     19046     19045     19047     19046     19045     19048     19047     19045     19048
      3776      3775      3777      3776      3775      3779      3776      3775      3821
      3777      3775      3779      3777      3775      3821      3779      3775      3821
      3775      3777      3778      3775      3779      3780      3775      3779      3781
      3775      3779      3782      3780      3779      3781      3780      3779      3782
      3781      3779      3782      3779      3782      3783      3779      3782      3813
      3783      3782      3813      3782      3783      3784      3782      3783      3785
      3784      3783      3785      3783      3785      3786      3783      3785      3787
      3783      3785      3788      3786      3785      3787      3786      3785      3788
      3787      3785      3788      3785      3788      3789      3785      3788      3790
      3785      3788      3811      3789      3788      3790      3789      3788      3811
      3790      3788      3811      3788      3790      3791      3788      3790      3792
      3788      3790      3800      3791      3790      3792      3791      3790      3800
      3792      3790      3800      3790      3792      3793      3790      3792      3794
      3790      3792      3795      3793      3792      3794      3793      3792      3795
      3794      3792      3795      3792      3795      3796      3792      3795      3797
      3792      3795      3798      3796      3795      3797      3796      3795      3798
      3797      3795      3798      3795      3798      3799      3795      3798      3800
      3795      3798      3824      3799      3798      3800      3799      3798      3824
      3800      3798      3824      3790      3800      3798      3790      3800      3801
      3790      3800      3805      3798      3800      3801      3798      3800      3805
      3801      3800      3805      3800      3801      3802      3800      3801      3803
      3800      3801      3804      3802      3801      3803      3802      3801      3804
      3803      3801      3804      3800      3805      3806      3800      3805      3807
      3800      3805      3808      3806      3805      3807      3806      3805      3808
      3807      3805      3808      3805      3808      3809      3805      3808      3810
      3805      3808      3811      3809      3808      3810      3809      3808      3811
      3810      3808      3811      3788      3811      3808      3788      3811      3812
      3788      3811      3813      3808      3811      3812      3808      3811      3813
      3812      3811      3813      3782      3813      3811      3782      3813      3814
      3782      3813      3818      3811      3813      3814      3811      3813      3818
      3814      3813      3818      3813      3814      3815      3813      3814      3816
      3813      3814      3817      3815      3814      3816      3815      3814      3817
      3816      3814      3817      3813      3818      3819      3813      3818      3820
      3813      3818      3821      3819      3818      3820      3819      3818      3821
      3820      3818      3821      3775      3821      3818      3775      3821      3822
      3775      3821      3823      3818      3821      3822      3818      3821      3823
      3822      3821      3823      3798      3824      3825      3798      3824      3826
      3798      3824      3830      3825      3824      3826      3825      3824      3830
      3826      3824      3830      3824      3826      3827      3824      3826      3828
      3824      3826      3829      3827      3826      3828      3827      3826      3829
      3828      3826      3829      3824      3830      3831      3824      3830      3832
      3824      3830      3833      3831      3830      3832      3831      3830      3833
      3832      3830      3833      3830      3833      3834      3830      3833      3835
      3830      3833      3836      3834      3833      3835      3834      3833      3836
      3835      3833      3836      3833      3836      3837      3833      3836      3838
      3833      3836      3839      3837      3836      3838      3837      3836      3839
      3838      3836      3839      3836      3839      3840      3836      3839      3841
      3836      3839      3845      3840      3839      3841      3840      3839      3845
      3841      3839      3845      3839      3841      3842      3839      3841      3843
      3839      3841      3844      3842      3841      3843      3842      3841      3844
      3843      3841      3844      3839      3845      3846      3839      3845      3847
      3839      3845      3848      3846      3845      3847      3846      3845      3848
      3847      3845      3848     15251     15250     15255     15251     15250     15259
     15251     15250     15263     15255     15250     15259     15255     15250     15263
     15259     15250     15263     15250     15251     15252     15250     15251     15253
     15250     15251     15254     15252     15251     15253     15252     15251     15254
     15253     15251     15254     15250     15255     15256     15250     15255     15257
     15250     15255     15258     15256     15255     15257     15256     15255     15258
     15257     15255     15258     15250     15259     15260     15250     15259     15261
     15250     15259     15262     15260     15259     15261     15260     15259     15262
     15261     15259     15262     15250     15263     15264     15250     15263     15265
     15250     15263     15266     15264     15263     15265     15264     15263     15266
     15265     15263     15266     15263     15266     15267     15263     15266     15268
     15263     15266     15273     15267     15266     15268     15267     15266     15273
     15268     15266     15273     15270     15269     15271     15270     15269     15272
     15270     15269     15273     15271     15269     15272     15271     15269     15273
     15272     15269     15273     15269     15272     15274     15266     15273     15269
     15272     15274     15275     15272     15274     15276     15272     15274     15279
     15275     15274     15276     15275     15274     15279     15276     15274     15279
     15278     15277     15279     15278     15277     15329     15279     15277     15329
     15274     15279     15277     15274     15279     15280     15274     15279     15281
     15277     15279     15280     15277     15279     15281     15280     15279     15281
     15279     15281     15282     15279     15281     15283     15279     15281     15285
     15282     15281     15283     15282     15281     15285     15283     15281     15285
     15281     15283     15284     15281     15285     15286     15281     15285     15287
     15286     15285     15287     15285     15287     15288     15285     15287     15289
     15288     15287     15289     15287     15289     15290     15287     15289     15291
     15287     15289     15292     15290     15289     15291     15290     15289     15292
     15291     15289     15292     15289     15292     15293     15289     15292     15294
     15289     15292     15295     15293     15292     15294     15293     15292     15295
     15294     15292     15295     15292     15295     15296     15292     15295     15297
     15292     15295     15298     15296     15295     15297     15296     15295     15298
     15297     15295     15298     15295     15298     15299     15295     15298     15300
     15295     15298     15301     15299     15298     15300     15299     15298     15301
     15300     15298     15301     15298     15301     15302     15298     15301     15303
     15298     15301     15304     15302     15301     15303     15302     15301     15304
     15303     15301     15304     15301     15304     15305     15301     15304     15306
     15301     15304     15307     15305     15304     15306     15305     15304     15307
     15306     15304     15307     15304     15307     15308     15304     15307     15309
     15304     15307     15310     15308     15307     15309     15308     15307     15310
     15309     15307     15310     15307     15310     15311     15307     15310     15312
     15307     15310     15313     15311     15310     15312     15311     15310     15313
     15312     15310     15313     15310     15313     15314     15310     15313     15315
     15310     15313     15316     15314     15313     15315     15314     15313     15316
     15315     15313     15316     15313     15316     15317     15313     15316     15318
     15313     15316     15319     15317     15316     15318     15317     15316     15319
     15318     15316     15319     15316     15319     15320     15316     15319     15321
     15316     15319     15322     15320     15319     15321     15320     15319     15322
     15321     15319     15322     15319     15322     15323     15319     15322     15324
     15319     15322     15325     15323     15322     15324     15323     15322     15325
     15324     15322     15325     15322     15325     15326     15322     15325     15327
     15322     15325     15328     15326     15325     15327     15326     15325     15328
     15327     15325     15328     15277     15329     15330     15277     15329     15331
     15330     15329     15331     15329     15331     15332     15329     15331     15333
     15329     15331     15334     15332     15331     15333     15332     15331     15334
     15333     15331     15334     15331     15334     15335     15331     15334     15336
     15331     15334     15337     15335     15334     15336     15335     15334     15337
     15336     15334     15337     15334     15337     15338     15334     15337     15339
     15334     15337     15340     15338     15337     15339     15338     15337     15340
     15339     15337     15340     15337     15340     15341     15337     15340     15342
     15337     15340     15343     15341     15340     15342     15341     15340     15343
     15342     15340     15343     15340     15343     15344     15340     15343     15345
     15340     15343     15346     15344     15343     15345     15344     15343     15346
     15345     15343     15346     15343     15346     15347     15343     15346     15348
     15343     15346     15349     15347     15346     15348     15347     15346     15349
     15348     15346     15349     15346     15349     15350     15346     15349     15351
     15346     15349     15352     15350     15349     15351     15350     15349     15352
     15351     15349     15352     15349     15352     15353     15349     15352     15354
     15353     15352     15354     15352     15354     15355     15352     15354     15356
     15355     15354     15356     15354     15356     15357     15354     15356     15358
     15354     15356     15359     15357     15356     15358     15357     15356     15359
     15358     15356     15359     15356     15359     15360     15356     15359     15361
     15356     15359     15362     15360     15359     15361     15360     15359     15362
     15361     15359     15362     15359     15362     15363     15359     15362     15364
     15359     15362     15365     15363     15362     15364     15363     15362     15365
     15364     15362     15365     15362     15365     15366     15362     15365     15367
     15362     15365     15368     15366     15365     15367     15366     15365     15368
     15367     15365     15368     15365     15368     15369     15365     15368     15370
     15365     15368     15371     15369     15368     15370     15369     15368     15371
     15370     15368     15371     15368     15371     15372     15368     15371     15373
     15368     15371     15374     15372     15371     15373     15372     15371     15374
     15373     15371     15374     15371     15374     15375     15371     15374     15376
     15371     15374     15377     15375     15374     15376     15375     15374     15377
     15376     15374     15377     15374     15377     15378     15374     15377     15379
     15374     15377     15380     15378     15377     15379     15378     15377     15380
     15379     15377     15380     15382     15381     15386     15382     15381     15390
     15382     15381     15394     15386     15381     15390     15386     15381     15394
     15390     15381     15394     15381     15382     15383     15381     15382     15384
     15381     15382     15385     15383     15382     15384     15383     15382     15385
     15384     15382     15385     15381     15386     15387     15381     15386     15388
     15381     15386     15389     15387     15386     15388     15387     15386     15389
     15388     15386     15389     15381     15390     15391     15381     15390     15392
     15381     15390     15393     15391     15390     15392     15391     15390     15393
     15392     15390     15393     15381     15394     15395     15381     15394     15396
     15381     15394     15397     15395     15394     15396     15395     15394     15397
     15396     15394     15397     15394     15397     15398     15394     15397     15399
     15394     15397     15404     15398     15397     15399     15398     15397     15404
     15399     15397     15404     15401     15400     15402     15401     15400     15403
     15401     15400     15404     15402     15400     15403     15402     15400     15404
     15403     15400     15404     15400     15403     15405     15397     15404     15400
     15403     15405     15406     15403     15405     15407     15403     15405     15410
     15406     15405     15407     15406     15405     15410     15407     15405     15410
     15409     15408     15410     15409     15408     15460     15410     15408     15460
     15405     15410     15408     15405     15410     15411     15405     15410     15412
     15408     15410     15411     15408     15410     15412     15411     15410     15412
     15410     15412     15413     15410     15412     15414     15410     15412     15416
     15413     15412     15414     15413     15412     15416     15414     15412     15416
     15412     15414     15415     15412     15416     15417     15412     15416     15418
     15417     15416     15418     15416     15418     15419     15416     15418     15420
     15419     15418     15420     15418     15420     15421     15418     15420     15422
     15418     15420     15423     15421     15420     15422     15421     15420     15423
     15422     15420     15423     15420     15423     15424     15420     15423     15425
     15420     15423     15426     15424     15423     15425     15424     15423     15426
     15425     15423     15426     15423     15426     15427     15423     15426     15428
     15423     15426     15429     15427     15426     15428     15427     15426     15429
     15428     15426     15429     15426     15429     15430     15426     15429     15431
     15426     15429     15432     15430     15429     15431     15430     15429     15432
     15431     15429     15432     15429     15432     15433     15429     15432     15434
     15429     15432     15435     15433     15432     15434     15433     15432     15435
     15434     15432     15435     15432     15435     15436     15432     15435     15437
     15432     15435     15438     15436     15435     15437     15436     15435     15438
     15437     15435     15438     15435     15438     15439     15435     15438     15440
     15435     15438     15441     15439     15438     15440     15439     15438     15441
     15440     15438     15441     15438     15441     15442     15438     15441     15443
     15438     15441     15444     15442     15441     15443     15442     15441     15444
     15443     15441     15444     15441     15444     15445     15441     15444     15446
     15441     15444     15447     15445     15444     15446     15445     15444     15447
     15446     15444     15447     15444     15447     15448     15444     15447     15449
     15444     15447     15450     15448     15447     15449     15448     15447     15450
     15449     15447     15450     15447     15450     15451     15447     15450     15452
     15447     15450     15453     15451     15450     15452     15451     15450     15453
     15452     15450     15453     15450     15453     15454     15450     15453     15455
     15450     15453     15456     15454     15453     15455     15454     15453     15456
     15455     15453     15456     15453     15456     15457     15453     15456     15458
     15453     15456     15459     15457     15456     15458     15457     15456     15459
     15458     15456     15459     15408     15460     15461     15408     15460     15462
     15461     15460     15462     15460     15462     15463     15460     15462     15464
     15460     15462     15465     15463     15462     15464     15463     15462     15465
     15464     15462     15465     15462     15465     15466     15462     15465     15467
     15462     15465     15468     15466     15465     15467     15466     15465     15468
     15467     15465     15468     15465     15468     15469     15465     15468     15470
     15465     15468     15471     15469     15468     15470     15469     15468     15471
     15470     15468     15471     15468     15471     15472     15468     15471     15473
     15468     15471     15474     15472     15471     15473     15472     15471     15474
     15473     15471     15474     15471     15474     15475     15471     15474     15476
     15471     15474     15477     15475     15474     15476     15475     15474     15477
     15476     15474     15477     15474     15477     15478     15474     15477     15479
     15474     15477     15480     15478     15477     15479     15478     15477     15480
     15479     15477     15480     15477     15480     15481     15477     15480     15482
     15477     15480     15483     15481     15480     15482     15481     15480     15483
     15482     15480     15483     15480     15483     15484     15480     15483     15485
     15484     15483     15485     15483     15485     15486     15483     15485     15487
     15486     15485     15487     15485     15487     15488     15485     15487     15489
     15485     15487     15490     15488     15487     15489     15488     15487     15490
     15489     15487     15490     15487     15490     15491     15487     15490     15492
     15487     15490     15493     15491     15490     15492     15491     15490     15493
     15492     15490     15493     15490     15493     15494     15490     15493     15495
     15490     15493     15496     15494     15493     15495     15494     15493     15496
     15495     15493     15496     15493     15496     15497     15493     15496     15498
     15493     15496     15499     15497     15496     15498     15497     15496     15499
     15498     15496     15499     15496     15499     15500     15496     15499     15501
     15496     15499     15502     15500     15499     15501     15500     15499     15502
     15501     15499     15502     15499     15502     15503     15499     15502     15504
     15499     15502     15505     15503     15502     15504     15503     15502     15505
     15504     15502     15505     15502     15505     15506     15502     15505     15507
     15502     15505     15508     15506     15505     15507     15506     15505     15508
     15507     15505     15508     15505     15508     15509     15505     15508     15510
     15505     15508     15511     15509     15508     15510     15509     15508     15511
     15510     15508     15511      3850      3849      3851      3850      3849      3853
      3850      3849      3895      3851      3849      3853      3851      3849      3895
      3853      3849      3895      3849      3851      3852      3849      3853      3854
      3849      3853      3855      3849      3853      3856      3854      3853      3855
      3854      3853      3856      3855      3853      3856      3853      3856      3857
      3853      3856      3887      3857      3856      3887      3856      3857      3858
      3856      3857      3859      3858      3857      3859      3857      3859      3860
      3857      3859      3861      3857      3859      3862      3860      3859      3861
      3860      3859      3862      3861      3859      3862      3859      3862      3863
      3859      3862      3864      3859      3862      3885      3863      3862      3864
      3863      3862      3885      3864      3862      3885      3862      3864      3865
      3862      3864      3866      3862      3864      3874      3865      3864      3866
      3865      3864      3874      3866      3864      3874      3864      3866      3867
      3864      3866      3868      3864      3866      3869      3867      3866      3868
      3867      3866      3869      3868      3866      3869      3866      3869      3870
      3866      3869      3871      3866      3869      3872      3870      3869      3871
      3870      3869      3872      3871      3869      3872      3869      3872      3873
      3869      3872      3874      3869      3872      3898      3873      3872      3874
      3873      3872      3898      3874      3872      3898      3864      3874      3872
      3864      3874      3875      3864      3874      3879      3872      3874      3875
      3872      3874      3879      3875      3874      3879      3874      3875      3876
      3874      3875      3877      3874      3875      3878      3876      3875      3877
      3876      3875      3878      3877      3875      3878      3874      3879      3880
      3874      3879      3881      3874      3879      3882      3880      3879      3881
      3880      3879      3882      3881      3879      3882      3879      3882      3883
      3879      3882      3884      3879      3882      3885      3883      3882      3884
      3883      3882      3885      3884      3882      3885      3862      3885      3882
      3862      3885      3886      3862      3885      3887      3882      3885      3886
      3882      3885      3887      3886      3885      3887      3856      3887      3885
      3856      3887      3888      3856      3887      3892      3885      3887      3888
      3885      3887      3892      3888      3887      3892      3887      3888      3889
      3887      3888      3890      3887      3888      3891      3889      3888      3890
      3889      3888      3891      3890      3888      3891      3887      3892      3893
      3887      3892      3894      3887      3892      3895      3893      3892      3894
      3893      3892      3895      3894      3892      3895      3849      3895      3892
      3849      3895      3896      3849      3895      3897      3892      3895      3896
      3892      3895      3897      3896      3895      3897      3872      3898      3899
      3872      3898      3900      3872      3898      3904      3899      3898      3900
      3899      3898      3904      3900      3898      3904      3898      3900      3901
      3898      3900      3902      3898      3900      3903      3901      3900      3902
      3901      3900      3903      3902      3900      3903      3898      3904      3905
      3898      3904      3906      3898      3904      3907      3905      3904      3906
      3905      3904      3907      3906      3904      3907      3904      3907      3908
      3904      3907      3909      3904      3907      3910      3908      3907      3909
      3908      3907      3910      3909      3907      3910      3907      3910      3911
      3907      3910      3912      3907      3910      3913      3911      3910      3912
      3911      3910      3913      3912      3910      3913      3910      3913      3914
      3910      3913      3915      3910      3913      3919      3914      3913      3915
      3914      3913      3919      3915      3913      3919      3913      3915      3916
      3913      3915      3917      3913      3915      3918      3916      3915      3917
      3916      3915      3918      3917      3915      3918      3913      3919      3920
      3913      3919      3921      3913      3919      3922      3920      3919      3921
      3920      3919      3922      3921      3919      3922      3924      3923      3925
      3924      3923      3927      3924      3923      3969      3925      3923      3927
      3925      3923      3969      3927      3923      3969      3923      3925      3926
      3923      3927      3928      3923      3927      3929      3923      3927      3930
      3928      3927      3929      3928      3927      3930      3929      3927      3930
      3927      3930      3931      3927      3930      3961      3931      3930      3961
      3930      3931      3932      3930      3931      3933      3932      3931      3933
      3931      3933      3934      3931      3933      3935      3931      3933      3936
      3934      3933      3935      3934      3933      3936      3935      3933      3936
      3933      3936      3937      3933      3936      3938      3933      3936      3959
      3937      3936      3938      3937      3936      3959      3938      3936      3959
      3936      3938      3939      3936      3938      3940      3936      3938      3948
      3939      3938      3940      3939      3938      3948      3940      3938      3948
      3938      3940      3941      3938      3940      3942      3938      3940      3943
      3941      3940      3942      3941      3940      3943      3942      3940      3943
      3940      3943      3944      3940      3943      3945      3940      3943      3946
      3944      3943      3945      3944      3943      3946      3945      3943      3946
      3943      3946      3947      3943      3946      3948      3943      3946      3972
      3947      3946      3948      3947      3946      3972      3948      3946      3972
      3938      3948      3946      3938      3948      3949      3938      3948      3953
      3946      3948      3949      3946      3948      3953      3949      3948      3953
      3948      3949      3950      3948      3949      3951      3948      3949      3952
      3950      3949      3951      3950      3949      3952      3951      3949      3952
      3948      3953      3954      3948      3953      3955      3948      3953      3956
      3954      3953      3955      3954      3953      3956      3955      3953      3956
      3953      3956      3957      3953      3956      3958      3953      3956      3959
      3957      3956      3958      3957      3956      3959      3958      3956      3959
      3936      3959      3956      3936      3959      3960      3936      3959      3961
      3956      3959      3960      3956      3959      3961      3960      3959      3961
      3930      3961      3959      3930      3961      3962      3930      3961      3966
      3959      3961      3962      3959      3961      3966      3962      3961      3966
      3961      3962      3963      3961      3962      3964      3961      3962      3965
      3963      3962      3964      3963      3962      3965      3964      3962      3965
      3961      3966      3967      3961      3966      3968      3961      3966      3969
      3967      3966      3968      3967      3966      3969      3968      3966      3969
      3923      3969      3966      3923      3969      3970      3923      3969      3971
      3966      3969      3970      3966      3969      3971      3970      3969      3971
      3946      3972      3973      3946      3972      3974      3946      3972      3978
      3973      3972      3974      3973      3972      3978      3974      3972      3978
      3972      3974      3975      3972      3974      3976      3972      3974      3977
      3975      3974      3976      3975      3974      3977      3976      3974      3977
      3972      3978      3979      3972      3978      3980      3972      3978      3981
      3979      3978      3980      3979      3978      3981      3980      3978      3981
      3978      3981      3982      3978      3981      3983      3978      3981      3984
      3982      3981      3983      3982      3981      3984      3983      3981      3984
      3981      3984      3985      3981      3984      3986      3981      3984      3987
      3985      3984      3986      3985      3984      3987      3986      3984      3987
      3984      3987      3988      3984      3987      3989      3984      3987      3993
      3988      3987      3989      3988      3987      3993      3989      3987      3993
      3987      3989      3990      3987      3989      3991      3987      3989      3992
      3990      3989      3991      3990      3989      3992      3991      3989      3992
      3987      3993      3994      3987      3993      3995      3987      3993      3996
      3994      3993      3995      3994      3993      3996      3995      3993      3996
     19050     19049     19051     19050     19049     19052     19050     19049     19053
     19051     19049     19052     19051     19049     19053     19052     19049     19053
     19049     19053     19054     19049     19053     19055     19049     19053     19056
     19054     19053     19055     19054     19053     19056     19055     19053     19056
     19053     19056     19057     19053     19056     19058     19053     19056     19062
     19057     19056     19058     19057     19056     19062     19058     19056     19062
     19060     19059     19061     19060     19059     19062     19060     19059     19063
     19061     19059     19062     19061     19059     19063     19062     19059     19063
     19056     19062     19059     19059     19063     19064     19063     19064     19065
     19063     19064     19066     19063     19064     19067     19065     19064     19066
     19065     19064     19067     19066     19064     19067     19064     19067     19068
     19064     19067     19069     19064     19067     19075     19068     19067     19069
     19068     19067     19075     19069     19067     19075     19067     19069     19070
     19069     19070     19071     19069     19070     19072     19071     19070     19072
     19070     19072     19073     19070     19072     19074     19070     19072     19084
     19073     19072     19074     19073     19072     19084     19074     19072     19084
     19067     19075     19076     19067     19075     19077     19067     19075     19078
     19076     19075     19077     19076     19075     19078     19077     19075     19078
     19075     19078     19079     19078     19079     19080     19078     19079     19081
     19080     19079     19081     19079     19081     19082     19079     19081     19083
     19079     19081     19131     19082     19081     19083     19082     19081     19131
     19083     19081     19131     19072     19084     19085     19072     19084     19086
     19072     19084     19087     19085     19084     19086     19085     19084     19087
     19086     19084     19087     19084     19087     19088     19084     19087     19089
     19084     19087     19090     19088     19087     19089     19088     19087     19090
     19089     19087     19090     19087     19090     19091     19087     19090     19092
     19091     19090     19092     19090     19092     19093     19090     19092     19094
     19093     19092     19094     19092     19094     19095     19092     19094     19096
     19092     19094     19097     19095     19094     19096     19095     19094     19097
     19096     19094     19097     19094     19097     19098     19094     19097     19099
     19098     19097     19099     19097     19099     19100     19097     19099     19101
     19100     19099     19101     19099     19101     19102     19099     19101     19103
     19099     19101     19104     19102     19101     19103     19102     19101     19104
     19103     19101     19104     19101     19104     19105     19101     19104     19106
     19105     19104     19106     19104     19106     19107     19104     19106     19108
     19107     19106     19108     19106     19108     19109     19106     19108     19110
     19106     19108     19111     19109     19108     19110     19109     19108     19111
     19110     19108     19111     19108     19111     19112     19108     19111     19113
     19112     19111     19113     19111     19113     19114     19111     19113     19115
     19114     19113     19115     19113     19115     19116     19113     19115     19117
     19113     19115     19118     19116     19115     19117     19116     19115     19118
     19117     19115     19118     19115     19118     19119     19115     19118     19120
     19115     19118     19121     19119     19118     19120     19119     19118     19121
     19120     19118     19121     19118     19121     19122     19118     19121     19123
     19118     19121     19124     19122     19121     19123     19122     19121     19124
     19123     19121     19124     19121     19124     19125     19121     19124     19126
     19121     19124     19127     19125     19124     19126     19125     19124     19127
     19126     19124     19127     19124     19127     19128     19124     19127     19129
     19124     19127     19130     19128     19127     19129     19128     19127     19130
     19129     19127     19130     19081     19131     19132     19081     19131     19133
     19081     19131     19134     19132     19131     19133     19132     19131     19134
     19133     19131     19134     19131     19134     19135     19131     19134     19136
     19131     19134     19137     19135     19134     19136     19135     19134     19137
     19136     19134     19137     19134     19137     19138     19134     19137     19139
     19134     19137     19140     19138     19137     19139     19138     19137     19140
     19139     19137     19140     19137     19140     19141     19137     19140     19142
     19137     19140     19143     19141     19140     19142     19141     19140     19143
     19142     19140     19143     19140     19143     19144     19140     19143     19145
     19140     19143     19146     19144     19143     19145     19144     19143     19146
     19145     19143     19146     19143     19146     19147     19143     19146     19148
     19143     19146     19149     19147     19146     19148     19147     19146     19149
     19148     19146     19149     19146     19149     19150     19146     19149     19151
     19146     19149     19152     19150     19149     19151     19150     19149     19152
     19151     19149     19152     19149     19152     19153     19149     19152     19154
     19149     19152     19155     19153     19152     19154     19153     19152     19155
     19154     19152     19155     19152     19155     19156     19152     19155     19157
     19152     19155     19158     19156     19155     19157     19156     19155     19158
     19157     19155     19158     19155     19158     19159     19155     19158     19160
     19155     19158     19161     19159     19158     19160     19159     19158     19161
     19160     19158     19161     19158     19161     19162     19158     19161     19163
     19158     19161     19164     19162     19161     19163     19162     19161     19164
     19163     19161     19164     19161     19164     19165     19161     19164     19166
     19161     19164     19167     19165     19164     19166     19165     19164     19167
     19166     19164     19167     19164     19167     19168     19164     19167     19169
     19164     19167     19170     19168     19167     19169     19168     19167     19170
     19169     19167     19170     19167     19170     19171     19167     19170     19172
     19167     19170     19173     19171     19170     19172     19171     19170     19173
     19172     19170     19173     19170     19173     19174     19170     19173     19175
     19170     19173     19176     19174     19173     19175     19174     19173     19176
     19175     19173     19176     19173     19176     19177     19173     19176     19178
     19173     19176     19179     19177     19176     19178     19177     19176     19179
     19178     19176     19179      7344      7343      7348      7344      7343      7352
      7344      7343      7356      7348      7343      7352      7348      7343      7356
      7352      7343      7356      7343      7344      7345      7343      7344      7346
      7343      7344      7347      7345      7344      7346      7345      7344      7347
      7346      7344      7347      7343      7348      7349      7343      7348      7350
      7343      7348      7351      7349      7348      7350      7349      7348      7351
      7350      7348      7351      7343      7352      7353      7343      7352      7354
      7343      7352      7355      7353      7352      7354      7353      7352      7355
      7354      7352      7355      7343      7356      7357      7343      7356      7358
      7343      7356      7359      7357      7356      7358      7357      7356      7359
      7358      7356      7359      7356      7359      7360      7356      7359      7361
      7356      7359      7365      7360      7359      7361      7360      7359      7365
      7361      7359      7365      7363      7362      7364      7363      7362      7365
      7363      7362      7366      7364      7362      7365      7364      7362      7366
      7365      7362      7366      7359      7365      7362      7362      7366      7367
      7366      7367      7368      7366      7367      7369      7366      7367      7370
      7368      7367      7369      7368      7367      7370      7369      7367      7370
      7367      7370      7371      7367      7370      7372      7367      7370      7378
      7371      7370      7372      7371      7370      7378      7372      7370      7378
      7370      7372      7373      7372      7373      7374      7372      7373      7375
      7374      7373      7375      7373      7375      7376      7373      7375      7377
      7373      7375      7387      7376      7375      7377      7376      7375      7387
      7377      7375      7387      7370      7378      7379      7370      7378      7380
      7370      7378      7381      7379      7378      7380      7379      7378      7381
      7380      7378      7381      7378      7381      7382      7381      7382      7383
      7381      7382      7384      7383      7382      7384      7382      7384      7385
      7382      7384      7386      7382      7384      7432      7385      7384      7386
      7385      7384      7432      7386      7384      7432      7375      7387      7388
      7375      7387      7389      7375      7387      7390      7388      7387      7389
      7388      7387      7390      7389      7387      7390      7387      7390      7391
      7387      7390      7392      7387      7390      7393      7391      7390      7392
      7391      7390      7393      7392      7390      7393      7390      7393      7394
      7390      7393      7395      7390      7393      7396      7394      7393      7395
      7394      7393      7396      7395      7393      7396      7393      7396      7397
      7393      7396      7398      7393      7396      7399      7397      7396      7398
      7397      7396      7399      7398      7396      7399      7396      7399      7400
      7396      7399      7401      7396      7399      7402      7400      7399      7401
      7400      7399      7402      7401      7399      7402      7399      7402      7403
      7399      7402      7404      7399      7402      7405      7403      7402      7404
      7403      7402      7405      7404      7402      7405      7402      7405      7406
      7402      7405      7407      7406      7405      7407      7405      7407      7408
      7405      7407      7409      7408      7407      7409      7407      7409      7410
      7407      7409      7411      7407      7409      7412      7410      7409      7411
      7410      7409      7412      7411      7409      7412      7409      7412      7413
      7409      7412      7414      7413      7412      7414      7412      7414      7415
      7412      7414      7416      7415      7414      7416      7414      7416      7417
      7414      7416      7418      7414      7416      7419      7417      7416      7418
      7417      7416      7419      7418      7416      7419      7416      7419      7420
      7416      7419      7421      7416      7419      7422      7420      7419      7421
      7420      7419      7422      7421      7419      7422      7419      7422      7423
      7419      7422      7424      7419      7422      7425      7423      7422      7424
      7423      7422      7425      7424      7422      7425      7422      7425      7426
      7422      7425      7427      7422      7425      7428      7426      7425      7427
      7426      7425      7428      7427      7425      7428      7425      7428      7429
      7425      7428      7430      7425      7428      7431      7429      7428      7430
      7429      7428      7431      7430      7428      7431      7384      7432      7433
      7384      7432      7434      7384      7432      7435      7433      7432      7434
      7433      7432      7435      7434      7432      7435      7432      7435      7436
      7432      7435      7437      7432      7435      7438      7436      7435      7437
      7436      7435      7438      7437      7435      7438      7435      7438      7439
      7435      7438      7440      7435      7438      7441      7439      7438      7440
      7439      7438      7441      7440      7438      7441      7438      7441      7442
      7438      7441      7443      7438      7441      7444      7442      7441      7443
      7442      7441      7444      7443      7441      7444      7441      7444      7445
      7441      7444      7446      7441      7444      7447      7445      7444      7446
      7445      7444      7447      7446      7444      7447      7444      7447      7448
      7444      7447      7449      7444      7447      7450      7448      7447      7449
      7448      7447      7450      7449      7447      7450      7447      7450      7451
      7447      7450      7452      7447      7450      7453      7451      7450      7452
      7451      7450      7453      7452      7450      7453      7450      7453      7454
      7450      7453      7455      7450      7453      7456      7454      7453      7455
      7454      7453      7456      7455      7453      7456      7453      7456      7457
      7453      7456      7458      7453      7456      7459      7457      7456      7458
      7457      7456      7459      7458      7456      7459      7456      7459      7460
      7456      7459      7461      7456      7459      7462      7460      7459      7461
      7460      7459      7462      7461      7459      7462      7459      7462      7463
      7459      7462      7464      7459      7462      7465      7463      7462      7464
      7463      7462      7465      7464      7462      7465      7462      7465      7466
      7462      7465      7467      7462      7465      7468      7466      7465      7467
      7466      7465      7468      7467      7465      7468      7465      7468      7469
      7465      7468      7470      7465      7468      7471      7469      7468      7470
      7469      7468      7471      7470      7468      7471      7468      7471      7472
      7468      7471      7473      7468      7471      7474      7472      7471      7473
      7472      7471      7474      7473      7471      7474      7471      7474      7475
      7471      7474      7476      7471      7474      7477      7475      7474      7476
      7475      7474      7477      7476      7474      7477      7474      7477      7478
      7474      7477      7479      7474      7477      7480      7478      7477      7479
      7478      7477      7480      7479      7477      7480     15513     15512     15517
     15513     15512     15521     15513     15512     15525     15517     15512     15521
     15517     15512     15525     15521     15512     15525     15512     15513     15514
     15512     15513     15515     15512     15513     15516     15514     15513     15515
     15514     15513     15516     15515     15513     15516     15512     15517     15518
     15512     15517     15519     15512     15517     15520     15518     15517     15519
     15518     15517     15520     15519     15517     15520     15512     15521     15522
     15512     15521     15523     15512     15521     15524     15522     15521     15523
     15522     15521     15524     15523     15521     15524     15512     15525     15526
     15512     15525     15527     15512     15525     15528     15526     15525     15527
     15526     15525     15528     15527     15525     15528     15525     15528     15529
     15525     15528     15530     15525     15528     15535     15529     15528     15530
     15529     15528     15535     15530     15528     15535     15532     15531     15533
     15532     15531     15534     15532     15531     15535     15533     15531     15534
     15533     15531     15535     15534     15531     15535     15531     15534     15536
     15528     15535     15531     15534     15536     15537     15534     15536     15538
     15534     15536     15541     15537     15536     15538     15537     15536     15541
     15538     15536     15541     15540     15539     15541     15540     15539     15591
     15541     15539     15591     15536     15541     15539     15536     15541     15542
     15536     15541     15543     15539     15541     15542     15539     15541     15543
     15542     15541     15543     15541     15543     15544     15541     15543     15545
     15541     15543     15547     15544     15543     15545     15544     15543     15547
     15545     15543     15547     15543     15545     15546     15543     15547     15548
     15543     15547     15549     15548     15547     15549     15547     15549     15550
     15547     15549     15551     15550     15549     15551     15549     15551     15552
     15549     15551     15553     15549     15551     15554     15552     15551     15553
     15552     15551     15554     15553     15551     15554     15551     15554     15555
     15551     15554     15556     15551     15554     15557     15555     15554     15556
     15555     15554     15557     15556     15554     15557     15554     15557     15558
     15554     15557     15559     15554     15557     15560     15558     15557     15559
     15558     15557     15560     15559     15557     15560     15557     15560     15561
     15557     15560     15562     15557     15560     15563     15561     15560     15562
     15561     15560     15563     15562     15560     15563     15560     15563     15564
     15560     15563     15565     15560     15563     15566     15564     15563     15565
     15564     15563     15566     15565     15563     15566     15563     15566     15567
     15563     15566     15568     15563     15566     15569     15567     15566     15568
     15567     15566     15569     15568     15566     15569     15566     15569     15570
     15566     15569     15571     15566     15569     15572     15570     15569     15571
     15570     15569     15572     15571     15569     15572     15569     15572     15573
     15569     15572     15574     15569     15572     15575     15573     15572     15574
     15573     15572     15575     15574     15572     15575     15572     15575     15576
     15572     15575     15577     15572     15575     15578     15576     15575     15577
     15576     15575     15578     15577     15575     15578     15575     15578     15579
     15575     15578     15580     15575     15578     15581     15579     15578     15580
     15579     15578     15581     15580     15578     15581     15578     15581     15582
     15578     15581     15583     15578     15581     15584     15582     15581     15583
     15582     15581     15584     15583     15581     15584     15581     15584     15585
     15581     15584     15586     15581     15584     15587     15585     15584     15586
     15585     15584     15587     15586     15584     15587     15584     15587     15588
     15584     15587     15589     15584     15587     15590     15588     15587     15589
     15588     15587     15590     15589     15587     15590     15539     15591     15592
     15539     15591     15593     15592     15591     15593     15591     15593     15594
     15591     15593     15595     15591     15593     15596     15594     15593     15595
     15594     15593     15596     15595     15593     15596     15593     15596     15597
     15593     15596     15598     15593     15596     15599     15597     15596     15598
     15597     15596     15599     15598     15596     15599     15596     15599     15600
     15596     15599     15601     15596     15599     15602     15600     15599     15601
     15600     15599     15602     15601     15599     15602     15599     15602     15603
     15599     15602     15604     15599     15602     15605     15603     15602     15604
     15603     15602     15605     15604     15602     15605     15602     15605     15606
     15602     15605     15607     15602     15605     15608     15606     15605     15607
     15606     15605     15608     15607     15605     15608     15605     15608     15609
     15605     15608     15610     15605     15608     15611     15609     15608     15610
     15609     15608     15611     15610     15608     15611     15608     15611     15612
     15608     15611     15613     15608     15611     15614     15612     15611     15613
     15612     15611     15614     15613     15611     15614     15611     15614     15615
     15611     15614     15616     15615     15614     15616     15614     15616     15617
     15614     15616     15618     15617     15616     15618     15616     15618     15619
     15616     15618     15620     15616     15618     15621     15619     15618     15620
     15619     15618     15621     15620     15618     15621     15618     15621     15622
     15618     15621     15623     15618     15621     15624     15622     15621     15623
     15622     15621     15624     15623     15621     15624     15621     15624     15625
     15621     15624     15626     15621     15624     15627     15625     15624     15626
     15625     15624     15627     15626     15624     15627     15624     15627     15628
     15624     15627     15629     15624     15627     15630     15628     15627     15629
     15628     15627     15630     15629     15627     15630     15627     15630     15631
     15627     15630     15632     15627     15630     15633     15631     15630     15632
     15631     15630     15633     15632     15630     15633     15630     15633     15634
     15630     15633     15635     15630     15633     15636     15634     15633     15635
     15634     15633     15636     15635     15633     15636     15633     15636     15637
     15633     15636     15638     15633     15636     15639     15637     15636     15638
     15637     15636     15639     15638     15636     15639     15636     15639     15640
     15636     15639     15641     15636     15639     15642     15640     15639     15641
     15640     15639     15642     15641     15639     15642      3998      3997      3999
      3998      3997      4001      3998      3997      4043      3999      3997      4001
      3999      3997      4043      4001      3997      4043      3997      3999      4000
      3997      4001      4002      3997      4001      4003      3997      4001      4004
      4002      4001      4003      4002      4001      4004      4003      4001      4004
      4001      4004      4005      4001      4004      4035      4005      4004      4035
      4004      4005      4006      4004      4005      4007      4006      4005      4007
      4005      4007      4008      4005      4007      4009      4005      4007      4010
      4008      4007      4009      4008      4007      4010      4009      4007      4010
      4007      4010      4011      4007      4010      4012      4007      4010      4033
      4011      4010      4012      4011      4010      4033      4012      4010      4033
      4010      4012      4013      4010      4012      4014      4010      4012      4022
      4013      4012      4014      4013      4012      4022      4014      4012      4022
      4012      4014      4015      4012      4014      4016      4012      4014      4017
      4015      4014      4016      4015      4014      4017      4016      4014      4017
      4014      4017      4018      4014      4017      4019      4014      4017      4020
      4018      4017      4019      4018      4017      4020      4019      4017      4020
      4017      4020      4021      4017      4020      4022      4017      4020      4046
      4021      4020      4022      4021      4020      4046      4022      4020      4046
      4012      4022      4020      4012      4022      4023      4012      4022      4027
      4020      4022      4023      4020      4022      4027      4023      4022      4027
      4022      4023      4024      4022      4023      4025      4022      4023      4026
      4024      4023      4025      4024      4023      4026      4025      4023      4026
      4022      4027      4028      4022      4027      4029      4022      4027      4030
      4028      4027      4029      4028      4027      4030      4029      4027      4030
      4027      4030      4031      4027      4030      4032      4027      4030      4033
      4031      4030      4032      4031      4030      4033      4032      4030      4033
      4010      4033      4030      4010      4033      4034      4010      4033      4035
      4030      4033      4034      4030      4033      4035      4034      4033      4035
      4004      4035      4033      4004      4035      4036      4004      4035      4040
      4033      4035      4036      4033      4035      4040      4036      4035      4040
      4035      4036      4037      4035      4036      4038      4035      4036      4039
      4037      4036      4038      4037      4036      4039      4038      4036      4039
      4035      4040      4041      4035      4040      4042      4035      4040      4043
      4041      4040      4042      4041      4040      4043      4042      4040      4043
      3997      4043      4040      3997      4043      4044      3997      4043      4045
      4040      4043      4044      4040      4043      4045      4044      4043      4045
      4020      4046      4047      4020      4046      4048      4020      4046      4052
      4047      4046      4048      4047      4046      4052      4048      4046      4052
      4046      4048      4049      4046      4048      4050      4046      4048      4051
      4049      4048      4050      4049      4048      4051      4050      4048      4051
      4046      4052      4053      4046      4052      4054      4046      4052      4055
      4053      4052      4054      4053      4052      4055      4054      4052      4055
      4052      4055      4056      4052      4055      4057      4052      4055      4058
      4056      4055      4057      4056      4055      4058      4057      4055      4058
      4055      4058      4059      4055      4058      4060      4055      4058      4061
      4059      4058      4060      4059      4058      4061      4060      4058      4061
      4058      4061      4062      4058      4061      4063      4058      4061      4067
      4062      4061      4063      4062      4061      4067      4063      4061      4067
      4061      4063      4064      4061      4063      4065      4061      4063      4066
      4064      4063      4065      4064      4063      4066      4065      4063      4066
      4061      4067      4068      4061      4067      4069      4061      4067      4070
      4068      4067      4069      4068      4067      4070      4069      4067      4070
      9876      9875      9877      9876      9875      9878      9876      9875      9879
      9877      9875      9878      9877      9875      9879      9878      9875      9879
      9875      9879      9880      9875      9879      9881      9875      9879      9884
      9880      9879      9881      9880      9879      9884      9881      9879      9884
      9879      9881      9882      9879      9881      9883      9882      9881      9883
      9879      9884      9885      9879      9884      9886      9879      9884      9890
      9885      9884      9886      9885      9884      9890      9886      9884      9890
      9888      9887      9889      9888      9887      9890      9888      9887      9891
      9889      9887      9890      9889      9887      9891      9890      9887      9891
      9884      9890      9887      9887      9891      9892      9891      9892      9893
      9891      9892      9894      9891      9892      9895      9893      9892      9894
      9893      9892      9895      9894      9892      9895      9892      9895      9896
      9892      9895      9897      9892      9895      9903      9896      9895      9897
      9896      9895      9903      9897      9895      9903      9895      9897      9898
      9897      9898      9899      9897      9898      9900      9899      9898      9900
      9898      9900      9901      9898      9900      9902      9898      9900      9912
      9901      9900      9902      9901      9900      9912      9902      9900      9912
      9895      9903      9904      9895      9903      9905      9895      9903      9906
      9904      9903      9905      9904      9903      9906      9905      9903      9906
      9903      9906      9907      9906      9907      9908      9906      9907      9909
      9908      9907      9909      9907      9909      9910      9907      9909      9911
      9907      9909      9959      9910      9909      9911      9910      9909      9959
      9911      9909      9959      9900      9912      9913      9900      9912      9914
      9900      9912      9915      9913      9912      9914      9913      9912      9915
      9914      9912      9915      9912      9915      9916      9912      9915      9917
      9912      9915      9918      9916      9915      9917      9916      9915      9918
      9917      9915      9918      9915      9918      9919      9915      9918      9920
      9919      9918      9920      9918      9920      9921      9918      9920      9922
      9921      9920      9922      9920      9922      9923      9920      9922      9924
      9920      9922      9925      9923      9922      9924      9923      9922      9925
      9924      9922      9925      9922      9925      9926      9922      9925      9927
      9926      9925      9927      9925      9927      9928      9925      9927      9929
      9928      9927      9929      9927      9929      9930      9927      9929      9931
      9927      9929      9932      9930      9929      9931      9930      9929      9932
      9931      9929      9932      9929      9932      9933      9929      9932      9934
      9933      9932      9934      9932      9934      9935      9932      9934      9936
      9935      9934      9936      9934      9936      9937      9934      9936      9938
      9934      9936      9939      9937      9936      9938      9937      9936      9939
      9938      9936      9939      9936      9939      9940      9936      9939      9941
      9940      9939      9941      9939      9941      9942      9939      9941      9943
      9942      9941      9943      9941      9943      9944      9941      9943      9945
      9941      9943      9946      9944      9943      9945      9944      9943      9946
      9945      9943      9946      9943      9946      9947      9943      9946      9948
      9943      9946      9949      9947      9946      9948      9947      9946      9949
      9948      9946      9949      9946      9949      9950      9946      9949      9951
      9946      9949      9952      9950      9949      9951      9950      9949      9952
      9951      9949      9952      9949      9952      9953      9949      9952      9954
      9949      9952      9955      9953      9952      9954      9953      9952      9955
      9954      9952      9955      9952      9955      9956      9952      9955      9957
      9952      9955      9958      9956      9955      9957      9956      9955      9958
      9957      9955      9958      9909      9959      9960      9909      9959      9961
      9909      9959      9962      9960      9959      9961      9960      9959      9962
      9961      9959      9962      9959      9962      9963      9959      9962      9964
      9959      9962      9965      9963      9962      9964      9963      9962      9965
      9964      9962      9965      9962      9965      9966      9962      9965      9967
      9962      9965      9968      9966      9965      9967      9966      9965      9968
      9967      9965      9968      9965      9968      9969      9965      9968      9970
      9965      9968      9971      9969      9968      9970      9969      9968      9971
      9970      9968      9971      9968      9971      9972      9968      9971      9973
      9968      9971      9974      9972      9971      9973      9972      9971      9974
      9973      9971      9974      9971      9974      9975      9971      9974      9976
      9971      9974      9977      9975      9974      9976      9975      9974      9977
      9976      9974      9977      9974      9977      9978      9974      9977      9979
      9974      9977      9980      9978      9977      9979      9978      9977      9980
      9979      9977      9980      9977      9980      9981      9977      9980      9982
      9977      9980      9983      9981      9980      9982      9981      9980      9983
      9982      9980      9983      9980      9983      9984      9980      9983      9985
      9980      9983      9986      9984      9983      9985      9984      9983      9986
      9985      9983      9986      9983      9986      9987      9983      9986      9988
      9983      9986      9989      9987      9986      9988      9987      9986      9989
      9988      9986      9989      9986      9989      9990      9986      9989      9991
      9986      9989      9992      9990      9989      9991      9990      9989      9992
      9991      9989      9992      9989      9992      9993      9989      9992      9994
      9989      9992      9995      9993      9992      9994      9993      9992      9995
      9994      9992      9995      9992      9995      9996      9992      9995      9997
      9992      9995      9998      9996      9995      9997      9996      9995      9998
      9997      9995      9998      9995      9998      9999      9995      9998     10000
      9995      9998     10001      9999      9998     10000      9999      9998     10001
     10000      9998     10001      9998     10001     10002      9998     10001     10003
      9998     10001     10004     10002     10001     10003     10002     10001     10004
     10003     10001     10004     10001     10004     10005     10001     10004     10006
     10001     10004     10007     10005     10004     10006     10005     10004     10007
     10006     10004     10007     10009     10008     10010     10009     10008     10011
     10009     10008     10012     10010     10008     10011     10010     10008     10012
     10011     10008     10012     10008     10012     10013     10008     10012     10014
     10008     10012     10017     10013     10012     10014     10013     10012     10017
     10014     10012     10017     10012     10014     10015     10012     10014     10016
     10015     10014     10016     10012     10017     10018     10012     10017     10019
     10012     10017     10023     10018     10017     10019     10018     10017     10023
     10019     10017     10023     10021     10020     10022     10021     10020     10023
     10021     10020     10024     10022     10020     10023     10022     10020     10024
     10023     10020     10024     10017     10023     10020     10020     10024     10025
     10024     10025     10026     10024     10025     10027     10024     10025     10028
     10026     10025     10027     10026     10025     10028     10027     10025     10028
     10025     10028     10029     10025     10028     10030     10025     10028     10036
     10029     10028     10030     10029     10028     10036     10030     10028     10036
     10028     10030     10031     10030     10031     10032     10030     10031     10033
     10032     10031     10033     10031     10033     10034     10031     10033     10035
     10031     10033     10045     10034     10033     10035     10034     10033     10045
     10035     10033     10045     10028     10036     10037     10028     10036     10038
     10028     10036     10039     10037     10036     10038     10037     10036     10039
     10038     10036     10039     10036     10039     10040     10039     10040     10041
     10039     10040     10042     10041     10040     10042     10040     10042     10043
     10040     10042     10044     10040     10042     10092     10043     10042     10044
     10043     10042     10092     10044     10042     10092     10033     10045     10046
     10033     10045     10047     10033     10045     10048     10046     10045     10047
     10046     10045     10048     10047     10045     10048     10045     10048     10049
     10045     10048     10050     10045     10048     10051     10049     10048     10050
     10049     10048     10051     10050     10048     10051     10048     10051     10052
     10048     10051     10053     10052     10051     10053     10051     10053     10054
     10051     10053     10055     10054     10053     10055     10053     10055     10056
     10053     10055     10057     10053     10055     10058     10056     10055     10057
     10056     10055     10058     10057     10055     10058     10055     10058     10059
     10055     10058     10060     10059     10058     10060     10058     10060     10061
     10058     10060     10062     10061     10060     10062     10060     10062     10063
     10060     10062     10064     10060     10062     10065     10063     10062     10064
     10063     10062     10065     10064     10062     10065     10062     10065     10066
     10062     10065     10067     10066     10065     10067     10065     10067     10068
     10065     10067     10069     10068     10067     10069     10067     10069     10070
     10067     10069     10071     10067     10069     10072     10070     10069     10071
     10070     10069     10072     10071     10069     10072     10069     10072     10073
     10069     10072     10074     10073     10072     10074     10072     10074     10075
     10072     10074     10076     10075     10074     10076     10074     10076     10077
     10074     10076     10078     10074     10076     10079     10077     10076     10078
     10077     10076     10079     10078     10076     10079     10076     10079     10080
     10076     10079     10081     10076     10079     10082     10080     10079     10081
     10080     10079     10082     10081     10079     10082     10079     10082     10083
     10079     10082     10084     10079     10082     10085     10083     10082     10084
     10083     10082     10085     10084     10082     10085     10082     10085     10086
     10082     10085     10087     10082     10085     10088     10086     10085     10087
     10086     10085     10088     10087     10085     10088     10085     10088     10089
     10085     10088     10090     10085     10088     10091     10089     10088     10090
     10089     10088     10091     10090     10088     10091     10042     10092     10093
     10042     10092     10094     10042     10092     10095     10093     10092     10094
     10093     10092     10095     10094     10092     10095     10092     10095     10096
     10092     10095     10097     10092     10095     10098     10096     10095     10097
     10096     10095     10098     10097     10095     10098     10095     10098     10099
     10095     10098     10100     10095     10098     10101     10099     10098     10100
     10099     10098     10101     10100     10098     10101     10098     10101     10102
     10098     10101     10103     10098     10101     10104     10102     10101     10103
     10102     10101     10104     10103     10101     10104     10101     10104     10105
     10101     10104     10106     10101     10104     10107     10105     10104     10106
     10105     10104     10107     10106     10104     10107     10104     10107     10108
     10104     10107     10109     10104     10107     10110     10108     10107     10109
     10108     10107     10110     10109     10107     10110     10107     10110     10111
     10107     10110     10112     10107     10110     10113     10111     10110     10112
     10111     10110     10113     10112     10110     10113     10110     10113     10114
     10110     10113     10115     10110     10113     10116     10114     10113     10115
     10114     10113     10116     10115     10113     10116     10113     10116     10117
     10113     10116     10118     10113     10116     10119     10117     10116     10118
     10117     10116     10119     10118     10116     10119     10116     10119     10120
     10116     10119     10121     10116     10119     10122     10120     10119     10121
     10120     10119     10122     10121     10119     10122     10119     10122     10123
     10119     10122     10124     10119     10122     10125     10123     10122     10124
     10123     10122     10125     10124     10122     10125     10122     10125     10126
     10122     10125     10127     10122     10125     10128     10126     10125     10127
     10126     10125     10128     10127     10125     10128     10125     10128     10129
     10125     10128     10130     10125     10128     10131     10129     10128     10130
     10129     10128     10131     10130     10128     10131     10128     10131     10132
     10128     10131     10133     10128     10131     10134     10132     10131     10133
     10132     10131     10134     10133     10131     10134     10131     10134     10135
     10131     10134     10136     10131     10134     10137     10135     10134     10136
     10135     10134     10137     10136     10134     10137     10134     10137     10138
     10134     10137     10139     10134     10137     10140     10138     10137     10139
     10138     10137     10140     10139     10137     10140     19181     19180     19182
     19181     19180     19183     19181     19180     19184     19182     19180     19183
     19182     19180     19184     19183     19180     19184     19180     19184     19185
     19180     19184     19186     19180     19184     19187     19185     19184     19186
     19185     19184     19187     19186     19184     19187     19184     19187     19188
     19184     19187     19189     19184     19187     19193     19188     19187     19189
     19188     19187     19193     19189     19187     19193     19191     19190     19192
     19191     19190     19193     19191     19190     19194     19192     19190     19193
     19192     19190     19194     19193     19190     19194     19187     19193     19190
     19190     19194     19195     19194     19195     19196     19194     19195     19197
     19194     19195     19198     19196     19195     19197     19196     19195     19198
     19197     19195     19198     19195     19198     19199     19195     19198     19200
     19195     19198     19206     19199     19198     19200     19199     19198     19206
     19200     19198     19206     19198     19200     19201     19200     19201     19202
     19200     19201     19203     19202     19201     19203     19201     19203     19204
     19201     19203     19205     19201     19203     19215     19204     19203     19205
     19204     19203     19215     19205     19203     19215     19198     19206     19207
     19198     19206     19208     19198     19206     19209     19207     19206     19208
     19207     19206     19209     19208     19206     19209     19206     19209     19210
     19209     19210     19211     19209     19210     19212     19211     19210     19212
     19210     19212     19213     19210     19212     19214     19210     19212     19262
     19213     19212     19214     19213     19212     19262     19214     19212     19262
     19203     19215     19216     19203     19215     19217     19203     19215     19218
     19216     19215     19217     19216     19215     19218     19217     19215     19218
     19215     19218     19219     19215     19218     19220     19215     19218     19221
     19219     19218     19220     19219     19218     19221     19220     19218     19221
     19218     19221     19222     19218     19221     19223     19222     19221     19223
     19221     19223     19224     19221     19223     19225     19224     19223     19225
     19223     19225     19226     19223     19225     19227     19223     19225     19228
     19226     19225     19227     19226     19225     19228     19227     19225     19228
     19225     19228     19229     19225     19228     19230     19229     19228     19230
     19228     19230     19231     19228     19230     19232     19231     19230     19232
     19230     19232     19233     19230     19232     19234     19230     19232     19235
     19233     19232     19234     19233     19232     19235     19234     19232     19235
     19232     19235     19236     19232     19235     19237     19236     19235     19237
     19235     19237     19238     19235     19237     19239     19238     19237     19239
     19237     19239     19240     19237     19239     19241     19237     19239     19242
     19240     19239     19241     19240     19239     19242     19241     19239     19242
     19239     19242     19243     19239     19242     19244     19243     19242     19244
     19242     19244     19245     19242     19244     19246     19245     19244     19246
     19244     19246     19247     19244     19246     19248     19244     19246     19249
     19247     19246     19248     19247     19246     19249     19248     19246     19249
     19246     19249     19250     19246     19249     19251     19246     19249     19252
     19250     19249     19251     19250     19249     19252     19251     19249     19252
     19249     19252     19253     19249     19252     19254     19249     19252     19255
     19253     19252     19254     19253     19252     19255     19254     19252     19255
     19252     19255     19256     19252     19255     19257     19252     19255     19258
     19256     19255     19257     19256     19255     19258     19257     19255     19258
     19255     19258     19259     19255     19258     19260     19255     19258     19261
     19259     19258     19260     19259     19258     19261     19260     19258     19261
     19212     19262     19263     19212     19262     19264     19212     19262     19265
     19263     19262     19264     19263     19262     19265     19264     19262     19265
     19262     19265     19266     19262     19265     19267     19262     19265     19268
     19266     19265     19267     19266     19265     19268     19267     19265     19268
     19265     19268     19269     19265     19268     19270     19265     19268     19271
     19269     19268     19270     19269     19268     19271     19270     19268     19271
     19268     19271     19272     19268     19271     19273     19268     19271     19274
     19272     19271     19273     19272     19271     19274     19273     19271     19274
     19271     19274     19275     19271     19274     19276     19271     19274     19277
     19275     19274     19276     19275     19274     19277     19276     19274     19277
     19274     19277     19278     19274     19277     19279     19274     19277     19280
     19278     19277     19279     19278     19277     19280     19279     19277     19280
     19277     19280     19281     19277     19280     19282     19277     19280     19283
     19281     19280     19282     19281     19280     19283     19282     19280     19283
     19280     19283     19284     19280     19283     19285     19280     19283     19286
     19284     19283     19285     19284     19283     19286     19285     19283     19286
     19283     19286     19287     19283     19286     19288     19283     19286     19289
     19287     19286     19288     19287     19286     19289     19288     19286     19289
     19286     19289     19290     19286     19289     19291     19286     19289     19292
     19290     19289     19291     19290     19289     19292     19291     19289     19292
     19289     19292     19293     19289     19292     19294     19289     19292     19295
     19293     19292     19294     19293     19292     19295     19294     19292     19295
     19292     19295     19296     19292     19295     19297     19292     19295     19298
     19296     19295     19297     19296     19295     19298     19297     19295     19298
     19295     19298     19299     19295     19298     19300     19295     19298     19301
     19299     19298     19300     19299     19298     19301     19300     19298     19301
     19298     19301     19302     19298     19301     19303     19298     19301     19304
     19302     19301     19303     19302     19301     19304     19303     19301     19304
     19301     19304     19305     19301     19304     19306     19301     19304     19307
     19305     19304     19306     19305     19304     19307     19306     19304     19307
     19304     19307     19308     19304     19307     19309     19304     19307     19310
     19308     19307     19309     19308     19307     19310     19309     19307     19310
     15644     15643     15648     15644     15643     15652     15644     15643     15656
     15648     15643     15652     15648     15643     15656     15652     15643     15656
     15643     15644     15645     15643     15644     15646     15643     15644     15647
     15645     15644     15646     15645     15644     15647     15646     15644     15647
     15643     15648     15649     15643     15648     15650     15643     15648     15651
     15649     15648     15650     15649     15648     15651     15650     15648     15651
     15643     15652     15653     15643     15652     15654     15643     15652     15655
     15653     15652     15654     15653     15652     15655     15654     15652     15655
     15643     15656     15657     15643     15656     15658     15643     15656     15659
     15657     15656     15658     15657     15656     15659     15658     15656     15659
     15656     15659     15660     15656     15659     15661     15656     15659     15666
     15660     15659     15661     15660     15659     15666     15661     15659     15666
     15663     15662     15664     15663     15662     15665     15663     15662     15666
     15664     15662     15665     15664     15662     15666     15665     15662     15666
     15662     15665     15667     15659     15666     15662     15665     15667     15668
     15665     15667     15669     15665     15667     15672     15668     15667     15669
     15668     15667     15672     15669     15667     15672     15671     15670     15672
     15671     15670     15722     15672     15670     15722     15667     15672     15670
     15667     15672     15673     15667     15672     15674     15670     15672     15673
     15670     15672     15674     15673     15672     15674     15672     15674     15675
     15672     15674     15676     15672     15674     15678     15675     15674     15676
     15675     15674     15678     15676     15674     15678     15674     15676     15677
     15674     15678     15679     15674     15678     15680     15679     15678     15680
     15678     15680     15681     15678     15680     15682     15681     15680     15682
     15680     15682     15683     15680     15682     15684     15680     15682     15685
     15683     15682     15684     15683     15682     15685     15684     15682     15685
     15682     15685     15686     15682     15685     15687     15682     15685     15688
     15686     15685     15687     15686     15685     15688     15687     15685     15688
     15685     15688     15689     15685     15688     15690     15685     15688     15691
     15689     15688     15690     15689     15688     15691     15690     15688     15691
     15688     15691     15692     15688     15691     15693     15688     15691     15694
     15692     15691     15693     15692     15691     15694     15693     15691     15694
     15691     15694     15695     15691     15694     15696     15691     15694     15697
     15695     15694     15696     15695     15694     15697     15696     15694     15697
     15694     15697     15698     15694     15697     15699     15694     15697     15700
     15698     15697     15699     15698     15697     15700     15699     15697     15700
     15697     15700     15701     15697     15700     15702     15697     15700     15703
     15701     15700     15702     15701     15700     15703     15702     15700     15703
     15700     15703     15704     15700     15703     15705     15700     15703     15706
     15704     15703     15705     15704     15703     15706     15705     15703     15706
     15703     15706     15707     15703     15706     15708     15703     15706     15709
     15707     15706     15708     15707     15706     15709     15708     15706     15709
     15706     15709     15710     15706     15709     15711     15706     15709     15712
     15710     15709     15711     15710     15709     15712     15711     15709     15712
     15709     15712     15713     15709     15712     15714     15709     15712     15715
     15713     15712     15714     15713     15712     15715     15714     15712     15715
     15712     15715     15716     15712     15715     15717     15712     15715     15718
     15716     15715     15717     15716     15715     15718     15717     15715     15718
     15715     15718     15719     15715     15718     15720     15715     15718     15721
     15719     15718     15720     15719     15718     15721     15720     15718     15721
     15670     15722     15723     15670     15722     15724     15723     15722     15724
     15722     15724     15725     15722     15724     15726     15722     15724     15727
     15725     15724     15726     15725     15724     15727     15726     15724     15727
     15724     15727     15728     15724     15727     15729     15724     15727     15730
     15728     15727     15729     15728     15727     15730     15729     15727     15730
     15727     15730     15731     15727     15730     15732     15727     15730     15733
     15731     15730     15732     15731     15730     15733     15732     15730     15733
     15730     15733     15734     15730     15733     15735     15730     15733     15736
     15734     15733     15735     15734     15733     15736     15735     15733     15736
     15733     15736     15737     15733     15736     15738     15733     15736     15739
     15737     15736     15738     15737     15736     15739     15738     15736     15739
     15736     15739     15740     15736     15739     15741     15736     15739     15742
     15740     15739     15741     15740     15739     15742     15741     15739     15742
     15739     15742     15743     15739     15742     15744     15739     15742     15745
     15743     15742     15744     15743     15742     15745     15744     15742     15745
     15742     15745     15746     15742     15745     15747     15746     15745     15747
     15745     15747     15748     15745     15747     15749     15748     15747     15749
     15747     15749     15750     15747     15749     15751     15747     15749     15752
     15750     15749     15751     15750     15749     15752     15751     15749     15752
     15749     15752     15753     15749     15752     15754     15749     15752     15755
     15753     15752     15754     15753     15752     15755     15754     15752     15755
     15752     15755     15756     15752     15755     15757     15752     15755     15758
     15756     15755     15757     15756     15755     15758     15757     15755     15758
     15755     15758     15759     15755     15758     15760     15755     15758     15761
     15759     15758     15760     15759     15758     15761     15760     15758     15761
     15758     15761     15762     15758     15761     15763     15758     15761     15764
     15762     15761     15763     15762     15761     15764     15763     15761     15764
     15761     15764     15765     15761     15764     15766     15761     15764     15767
     15765     15764     15766     15765     15764     15767     15766     15764     15767
     15764     15767     15768     15764     15767     15769     15764     15767     15770
     15768     15767     15769     15768     15767     15770     15769     15767     15770
     15767     15770     15771     15767     15770     15772     15767     15770     15773
     15771     15770     15772     15771     15770     15773     15772     15770     15773
     15775     15774     15779     15775     15774     15783     15775     15774     15787
     15779     15774     15783     15779     15774     15787     15783     15774     15787
     15774     15775     15776     15774     15775     15777     15774     15775     15778
     15776     15775     15777     15776     15775     15778     15777     15775     15778
     15774     15779     15780     15774     15779     15781     15774     15779     15782
     15780     15779     15781     15780     15779     15782     15781     15779     15782
     15774     15783     15784     15774     15783     15785     15774     15783     15786
     15784     15783     15785     15784     15783     15786     15785     15783     15786
     15774     15787     15788     15774     15787     15789     15774     15787     15790
     15788     15787     15789     15788     15787     15790     15789     15787     15790
     15787     15790     15791     15787     15790     15792     15787     15790     15797
     15791     15790     15792     15791     15790     15797     15792     15790     15797
     15794     15793     15795     15794     15793     15796     15794     15793     15797
     15795     15793     15796     15795     15793     15797     15796     15793     15797
     15793     15796     15798     15790     15797     15793     15796     15798     15799
     15796     15798     15800     15796     15798     15803     15799     15798     15800
     15799     15798     15803     15800     15798     15803     15802     15801     15803
     15802     15801     15853     15803     15801     15853     15798     15803     15801
     15798     15803     15804     15798     15803     15805     15801     15803     15804
     15801     15803     15805     15804     15803     15805     15803     15805     15806
     15803     15805     15807     15803     15805     15809     15806     15805     15807
     15806     15805     15809     15807     15805     15809     15805     15807     15808
     15805     15809     15810     15805     15809     15811     15810     15809     15811
     15809     15811     15812     15809     15811     15813     15812     15811     15813
     15811     15813     15814     15811     15813     15815     15811     15813     15816
     15814     15813     15815     15814     15813     15816     15815     15813     15816
     15813     15816     15817     15813     15816     15818     15813     15816     15819
     15817     15816     15818     15817     15816     15819     15818     15816     15819
     15816     15819     15820     15816     15819     15821     15816     15819     15822
     15820     15819     15821     15820     15819     15822     15821     15819     15822
     15819     15822     15823     15819     15822     15824     15819     15822     15825
     15823     15822     15824     15823     15822     15825     15824     15822     15825
     15822     15825     15826     15822     15825     15827     15822     15825     15828
     15826     15825     15827     15826     15825     15828     15827     15825     15828
     15825     15828     15829     15825     15828     15830     15825     15828     15831
     15829     15828     15830     15829     15828     15831     15830     15828     15831
     15828     15831     15832     15828     15831     15833     15828     15831     15834
     15832     15831     15833     15832     15831     15834     15833     15831     15834
     15831     15834     15835     15831     15834     15836     15831     15834     15837
     15835     15834     15836     15835     15834     15837     15836     15834     15837
     15834     15837     15838     15834     15837     15839     15834     15837     15840
     15838     15837     15839     15838     15837     15840     15839     15837     15840
     15837     15840     15841     15837     15840     15842     15837     15840     15843
     15841     15840     15842     15841     15840     15843     15842     15840     15843
     15840     15843     15844     15840     15843     15845     15840     15843     15846
     15844     15843     15845     15844     15843     15846     15845     15843     15846
     15843     15846     15847     15843     15846     15848     15843     15846     15849
     15847     15846     15848     15847     15846     15849     15848     15846     15849
     15846     15849     15850     15846     15849     15851     15846     15849     15852
     15850     15849     15851     15850     15849     15852     15851     15849     15852
     15801     15853     15854     15801     15853     15855     15854     15853     15855
     15853     15855     15856     15853     15855     15857     15853     15855     15858
     15856     15855     15857     15856     15855     15858     15857     15855     15858
     15855     15858     15859     15855     15858     15860     15855     15858     15861
     15859     15858     15860     15859     15858     15861     15860     15858     15861
     15858     15861     15862     15858     15861     15863     15858     15861     15864
     15862     15861     15863     15862     15861     15864     15863     15861     15864
     15861     15864     15865     15861     15864     15866     15861     15864     15867
     15865     15864     15866     15865     15864     15867     15866     15864     15867
     15864     15867     15868     15864     15867     15869     15864     15867     15870
     15868     15867     15869     15868     15867     15870     15869     15867     15870
     15867     15870     15871     15867     15870     15872     15867     15870     15873
     15871     15870     15872     15871     15870     15873     15872     15870     15873
     15870     15873     15874     15870     15873     15875     15870     15873     15876
     15874     15873     15875     15874     15873     15876     15875     15873     15876
     15873     15876     15877     15873     15876     15878     15877     15876     15878
     15876     15878     15879     15876     15878     15880     15879     15878     15880
     15878     15880     15881     15878     15880     15882     15878     15880     15883
     15881     15880     15882     15881     15880     15883     15882     15880     15883
     15880     15883     15884     15880     15883     15885     15880     15883     15886
     15884     15883     15885     15884     15883     15886     15885     15883     15886
     15883     15886     15887     15883     15886     15888     15883     15886     15889
     15887     15886     15888     15887     15886     15889     15888     15886     15889
     15886     15889     15890     15886     15889     15891     15886     15889     15892
     15890     15889     15891     15890     15889     15892     15891     15889     15892
     15889     15892     15893     15889     15892     15894     15889     15892     15895
     15893     15892     15894     15893     15892     15895     15894     15892     15895
     15892     15895     15896     15892     15895     15897     15892     15895     15898
     15896     15895     15897     15896     15895     15898     15897     15895     15898
     15895     15898     15899     15895     15898     15900     15895     15898     15901
     15899     15898     15900     15899     15898     15901     15900     15898     15901
     15898     15901     15902     15898     15901     15903     15898     15901     15904
     15902     15901     15903     15902     15901     15904     15903     15901     15904
     19312     19311     19313     19312     19311     19314     19312     19311     19315
     19313     19311     19314     19313     19311     19315     19314     19311     19315
     19311     19315     19316     19311     19315     19317     19311     19315     19318
     19316     19315     19317     19316     19315     19318     19317     19315     19318
     19315     19318     19319     19315     19318     19320     19315     19318     19324
     19319     19318     19320     19319     19318     19324     19320     19318     19324
     19322     19321     19323     19322     19321     19324     19322     19321     19325
     19323     19321     19324     19323     19321     19325     19324     19321     19325
     19318     19324     19321     19321     19325     19326     19325     19326     19327
     19325     19326     19328     19325     19326     19329     19327     19326     19328
     19327     19326     19329     19328     19326     19329     19326     19329     19330
     19326     19329     19331     19326     19329     19337     19330     19329     19331
     19330     19329     19337     19331     19329     19337     19329     19331     19332
     19331     19332     19333     19331     19332     19334     19333     19332     19334
     19332     19334     19335     19332     19334     19336     19332     19334     19346
     19335     19334     19336     19335     19334     19346     19336     19334     19346
     19329     19337     19338     19329     19337     19339     19329     19337     19340
     19338     19337     19339     19338     19337     19340     19339     19337     19340
     19337     19340     19341     19340     19341     19342     19340     19341     19343
     19342     19341     19343     19341     19343     19344     19341     19343     19345
     19341     19343     19393     19344     19343     19345     19344     19343     19393
     19345     19343     19393     19334     19346     19347     19334     19346     19348
     19334     19346     19349     19347     19346     19348     19347     19346     19349
     19348     19346     19349     19346     19349     19350     19346     19349     19351
     19346     19349     19352     19350     19349     19351     19350     19349     19352
     19351     19349     19352     19349     19352     19353     19349     19352     19354
     19353     19352     19354     19352     19354     19355     19352     19354     19356
     19355     19354     19356     19354     19356     19357     19354     19356     19358
     19354     19356     19359     19357     19356     19358     19357     19356     19359
     19358     19356     19359     19356     19359     19360     19356     19359     19361
     19360     19359     19361     19359     19361     19362     19359     19361     19363
     19362     19361     19363     19361     19363     19364     19361     19363     19365
     19361     19363     19366     19364     19363     19365     19364     19363     19366
     19365     19363     19366     19363     19366     19367     19363     19366     19368
     19367     19366     19368     19366     19368     19369     19366     19368     19370
     19369     19368     19370     19368     19370     19371     19368     19370     19372
     19368     19370     19373     19371     19370     19372     19371     19370     19373
     19372     19370     19373     19370     19373     19374     19370     19373     19375
     19374     19373     19375     19373     19375     19376     19373     19375     19377
     19376     19375     19377     19375     19377     19378     19375     19377     19379
     19375     19377     19380     19378     19377     19379     19378     19377     19380
     19379     19377     19380     19377     19380     19381     19377     19380     19382
     19377     19380     19383     19381     19380     19382     19381     19380     19383
     19382     19380     19383     19380     19383     19384     19380     19383     19385
     19380     19383     19386     19384     19383     19385     19384     19383     19386
     19385     19383     19386     19383     19386     19387     19383     19386     19388
     19383     19386     19389     19387     19386     19388     19387     19386     19389
     19388     19386     19389     19386     19389     19390     19386     19389     19391
     19386     19389     19392     19390     19389     19391     19390     19389     19392
     19391     19389     19392     19343     19393     19394     19343     19393     19395
     19343     19393     19396     19394     19393     19395     19394     19393     19396
     19395     19393     19396     19393     19396     19397     19393     19396     19398
     19393     19396     19399     19397     19396     19398     19397     19396     19399
     19398     19396     19399     19396     19399     19400     19396     19399     19401
     19396     19399     19402     19400     19399     19401     19400     19399     19402
     19401     19399     19402     19399     19402     19403     19399     19402     19404
     19399     19402     19405     19403     19402     19404     19403     19402     19405
     19404     19402     19405     19402     19405     19406     19402     19405     19407
     19402     19405     19408     19406     19405     19407     19406     19405     19408
     19407     19405     19408     19405     19408     19409     19405     19408     19410
     19405     19408     19411     19409     19408     19410     19409     19408     19411
     19410     19408     19411     19408     19411     19412     19408     19411     19413
     19408     19411     19414     19412     19411     19413     19412     19411     19414
     19413     19411     19414     19411     19414     19415     19411     19414     19416
     19411     19414     19417     19415     19414     19416     19415     19414     19417
     19416     19414     19417     19414     19417     19418     19414     19417     19419
     19414     19417     19420     19418     19417     19419     19418     19417     19420
     19419     19417     19420     19417     19420     19421     19417     19420     19422
     19417     19420     19423     19421     19420     19422     19421     19420     19423
     19422     19420     19423     19420     19423     19424     19420     19423     19425
     19420     19423     19426     19424     19423     19425     19424     19423     19426
     19425     19423     19426     19423     19426     19427     19423     19426     19428
     19423     19426     19429     19427     19426     19428     19427     19426     19429
     19428     19426     19429     19426     19429     19430     19426     19429     19431
     19426     19429     19432     19430     19429     19431     19430     19429     19432
     19431     19429     19432     19429     19432     19433     19429     19432     19434
     19429     19432     19435     19433     19432     19434     19433     19432     19435
     19434     19432     19435     19432     19435     19436     19432     19435     19437
     19432     19435     19438     19436     19435     19437     19436     19435     19438
     19437     19435     19438     19435     19438     19439     19435     19438     19440
     19435     19438     19441     19439     19438     19440     19439     19438     19441
     19440     19438     19441     19443     19442     19444     19443     19442     19445
     19443     19442     19446     19444     19442     19445     19444     19442     19446
     19445     19442     19446     19442     19446     19447     19442     19446     19448
     19442     19446     19449     19447     19446     19448     19447     19446     19449
     19448     19446     19449     19446     19449     19450     19446     19449     19451
     19446     19449     19455     19450     19449     19451     19450     19449     19455
     19451     19449     19455     19453     19452     19454     19453     19452     19455
     19453     19452     19456     19454     19452     19455     19454     19452     19456
     19455     19452     19456     19449     19455     19452     19452     19456     19457
     19456     19457     19458     19456     19457     19459     19456     19457     19460
     19458     19457     19459     19458     19457     19460     19459     19457     19460
     19457     19460     19461     19457     19460     19462     19457     19460     19468
     19461     19460     19462     19461     19460     19468     19462     19460     19468
     19460     19462     19463     19462     19463     19464     19462     19463     19465
     19464     19463     19465     19463     19465     19466     19463     19465     19467
     19463     19465     19477     19466     19465     19467     19466     19465     19477
     19467     19465     19477     19460     19468     19469     19460     19468     19470
     19460     19468     19471     19469     19468     19470     19469     19468     19471
     19470     19468     19471     19468     19471     19472     19471     19472     19473
     19471     19472     19474     19473     19472     19474     19472     19474     19475
     19472     19474     19476     19472     19474     19524     19475     19474     19476
     19475     19474     19524     19476     19474     19524     19465     19477     19478
     19465     19477     19479     19465     19477     19480     19478     19477     19479
     19478     19477     19480     19479     19477     19480     19477     19480     19481
     19477     19480     19482     19477     19480     19483     19481     19480     19482
     19481     19480     19483     19482     19480     19483     19480     19483     19484
     19480     19483     19485     19484     19483     19485     19483     19485     19486
     19483     19485     19487     19486     19485     19487     19485     19487     19488
     19485     19487     19489     19485     19487     19490     19488     19487     19489
     19488     19487     19490     19489     19487     19490     19487     19490     19491
     19487     19490     19492     19491     19490     19492     19490     19492     19493
     19490     19492     19494     19493     19492     19494     19492     19494     19495
     19492     19494     19496     19492     19494     19497     19495     19494     19496
     19495     19494     19497     19496     19494     19497     19494     19497     19498
     19494     19497     19499     19498     19497     19499     19497     19499     19500
     19497     19499     19501     19500     19499     19501     19499     19501     19502
     19499     19501     19503     19499     19501     19504     19502     19501     19503
     19502     19501     19504     19503     19501     19504     19501     19504     19505
     19501     19504     19506     19505     19504     19506     19504     19506     19507
     19504     19506     19508     19507     19506     19508     19506     19508     19509
     19506     19508     19510     19506     19508     19511     19509     19508     19510
     19509     19508     19511     19510     19508     19511     19508     19511     19512
     19508     19511     19513     19508     19511     19514     19512     19511     19513
     19512     19511     19514     19513     19511     19514     19511     19514     19515
     19511     19514     19516     19511     19514     19517     19515     19514     19516
     19515     19514     19517     19516     19514     19517     19514     19517     19518
     19514     19517     19519     19514     19517     19520     19518     19517     19519
     19518     19517     19520     19519     19517     19520     19517     19520     19521
     19517     19520     19522     19517     19520     19523     19521     19520     19522
     19521     19520     19523     19522     19520     19523     19474     19524     19525
     19474     19524     19526     19474     19524     19527     19525     19524     19526
     19525     19524     19527     19526     19524     19527     19524     19527     19528
     19524     19527     19529     19524     19527     19530     19528     19527     19529
     19528     19527     19530     19529     19527     19530     19527     19530     19531
     19527     19530     19532     19527     19530     19533     19531     19530     19532
     19531     19530     19533     19532     19530     19533     19530     19533     19534
     19530     19533     19535     19530     19533     19536     19534     19533     19535
     19534     19533     19536     19535     19533     19536     19533     19536     19537
     19533     19536     19538     19533     19536     19539     19537     19536     19538
     19537     19536     19539     19538     19536     19539     19536     19539     19540
     19536     19539     19541     19536     19539     19542     19540     19539     19541
     19540     19539     19542     19541     19539     19542     19539     19542     19543
     19539     19542     19544     19539     19542     19545     19543     19542     19544
     19543     19542     19545     19544     19542     19545     19542     19545     19546
     19542     19545     19547     19542     19545     19548     19546     19545     19547
     19546     19545     19548     19547     19545     19548     19545     19548     19549
     19545     19548     19550     19545     19548     19551     19549     19548     19550
     19549     19548     19551     19550     19548     19551     19548     19551     19552
     19548     19551     19553     19548     19551     19554     19552     19551     19553
     19552     19551     19554     19553     19551     19554     19551     19554     19555
     19551     19554     19556     19551     19554     19557     19555     19554     19556
     19555     19554     19557     19556     19554     19557     19554     19557     19558
     19554     19557     19559     19554     19557     19560     19558     19557     19559
     19558     19557     19560     19559     19557     19560     19557     19560     19561
     19557     19560     19562     19557     19560     19563     19561     19560     19562
     19561     19560     19563     19562     19560     19563     19560     19563     19564
     19560     19563     19565     19560     19563     19566     19564     19563     19565
     19564     19563     19566     19565     19563     19566     19563     19566     19567
     19563     19566     19568     19563     19566     19569     19567     19566     19568
     19567     19566     19569     19568     19566     19569     19566     19569     19570
     19566     19569     19571     19566     19569     19572     19570     19569     19571
     19570     19569     19572     19571     19569     19572      4072      4071      4073
      4072      4071      4075      4072      4071      4117      4073      4071      4075
      4073      4071      4117      4075      4071      4117      4071      4073      4074
      4071      4075      4076      4071      4075      4077      4071      4075      4078
      4076      4075      4077      4076      4075      4078      4077      4075      4078
      4075      4078      4079      4075      4078      4109      4079      4078      4109
      4078      4079      4080      4078      4079      4081      4080      4079      4081
      4079      4081      4082      4079      4081      4083      4079      4081      4084
      4082      4081      4083      4082      4081      4084      4083      4081      4084
      4081      4084      4085      4081      4084      4086      4081      4084      4107
      4085      4084      4086      4085      4084      4107      4086      4084      4107
      4084      4086      4087      4084      4086      4088      4084      4086      4096
      4087      4086      4088      4087      4086      4096      4088      4086      4096
      4086      4088      4089      4086      4088      4090      4086      4088      4091
      4089      4088      4090      4089      4088      4091      4090      4088      4091
      4088      4091      4092      4088      4091      4093      4088      4091      4094
      4092      4091      4093      4092      4091      4094      4093      4091      4094
      4091      4094      4095      4091      4094      4096      4091      4094      4120
      4095      4094      4096      4095      4094      4120      4096      4094      4120
      4086      4096      4094      4086      4096      4097      4086      4096      4101
      4094      4096      4097      4094      4096      4101      4097      4096      4101
      4096      4097      4098      4096      4097      4099      4096      4097      4100
      4098      4097      4099      4098      4097      4100      4099      4097      4100
      4096      4101      4102      4096      4101      4103      4096      4101      4104
      4102      4101      4103      4102      4101      4104      4103      4101      4104
      4101      4104      4105      4101      4104      4106      4101      4104      4107
      4105      4104      4106      4105      4104      4107      4106      4104      4107
      4084      4107      4104      4084      4107      4108      4084      4107      4109
      4104      4107      4108      4104      4107      4109      4108      4107      4109
      4078      4109      4107      4078      4109      4110      4078      4109      4114
      4107      4109      4110      4107      4109      4114      4110      4109      4114
      4109      4110      4111      4109      4110      4112      4109      4110      4113
      4111      4110      4112      4111      4110      4113      4112      4110      4113
      4109      4114      4115      4109      4114      4116      4109      4114      4117
      4115      4114      4116      4115      4114      4117      4116      4114      4117
      4071      4117      4114      4071      4117      4118      4071      4117      4119
      4114      4117      4118      4114      4117      4119      4118      4117      4119
      4094      4120      4121      4094      4120      4122      4094      4120      4126
      4121      4120      4122      4121      4120      4126      4122      4120      4126
      4120      4122      4123      4120      4122      4124      4120      4122      4125
      4123      4122      4124      4123      4122      4125      4124      4122      4125
      4120      4126      4127      4120      4126      4128      4120      4126      4129
      4127      4126      4128      4127      4126      4129      4128      4126      4129
      4126      4129      4130      4126      4129      4131      4126      4129      4132
      4130      4129      4131      4130      4129      4132      4131      4129      4132
      4129      4132      4133      4129      4132      4134      4129      4132      4135
      4133      4132      4134      4133      4132      4135      4134      4132      4135
      4132      4135      4136      4132      4135      4137      4132      4135      4141
      4136      4135      4137      4136      4135      4141      4137      4135      4141
      4135      4137      4138      4135      4137      4139      4135      4137      4140
      4138      4137      4139      4138      4137      4140      4139      4137      4140
      4135      4141      4142      4135      4141      4143      4135      4141      4144
      4142      4141      4143      4142      4141      4144      4143      4141      4144
     22384     22383     22385     22387     22386     22388     22390     22389     22391
     22393     22392     22394     22396     22395     22397     22399     22398     22400
     22402     22401     22403     22405     22404     22406     22408     22407     22409
     22411     22410     22412     22414     22413     22415     22417     22416     22418
     22420     22419     22421     22423     22422     22424     22426     22425     22427
     22429     22428     22430     22432     22431     22433     22435     22434     22436
     22438     22437     22439     22441     22440     22442     22444     22443     22445
     22447     22446     22448     22450     22449     22451     22453     22452     22454
     22456     22455     22457     22459     22458     22460     22462     22461     22463
     22465     22464     22466     22468     22467     22469     22471     22470     22472
     22474     22473     22475     22477     22476     22478     22480     22479     22481
     22483     22482     22484     22486     22485     22487     22489     22488     22490
     22492     22491     22493     22495     22494     22496     22498     22497     22499
     22501     22500     22502     22504     22503     22505     22507     22506     22508
     22510     22509     22511     22513     22512     22514     22516     22515     22517
     22519     22518     22520     22522     22521     22523     22525     22524     22526
     22528     22527     22529     22531     22530     22532     22534     22533     22535
     22537     22536     22538     22540     22539     22541     22543     22542     22544
     22546     22545     22547     22549     22548     22550     22552     22551     22553
     22555     22554     22556     22558     22557     22559     22561     22560     22562
     22564     22563     22565     22567     22566     22568     22570     22569     22571
     22573     22572     22574     22576     22575     22577     22579     22578     22580
     22582     22581     22583     22585     22584     22586     22588     22587     22589
     22591     22590     22592     22594     22593     22595     22597     22596     22598
     22600     22599     22601     22603     22602     22604     22606     22605     22607
     22609     22608     22610     22612     22611     22613     22615     22614     22616
     22618     22617     22619     22621     22620     22622     22624     22623     22625
     22627     22626     22628     22630     22629     22631     22633     22632     22634
     22636     22635     22637     22639     22638     22640     22642     22641     22643
     22645     22644     22646     22648     22647     22649     22651     22650     22652
     22654     22653     22655     22657     22656     22658     22660     22659     22661
     22663     22662     22664     22666     22665     22667     22669     22668     22670
     22672     22671     22673     22675     22674     22676     22678     22677     22679
     22681     22680     22682     22684     22683     22685     22687     22686     22688
     22690     22689     22691     22693     22692     22694     22696     22695     22697
     22699     22698     22700     22702     22701     22703     22705     22704     22706
     22708     22707     22709     22711     22710     22712     22714     22713     22715
     22717     22716     22718     22720     22719     22721     22723     22722     22724
     22726     22725     22727     22729     22728     22730     22732     22731     22733
     22735     22734     22736     22738     22737     22739     22741     22740     22742
     22744     22743     22745     22747     22746     22748     22750     22749     22751
     22753     22752     22754     22756     22755     22757     22759     22758     22760
     22762     22761     22763     22765     22764     22766     22768     22767     22769
     22771     22770     22772     22774     22773     22775     22777     22776     22778
     22780     22779     22781     22783     22782     22784     22786     22785     22787
     22789     22788     22790     22792     22791     22793     22795     22794     22796
     22798     22797     22799     22801     22800     22802     22804     22803     22805
     22807     22806     22808     22810     22809     22811     22813     22812     22814
     22816     22815     22817     22819     22818     22820     22822     22821     22823
     22825     22824     22826     22828     22827     22829     22831     22830     22832
     22834     22833     22835     22837     22836     22838     22840     22839     22841
     22843     22842     22844     22846     22845     22847     22849     22848     22850
     22852     22851     22853     22855     22854     22856     22858     22857     22859
     22861     22860     22862     22864     22863     22865     22867     22866     22868
     22870     22869     22871     22873     22872     22874     22876     22875     22877
     22879     22878     22880     22882     22881     22883     22885     22884     22886
     22888     22887     22889     22891     22890     22892     22894     22893     22895
     22897     22896     22898     22900     22899     22901     22903     22902     22904
     22906     22905     22907     22909     22908     22910     22912     22911     22913
     22915     22914     22916     22918     22917     22919     22921     22920     22922
     22924     22923     22925     22927     22926     22928     22930     22929     22931
     22933     22932     22934     22936     22935     22937     22939     22938     22940
     22942     22941     22943     22945     22944     22946     22948     22947     22949
     22951     22950     22952     22954     22953     22955     22957     22956     22958
     22960     22959     22961     22963     22962     22964     22966     22965     22967
     22969     22968     22970     22972     22971     22973     22975     22974     22976
     22978     22977     22979     22981     22980     22982     22984     22983     22985
     22987     22986     22988     22990     22989     22991     22993     22992     22994
     22996     22995     22997     22999     22998     23000     23002     23001     23003
     23005     23004     23006     23008     23007     23009     23011     23010     23012
     23014     23013     23015     23017     23016     23018     23020     23019     23021
     23023     23022     23024     23026     23025     23027     23029     23028     23030
     23032     23031     23033     23035     23034     23036     23038     23037     23039
     23041     23040     23042     23044     23043     23045     23047     23046     23048
     23050     23049     23051     23053     23052     23054     23056     23055     23057
     23059     23058     23060     23062     23061     23063     23065     23064     23066
     23068     23067     23069     23071     23070     23072     23074     23073     23075
     23077     23076     23078     23080     23079     23081     23083     23082     23084
     23086     23085     23087     23089     23088     23090     23092     23091     23093
     23095     23094     23096     23098     23097     23099     23101     23100     23102
     23104     23103     23105     23107     23106     23108     23110     23109     23111
     23113     23112     23114     23116     23115     23117     23119     23118     23120
     23122     23121     23123     23125     23124     23126     23128     23127     23129
     23131     23130     23132     23134     23133     23135     23137     23136     23138
     23140     23139     23141     23143     23142     23144     23146     23145     23147
     23149     23148     23150     23152     23151     23153     23155     23154     23156
     23158     23157     23159     23161     23160     23162     23164     23163     23165
     23167     23166     23168     23170     23169     23171     23173     23172     23174
     23176     23175     23177     23179     23178     23180     23182     23181     23183
     23185     23184     23186     23188     23187     23189     23191     23190     23192
     23194     23193     23195     23197     23196     23198     23200     23199     23201
     23203     23202     23204     23206     23205     23207     23209     23208     23210
     23212     23211     23213     23215     23214     23216     23218     23217     23219
     23221     23220     23222     23224     23223     23225     23227     23226     23228
     23230     23229     23231     23233     23232     23234     23236     23235     23237
     23239     23238     23240     23242     23241     23243     23245     23244     23246
     23248     23247     23249     23251     23250     23252     23254     23253     23255
     23257     23256     23258     23260     23259     23261     23263     23262     23264
     23266     23265     23267     23269     23268     23270     23272     23271     23273
     23275     23274     23276     23278     23277     23279     23281     23280     23282
     23284     23283     23285     23287     23286     23288     23290     23289     23291
     23293     23292     23294     23296     23295     23297     23299     23298     23300
     23302     23301     23303     23305     23304     23306     23308     23307     23309
     23311     23310     23312     23314     23313     23315     23317     23316     23318
     23320     23319     23321     23323     23322     23324     23326     23325     23327
     23329     23328     23330     23332     23331     23333     23335     23334     23336
     23338     23337     23339     23341     23340     23342     23344     23343     23345
     23347     23346     23348     23350     23349     23351     23353     23352     23354
     23356     23355     23357     23359     23358     23360     23362     23361     23363
     23365     23364     23366     23368     23367     23369     23371     23370     23372
     23374     23373     23375     23377     23376     23378     23380     23379     23381
     23383     23382     23384     23386     23385     23387     23389     23388     23390
     23392     23391     23393     23395     23394     23396     23398     23397     23399
     23401     23400     23402     23404     23403     23405     23407     23406     23408
     23410     23409     23411     23413     23412     23414     23416     23415     23417
     23419     23418     23420     23422     23421     23423     23425     23424     23426
     23428     23427     23429     23431     23430     23432     23434     23433     23435
     23437     23436     23438     23440     23439     23441     23443     23442     23444
     23446     23445     23447     23449     23448     23450     23452     23451     23453
     23455     23454     23456     23458     23457     23459     23461     23460     23462
     23464     23463     23465     23467     23466     23468     23470     23469     23471
     23473     23472     23474     23476     23475     23477     23479     23478     23480
     23482     23481     23483     23485     23484     23486     23488     23487     23489
     23491     23490     23492     23494     23493     23495     23497     23496     23498
     23500     23499     23501     23503     23502     23504     23506     23505     23507
     23509     23508     23510     23512     23511     23513     23515     23514     23516
     23518     23517     23519     23521     23520     23522     23524     23523     23525
     23527     23526     23528     23530     23529     23531     23533     23532     23534
     23536     23535     23537     23539     23538     23540     23542     23541     23543
     23545     23544     23546     23548     23547     23549     23551     23550     23552
     23554     23553     23555     23557     23556     23558     23560     23559     23561
     23563     23562     23564     23566     23565     23567     23569     23568     23570
     23572     23571     23573     23575     23574     23576     23578     23577     23579
     23581     23580     23582     23584     23583     23585     23587     23586     23588
     23590     23589     23591     23593     23592     23594     23596     23595     23597
     23599     23598     23600     23602     23601     23603     23605     23604     23606
     23608     23607     23609     23611     23610     23612     23614     23613     23615
     23617     23616     23618     23620     23619     23621     23623     23622     23624
     23626     23625     23627     23629     23628     23630     23632     23631     23633
     23635     23634     23636     23638     23637     23639     23641     23640     23642
     23644     23643     23645     23647     23646     23648     23650     23649     23651
     23653     23652     23654     23656     23655     23657     23659     23658     23660
     23662     23661     23663     23665     23664     23666     23668     23667     23669
     23671     23670     23672     23674     23673     23675     23677     23676     23678
     23680     23679     23681     23683     23682     23684     23686     23685     23687
     23689     23688     23690     23692     23691     23693     23695     23694     23696
     23698     23697     23699     23701     23700     23702     23704     23703     23705
     23707     23706     23708     23710     23709     23711     23713     23712     23714
     23716     23715     23717     23719     23718     23720     23722     23721     23723
     23725     23724     23726     23728     23727     23729     23731     23730     23732
     23734     23733     23735     23737     23736     23738     23740     23739     23741
     23743     23742     23744     23746     23745     23747     23749     23748     23750
     23752     23751     23753     23755     23754     23756     23758     23757     23759
     23761     23760     23762     23764     23763     23765     23767     23766     23768
     23770     23769     23771     23773     23772     23774     23776     23775     23777
     23779     23778     23780     23782     23781     23783     23785     23784     23786
     23788     23787     23789     23791     23790     23792     23794     23793     23795
     23797     23796     23798     23800     23799     23801     23803     23802     23804
     23806     23805     23807     23809     23808     23810     23812     23811     23813
     23815     23814     23816     23818     23817     23819     23821     23820     23822
     23824     23823     23825     23827     23826     23828     23830     23829     23831
     23833     23832     23834     23836     23835     23837     23839     23838     23840
     23842     23841     23843     23845     23844     23846     23848     23847     23849
     23851     23850     23852     23854     23853     23855     23857     23856     23858
     23860     23859     23861     23863     23862     23864     23866     23865     23867
     23869     23868     23870     23872     23871     23873     23875     23874     23876
     23878     23877     23879     23881     23880     23882     23884     23883     23885
     23887     23886     23888     23890     23889     23891     23893     23892     23894
     23896     23895     23897     23899     23898     23900     23902     23901     23903
     23905     23904     23906     23908     23907     23909     23911     23910     23912
     23914     23913     23915     23917     23916     23918     23920     23919     23921
     23923     23922     23924     23926     23925     23927     23929     23928     23930
     23932     23931     23933     23935     23934     23936     23938     23937     23939
     23941     23940     23942     23944     23943     23945     23947     23946     23948
     23950     23949     23951     23953     23952     23954     23956     23955     23957
     23959     23958     23960     23962     23961     23963     23965     23964     23966
     23968     23967     23969     23971     23970     23972     23974     23973     23975
     23977     23976     23978     23980     23979     23981     23983     23982     23984
     23986     23985     23987     23989     23988     23990     23992     23991     23993
     23995     23994     23996     23998     23997     23999     24001     24000     24002
     24004     24003     24005     24007     24006     24008     24010     24009     24011
     24013     24012     24014     24016     24015     24017     24019     24018     24020
     24022     24021     24023     24025     24024     24026     24028     24027     24029
     24031     24030     24032     24034     24033     24035     24037     24036     24038
     24040     24039     24041     24043     24042     24044     24046     24045     24047
     24049     24048     24050     24052     24051     24053     24055     24054     24056
     24058     24057     24059     24061     24060     24062     24064     24063     24065
     24067     24066     24068     24070     24069     24071     24073     24072     24074
     24076     24075     24077     24079     24078     24080     24082     24081     24083
     24085     24084     24086     24088     24087     24089     24091     24090     24092
     24094     24093     24095     24097     24096     24098     24100     24099     24101
     24103     24102     24104     24106     24105     24107     24109     24108     24110
     24112     24111     24113     24115     24114     24116     24118     24117     24119
     24121     24120     24122     24124     24123     24125     24127     24126     24128
     24130     24129     24131     24133     24132     24134     24136     24135     24137
     24139     24138     24140     24142     24141     24143     24145     24144     24146
     24148     24147     24149     24151     24150     24152     24154     24153     24155
     24157     24156     24158     24160     24159     24161     24163     24162     24164
     24166     24165     24167     24169     24168     24170     24172     24171     24173
     24175     24174     24176     24178     24177     24179     24181     24180     24182
     24184     24183     24185     24187     24186     24188     24190     24189     24191
     24193     24192     24194     24196     24195     24197     24199     24198     24200
     24202     24201     24203     24205     24204     24206     24208     24207     24209
     24211     24210     24212     24214     24213     24215     24217     24216     24218
     24220     24219     24221     24223     24222     24224     24226     24225     24227
     24229     24228     24230     24232     24231     24233     24235     24234     24236
     24238     24237     24239     24241     24240     24242     24244     24243     24245
     24247     24246     24248     24250     24249     24251     24253     24252     24254
     24256     24255     24257     24259     24258     24260     24262     24261     24263
     24265     24264     24266     24268     24267     24269     24271     24270     24272
     24274     24273     24275     24277     24276     24278     24280     24279     24281
     24283     24282     24284     24286     24285     24287     24289     24288     24290
     24292     24291     24293     24295     24294     24296     24298     24297     24299
     24301     24300     24302     24304     24303     24305     24307     24306     24308
     24310     24309     24311     24313     24312     24314     24316     24315     24317
     24319     24318     24320     24322     24321     24323     24325     24324     24326
     24328     24327     24329     24331     24330     24332     24334     24333     24335
     24337     24336     24338     24340     24339     24341     24343     24342     24344
     24346     24345     24347     24349     24348     24350     24352     24351     24353
     24355     24354     24356     24358     24357     24359     24361     24360     24362
     24364     24363     24365     24367     24366     24368     24370     24369     24371
     24373     24372     24374     24376     24375     24377     24379     24378     24380
     24382     24381     24383     24385     24384     24386     24388     24387     24389
     24391     24390     24392     24394     24393     24395     24397     24396     24398
     24400     24399     24401     24403     24402     24404     24406     24405     24407
     24409     24408     24410     24412     24411     24413     24415     24414     24416
     24418     24417     24419     24421     24420     24422     24424     24423     24425
     24427     24426     24428     24430     24429     24431     24433     24432     24434
     24436     24435     24437     24439     24438     24440     24442     24441     24443
     24445     24444     24446     24448     24447     24449     24451     24450     24452
     24454     24453     24455     24457     24456     24458     24460     24459     24461
     24463     24462     24464     24466     24465     24467     24469     24468     24470
     24472     24471     24473     24475     24474     24476     24478     24477     24479
     24481     24480     24482     24484     24483     24485     24487     24486     24488
     24490     24489     24491     24493     24492     24494     24496     24495     24497
     24499     24498     24500     24502     24501     24503     24505     24504     24506
     24508     24507     24509     24511     24510     24512     24514     24513     24515
     24517     24516     24518     24520     24519     24521     24523     24522     24524
     24526     24525     24527     24529     24528     24530     24532     24531     24533
     24535     24534     24536     24538     24537     24539     24541     24540     24542
     24544     24543     24545     24547     24546     24548     24550     24549     24551
     24553     24552     24554     24556     24555     24557     24559     24558     24560
     24562     24561     24563     24565     24564     24566     24568     24567     24569
     24571     24570     24572     24574     24573     24575     24577     24576     24578
     24580     24579     24581     24583     24582     24584     24586     24585     24587
     24589     24588     24590     24592     24591     24593     24595     24594     24596
     24598     24597     24599     24601     24600     24602     24604     24603     24605
     24607     24606     24608     24610     24609     24611     24613     24612     24614
     24616     24615     24617     24619     24618     24620     24622     24621     24623
     24625     24624     24626     24628     24627     24629     24631     24630     24632
     24634     24633     24635     24637     24636     24638     24640     24639     24641
     24643     24642     24644     24646     24645     24647     24649     24648     24650
     24652     24651     24653     24655     24654     24656     24658     24657     24659
     24661     24660     24662     24664     24663     24665     24667     24666     24668
     24670     24669     24671     24673     24672     24674     24676     24675     24677
     24679     24678     24680     24682     24681     24683     24685     24684     24686
     24688     24687     24689     24691     24690     24692     24694     24693     24695
     24697     24696     24698     24700     24699     24701     24703     24702     24704
     24706     24705     24707     24709     24708     24710     24712     24711     24713
     24715     24714     24716     24718     24717     24719     24721     24720     24722
     24724     24723     24725     24727     24726     24728     24730     24729     24731
     24733     24732     24734     24736     24735     24737     24739     24738     24740
     24742     24741     24743     24745     24744     24746     24748     24747     24749
     24751     24750     24752     24754     24753     24755     24757     24756     24758
     24760     24759     24761     24763     24762     24764     24766     24765     24767
     24769     24768     24770     24772     24771     24773     24775     24774     24776
     24778     24777     24779     24781     24780     24782     24784     24783     24785
     24787     24786     24788     24790     24789     24791     24793     24792     24794
     24796     24795     24797     24799     24798     24800     24802     24801     24803
     24805     24804     24806     24808     24807     24809     24811     24810     24812
     24814     24813     24815     24817     24816     24818     24820     24819     24821
     24823     24822     24824     24826     24825     24827     24829     24828     24830
     24832     24831     24833     24835     24834     24836     24838     24837     24839
     24841     24840     24842     24844     24843     24845     24847     24846     24848
     24850     24849     24851     24853     24852     24854     24856     24855     24857
     24859     24858     24860     24862     24861     24863     24865     24864     24866
     24868     24867     24869     24871     24870     24872     24874     24873     24875
     24877     24876     24878     24880     24879     24881     24883     24882     24884
     24886     24885     24887     24889     24888     24890     24892     24891     24893
     24895     24894     24896     24898     24897     24899     24901     24900     24902
     24904     24903     24905     24907     24906     24908     24910     24909     24911
     24913     24912     24914     24916     24915     24917     24919     24918     24920
     24922     24921     24923     24925     24924     24926     24928     24927     24929
     24931     24930     24932     24934     24933     24935     24937     24936     24938
     24940     24939     24941     24943     24942     24944     24946     24945     24947
     24949     24948     24950     24952     24951     24953     24955     24954     24956
     24958     24957     24959     24961     24960     24962     24964     24963     24965
     24967     24966     24968     24970     24969     24971     24973     24972     24974
     24976     24975     24977     24979     24978     24980     24982     24981     24983
     24985     24984     24986     24988     24987     24989     24991     24990     24992
     24994     24993     24995     24997     24996     24998     25000     24999     25001
     25003     25002     25004     25006     25005     25007     25009     25008     25010
     25012     25011     25013     25015     25014     25016     25018     25017     25019
     25021     25020     25022     25024     25023     25025     25027     25026     25028
     25030     25029     25031     25033     25032     25034     25036     25035     25037
     25039     25038     25040     25042     25041     25043     25045     25044     25046
     25048     25047     25049     25051     25050     25052     25054     25053     25055
     25057     25056     25058     25060     25059     25061     25063     25062     25064
     25066     25065     25067     25069     25068     25070     25072     25071     25073
     25075     25074     25076     25078     25077     25079     25081     25080     25082
     25084     25083     25085     25087     25086     25088     25090     25089     25091
     25093     25092     25094     25096     25095     25097     25099     25098     25100
     25102     25101     25103     25105     25104     25106     25108     25107     25109
     25111     25110     25112     25114     25113     25115     25117     25116     25118
     25120     25119     25121     25123     25122     25124     25126     25125     25127
     25129     25128     25130     25132     25131     25133     25135     25134     25136
     25138     25137     25139     25141     25140     25142     25144     25143     25145
     25147     25146     25148     25150     25149     25151     25153     25152     25154
     25156     25155     25157     25159     25158     25160     25162     25161     25163
     25165     25164     25166     25168     25167     25169     25171     25170     25172
     25174     25173     25175     25177     25176     25178     25180     25179     25181
     25183     25182     25184     25186     25185     25187     25189     25188     25190
     25192     25191     25193     25195     25194     25196     25198     25197     25199
     25201     25200     25202     25204     25203     25205     25207     25206     25208
     25210     25209     25211     25213     25212     25214     25216     25215     25217
     25219     25218     25220     25222     25221     25223     25225     25224     25226
     25228     25227     25229     25231     25230     25232     25234     25233     25235
     25237     25236     25238     25240     25239     25241     25243     25242     25244
     25246     25245     25247     25249     25248     25250     25252     25251     25253
     25255     25254     25256     25258     25257     25259     25261     25260     25262
     25264     25263     25265     25267     25266     25268     25270     25269     25271
     25273     25272     25274     25276     25275     25277     25279     25278     25280
     25282     25281     25283     25285     25284     25286     25288     25287     25289
     25291     25290     25292     25294     25293     25295     25297     25296     25298
     25300     25299     25301     25303     25302     25304     25306     25305     25307
     25309     25308     25310     25312     25311     25313     25315     25314     25316
     25318     25317     25319     25321     25320     25322     25324     25323     25325
     25327     25326     25328     25330     25329     25331     25333     25332     25334
     25336     25335     25337     25339     25338     25340     25342     25341     25343
     25345     25344     25346     25348     25347     25349     25351     25350     25352
     25354     25353     25355     25357     25356     25358     25360     25359     25361
     25363     25362     25364     25366     25365     25367     25369     25368     25370
     25372     25371     25373     25375     25374     25376     25378     25377     25379
     25381     25380     25382     25384     25383     25385     25387     25386     25388
     25390     25389     25391     25393     25392     25394     25396     25395     25397
     25399     25398     25400     25402     25401     25403     25405     25404     25406
     25408     25407     25409     25411     25410     25412     25414     25413     25415
     25417     25416     25418     25420     25419     25421     25423     25422     25424
     25426     25425     25427     25429     25428     25430     25432     25431     25433
     25435     25434     25436     25438     25437     25439     25441     25440     25442
     25444     25443     25445     25447     25446     25448     25450     25449     25451
     25453     25452     25454     25456     25455     25457     25459     25458     25460
     25462     25461     25463     25465     25464     25466     25468     25467     25469
     25471     25470     25472     25474     25473     25475     25477     25476     25478
     25480     25479     25481     25483     25482     25484     25486     25485     25487
     25489     25488     25490     25492     25491     25493     25495     25494     25496
     25498     25497     25499     25501     25500     25502     25504     25503     25505
     25507     25506     25508     25510     25509     25511     25513     25512     25514
     25516     25515     25517     25519     25518     25520     25522     25521     25523
     25525     25524     25526     25528     25527     25529     25531     25530     25532
     25534     25533     25535     25537     25536     25538     25540     25539     25541
     25543     25542     25544     25546     25545     25547     25549     25548     25550
     25552     25551     25553     25555     25554     25556     25558     25557     25559
     25561     25560     25562     25564     25563     25565     25567     25566     25568
     25570     25569     25571     25573     25572     25574     25576     25575     25577
     25579     25578     25580     25582     25581     25583     25585     25584     25586
     25588     25587     25589     25591     25590     25592     25594     25593     25595
     25597     25596     25598     25600     25599     25601     25603     25602     25604
     25606     25605     25607     25609     25608     25610     25612     25611     25613
     25615     25614     25616     25618     25617     25619     25621     25620     25622
     25624     25623     25625     25627     25626     25628     25630     25629     25631
     25633     25632     25634     25636     25635     25637     25639     25638     25640
     25642     25641     25643     25645     25644     25646     25648     25647     25649
     25651     25650     25652     25654     25653     25655     25657     25656     25658
     25660     25659     25661     25663     25662     25664     25666     25665     25667
     25669     25668     25670     25672     25671     25673     25675     25674     25676
     25678     25677     25679     25681     25680     25682     25684     25683     25685
     25687     25686     25688     25690     25689     25691     25693     25692     25694
     25696     25695     25697     25699     25698     25700     25702     25701     25703
     25705     25704     25706     25708     25707     25709     25711     25710     25712
     25714     25713     25715     25717     25716     25718     25720     25719     25721
     25723     25722     25724     25726     25725     25727     25729     25728     25730
     25732     25731     25733     25735     25734     25736     25738     25737     25739
     25741     25740     25742     25744     25743     25745     25747     25746     25748
     25750     25749     25751     25753     25752     25754     25756     25755     25757
     25759     25758     25760     25762     25761     25763     25765     25764     25766
     25768     25767     25769     25771     25770     25772     25774     25773     25775
     25777     25776     25778     25780     25779     25781     25783     25782     25784
     25786     25785     25787     25789     25788     25790     25792     25791     25793
     25795     25794     25796     25798     25797     25799     25801     25800     25802
     25804     25803     25805     25807     25806     25808     25810     25809     25811
     25813     25812     25814     25816     25815     25817     25819     25818     25820
     25822     25821     25823     25825     25824     25826     25828     25827     25829
     25831     25830     25832     25834     25833     25835     25837     25836     25838
     25840     25839     25841     25843     25842     25844     25846     25845     25847
     25849     25848     25850     25852     25851     25853     25855     25854     25856
     25858     25857     25859     25861     25860     25862     25864     25863     25865
     25867     25866     25868     25870     25869     25871     25873     25872     25874
     25876     25875     25877     25879     25878     25880     25882     25881     25883
     25885     25884     25886     25888     25887     25889     25891     25890     25892
     25894     25893     25895     25897     25896     25898     25900     25899     25901
     25903     25902     25904     25906     25905     25907     25909     25908     25910
     25912     25911     25913     25915     25914     25916     25918     25917     25919
     25921     25920     25922     25924     25923     25925     25927     25926     25928
     25930     25929     25931     25933     25932     25934     25936     25935     25937
     25939     25938     25940     25942     25941     25943     25945     25944     25946
     25948     25947     25949     25951     25950     25952     25954     25953     25955
     25957     25956     25958     25960     25959     25961     25963     25962     25964
     25966     25965     25967     25969     25968     25970     25972     25971     25973
     25975     25974     25976     25978     25977     25979     25981     25980     25982
     25984     25983     25985     25987     25986     25988     25990     25989     25991
     25993     25992     25994     25996     25995     25997     25999     25998     26000
     26002     26001     26003     26005     26004     26006     26008     26007     26009
     26011     26010     26012     26014     26013     26015     26017     26016     26018
     26020     26019     26021     26023     26022     26024     26026     26025     26027
     26029     26028     26030     26032     26031     26033     26035     26034     26036
     26038     26037     26039     26041     26040     26042     26044     26043     26045
     26047     26046     26048     26050     26049     26051     26053     26052     26054
     26056     26055     26057     26059     26058     26060     26062     26061     26063
     26065     26064     26066     26068     26067     26069     26071     26070     26072
     26074     26073     26075     26077     26076     26078     26080     26079     26081
     26083     26082     26084     26086     26085     26087     26089     26088     26090
     26092     26091     26093     26095     26094     26096     26098     26097     26099
     26101     26100     26102     26104     26103     26105     26107     26106     26108
     26110     26109     26111     26113     26112     26114     26116     26115     26117
     26119     26118     26120     26122     26121     26123     26125     26124     26126
     26128     26127     26129     26131     26130     26132     26134     26133     26135
     26137     26136     26138     26140     26139     26141     26143     26142     26144
     26146     26145     26147     26149     26148     26150     26152     26151     26153
     26155     26154     26156     26158     26157     26159     26161     26160     26162
     26164     26163     26165     26167     26166     26168     26170     26169     26171
     26173     26172     26174     26176     26175     26177     26179     26178     26180
     26182     26181     26183     26185     26184     26186     26188     26187     26189
     26191     26190     26192     26194     26193     26195     26197     26196     26198
     26200     26199     26201     26203     26202     26204     26206     26205     26207
     26209     26208     26210     26212     26211     26213     26215     26214     26216
     26218     26217     26219     26221     26220     26222     26224     26223     26225
     26227     26226     26228     26230     26229     26231     26233     26232     26234
     26236     26235     26237     26239     26238     26240     26242     26241     26243
     26245     26244     26246     26248     26247     26249     26251     26250     26252
     26254     26253     26255     26257     26256     26258     26260     26259     26261
     26263     26262     26264     26266     26265     26267     26269     26268     26270
     26272     26271     26273     26275     26274     26276     26278     26277     26279
     26281     26280     26282     26284     26283     26285     26287     26286     26288
     26290     26289     26291     26293     26292     26294     26296     26295     26297
     26299     26298     26300     26302     26301     26303     26305     26304     26306
     26308     26307     26309     26311     26310     26312     26314     26313     26315
     26317     26316     26318     26320     26319     26321     26323     26322     26324
     26326     26325     26327     26329     26328     26330     26332     26331     26333
     26335     26334     26336     26338     26337     26339     26341     26340     26342
     26344     26343     26345     26347     26346     26348     26350     26349     26351
     26353     26352     26354     26356     26355     26357     26359     26358     26360
     26362     26361     26363     26365     26364     26366     26368     26367     26369
     26371     26370     26372     26374     26373     26375     26377     26376     26378
     26380     26379     26381     26383     26382     26384     26386     26385     26387
     26389     26388     26390     26392     26391     26393     26395     26394     26396
     26398     26397     26399     26401     26400     26402     26404     26403     26405
     26407     26406     26408     26410     26409     26411     26413     26412     26414
     26416     26415     26417     26419     26418     26420     26422     26421     26423
     26425     26424     26426     26428     26427     26429     26431     26430     26432
     26434     26433     26435     26437     26436     26438     26440     26439     26441
     26443     26442     26444     26446     26445     26447     26449     26448     26450
     26452     26451     26453     26455     26454     26456     26458     26457     26459
     26461     26460     26462     26464     26463     26465     26467     26466     26468
     26470     26469     26471     26473     26472     26474     26476     26475     26477
     26479     26478     26480     26482     26481     26483     26485     26484     26486
     26488     26487     26489     26491     26490     26492     26494     26493     26495
     26497     26496     26498     26500     26499     26501     26503     26502     26504
     26506     26505     26507     26509     26508     26510     26512     26511     26513
     26515     26514     26516     26518     26517     26519     26521     26520     26522
     26524     26523     26525     26527     26526     26528     26530     26529     26531
     26533     26532     26534     26536     26535     26537     26539     26538     26540
     26542     26541     26543     26545     26544     26546     26548     26547     26549
     26551     26550     26552     26554     26553     26555     26557     26556     26558
     26560     26559     26561     26563     26562     26564     26566     26565     26567
     26569     26568     26570     26572     26571     26573     26575     26574     26576
     26578     26577     26579     26581     26580     26582     26584     26583     26585
     26587     26586     26588     26590     26589     26591     26593     26592     26594
     26596     26595     26597     26599     26598     26600     26602     26601     26603
     26605     26604     26606     26608     26607     26609     26611     26610     26612
     26614     26613     26615     26617     26616     26618     26620     26619     26621
     26623     26622     26624     26626     26625     26627     26629     26628     26630
     26632     26631     26633     26635     26634     26636     26638     26637     26639
     26641     26640     26642     26644     26643     26645     26647     26646     26648
     26650     26649     26651     26653     26652     26654     26656     26655     26657
     26659     26658     26660     26662     26661     26663     26665     26664     26666
     26668     26667     26669     26671     26670     26672     26674     26673     26675
     26677     26676     26678     26680     26679     26681     26683     26682     26684
     26686     26685     26687     26689     26688     26690     26692     26691     26693
     26695     26694     26696     26698     26697     26699     26701     26700     26702
     26704     26703     26705     26707     26706     26708     26710     26709     26711
     26713     26712     26714     26716     26715     26717     26719     26718     26720
     26722     26721     26723     26725     26724     26726     26728     26727     26729
     26731     26730     26732     26734     26733     26735     26737     26736     26738
     26740     26739     26741     26743     26742     26744     26746     26745     26747
     26749     26748     26750     26752     26751     26753     26755     26754     26756
     26758     26757     26759     26761     26760     26762     26764     26763     26765
     26767     26766     26768     26770     26769     26771     26773     26772     26774
     26776     26775     26777     26779     26778     26780     26782     26781     26783
     26785     26784     26786     26788     26787     26789     26791     26790     26792
     26794     26793     26795     26797     26796     26798     26800     26799     26801
     26803     26802     26804     26806     26805     26807     26809     26808     26810
     26812     26811     26813     26815     26814     26816     26818     26817     26819
     26821     26820     26822     26824     26823     26825     26827     26826     26828
     26830     26829     26831     26833     26832     26834     26836     26835     26837
     26839     26838     26840     26842     26841     26843     26845     26844     26846
     26848     26847     26849     26851     26850     26852     26854     26853     26855
     26857     26856     26858     26860     26859     26861     26863     26862     26864
     26866     26865     26867     26869     26868     26870     26872     26871     26873
     26875     26874     26876     26878     26877     26879     26881     26880     26882
     26884     26883     26885     26887     26886     26888     26890     26889     26891
     26893     26892     26894     26896     26895     26897     26899     26898     26900
     26902     26901     26903     26905     26904     26906     26908     26907     26909
     26911     26910     26912     26914     26913     26915     26917     26916     26918
     26920     26919     26921     26923     26922     26924     26926     26925     26927
     26929     26928     26930     26932     26931     26933     26935     26934     26936
     26938     26937     26939     26941     26940     26942     26944     26943     26945
     26947     26946     26948     26950     26949     26951     26953     26952     26954
     26956     26955     26957     26959     26958     26960     26962     26961     26963
     26965     26964     26966     26968     26967     26969     26971     26970     26972
     26974     26973     26975     26977     26976     26978     26980     26979     26981
     26983     26982     26984     26986     26985     26987     26989     26988     26990
     26992     26991     26993     26995     26994     26996     26998     26997     26999
     27001     27000     27002     27004     27003     27005     27007     27006     27008
     27010     27009     27011     27013     27012     27014     27016     27015     27017
     27019     27018     27020     27022     27021     27023     27025     27024     27026
     27028     27027     27029     27031     27030     27032     27034     27033     27035
     27037     27036     27038     27040     27039     27041     27043     27042     27044
     27046     27045     27047     27049     27048     27050     27052     27051     27053
     27055     27054     27056     27058     27057     27059     27061     27060     27062
     27064     27063     27065     27067     27066     27068     27070     27069     27071
     27073     27072     27074     27076     27075     27077     27079     27078     27080
     27082     27081     27083     27085     27084     27086     27088     27087     27089
     27091     27090     27092     27094     27093     27095     27097     27096     27098
     27100     27099     27101     27103     27102     27104     27106     27105     27107
     27109     27108     27110     27112     27111     27113     27115     27114     27116
     27118     27117     27119     27121     27120     27122     27124     27123     27125
     27127     27126     27128     27130     27129     27131     27133     27132     27134
     27136     27135     27137     27139     27138     27140     27142     27141     27143
     27145     27144     27146     27148     27147     27149     27151     27150     27152
     27154     27153     27155     27157     27156     27158     27160     27159     27161
     27163     27162     27164     27166     27165     27167     27169     27168     27170
     27172     27171     27173     27175     27174     27176     27178     27177     27179
     27181     27180     27182     27184     27183     27185     27187     27186     27188
     27190     27189     27191     27193     27192     27194     27196     27195     27197
     27199     27198     27200     27202     27201     27203     27205     27204     27206
     27208     27207     27209     27211     27210     27212     27214     27213     27215
     27217     27216     27218     27220     27219     27221     27223     27222     27224
     27226     27225     27227     27229     27228     27230     27232     27231     27233
     27235     27234     27236     27238     27237     27239     27241     27240     27242
     27244     27243     27245     27247     27246     27248     27250     27249     27251
     27253     27252     27254     27256     27255     27257     27259     27258     27260
     27262     27261     27263     27265     27264     27266     27268     27267     27269
     27271     27270     27272     27274     27273     27275     27277     27276     27278
     27280     27279     27281     27283     27282     27284     27286     27285     27287
     27289     27288     27290     27292     27291     27293     27295     27294     27296
     27298     27297     27299     27301     27300     27302     27304     27303     27305
     27307     27306     27308     27310     27309     27311     27313     27312     27314
     27316     27315     27317     27319     27318     27320     27322     27321     27323
     27325     27324     27326     27328     27327     27329     27331     27330     27332
     27334     27333     27335     27337     27336     27338     27340     27339     27341
     27343     27342     27344     27346     27345     27347     27349     27348     27350
     27352     27351     27353     27355     27354     27356     27358     27357     27359
     27361     27360     27362     27364     27363     27365     27367     27366     27368
     27370     27369     27371     27373     27372     27374     27376     27375     27377
     27379     27378     27380     27382     27381     27383     27385     27384     27386
     27388     27387     27389     27391     27390     27392     27394     27393     27395
     27397     27396     27398     27400     27399     27401     27403     27402     27404
     27406     27405     27407     27409     27408     27410     27412     27411     27413
     27415     27414     27416     27418     27417     27419     27421     27420     27422
     27424     27423     27425     27427     27426     27428     27430     27429     27431
     27433     27432     27434     27436     27435     27437     27439     27438     27440
     27442     27441     27443     27445     27444     27446     27448     27447     27449
     27451     27450     27452     27454     27453     27455     27457     27456     27458
     27460     27459     27461     27463     27462     27464     27466     27465     27467
     27469     27468     27470     27472     27471     27473     27475     27474     27476
     27478     27477     27479     27481     27480     27482     27484     27483     27485
     27487     27486     27488     27490     27489     27491     27493     27492     27494
     27496     27495     27497     27499     27498     27500     27502     27501     27503
     27505     27504     27506     27508     27507     27509     27511     27510     27512
     27514     27513     27515     27517     27516     27518     27520     27519     27521
     27523     27522     27524     27526     27525     27527     27529     27528     27530
     27532     27531     27533     27535     27534     27536     27538     27537     27539
     27541     27540     27542     27544     27543     27545     27547     27546     27548
     27550     27549     27551     27553     27552     27554     27556     27555     27557
     27559     27558     27560     27562     27561     27563     27565     27564     27566
     27568     27567     27569     27571     27570     27572     27574     27573     27575
     27577     27576     27578     27580     27579     27581     27583     27582     27584
     27586     27585     27587     27589     27588     27590     27592     27591     27593
     27595     27594     27596     27598     27597     27599     27601     27600     27602
     27604     27603     27605     27607     27606     27608     27610     27609     27611
     27613     27612     27614     27616     27615     27617     27619     27618     27620
     27622     27621     27623     27625     27624     27626     27628     27627     27629
     27631     27630     27632     27634     27633     27635     27637     27636     27638
     27640     27639     27641     27643     27642     27644     27646     27645     27647
     27649     27648     27650     27652     27651     27653     27655     27654     27656
     27658     27657     27659     27661     27660     27662     27664     27663     27665
     27667     27666     27668     27670     27669     27671     27673     27672     27674
     27676     27675     27677     27679     27678     27680     27682     27681     27683
     27685     27684     27686     27688     27687     27689     27691     27690     27692
     27694     27693     27695     27697     27696     27698     27700     27699     27701
     27703     27702     27704     27706     27705     27707     27709     27708     27710
     27712     27711     27713     27715     27714     27716     27718     27717     27719
     27721     27720     27722     27724     27723     27725     27727     27726     27728
     27730     27729     27731     27733     27732     27734     27736     27735     27737
     27739     27738     27740     27742     27741     27743     27745     27744     27746
     27748     27747     27749     27751     27750     27752     27754     27753     27755
     27757     27756     27758     27760     27759     27761     27763     27762     27764
     27766     27765     27767     27769     27768     27770     27772     27771     27773
     27775     27774     27776     27778     27777     27779     27781     27780     27782
     27784     27783     27785     27787     27786     27788     27790     27789     27791
     27793     27792     27794     27796     27795     27797     27799     27798     27800
     27802     27801     27803     27805     27804     27806     27808     27807     27809
     27811     27810     27812     27814     27813     27815     27817     27816     27818
     27820     27819     27821     27823     27822     27824     27826     27825     27827
     27829     27828     27830     27832     27831     27833     27835     27834     27836
     27838     27837     27839     27841     27840     27842     27844     27843     27845
     27847     27846     27848     27850     27849     27851     27853     27852     27854
     27856     27855     27857     27859     27858     27860     27862     27861     27863
     27865     27864     27866     27868     27867     27869     27871     27870     27872
     27874     27873     27875     27877     27876     27878     27880     27879     27881
     27883     27882     27884     27886     27885     27887     27889     27888     27890
     27892     27891     27893     27895     27894     27896     27898     27897     27899
     27901     27900     27902     27904     27903     27905     27907     27906     27908
     27910     27909     27911     27913     27912     27914     27916     27915     27917
     27919     27918     27920     27922     27921     27923     27925     27924     27926
     27928     27927     27929     27931     27930     27932     27934     27933     27935
     27937     27936     27938     27940     27939     27941     27943     27942     27944
     27946     27945     27947     27949     27948     27950     27952     27951     27953
     27955     27954     27956     27958     27957     27959     27961     27960     27962
     27964     27963     27965     27967     27966     27968     27970     27969     27971
     27973     27972     27974     27976     27975     27977     27979     27978     27980
     27982     27981     27983     27985     27984     27986     27988     27987     27989
     27991     27990     27992     27994     27993     27995     27997     27996     27998
     28000     27999     28001     28003     28002     28004     28006     28005     28007
     28009     28008     28010     28012     28011     28013     28015     28014     28016
     28018     28017     28019     28021     28020     28022     28024     28023     28025
     28027     28026     28028     28030     28029     28031     28033     28032     28034
     28036     28035     28037     28039     28038     28040     28042     28041     28043
     28045     28044     28046     28048     28047     28049     28051     28050     28052
     28054     28053     28055     28057     28056     28058     28060     28059     28061
     28063     28062     28064     28066     28065     28067     28069     28068     28070
     28072     28071     28073     28075     28074     28076     28078     28077     28079
     28081     28080     28082     28084     28083     28085     28087     28086     28088
     28090     28089     28091     28093     28092     28094     28096     28095     28097
     28099     28098     28100     28102     28101     28103     28105     28104     28106
     28108     28107     28109     28111     28110     28112     28114     28113     28115
     28117     28116     28118     28120     28119     28121     28123     28122     28124
     28126     28125     28127     28129     28128     28130     28132     28131     28133
     28135     28134     28136     28138     28137     28139     28141     28140     28142
     28144     28143     28145     28147     28146     28148     28150     28149     28151
     28153     28152     28154     28156     28155     28157     28159     28158     28160
     28162     28161     28163     28165     28164     28166     28168     28167     28169
     28171     28170     28172     28174     28173     28175     28177     28176     28178
     28180     28179     28181     28183     28182     28184     28186     28185     28187
     28189     28188     28190     28192     28191     28193     28195     28194     28196
     28198     28197     28199     28201     28200     28202     28204     28203     28205
     28207     28206     28208     28210     28209     28211     28213     28212     28214
     28216     28215     28217     28219     28218     28220     28222     28221     28223
     28225     28224     28226     28228     28227     28229     28231     28230     28232
     28234     28233     28235     28237     28236     28238     28240     28239     28241
     28243     28242     28244     28246     28245     28247     28249     28248     28250
     28252     28251     28253     28255     28254     28256     28258     28257     28259
     28261     28260     28262     28264     28263     28265     28267     28266     28268
     28270     28269     28271     28273     28272     28274     28276     28275     28277
     28279     28278     28280     28282     28281     28283     28285     28284     28286
     28288     28287     28289     28291     28290     28292     28294     28293     28295
     28297     28296     28298     28300     28299     28301     28303     28302     28304
     28306     28305     28307     28309     28308     28310     28312     28311     28313
     28315     28314     28316     28318     28317     28319     28321     28320     28322
     28324     28323     28325     28327     28326     28328     28330     28329     28331
     28333     28332     28334     28336     28335     28337     28339     28338     28340
     28342     28341     28343     28345     28344     28346     28348     28347     28349
     28351     28350     28352     28354     28353     28355     28357     28356     28358
     28360     28359     28361     28363     28362     28364     28366     28365     28367
     28369     28368     28370     28372     28371     28373     28375     28374     28376
     28378     28377     28379     28381     28380     28382     28384     28383     28385
     28387     28386     28388     28390     28389     28391     28393     28392     28394
     28396     28395     28397     28399     28398     28400     28402     28401     28403
     28405     28404     28406     28408     28407     28409     28411     28410     28412
     28414     28413     28415     28417     28416     28418     28420     28419     28421
     28423     28422     28424     28426     28425     28427     28429     28428     28430
     28432     28431     28433     28435     28434     28436     28438     28437     28439
     28441     28440     28442     28444     28443     28445     28447     28446     28448
     28450     28449     28451     28453     28452     28454     28456     28455     28457
     28459     28458     28460     28462     28461     28463     28465     28464     28466
     28468     28467     28469     28471     28470     28472     28474     28473     28475
     28477     28476     28478     28480     28479     28481     28483     28482     28484
     28486     28485     28487     28489     28488     28490     28492     28491     28493
     28495     28494     28496     28498     28497     28499     28501     28500     28502
     28504     28503     28505     28507     28506     28508     28510     28509     28511
     28513     28512     28514     28516     28515     28517     28519     28518     28520
     28522     28521     28523     28525     28524     28526     28528     28527     28529
     28531     28530     28532     28534     28533     28535     28537     28536     28538
     28540     28539     28541     28543     28542     28544     28546     28545     28547
     28549     28548     28550     28552     28551     28553     28555     28554     28556
     28558     28557     28559     28561     28560     28562     28564     28563     28565
     28567     28566     28568     28570     28569     28571     28573     28572     28574
     28576     28575     28577     28579     28578     28580     28582     28581     28583
     28585     28584     28586     28588     28587     28589     28591     28590     28592
     28594     28593     28595     28597     28596     28598     28600     28599     28601
     28603     28602     28604     28606     28605     28607     28609     28608     28610
     28612     28611     28613     28615     28614     28616     28618     28617     28619
     28621     28620     28622     28624     28623     28625     28627     28626     28628
     28630     28629     28631     28633     28632     28634     28636     28635     28637
     28639     28638     28640     28642     28641     28643     28645     28644     28646
     28648     28647     28649     28651     28650     28652     28654     28653     28655
     28657     28656     28658     28660     28659     28661     28663     28662     28664
     28666     28665     28667     28669     28668     28670     28672     28671     28673
     28675     28674     28676     28678     28677     28679     28681     28680     28682
     28684     28683     28685     28687     28686     28688     28690     28689     28691
     28693     28692     28694     28696     28695     28697     28699     28698     28700
     28702     28701     28703     28705     28704     28706     28708     28707     28709
     28711     28710     28712     28714     28713     28715     28717     28716     28718
     28720     28719     28721     28723     28722     28724     28726     28725     28727
     28729     28728     28730     28732     28731     28733     28735     28734     28736
     28738     28737     28739     28741     28740     28742     28744     28743     28745
     28747     28746     28748     28750     28749     28751     28753     28752     28754
     28756     28755     28757     28759     28758     28760     28762     28761     28763
     28765     28764     28766     28768     28767     28769     28771     28770     28772
     28774     28773     28775     28777     28776     28778     28780     28779     28781
     28783     28782     28784     28786     28785     28787     28789     28788     28790
     28792     28791     28793     28795     28794     28796     28798     28797     28799
     28801     28800     28802     28804     28803     28805     28807     28806     28808
     28810     28809     28811     28813     28812     28814     28816     28815     28817
     28819     28818     28820     28822     28821     28823     28825     28824     28826
     28828     28827     28829     28831     28830     28832     28834     28833     28835
     28837     28836     28838     28840     28839     28841     28843     28842     28844
     28846     28845     28847     28849     28848     28850     28852     28851     28853
     28855     28854     28856     28858     28857     28859     28861     28860     28862
     28864     28863     28865     28867     28866     28868     28870     28869     28871
     28873     28872     28874     28876     28875     28877     28879     28878     28880
     28882     28881     28883     28885     28884     28886     28888     28887     28889
     28891     28890     28892     28894     28893     28895     28897     28896     28898
     28900     28899     28901     28903     28902     28904     28906     28905     28907
     28909     28908     28910     28912     28911     28913     28915     28914     28916
     28918     28917     28919     28921     28920     28922     28924     28923     28925
     28927     28926     28928     28930     28929     28931     28933     28932     28934
     28936     28935     28937     28939     28938     28940     28942     28941     28943
     28945     28944     28946     28948     28947     28949     28951     28950     28952
     28954     28953     28955     28957     28956     28958     28960     28959     28961
     28963     28962     28964     28966     28965     28967     28969     28968     28970
     28972     28971     28973     28975     28974     28976     28978     28977     28979
     28981     28980     28982     28984     28983     28985     28987     28986     28988
     28990     28989     28991     28993     28992     28994     28996     28995     28997
     28999     28998     29000     29002     29001     29003     29005     29004     29006
     29008     29007     29009     29011     29010     29012     29014     29013     29015
     29017     29016     29018     29020     29019     29021     29023     29022     29024
     29026     29025     29027     29029     29028     29030     29032     29031     29033
     29035     29034     29036     29038     29037     29039     29041     29040     29042
     29044     29043     29045     29047     29046     29048     29050     29049     29051
     29053     29052     29054     29056     29055     29057     29059     29058     29060
     29062     29061     29063     29065     29064     29066     29068     29067     29069
     29071     29070     29072     29074     29073     29075     29077     29076     29078
     29080     29079     29081     29083     29082     29084     29086     29085     29087
     29089     29088     29090     29092     29091     29093     29095     29094     29096
     29098     29097     29099     29101     29100     29102     29104     29103     29105
     29107     29106     29108     29110     29109     29111     29113     29112     29114
     29116     29115     29117     29119     29118     29120     29122     29121     29123
     29125     29124     29126     29128     29127     29129     29131     29130     29132
     29134     29133     29135     29137     29136     29138     29140     29139     29141
     29143     29142     29144     29146     29145     29147     29149     29148     29150
     29152     29151     29153     29155     29154     29156     29158     29157     29159
     29161     29160     29162     29164     29163     29165     29167     29166     29168
     29170     29169     29171     29173     29172     29174     29176     29175     29177
     29179     29178     29180     29182     29181     29183     29185     29184     29186
     29188     29187     29189     29191     29190     29192     29194     29193     29195
     29197     29196     29198     29200     29199     29201     29203     29202     29204
     29206     29205     29207     29209     29208     29210     29212     29211     29213
     29215     29214     29216     29218     29217     29219     29221     29220     29222
     29224     29223     29225     29227     29226     29228     29230     29229     29231
     29233     29232     29234     29236     29235     29237     29239     29238     29240
     29242     29241     29243     29245     29244     29246     29248     29247     29249
     29251     29250     29252     29254     29253     29255     29257     29256     29258
     29260     29259     29261     29263     29262     29264     29266     29265     29267
     29269     29268     29270     29272     29271     29273     29275     29274     29276
     29278     29277     29279     29281     29280     29282     29284     29283     29285
     29287     29286     29288     29290     29289     29291     29293     29292     29294
     29296     29295     29297     29299     29298     29300     29302     29301     29303
     29305     29304     29306     29308     29307     29309     29311     29310     29312
     29314     29313     29315     29317     29316     29318     29320     29319     29321
     29323     29322     29324     29326     29325     29327     29329     29328     29330
     29332     29331     29333     29335     29334     29336     29338     29337     29339
     29341     29340     29342     29344     29343     29345     29347     29346     29348
     29350     29349     29351     29353     29352     29354     29356     29355     29357
     29359     29358     29360     29362     29361     29363     29365     29364     29366
     29368     29367     29369     29371     29370     29372     29374     29373     29375
     29377     29376     29378     29380     29379     29381     29383     29382     29384
     29386     29385     29387     29389     29388     29390     29392     29391     29393
     29395     29394     29396     29398     29397     29399     29401     29400     29402
     29404     29403     29405     29407     29406     29408     29410     29409     29411
     29413     29412     29414     29416     29415     29417     29419     29418     29420
     29422     29421     29423     29425     29424     29426     29428     29427     29429
     29431     29430     29432     29434     29433     29435     29437     29436     29438
     29440     29439     29441     29443     29442     29444     29446     29445     29447
     29449     29448     29450     29452     29451     29453     29455     29454     29456
     29458     29457     29459     29461     29460     29462     29464     29463     29465
     29467     29466     29468     29470     29469     29471     29473     29472     29474
     29476     29475     29477     29479     29478     29480     29482     29481     29483
     29485     29484     29486     29488     29487     29489     29491     29490     29492
     29494     29493     29495     29497     29496     29498     29500     29499     29501
     29503     29502     29504     29506     29505     29507     29509     29508     29510
     29512     29511     29513     29515     29514     29516     29518     29517     29519
     29521     29520     29522     29524     29523     29525     29527     29526     29528
     29530     29529     29531     29533     29532     29534     29536     29535     29537
     29539     29538     29540     29542     29541     29543     29545     29544     29546
     29548     29547     29549     29551     29550     29552     29554     29553     29555
     29557     29556     29558     29560     29559     29561     29563     29562     29564
     29566     29565     29567     29569     29568     29570     29572     29571     29573
     29575     29574     29576     29578     29577     29579     29581     29580     29582
     29584     29583     29585     29587     29586     29588     29590     29589     29591
     29593     29592     29594     29596     29595     29597     29599     29598     29600
     29602     29601     29603     29605     29604     29606     29608     29607     29609
     29611     29610     29612     29614     29613     29615     29617     29616     29618
     29620     29619     29621     29623     29622     29624     29626     29625     29627
     29629     29628     29630     29632     29631     29633     29635     29634     29636
     29638     29637     29639     29641     29640     29642     29644     29643     29645
     29647     29646     29648     29650     29649     29651     29653     29652     29654
     29656     29655     29657     29659     29658     29660     29662     29661     29663
     29665     29664     29666     29668     29667     29669     29671     29670     29672
     29674     29673     29675     29677     29676     29678     29680     29679     29681
     29683     29682     29684     29686     29685     29687     29689     29688     29690
     29692     29691     29693     29695     29694     29696     29698     29697     29699
     29701     29700     29702     29704     29703     29705     29707     29706     29708
     29710     29709     29711     29713     29712     29714     29716     29715     29717
     29719     29718     29720     29722     29721     29723     29725     29724     29726
     29728     29727     29729     29731     29730     29732     29734     29733     29735
     29737     29736     29738     29740     29739     29741     29743     29742     29744
     29746     29745     29747     29749     29748     29750     29752     29751     29753
     29755     29754     29756     29758     29757     29759     29761     29760     29762
     29764     29763     29765     29767     29766     29768     29770     29769     29771
     29773     29772     29774     29776     29775     29777     29779     29778     29780
     29782     29781     29783     29785     29784     29786     29788     29787     29789
     29791     29790     29792     29794     29793     29795     29797     29796     29798
     29800     29799     29801     29803     29802     29804     29806     29805     29807
     29809     29808     29810     29812     29811     29813     29815     29814     29816
     29818     29817     29819     29821     29820     29822     29824     29823     29825
     29827     29826     29828     29830     29829     29831     29833     29832     29834
     29836     29835     29837     29839     29838     29840     29842     29841     29843
     29845     29844     29846     29848     29847     29849     29851     29850     29852
     29854     29853     29855     29857     29856     29858     29860     29859     29861
     29863     29862     29864     29866     29865     29867     29869     29868     29870
     29872     29871     29873     29875     29874     29876     29878     29877     29879
     29881     29880     29882     29884     29883     29885     29887     29886     29888
     29890     29889     29891     29893     29892     29894     29896     29895     29897
     29899     29898     29900     29902     29901     29903     29905     29904     29906
     29908     29907     29909     29911     29910     29912     29914     29913     29915
     29917     29916     29918     29920     29919     29921     29923     29922     29924
     29926     29925     29927     29929     29928     29930     29932     29931     29933
     29935     29934     29936     29938     29937     29939     29941     29940     29942
     29944     29943     29945     29947     29946     29948     29950     29949     29951
     29953     29952     29954     29956     29955     29957     29959     29958     29960
     29962     29961     29963     29965     29964     29966     29968     29967     29969
     29971     29970     29972     29974     29973     29975     29977     29976     29978
     29980     29979     29981     29983     29982     29984     29986     29985     29987
     29989     29988     29990     29992     29991     29993     29995     29994     29996
     29998     29997     29999     30001     30000     30002     30004     30003     30005
     30007     30006     30008     30010     30009     30011     30013     30012     30014
     30016     30015     30017     30019     30018     30020     30022     30021     30023
     30025     30024     30026     30028     30027     30029     30031     30030     30032
     30034     30033     30035     30037     30036     30038     30040     30039     30041
     30043     30042     30044     30046     30045     30047     30049     30048     30050
     30052     30051     30053     30055     30054     30056     30058     30057     30059
     30061     30060     30062     30064     30063     30065     30067     30066     30068
     30070     30069     30071     30073     30072     30074     30076     30075     30077
     30079     30078     30080     30082     30081     30083     30085     30084     30086
     30088     30087     30089     30091     30090     30092     30094     30093     30095
     30097     30096     30098     30100     30099     30101     30103     30102     30104
     30106     30105     30107     30109     30108     30110     30112     30111     30113
     30115     30114     30116     30118     30117     30119     30121     30120     30122
     30124     30123     30125     30127     30126     30128     30130     30129     30131
     30133     30132     30134     30136     30135     30137     30139     30138     30140
     30142     30141     30143     30145     30144     30146     30148     30147     30149
     30151     30150     30152     30154     30153     30155     30157     30156     30158
     30160     30159     30161     30163     30162     30164     30166     30165     30167
     30169     30168     30170     30172     30171     30173     30175     30174     30176
     30178     30177     30179     30181     30180     30182     30184     30183     30185
     30187     30186     30188     30190     30189     30191     30193     30192     30194
     30196     30195     30197     30199     30198     30200     30202     30201     30203
     30205     30204     30206     30208     30207     30209     30211     30210     30212
     30214     30213     30215     30217     30216     30218     30220     30219     30221
     30223     30222     30224     30226     30225     30227     30229     30228     30230
     30232     30231     30233     30235     30234     30236     30238     30237     30239
     30241     30240     30242     30244     30243     30245     30247     30246     30248
     30250     30249     30251     30253     30252     30254     30256     30255     30257
     30259     30258     30260     30262     30261     30263     30265     30264     30266
     30268     30267     30269     30271     30270     30272     30274     30273     30275
     30277     30276     30278     30280     30279     30281     30283     30282     30284
     30286     30285     30287     30289     30288     30290     30292     30291     30293
     30295     30294     30296     30298     30297     30299     30301     30300     30302
     30304     30303     30305     30307     30306     30308     30310     30309     30311
     30313     30312     30314     30316     30315     30317     30319     30318     30320
     30322     30321     30323     30325     30324     30326     30328     30327     30329
     30331     30330     30332     30334     30333     30335     30337     30336     30338
     30340     30339     30341     30343     30342     30344     30346     30345     30347
     30349     30348     30350     30352     30351     30353     30355     30354     30356
     30358     30357     30359     30361     30360     30362     30364     30363     30365
     30367     30366     30368     30370     30369     30371     30373     30372     30374
     30376     30375     30377     30379     30378     30380     30382     30381     30383
     30385     30384     30386     30388     30387     30389     30391     30390     30392
     30394     30393     30395     30397     30396     30398     30400     30399     30401
     30403     30402     30404     30406     30405     30407     30409     30408     30410
     30412     30411     30413     30415     30414     30416     30418     30417     30419
     30421     30420     30422     30424     30423     30425     30427     30426     30428
     30430     30429     30431     30433     30432     30434     30436     30435     30437
     30439     30438     30440     30442     30441     30443     30445     30444     30446
     30448     30447     30449     30451     30450     30452     30454     30453     30455
     30457     30456     30458     30460     30459     30461     30463     30462     30464
     30466     30465     30467     30469     30468     30470     30472     30471     30473
     30475     30474     30476     30478     30477     30479     30481     30480     30482
     30484     30483     30485     30487     30486     30488     30490     30489     30491
     30493     30492     30494     30496     30495     30497     30499     30498     30500
     30502     30501     30503     30505     30504     30506     30508     30507     30509
     30511     30510     30512     30514     30513     30515     30517     30516     30518
     30520     30519     30521     30523     30522     30524     30526     30525     30527
     30529     30528     30530     30532     30531     30533     30535     30534     30536
     30538     30537     30539     30541     30540     30542     30544     30543     30545
     30547     30546     30548     30550     30549     30551     30553     30552     30554
     30556     30555     30557     30559     30558     30560     30562     30561     30563
     30565     30564     30566     30568     30567     30569     30571     30570     30572
     30574     30573     30575     30577     30576     30578     30580     30579     30581
     30583     30582     30584     30586     30585     30587     30589     30588     30590
     30592     30591     30593     30595     30594     30596     30598     30597     30599
     30601     30600     30602     30604     30603     30605     30607     30606     30608
     30610     30609     30611     30613     30612     30614     30616     30615     30617
     30619     30618     30620     30622     30621     30623     30625     30624     30626
     30628     30627     30629     30631     30630     30632     30634     30633     30635
     30637     30636     30638     30640     30639     30641     30643     30642     30644
     30646     30645     30647     30649     30648     30650     30652     30651     30653
     30655     30654     30656     30658     30657     30659     30661     30660     30662
     30664     30663     30665     30667     30666     30668     30670     30669     30671
     30673     30672     30674     30676     30675     30677     30679     30678     30680
     30682     30681     30683     30685     30684     30686     30688     30687     30689
     30691     30690     30692     30694     30693     30695     30697     30696     30698
     30700     30699     30701     30703     30702     30704     30706     30705     30707
     30709     30708     30710     30712     30711     30713     30715     30714     30716
     30718     30717     30719     30721     30720     30722     30724     30723     30725
     30727     30726     30728     30730     30729     30731     30733     30732     30734
     30736     30735     30737     30739     30738     30740     30742     30741     30743
     30745     30744     30746     30748     30747     30749     30751     30750     30752
     30754     30753     30755     30757     30756     30758     30760     30759     30761
     30763     30762     30764     30766     30765     30767     30769     30768     30770
     30772     30771     30773     30775     30774     30776     30778     30777     30779
     30781     30780     30782     30784     30783     30785     30787     30786     30788
     30790     30789     30791     30793     30792     30794     30796     30795     30797
     30799     30798     30800     30802     30801     30803     30805     30804     30806
     30808     30807     30809     30811     30810     30812     30814     30813     30815
     30817     30816     30818     30820     30819     30821     30823     30822     30824
     30826     30825     30827     30829     30828     30830     30832     30831     30833
     30835     30834     30836     30838     30837     30839     30841     30840     30842
     30844     30843     30845     30847     30846     30848     30850     30849     30851
     30853     30852     30854     30856     30855     30857     30859     30858     30860
     30862     30861     30863     30865     30864     30866     30868     30867     30869
     30871     30870     30872     30874     30873     30875     30877     30876     30878
     30880     30879     30881     30883     30882     30884     30886     30885     30887
     30889     30888     30890     30892     30891     30893     30895     30894     30896
     30898     30897     30899     30901     30900     30902     30904     30903     30905
     30907     30906     30908     30910     30909     30911     30913     30912     30914
     30916     30915     30917     30919     30918     30920     30922     30921     30923
     30925     30924     30926     30928     30927     30929     30931     30930     30932
     30934     30933     30935     30937     30936     30938     30940     30939     30941
     30943     30942     30944     30946     30945     30947     30949     30948     30950
     30952     30951     30953     30955     30954     30956     30958     30957     30959
     30961     30960     30962     30964     30963     30965     30967     30966     30968
     30970     30969     30971     30973     30972     30974     30976     30975     30977
     30979     30978     30980     30982     30981     30983     30985     30984     30986
     30988     30987     30989     30991     30990     30992     30994     30993     30995
     30997     30996     30998     31000     30999     31001     31003     31002     31004
     31006     31005     31007     31009     31008     31010     31012     31011     31013
     31015     31014     31016     31018     31017     31019     31021     31020     31022
     31024     31023     31025     31027     31026     31028     31030     31029     31031
     31033     31032     31034     31036     31035     31037     31039     31038     31040
     31042     31041     31043     31045     31044     31046     31048     31047     31049
     31051     31050     31052     31054     31053     31055     31057     31056     31058
     31060     31059     31061     31063     31062     31064     31066     31065     31067
     31069     31068     31070     31072     31071     31073     31075     31074     31076
     31078     31077     31079     31081     31080     31082     31084     31083     31085
     31087     31086     31088     31090     31089     31091     31093     31092     31094
     31096     31095     31097     31099     31098     31100     31102     31101     31103
     31105     31104     31106     31108     31107     31109     31111     31110     31112
     31114     31113     31115     31117     31116     31118     31120     31119     31121
     31123     31122     31124     31126     31125     31127     31129     31128     31130
     31132     31131     31133     31135     31134     31136     31138     31137     31139
     31141     31140     31142     31144     31143     31145     31147     31146     31148
     31150     31149     31151     31153     31152     31154     31156     31155     31157
     31159     31158     31160     31162     31161     31163     31165     31164     31166
     31168     31167     31169     31171     31170     31172     31174     31173     31175
     31177     31176     31178     31180     31179     31181     31183     31182     31184
     31186     31185     31187     31189     31188     31190     31192     31191     31193
     31195     31194     31196     31198     31197     31199     31201     31200     31202
     31204     31203     31205     31207     31206     31208     31210     31209     31211
     31213     31212     31214     31216     31215     31217     31219     31218     31220
     31222     31221     31223     31225     31224     31226     31228     31227     31229
     31231     31230     31232     31234     31233     31235     31237     31236     31238
     31240     31239     31241     31243     31242     31244     31246     31245     31247
     31249     31248     31250     31252     31251     31253     31255     31254     31256
     31258     31257     31259     31261     31260     31262     31264     31263     31265
     31267     31266     31268     31270     31269     31271     31273     31272     31274
     31276     31275     31277     31279     31278     31280     31282     31281     31283
     31285     31284     31286     31288     31287     31289     31291     31290     31292
     31294     31293     31295     31297     31296     31298     31300     31299     31301
     31303     31302     31304     31306     31305     31307     31309     31308     31310
     31312     31311     31313     31315     31314     31316     31318     31317     31319
     31321     31320     31322     31324     31323     31325     31327     31326     31328
     31330     31329     31331     31333     31332     31334     31336     31335     31337
     31339     31338     31340     31342     31341     31343     31345     31344     31346
     31348     31347     31349     31351     31350     31352     31354     31353     31355
     31357     31356     31358     31360     31359     31361     31363     31362     31364
     31366     31365     31367     31369     31368     31370     31372     31371     31373
     31375     31374     31376     31378     31377     31379     31381     31380     31382
     31384     31383     31385     31387     31386     31388     31390     31389     31391
     31393     31392     31394     31396     31395     31397     31399     31398     31400
     31402     31401     31403     31405     31404     31406     31408     31407     31409
     31411     31410     31412     31414     31413     31415     31417     31416     31418
     31420     31419     31421     31423     31422     31424     31426     31425     31427
     31429     31428     31430     31432     31431     31433     31435     31434     31436
     31438     31437     31439     31441     31440     31442     31444     31443     31445
     31447     31446     31448     31450     31449     31451     31453     31452     31454
     31456     31455     31457     31459     31458     31460     31462     31461     31463
     31465     31464     31466     31468     31467     31469     31471     31470     31472
     31474     31473     31475     31477     31476     31478     31480     31479     31481
     31483     31482     31484     31486     31485     31487     31489     31488     31490
     31492     31491     31493     31495     31494     31496     31498     31497     31499
     31501     31500     31502     31504     31503     31505     31507     31506     31508
     31510     31509     31511     31513     31512     31514     31516     31515     31517
     31519     31518     31520     31522     31521     31523     31525     31524     31526
     31528     31527     31529     31531     31530     31532     31534     31533     31535
     31537     31536     31538     31540     31539     31541     31543     31542     31544
     31546     31545     31547     31549     31548     31550     31552     31551     31553
     31555     31554     31556     31558     31557     31559     31561     31560     31562
     31564     31563     31565     31567     31566     31568     31570     31569     31571
     31573     31572     31574     31576     31575     31577     31579     31578     31580
     31582     31581     31583     31585     31584     31586     31588     31587     31589
     31591     31590     31592     31594     31593     31595     31597     31596     31598
     31600     31599     31601     31603     31602     31604     31606     31605     31607
     31609     31608     31610     31612     31611     31613     31615     31614     31616
     31618     31617     31619     31621     31620     31622     31624     31623     31625
     31627     31626     31628     31630     31629     31631     31633     31632     31634
     31636     31635     31637     31639     31638     31640     31642     31641     31643
     31645     31644     31646     31648     31647     31649     31651     31650     31652
     31654     31653     31655     31657     31656     31658     31660     31659     31661
     31663     31662     31664     31666     31665     31667     31669     31668     31670
     31672     31671     31673     31675     31674     31676     31678     31677     31679
     31681     31680     31682     31684     31683     31685     31687     31686     31688
     31690     31689     31691     31693     31692     31694     31696     31695     31697
     31699     31698     31700     31702     31701     31703     31705     31704     31706
     31708     31707     31709     31711     31710     31712     31714     31713     31715
     31717     31716     31718     31720     31719     31721     31723     31722     31724
     31726     31725     31727     31729     31728     31730     31732     31731     31733
     31735     31734     31736     31738     31737     31739     31741     31740     31742
     31744     31743     31745     31747     31746     31748     31750     31749     31751
     31753     31752     31754     31756     31755     31757     31759     31758     31760
     31762     31761     31763     31765     31764     31766     31768     31767     31769
     31771     31770     31772     31774     31773     31775     31777     31776     31778
     31780     31779     31781     31783     31782     31784     31786     31785     31787
     31789     31788     31790     31792     31791     31793     31795     31794     31796
     31798     31797     31799     31801     31800     31802     31804     31803     31805
     31807     31806     31808     31810     31809     31811     31813     31812     31814
     31816     31815     31817     31819     31818     31820     31822     31821     31823
     31825     31824     31826     31828     31827     31829     31831     31830     31832
     31834     31833     31835     31837     31836     31838     31840     31839     31841
     31843     31842     31844     31846     31845     31847     31849     31848     31850
     31852     31851     31853     31855     31854     31856     31858     31857     31859
     31861     31860     31862     31864     31863     31865     31867     31866     31868
     31870     31869     31871     31873     31872     31874     31876     31875     31877
     31879     31878     31880     31882     31881     31883     31885     31884     31886
     31888     31887     31889     31891     31890     31892     31894     31893     31895
     31897     31896     31898     31900     31899     31901     31903     31902     31904
     31906     31905     31907     31909     31908     31910     31912     31911     31913
     31915     31914     31916     31918     31917     31919     31921     31920     31922
     31924     31923     31925     31927     31926     31928     31930     31929     31931
     31933     31932     31934     31936     31935     31937     31939     31938     31940
     31942     31941     31943     31945     31944     31946     31948     31947     31949
     31951     31950     31952     31954     31953     31955     31957     31956     31958
     31960     31959     31961     31963     31962     31964     31966     31965     31967
     31969     31968     31970     31972     31971     31973     31975     31974     31976
     31978     31977     31979     31981     31980     31982     31984     31983     31985
     31987     31986     31988     31990     31989     31991     31993     31992     31994
     31996     31995     31997     31999     31998     32000     32002     32001     32003
     32005     32004     32006     32008     32007     32009     32011     32010     32012
     32014     32013     32015     32017     32016     32018     32020     32019     32021
     32023     32022     32024     32026     32025     32027     32029     32028     32030
     32032     32031     32033     32035     32034     32036     32038     32037     32039
     32041     32040     32042     32044     32043     32045     32047     32046     32048
     32050     32049     32051     32053     32052     32054     32056     32055     32057
     32059     32058     32060     32062     32061     32063     32065     32064     32066
     32068     32067     32069     32071     32070     32072     32074     32073     32075
     32077     32076     32078     32080     32079     32081     32083     32082     32084
     32086     32085     32087     32089     32088     32090     32092     32091     32093
     32095     32094     32096     32098     32097     32099     32101     32100     32102
     32104     32103     32105     32107     32106     32108     32110     32109     32111
     32113     32112     32114     32116     32115     32117     32119     32118     32120
     32122     32121     32123     32125     32124     32126     32128     32127     32129
     32131     32130     32132     32134     32133     32135     32137     32136     32138
     32140     32139     32141     32143     32142     32144     32146     32145     32147
     32149     32148     32150     32152     32151     32153     32155     32154     32156
     32158     32157     32159     32161     32160     32162     32164     32163     32165
     32167     32166     32168     32170     32169     32171     32173     32172     32174
     32176     32175     32177     32179     32178     32180     32182     32181     32183
     32185     32184     32186     32188     32187     32189     32191     32190     32192
     32194     32193     32195     32197     32196     32198     32200     32199     32201
     32203     32202     32204     32206     32205     32207     32209     32208     32210
     32212     32211     32213     32215     32214     32216     32218     32217     32219
     32221     32220     32222     32224     32223     32225     32227     32226     32228
     32230     32229     32231     32233     32232     32234     32236     32235     32237
     32239     32238     32240     32242     32241     32243     32245     32244     32246
     32248     32247     32249     32251     32250     32252     32254     32253     32255
     32257     32256     32258     32260     32259     32261     32263     32262     32264
     32266     32265     32267     32269     32268     32270     32272     32271     32273
     32275     32274     32276     32278     32277     32279     32281     32280     32282
     32284     32283     32285     32287     32286     32288     32290     32289     32291
     32293     32292     32294     32296     32295     32297     32299     32298     32300
     32302     32301     32303     32305     32304     32306     32308     32307     32309
     32311     32310     32312     32314     32313     32315     32317     32316     32318
     32320     32319     32321     32323     32322     32324     32326     32325     32327
     32329     32328     32330     32332     32331     32333     32335     32334     32336
     32338     32337     32339     32341     32340     32342     32344     32343     32345
     32347     32346     32348     32350     32349     32351     32353     32352     32354
     32356     32355     32357     32359     32358     32360     32362     32361     32363
     32365     32364     32366     32368     32367     32369     32371     32370     32372
     32374     32373     32375     32377     32376     32378     32380     32379     32381
     32383     32382     32384     32386     32385     32387     32389     32388     32390
     32392     32391     32393     32395     32394     32396     32398     32397     32399
     32401     32400     32402     32404     32403     32405     32407     32406     32408
     32410     32409     32411     32413     32412     32414     32416     32415     32417
     32419     32418     32420     32422     32421     32423     32425     32424     32426
     32428     32427     32429     32431     32430     32432     32434     32433     32435
     32437     32436     32438     32440     32439     32441     32443     32442     32444
     32446     32445     32447     32449     32448     32450     32452     32451     32453
     32455     32454     32456     32458     32457     32459     32461     32460     32462
     32464     32463     32465     32467     32466     32468     32470     32469     32471
     32473     32472     32474     32476     32475     32477     32479     32478     32480
     32482     32481     32483     32485     32484     32486     32488     32487     32489
     32491     32490     32492     32494     32493     32495     32497     32496     32498
     32500     32499     32501     32503     32502     32504     32506     32505     32507
     32509     32508     32510     32512     32511     32513     32515     32514     32516
     32518     32517     32519     32521     32520     32522     32524     32523     32525
     32527     32526     32528     32530     32529     32531     32533     32532     32534
     32536     32535     32537     32539     32538     32540     32542     32541     32543
     32545     32544     32546     32548     32547     32549     32551     32550     32552
     32554     32553     32555     32557     32556     32558     32560     32559     32561
     32563     32562     32564     32566     32565     32567     32569     32568     32570
     32572     32571     32573     32575     32574     32576     32578     32577     32579
     32581     32580     32582     32584     32583     32585     32587     32586     32588
     32590     32589     32591     32593     32592     32594     32596     32595     32597
     32599     32598     32600     32602     32601     32603     32605     32604     32606
     32608     32607     32609     32611     32610     32612     32614     32613     32615
     32617     32616     32618     32620     32619     32621     32623     32622     32624
     32626     32625     32627     32629     32628     32630     32632     32631     32633
     32635     32634     32636     32638     32637     32639     32641     32640     32642
     32644     32643     32645     32647     32646     32648     32650     32649     32651
     32653     32652     32654     32656     32655     32657     32659     32658     32660
     32662     32661     32663     32665     32664     32666     32668     32667     32669
     32671     32670     32672     32674     32673     32675     32677     32676     32678
     32680     32679     32681     32683     32682     32684     32686     32685     32687
     32689     32688     32690     32692     32691     32693     32695     32694     32696
     32698     32697     32699     32701     32700     32702     32704     32703     32705
     32707     32706     32708     32710     32709     32711     32713     32712     32714
     32716     32715     32717     32719     32718     32720     32722     32721     32723
     32725     32724     32726     32728     32727     32729     32731     32730     32732
     32734     32733     32735     32737     32736     32738     32740     32739     32741
     32743     32742     32744     32746     32745     32747     32749     32748     32750
     32752     32751     32753     32755     32754     32756     32758     32757     32759
     32761     32760     32762     32764     32763     32765     32767     32766     32768
     32770     32769     32771     32773     32772     32774     32776     32775     32777
     32779     32778     32780     32782     32781     32783     32785     32784     32786
     32788     32787     32789     32791     32790     32792     32794     32793     32795
     32797     32796     32798     32800     32799     32801     32803     32802     32804
     32806     32805     32807     32809     32808     32810     32812     32811     32813
     32815     32814     32816     32818     32817     32819     32821     32820     32822
     32824     32823     32825     32827     32826     32828     32830     32829     32831
     32833     32832     32834     32836     32835     32837     32839     32838     32840
     32842     32841     32843     32845     32844     32846     32848     32847     32849
     32851     32850     32852     32854     32853     32855     32857     32856     32858
     32860     32859     32861     32863     32862     32864     32866     32865     32867
     32869     32868     32870     32872     32871     32873     32875     32874     32876
     32878     32877     32879     32881     32880     32882     32884     32883     32885
     32887     32886     32888     32890     32889     32891     32893     32892     32894
     32896     32895     32897     32899     32898     32900     32902     32901     32903
     32905     32904     32906     32908     32907     32909     32911     32910     32912
     32914     32913     32915     32917     32916     32918     32920     32919     32921
     32923     32922     32924     32926     32925     32927     32929     32928     32930
     32932     32931     32933     32935     32934     32936     32938     32937     32939
     32941     32940     32942     32944     32943     32945     32947     32946     32948
     32950     32949     32951     32953     32952     32954     32956     32955     32957
     32959     32958     32960     32962     32961     32963     32965     32964     32966
     32968     32967     32969     32971     32970     32972     32974     32973     32975
     32977     32976     32978     32980     32979     32981     32983     32982     32984
     32986     32985     32987     32989     32988     32990     32992     32991     32993
     32995     32994     32996     32998     32997     32999     33001     33000     33002
     33004     33003     33005     33007     33006     33008     33010     33009     33011
     33013     33012     33014     33016     33015     33017     33019     33018     33020
     33022     33021     33023     33025     33024     33026     33028     33027     33029
     33031     33030     33032     33034     33033     33035     33037     33036     33038
     33040     33039     33041     33043     33042     33044     33046     33045     33047
     33049     33048     33050     33052     33051     33053     33055     33054     33056
     33058     33057     33059     33061     33060     33062     33064     33063     33065
     33067     33066     33068     33070     33069     33071     33073     33072     33074
     33076     33075     33077     33079     33078     33080     33082     33081     33083
     33085     33084     33086     33088     33087     33089     33091     33090     33092
     33094     33093     33095     33097     33096     33098     33100     33099     33101
     33103     33102     33104     33106     33105     33107     33109     33108     33110
     33112     33111     33113     33115     33114     33116     33118     33117     33119
     33121     33120     33122     33124     33123     33125     33127     33126     33128
     33130     33129     33131     33133     33132     33134     33136     33135     33137
     33139     33138     33140     33142     33141     33143     33145     33144     33146
     33148     33147     33149     33151     33150     33152     33154     33153     33155
     33157     33156     33158     33160     33159     33161     33163     33162     33164
     33166     33165     33167     33169     33168     33170     33172     33171     33173
     33175     33174     33176     33178     33177     33179     33181     33180     33182
     33184     33183     33185     33187     33186     33188     33190     33189     33191
     33193     33192     33194     33196     33195     33197     33199     33198     33200
     33202     33201     33203     33205     33204     33206     33208     33207     33209
     33211     33210     33212     33214     33213     33215     33217     33216     33218
     33220     33219     33221     33223     33222     33224     33226     33225     33227
     33229     33228     33230     33232     33231     33233     33235     33234     33236
     33238     33237     33239     33241     33240     33242     33244     33243     33245
     33247     33246     33248     33250     33249     33251     33253     33252     33254
     33256     33255     33257     33259     33258     33260     33262     33261     33263
     33265     33264     33266     33268     33267     33269     33271     33270     33272
     33274     33273     33275     33277     33276     33278     33280     33279     33281
     33283     33282     33284     33286     33285     33287     33289     33288     33290
     33292     33291     33293     33295     33294     33296     33298     33297     33299
     33301     33300     33302     33304     33303     33305     33307     33306     33308
     33310     33309     33311     33313     33312     33314     33316     33315     33317
     33319     33318     33320     33322     33321     33323     33325     33324     33326
     33328     33327     33329     33331     33330     33332     33334     33333     33335
     33337     33336     33338     33340     33339     33341     33343     33342     33344
     33346     33345     33347     33349     33348     33350     33352     33351     33353
     33355     33354     33356     33358     33357     33359     33361     33360     33362
     33364     33363     33365     33367     33366     33368     33370     33369     33371
     33373     33372     33374     33376     33375     33377     33379     33378     33380
     33382     33381     33383     33385     33384     33386     33388     33387     33389
     33391     33390     33392     33394     33393     33395     33397     33396     33398
     33400     33399     33401     33403     33402     33404     33406     33405     33407
     33409     33408     33410     33412     33411     33413     33415     33414     33416
     33418     33417     33419     33421     33420     33422     33424     33423     33425
     33427     33426     33428     33430     33429     33431     33433     33432     33434
     33436     33435     33437     33439     33438     33440     33442     33441     33443
     33445     33444     33446     33448     33447     33449     33451     33450     33452
     33454     33453     33455     33457     33456     33458     33460     33459     33461
     33463     33462     33464     33466     33465     33467     33469     33468     33470
     33472     33471     33473     33475     33474     33476     33478     33477     33479
     33481     33480     33482     33484     33483     33485     33487     33486     33488
     33490     33489     33491     33493     33492     33494     33496     33495     33497
     33499     33498     33500     33502     33501     33503     33505     33504     33506
     33508     33507     33509     33511     33510     33512     33514     33513     33515
     33517     33516     33518     33520     33519     33521     33523     33522     33524
     33526     33525     33527     33529     33528     33530     33532     33531     33533
     33535     33534     33536     33538     33537     33539     33541     33540     33542
     33544     33543     33545     33547     33546     33548     33550     33549     33551
     33553     33552     33554     33556     33555     33557     33559     33558     33560
     33562     33561     33563     33565     33564     33566     33568     33567     33569
     33571     33570     33572     33574     33573     33575     33577     33576     33578
     33580     33579     33581     33583     33582     33584     33586     33585     33587
     33589     33588     33590     33592     33591     33593     33595     33594     33596
     33598     33597     33599     33601     33600     33602     33604     33603     33605
     33607     33606     33608     33610     33609     33611     33613     33612     33614
     33616     33615     33617     33619     33618     33620     33622     33621     33623
     33625     33624     33626     33628     33627     33629     33631     33630     33632
     33634     33633     33635     33637     33636     33638     33640     33639     33641
     33643     33642     33644     33646     33645     33647     33649     33648     33650
     33652     33651     33653     33655     33654     33656     33658     33657     33659
     33661     33660     33662     33664     33663     33665     33667     33666     33668
     33670     33669     33671     33673     33672     33674     33676     33675     33677
     33679     33678     33680     33682     33681     33683     33685     33684     33686
     33688     33687     33689     33691     33690     33692     33694     33693     33695
     33697     33696     33698     33700     33699     33701     33703     33702     33704
     33706     33705     33707     33709     33708     33710     33712     33711     33713
     33715     33714     33716     33718     33717     33719     33721     33720     33722
     33724     33723     33725     33727     33726     33728     33730     33729     33731
     33733     33732     33734     33736     33735     33737     33739     33738     33740
     33742     33741     33743     33745     33744     33746     33748     33747     33749
     33751     33750     33752     33754     33753     33755     33757     33756     33758
     33760     33759     33761     33763     33762     33764     33766     33765     33767
     33769     33768     33770     33772     33771     33773     33775     33774     33776
     33778     33777     33779     33781     33780     33782     33784     33783     33785
     33787     33786     33788     33790     33789     33791     33793     33792     33794
     33796     33795     33797     33799     33798     33800     33802     33801     33803
     33805     33804     33806     33808     33807     33809     33811     33810     33812
     33814     33813     33815     33817     33816     33818     33820     33819     33821
     33823     33822     33824     33826     33825     33827     33829     33828     33830
     33832     33831     33833     33835     33834     33836     33838     33837     33839
     33841     33840     33842     33844     33843     33845     33847     33846     33848
     33850     33849     33851     33853     33852     33854     33856     33855     33857
     33859     33858     33860     33862     33861     33863     33865     33864     33866
     33868     33867     33869     33871     33870     33872     33874     33873     33875
     33877     33876     33878     33880     33879     33881     33883     33882     33884
     33886     33885     33887     33889     33888     33890     33892     33891     33893
     33895     33894     33896     33898     33897     33899     33901     33900     33902
     33904     33903     33905     33907     33906     33908     33910     33909     33911
     33913     33912     33914     33916     33915     33917     33919     33918     33920
     33922     33921     33923     33925     33924     33926     33928     33927     33929
     33931     33930     33932     33934     33933     33935     33937     33936     33938
     33940     33939     33941     33943     33942     33944     33946     33945     33947
     33949     33948     33950     33952     33951     33953     33955     33954     33956
     33958     33957     33959     33961     33960     33962     33964     33963     33965
     33967     33966     33968     33970     33969     33971     33973     33972     33974
     33976     33975     33977     33979     33978     33980     33982     33981     33983
     33985     33984     33986     33988     33987     33989     33991     33990     33992
     33994     33993     33995     33997     33996     33998     34000     33999     34001
     34003     34002     34004     34006     34005     34007     34009     34008     34010
     34012     34011     34013     34015     34014     34016     34018     34017     34019
     34021     34020     34022     34024     34023     34025     34027     34026     34028
     34030     34029     34031     34033     34032     34034     34036     34035     34037
     34039     34038     34040     34042     34041     34043     34045     34044     34046
     34048     34047     34049     34051     34050     34052     34054     34053     34055
     34057     34056     34058     34060     34059     34061     34063     34062     34064
     34066     34065     34067     34069     34068     34070     34072     34071     34073
     34075     34074     34076     34078     34077     34079     34081     34080     34082
     34084     34083     34085     34087     34086     34088     34090     34089     34091
     34093     34092     34094     34096     34095     34097     34099     34098     34100
     34102     34101     34103     34105     34104     34106     34108     34107     34109
     34111     34110     34112     34114     34113     34115     34117     34116     34118
     34120     34119     34121     34123     34122     34124     34126     34125     34127
     34129     34128     34130     34132     34131     34133     34135     34134     34136
     34138     34137     34139     34141     34140     34142     34144     34143     34145
     34147     34146     34148     34150     34149     34151     34153     34152     34154
     34156     34155     34157     34159     34158     34160     34162     34161     34163
     34165     34164     34166     34168     34167     34169     34171     34170     34172
     34174     34173     34175     34177     34176     34178     34180     34179     34181
     34183     34182     34184     34186     34185     34187     34189     34188     34190
     34192     34191     34193     34195     34194     34196     34198     34197     34199
     34201     34200     34202     34204     34203     34205     34207     34206     34208
     34210     34209     34211     34213     34212     34214     34216     34215     34217
     34219     34218     34220     34222     34221     34223     34225     34224     34226
     34228     34227     34229     34231     34230     34232     34234     34233     34235
     34237     34236     34238     34240     34239     34241     34243     34242     34244
     34246     34245     34247     34249     34248     34250     34252     34251     34253
     34255     34254     34256     34258     34257     34259     34261     34260     34262
     34264     34263     34265     34267     34266     34268     34270     34269     34271
     34273     34272     34274     34276     34275     34277     34279     34278     34280
     34282     34281     34283     34285     34284     34286     34288     34287     34289
     34291     34290     34292     34294     34293     34295     34297     34296     34298
     34300     34299     34301     34303     34302     34304     34306     34305     34307
     34309     34308     34310     34312     34311     34313     34315     34314     34316
     34318     34317     34319     34321     34320     34322     34324     34323     34325
     34327     34326     34328     34330     34329     34331     34333     34332     34334
     34336     34335     34337     34339     34338     34340     34342     34341     34343
     34345     34344     34346     34348     34347     34349     34351     34350     34352
     34354     34353     34355     34357     34356     34358     34360     34359     34361
     34363     34362     34364     34366     34365     34367     34369     34368     34370
     34372     34371     34373     34375     34374     34376     34378     34377     34379
     34381     34380     34382     34384     34383     34385     34387     34386     34388
     34390     34389     34391     34393     34392     34394     34396     34395     34397
     34399     34398     34400     34402     34401     34403     34405     34404     34406
     34408     34407     34409     34411     34410     34412     34414     34413     34415
     34417     34416     34418     34420     34419     34421     34423     34422     34424
     34426     34425     34427     34429     34428     34430     34432     34431     34433
     34435     34434     34436     34438     34437     34439     34441     34440     34442
     34444     34443     34445     34447     34446     34448     34450     34449     34451
     34453     34452     34454     34456     34455     34457     34459     34458     34460
     34462     34461     34463     34465     34464     34466     34468     34467     34469
     34471     34470     34472     34474     34473     34475     34477     34476     34478
     34480     34479     34481     34483     34482     34484     34486     34485     34487
     34489     34488     34490     34492     34491     34493     34495     34494     34496
     34498     34497     34499     34501     34500     34502     34504     34503     34505
     34507     34506     34508     34510     34509     34511     34513     34512     34514
     34516     34515     34517     34519     34518     34520     34522     34521     34523
     34525     34524     34526     34528     34527     34529     34531     34530     34532
     34534     34533     34535     34537     34536     34538     34540     34539     34541
     34543     34542     34544     34546     34545     34547     34549     34548     34550
     34552     34551     34553     34555     34554     34556     34558     34557     34559
     34561     34560     34562     34564     34563     34565     34567     34566     34568
     34570     34569     34571     34573     34572     34574     34576     34575     34577
     34579     34578     34580     34582     34581     34583     34585     34584     34586
     34588     34587     34589     34591     34590     34592     34594     34593     34595
     34597     34596     34598     34600     34599     34601     34603     34602     34604
     34606     34605     34607     34609     34608     34610     34612     34611     34613
     34615     34614     34616     34618     34617     34619     34621     34620     34622
     34624     34623     34625     34627     34626     34628     34630     34629     34631
     34633     34632     34634     34636     34635     34637     34639     34638     34640
     34642     34641     34643     34645     34644     34646     34648     34647     34649
     34651     34650     34652     34654     34653     34655     34657     34656     34658
     34660     34659     34661     34663     34662     34664     34666     34665     34667
     34669     34668     34670     34672     34671     34673     34675     34674     34676
     34678     34677     34679     34681     34680     34682     34684     34683     34685
     34687     34686     34688     34690     34689     34691     34693     34692     34694
     34696     34695     34697     34699     34698     34700     34702     34701     34703
     34705     34704     34706     34708     34707     34709     34711     34710     34712
     34714     34713     34715     34717     34716     34718     34720     34719     34721
     34723     34722     34724     34726     34725     34727     34729     34728     34730
     34732     34731     34733     34735     34734     34736     34738     34737     34739
     34741     34740     34742     34744     34743     34745     34747     34746     34748
     34750     34749     34751     34753     34752     34754     34756     34755     34757
     34759     34758     34760     34762     34761     34763     34765     34764     34766
     34768     34767     34769     34771     34770     34772     34774     34773     34775
     34777     34776     34778     34780     34779     34781     34783     34782     34784
     34786     34785     34787     34789     34788     34790     34792     34791     34793
     34795     34794     34796     34798     34797     34799     34801     34800     34802
     34804     34803     34805     34807     34806     34808     34810     34809     34811
     34813     34812     34814     34816     34815     34817     34819     34818     34820
     34822     34821     34823     34825     34824     34826     34828     34827     34829
     34831     34830     34832     34834     34833     34835     34837     34836     34838
     34840     34839     34841     34843     34842     34844     34846     34845     34847
     34849     34848     34850     34852     34851     34853     34855     34854     34856
     34858     34857     34859     34861     34860     34862     34864     34863     34865
     34867     34866     34868     34870     34869     34871     34873     34872     34874
     34876     34875     34877     34879     34878     34880     34882     34881     34883
     34885     34884     34886     34888     34887     34889     34891     34890     34892
     34894     34893     34895     34897     34896     34898     34900     34899     34901
     34903     34902     34904     34906     34905     34907     34909     34908     34910
     34912     34911     34913     34915     34914     34916     34918     34917     34919
     34921     34920     34922     34924     34923     34925     34927     34926     34928
     34930     34929     34931     34933     34932     34934     34936     34935     34937
     34939     34938     34940     34942     34941     34943     34945     34944     34946
     34948     34947     34949     34951     34950     34952     34954     34953     34955
     34957     34956     34958     34960     34959     34961     34963     34962     34964
     34966     34965     34967     34969     34968     34970     34972     34971     34973
     34975     34974     34976     34978     34977     34979     34981     34980     34982
     34984     34983     34985     34987     34986     34988     34990     34989     34991
     34993     34992     34994     34996     34995     34997     34999     34998     35000
     35002     35001     35003     35005     35004     35006     35008     35007     35009
     35011     35010     35012     35014     35013     35015     35017     35016     35018
     35020     35019     35021     35023     35022     35024     35026     35025     35027
     35029     35028     35030     35032     35031     35033     35035     35034     35036
     35038     35037     35039     35041     35040     35042     35044     35043     35045
     35047     35046     35048     35050     35049     35051     35053     35052     35054
     35056     35055     35057     35059     35058     35060     35062     35061     35063
     35065     35064     35066     35068     35067     35069     35071     35070     35072
     35074     35073     35075     35077     35076     35078     35080     35079     35081
     35083     35082     35084     35086     35085     35087     35089     35088     35090
     35092     35091     35093     35095     35094     35096     35098     35097     35099
     35101     35100     35102     35104     35103     35105     35107     35106     35108
     35110     35109     35111     35113     35112     35114     35116     35115     35117
     35119     35118     35120     35122     35121     35123     35125     35124     35126
     35128     35127     35129     35131     35130     35132     35134     35133     35135
     35137     35136     35138     35140     35139     35141     35143     35142     35144
     35146     35145     35147     35149     35148     35150     35152     35151     35153
     35155     35154     35156     35158     35157     35159     35161     35160     35162
     35164     35163     35165     35167     35166     35168     35170     35169     35171
     35173     35172     35174     35176     35175     35177     35179     35178     35180
     35182     35181     35183     35185     35184     35186     35188     35187     35189
     35191     35190     35192     35194     35193     35195     35197     35196     35198
     35200     35199     35201     35203     35202     35204     35206     35205     35207
     35209     35208     35210     35212     35211     35213     35215     35214     35216
     35218     35217     35219     35221     35220     35222     35224     35223     35225
     35227     35226     35228     35230     35229     35231     35233     35232     35234
     35236     35235     35237     35239     35238     35240     35242     35241     35243
     35245     35244     35246     35248     35247     35249     35251     35250     35252
     35254     35253     35255     35257     35256     35258     35260     35259     35261
     35263     35262     35264     35266     35265     35267     35269     35268     35270
     35272     35271     35273     35275     35274     35276     35278     35277     35279
     35281     35280     35282     35284     35283     35285     35287     35286     35288
     35290     35289     35291     35293     35292     35294     35296     35295     35297
     35299     35298     35300     35302     35301     35303     35305     35304     35306
     35308     35307     35309     35311     35310     35312     35314     35313     35315
     35317     35316     35318     35320     35319     35321     35323     35322     35324
     35326     35325     35327     35329     35328     35330     35332     35331     35333
     35335     35334     35336     35338     35337     35339     35341     35340     35342
     35344     35343     35345     35347     35346     35348     35350     35349     35351
     35353     35352     35354     35356     35355     35357     35359     35358     35360
     35362     35361     35363     35365     35364     35366     35368     35367     35369
     35371     35370     35372     35374     35373     35375     35377     35376     35378
     35380     35379     35381     35383     35382     35384     35386     35385     35387
     35389     35388     35390     35392     35391     35393     35395     35394     35396
     35398     35397     35399     35401     35400     35402     35404     35403     35405
     35407     35406     35408     35410     35409     35411     35413     35412     35414
     35416     35415     35417     35419     35418     35420     35422     35421     35423
     35425     35424     35426     35428     35427     35429     35431     35430     35432
     35434     35433     35435     35437     35436     35438     35440     35439     35441
     35443     35442     35444     35446     35445     35447     35449     35448     35450
     35452     35451     35453     35455     35454     35456     35458     35457     35459
     35461     35460     35462     35464     35463     35465     35467     35466     35468
     35470     35469     35471     35473     35472     35474     35476     35475     35477
     35479     35478     35480     35482     35481     35483     35485     35484     35486
     35488     35487     35489     35491     35490     35492     35494     35493     35495
     35497     35496     35498     35500     35499     35501     35503     35502     35504
     35506     35505     35507     35509     35508     35510     35512     35511     35513
     35515     35514     35516     35518     35517     35519     35521     35520     35522
     35524     35523     35525     35527     35526     35528     35530     35529     35531
     35533     35532     35534     35536     35535     35537     35539     35538     35540
     35542     35541     35543     35545     35544     35546     35548     35547     35549
     35551     35550     35552     35554     35553     35555     35557     35556     35558
     35560     35559     35561     35563     35562     35564     35566     35565     35567
     35569     35568     35570     35572     35571     35573     35575     35574     35576
     35578     35577     35579     35581     35580     35582     35584     35583     35585
     35587     35586     35588     35590     35589     35591     35593     35592     35594
     35596     35595     35597     35599     35598     35600     35602     35601     35603
     35605     35604     35606     35608     35607     35609     35611     35610     35612
     35614     35613     35615     35617     35616     35618     35620     35619     35621
     35623     35622     35624     35626     35625     35627     35629     35628     35630
     35632     35631     35633     35635     35634     35636     35638     35637     35639
     35641     35640     35642     35644     35643     35645     35647     35646     35648
     35650     35649     35651     35653     35652     35654     35656     35655     35657
     35659     35658     35660     35662     35661     35663     35665     35664     35666
     35668     35667     35669     35671     35670     35672     35674     35673     35675
     35677     35676     35678     35680     35679     35681     35683     35682     35684
     35686     35685     35687     35689     35688     35690     35692     35691     35693
     35695     35694     35696     35698     35697     35699     35701     35700     35702
     35704     35703     35705     35707     35706     35708     35710     35709     35711
     35713     35712     35714     35716     35715     35717     35719     35718     35720
     35722     35721     35723     35725     35724     35726     35728     35727     35729
     35731     35730     35732     35734     35733     35735     35737     35736     35738
     35740     35739     35741     35743     35742     35744     35746     35745     35747
     35749     35748     35750     35752     35751     35753     35755     35754     35756
     35758     35757     35759     35761     35760     35762     35764     35763     35765
     35767     35766     35768     35770     35769     35771     35773     35772     35774
     35776     35775     35777     35779     35778     35780     35782     35781     35783
     35785     35784     35786     35788     35787     35789     35791     35790     35792
     35794     35793     35795     35797     35796     35798     35800     35799     35801
     35803     35802     35804     35806     35805     35807     35809     35808     35810
     35812     35811     35813     35815     35814     35816     35818     35817     35819
     35821     35820     35822     35824     35823     35825     35827     35826     35828
     35830     35829     35831     35833     35832     35834     35836     35835     35837
     35839     35838     35840     35842     35841     35843     35845     35844     35846
     35848     35847     35849     35851     35850     35852     35854     35853     35855
     35857     35856     35858     35860     35859     35861     35863     35862     35864
     35866     35865     35867     35869     35868     35870     35872     35871     35873
     35875     35874     35876     35878     35877     35879     35881     35880     35882
     35884     35883     35885     35887     35886     35888     35890     35889     35891
     35893     35892     35894     35896     35895     35897     35899     35898     35900
     35902     35901     35903     35905     35904     35906     35908     35907     35909
     35911     35910     35912     35914     35913     35915     35917     35916     35918
     35920     35919     35921     35923     35922     35924     35926     35925     35927
     35929     35928     35930     35932     35931     35933     35935     35934     35936
     35938     35937     35939     35941     35940     35942     35944     35943     35945
     35947     35946     35948     35950     35949     35951     35953     35952     35954
     35956     35955     35957     35959     35958     35960     35962     35961     35963
     35965     35964     35966     35968     35967     35969     35971     35970     35972
     35974     35973     35975     35977     35976     35978     35980     35979     35981
     35983     35982     35984     35986     35985     35987     35989     35988     35990
     35992     35991     35993     35995     35994     35996     35998     35997     35999
     36001     36000     36002     36004     36003     36005     36007     36006     36008
     36010     36009     36011     36013     36012     36014     36016     36015     36017
     36019     36018     36020     36022     36021     36023     36025     36024     36026
     36028     36027     36029     36031     36030     36032     36034     36033     36035
     36037     36036     36038     36040     36039     36041     36043     36042     36044
     36046     36045     36047     36049     36048     36050     36052     36051     36053
     36055     36054     36056     36058     36057     36059     36061     36060     36062
     36064     36063     36065     36067     36066     36068     36070     36069     36071
     36073     36072     36074     36076     36075     36077     36079     36078     36080
     36082     36081     36083     36085     36084     36086     36088     36087     36089
     36091     36090     36092     36094     36093     36095     36097     36096     36098
     36100     36099     36101     36103     36102     36104     36106     36105     36107
     36109     36108     36110     36112     36111     36113     36115     36114     36116
     36118     36117     36119     36121     36120     36122     36124     36123     36125
     36127     36126     36128     36130     36129     36131     36133     36132     36134
     36136     36135     36137     36139     36138     36140     36142     36141     36143
     36145     36144     36146     36148     36147     36149     36151     36150     36152
     36154     36153     36155     36157     36156     36158     36160     36159     36161
     36163     36162     36164     36166     36165     36167     36169     36168     36170
     36172     36171     36173     36175     36174     36176     36178     36177     36179
     36181     36180     36182     36184     36183     36185     36187     36186     36188
     36190     36189     36191     36193     36192     36194     36196     36195     36197
     36199     36198     36200     36202     36201     36203     36205     36204     36206
     36208     36207     36209     36211     36210     36212     36214     36213     36215
     36217     36216     36218     36220     36219     36221     36223     36222     36224
     36226     36225     36227     36229     36228     36230     36232     36231     36233
     36235     36234     36236     36238     36237     36239     36241     36240     36242
     36244     36243     36245     36247     36246     36248     36250     36249     36251
     36253     36252     36254     36256     36255     36257     36259     36258     36260
     36262     36261     36263     36265     36264     36266     36268     36267     36269
     36271     36270     36272     36274     36273     36275     36277     36276     36278
     36280     36279     36281     36283     36282     36284     36286     36285     36287
     36289     36288     36290     36292     36291     36293     36295     36294     36296
     36298     36297     36299     36301     36300     36302     36304     36303     36305
     36307     36306     36308     36310     36309     36311     36313     36312     36314
     36316     36315     36317     36319     36318     36320     36322     36321     36323
     36325     36324     36326     36328     36327     36329     36331     36330     36332
     36334     36333     36335     36337     36336     36338     36340     36339     36341
     36343     36342     36344     36346     36345     36347     36349     36348     36350
     36352     36351     36353     36355     36354     36356     36358     36357     36359
     36361     36360     36362     36364     36363     36365     36367     36366     36368
     36370     36369     36371     36373     36372     36374     36376     36375     36377
     36379     36378     36380     36382     36381     36383     36385     36384     36386
     36388     36387     36389     36391     36390     36392     36394     36393     36395
     36397     36396     36398     36400     36399     36401     36403     36402     36404
     36406     36405     36407     36409     36408     36410     36412     36411     36413
     36415     36414     36416     36418     36417     36419     36421     36420     36422
     36424     36423     36425     36427     36426     36428     36430     36429     36431
     36433     36432     36434     36436     36435     36437     36439     36438     36440
     36442     36441     36443     36445     36444     36446     36448     36447     36449
     36451     36450     36452     36454     36453     36455     36457     36456     36458
     36460     36459     36461     36463     36462     36464     36466     36465     36467
     36469     36468     36470     36472     36471     36473     36475     36474     36476
     36478     36477     36479     36481     36480     36482     36484     36483     36485
     36487     36486     36488     36490     36489     36491     36493     36492     36494
     36496     36495     36497     36499     36498     36500     36502     36501     36503
     36505     36504     36506     36508     36507     36509     36511     36510     36512
     36514     36513     36515     36517     36516     36518     36520     36519     36521
     36523     36522     36524     36526     36525     36527     36529     36528     36530
     36532     36531     36533     36535     36534     36536     36538     36537     36539
     36541     36540     36542     36544     36543     36545     36547     36546     36548
     36550     36549     36551     36553     36552     36554     36556     36555     36557
     36559     36558     36560     36562     36561     36563     36565     36564     36566
     36568     36567     36569     36571     36570     36572     36574     36573     36575
     36577     36576     36578     36580     36579     36581     36583     36582     36584
     36586     36585     36587     36589     36588     36590     36592     36591     36593
     36595     36594     36596     36598     36597     36599     36601     36600     36602
     36604     36603     36605     36607     36606     36608     36610     36609     36611
     36613     36612     36614     36616     36615     36617     36619     36618     36620
     36622     36621     36623     36625     36624     36626     36628     36627     36629
     36631     36630     36632     36634     36633     36635     36637     36636     36638
     36640     36639     36641     36643     36642     36644     36646     36645     36647
     36649     36648     36650     36652     36651     36653     36655     36654     36656
     36658     36657     36659     36661     36660     36662     36664     36663     36665
     36667     36666     36668     36670     36669     36671     36673     36672     36674
     36676     36675     36677     36679     36678     36680     36682     36681     36683
     36685     36684     36686     36688     36687     36689     36691     36690     36692
     36694     36693     36695     36697     36696     36698     36700     36699     36701
     36703     36702     36704     36706     36705     36707     36709     36708     36710
     36712     36711     36713     36715     36714     36716     36718     36717     36719
     36721     36720     36722     36724     36723     36725     36727     36726     36728
     36730     36729     36731     36733     36732     36734     36736     36735     36737
     36739     36738     36740     36742     36741     36743     36745     36744     36746
     36748     36747     36749     36751     36750     36752     36754     36753     36755
     36757     36756     36758     36760     36759     36761     36763     36762     36764
     36766     36765     36767     36769     36768     36770     36772     36771     36773
     36775     36774     36776     36778     36777     36779     36781     36780     36782
     36784     36783     36785     36787     36786     36788     36790     36789     36791
     36793     36792     36794     36796     36795     36797     36799     36798     36800
     36802     36801     36803     36805     36804     36806     36808     36807     36809
     36811     36810     36812     36814     36813     36815     36817     36816     36818
     36820     36819     36821     36823     36822     36824     36826     36825     36827
     36829     36828     36830     36832     36831     36833     36835     36834     36836
     36838     36837     36839     36841     36840     36842     36844     36843     36845
     36847     36846     36848     36850     36849     36851     36853     36852     36854
     36856     36855     36857     36859     36858     36860     36862     36861     36863
     36865     36864     36866     36868     36867     36869     36871     36870     36872
     36874     36873     36875     36877     36876     36878     36880     36879     36881
     36883     36882     36884     36886     36885     36887     36889     36888     36890
     36892     36891     36893     36895     36894     36896     36898     36897     36899
     36901     36900     36902     36904     36903     36905     36907     36906     36908
     36910     36909     36911     36913     36912     36914     36916     36915     36917
     36919     36918     36920     36922     36921     36923     36925     36924     36926
     36928     36927     36929     36931     36930     36932     36934     36933     36935
     36937     36936     36938     36940     36939     36941     36943     36942     36944
     36946     36945     36947     36949     36948     36950     36952     36951     36953
     36955     36954     36956     36958     36957     36959     36961     36960     36962
     36964     36963     36965     36967     36966     36968     36970     36969     36971
     36973     36972     36974     36976     36975     36977     36979     36978     36980
     36982     36981     36983     36985     36984     36986     36988     36987     36989
     36991     36990     36992     36994     36993     36995     36997     36996     36998
     37000     36999     37001     37003     37002     37004     37006     37005     37007
     37009     37008     37010     37012     37011     37013     37015     37014     37016
     37018     37017     37019     37021     37020     37022     37024     37023     37025
     37027     37026     37028     37030     37029     37031     37033     37032     37034
     37036     37035     37037     37039     37038     37040     37042     37041     37043
     37045     37044     37046     37048     37047     37049     37051     37050     37052
     37054     37053     37055     37057     37056     37058     37060     37059     37061
     37063     37062     37064     37066     37065     37067     37069     37068     37070
     37072     37071     37073     37075     37074     37076     37078     37077     37079
     37081     37080     37082     37084     37083     37085     37087     37086     37088
     37090     37089     37091     37093     37092     37094     37096     37095     37097
     37099     37098     37100     37102     37101     37103     37105     37104     37106
     37108     37107     37109     37111     37110     37112     37114     37113     37115
     37117     37116     37118     37120     37119     37121     37123     37122     37124
     37126     37125     37127     37129     37128     37130     37132     37131     37133
     37135     37134     37136     37138     37137     37139     37141     37140     37142
     37144     37143     37145     37147     37146     37148     37150     37149     37151
     37153     37152     37154     37156     37155     37157     37159     37158     37160
     37162     37161     37163     37165     37164     37166     37168     37167     37169
     37171     37170     37172     37174     37173     37175     37177     37176     37178
     37180     37179     37181     37183     37182     37184     37186     37185     37187
     37189     37188     37190     37192     37191     37193     37195     37194     37196
     37198     37197     37199     37201     37200     37202     37204     37203     37205
     37207     37206     37208     37210     37209     37211     37213     37212     37214
     37216     37215     37217     37219     37218     37220     37222     37221     37223
     37225     37224     37226     37228     37227     37229     37231     37230     37232
     37234     37233     37235     37237     37236     37238     37240     37239     37241
     37243     37242     37244     37246     37245     37247     37249     37248     37250
     37252     37251     37253     37255     37254     37256     37258     37257     37259
     37261     37260     37262     37264     37263     37265     37267     37266     37268
     37270     37269     37271     37273     37272     37274     37276     37275     37277
     37279     37278     37280     37282     37281     37283     37285     37284     37286
     37288     37287     37289     37291     37290     37292     37294     37293     37295
     37297     37296     37298     37300     37299     37301     37303     37302     37304
     37306     37305     37307     37309     37308     37310     37312     37311     37313
     37315     37314     37316     37318     37317     37319     37321     37320     37322
     37324     37323     37325     37327     37326     37328     37330     37329     37331
     37333     37332     37334     37336     37335     37337     37339     37338     37340
     37342     37341     37343     37345     37344     37346     37348     37347     37349
     37351     37350     37352     37354     37353     37355     37357     37356     37358
     37360     37359     37361     37363     37362     37364     37366     37365     37367
     37369     37368     37370     37372     37371     37373     37375     37374     37376
     37378     37377     37379     37381     37380     37382     37384     37383     37385
     37387     37386     37388     37390     37389     37391     37393     37392     37394
     37396     37395     37397     37399     37398     37400     37402     37401     37403
     37405     37404     37406     37408     37407     37409     37411     37410     37412
     37414     37413     37415     37417     37416     37418     37420     37419     37421
     37423     37422     37424     37426     37425     37427     37429     37428     37430
     37432     37431     37433     37435     37434     37436     37438     37437     37439
     37441     37440     37442     37444     37443     37445     37447     37446     37448
     37450     37449     37451     37453     37452     37454     37456     37455     37457
     37459     37458     37460     37462     37461     37463     37465     37464     37466
     37468     37467     37469     37471     37470     37472     37474     37473     37475
     37477     37476     37478     37480     37479     37481     37483     37482     37484
     37486     37485     37487     37489     37488     37490     37492     37491     37493
     37495     37494     37496     37498     37497     37499     37501     37500     37502
     37504     37503     37505     37507     37506     37508     37510     37509     37511
     37513     37512     37514     37516     37515     37517     37519     37518     37520
     37522     37521     37523     37525     37524     37526     37528     37527     37529
     37531     37530     37532     37534     37533     37535     37537     37536     37538
     37540     37539     37541     37543     37542     37544     37546     37545     37547
     37549     37548     37550     37552     37551     37553     37555     37554     37556
     37558     37557     37559     37561     37560     37562     37564     37563     37565
     37567     37566     37568     37570     37569     37571     37573     37572     37574
     37576     37575     37577     37579     37578     37580     37582     37581     37583
     37585     37584     37586     37588     37587     37589     37591     37590     37592
     37594     37593     37595     37597     37596     37598     37600     37599     37601
     37603     37602     37604     37606     37605     37607     37609     37608     37610
     37612     37611     37613     37615     37614     37616     37618     37617     37619
     37621     37620     37622     37624     37623     37625     37627     37626     37628
     37630     37629     37631     37633     37632     37634     37636     37635     37637
     37639     37638     37640     37642     37641     37643     37645     37644     37646
     37648     37647     37649     37651     37650     37652     37654     37653     37655
     37657     37656     37658     37660     37659     37661     37663     37662     37664
     37666     37665     37667     37669     37668     37670     37672     37671     37673
     37675     37674     37676     37678     37677     37679     37681     37680     37682
     37684     37683     37685     37687     37686     37688     37690     37689     37691
     37693     37692     37694     37696     37695     37697     37699     37698     37700
     37702     37701     37703     37705     37704     37706     37708     37707     37709
     37711     37710     37712     37714     37713     37715     37717     37716     37718
     37720     37719     37721     37723     37722     37724     37726     37725     37727
     37729     37728     37730     37732     37731     37733     37735     37734     37736
     37738     37737     37739     37741     37740     37742     37744     37743     37745
     37747     37746     37748     37750     37749     37751     37753     37752     37754
     37756     37755     37757     37759     37758     37760     37762     37761     37763
     37765     37764     37766     37768     37767     37769     37771     37770     37772
     37774     37773     37775     37777     37776     37778     37780     37779     37781
     37783     37782     37784     37786     37785     37787     37789     37788     37790
     37792     37791     37793     37795     37794     37796     37798     37797     37799
     37801     37800     37802     37804     37803     37805     37807     37806     37808
     37810     37809     37811     37813     37812     37814     37816     37815     37817
     37819     37818     37820     37822     37821     37823     37825     37824     37826
     37828     37827     37829     37831     37830     37832     37834     37833     37835
     37837     37836     37838     37840     37839     37841     37843     37842     37844
     37846     37845     37847     37849     37848     37850     37852     37851     37853
     37855     37854     37856     37858     37857     37859     37861     37860     37862
     37864     37863     37865     37867     37866     37868     37870     37869     37871
     37873     37872     37874     37876     37875     37877     37879     37878     37880
     37882     37881     37883     37885     37884     37886     37888     37887     37889
     37891     37890     37892     37894     37893     37895     37897     37896     37898
     37900     37899     37901     37903     37902     37904     37906     37905     37907
     37909     37908     37910     37912     37911     37913     37915     37914     37916
     37918     37917     37919     37921     37920     37922     37924     37923     37925
     37927     37926     37928     37930     37929     37931     37933     37932     37934
     37936     37935     37937     37939     37938     37940     37942     37941     37943
     37945     37944     37946     37948     37947     37949     37951     37950     37952
     37954     37953     37955     37957     37956     37958     37960     37959     37961
     37963     37962     37964     37966     37965     37967     37969     37968     37970
     37972     37971     37973     37975     37974     37976     37978     37977     37979
     37981     37980     37982     37984     37983     37985     37987     37986     37988
     37990     37989     37991     37993     37992     37994     37996     37995     37997
     37999     37998     38000     38002     38001     38003     38005     38004     38006
     38008     38007     38009     38011     38010     38012     38014     38013     38015
     38017     38016     38018     38020     38019     38021     38023     38022     38024
     38026     38025     38027     38029     38028     38030     38032     38031     38033
     38035     38034     38036     38038     38037     38039     38041     38040     38042
     38044     38043     38045     38047     38046     38048     38050     38049     38051
     38053     38052     38054     38056     38055     38057     38059     38058     38060
     38062     38061     38063     38065     38064     38066     38068     38067     38069
     38071     38070     38072     38074     38073     38075     38077     38076     38078
     38080     38079     38081     38083     38082     38084     38086     38085     38087
     38089     38088     38090     38092     38091     38093     38095     38094     38096
     38098     38097     38099     38101     38100     38102     38104     38103     38105
     38107     38106     38108     38110     38109     38111     38113     38112     38114
     38116     38115     38117     38119     38118     38120     38122     38121     38123
     38125     38124     38126     38128     38127     38129     38131     38130     38132
     38134     38133     38135     38137     38136     38138     38140     38139     38141
     38143     38142     38144     38146     38145     38147     38149     38148     38150
     38152     38151     38153     38155     38154     38156     38158     38157     38159
     38161     38160     38162     38164     38163     38165     38167     38166     38168
     38170     38169     38171     38173     38172     38174     38176     38175     38177
     38179     38178     38180     38182     38181     38183     38185     38184     38186
     38188     38187     38189     38191     38190     38192     38194     38193     38195
     38197     38196     38198     38200     38199     38201     38203     38202     38204
     38206     38205     38207     38209     38208     38210     38212     38211     38213
     38215     38214     38216     38218     38217     38219     38221     38220     38222
     38224     38223     38225     38227     38226     38228     38230     38229     38231
     38233     38232     38234     38236     38235     38237     38239     38238     38240
     38242     38241     38243     38245     38244     38246     38248     38247     38249
     38251     38250     38252     38254     38253     38255     38257     38256     38258
     38260     38259     38261     38263     38262     38264     38266     38265     38267
     38269     38268     38270     38272     38271     38273     38275     38274     38276
     38278     38277     38279     38281     38280     38282     38284     38283     38285
     38287     38286     38288     38290     38289     38291     38293     38292     38294
     38296     38295     38297     38299     38298     38300     38302     38301     38303
     38305     38304     38306     38308     38307     38309     38311     38310     38312
     38314     38313     38315     38317     38316     38318     38320     38319     38321
     38323     38322     38324     38326     38325     38327     38329     38328     38330
     38332     38331     38333     38335     38334     38336     38338     38337     38339
     38341     38340     38342     38344     38343     38345     38347     38346     38348
     38350     38349     38351     38353     38352     38354     38356     38355     38357
     38359     38358     38360     38362     38361     38363     38365     38364     38366
     38368     38367     38369     38371     38370     38372     38374     38373     38375
     38377     38376     38378     38380     38379     38381     38383     38382     38384
     38386     38385     38387     38389     38388     38390     38392     38391     38393
     38395     38394     38396     38398     38397     38399     38401     38400     38402
     38404     38403     38405     38407     38406     38408     38410     38409     38411
     38413     38412     38414     38416     38415     38417     38419     38418     38420
     38422     38421     38423     38425     38424     38426     38428     38427     38429
     38431     38430     38432     38434     38433     38435     38437     38436     38438
     38440     38439     38441     38443     38442     38444     38446     38445     38447
     38449     38448     38450     38452     38451     38453     38455     38454     38456
     38458     38457     38459     38461     38460     38462     38464     38463     38465
     38467     38466     38468     38470     38469     38471     38473     38472     38474
     38476     38475     38477     38479     38478     38480     38482     38481     38483
     38485     38484     38486     38488     38487     38489     38491     38490     38492
     38494     38493     38495     38497     38496     38498     38500     38499     38501
     38503     38502     38504     38506     38505     38507     38509     38508     38510
     38512     38511     38513     38515     38514     38516     38518     38517     38519
     38521     38520     38522     38524     38523     38525     38527     38526     38528
     38530     38529     38531     38533     38532     38534     38536     38535     38537
     38539     38538     38540     38542     38541     38543     38545     38544     38546
     38548     38547     38549     38551     38550     38552     38554     38553     38555
     38557     38556     38558     38560     38559     38561     38563     38562     38564
     38566     38565     38567     38569     38568     38570     38572     38571     38573
     38575     38574     38576     38578     38577     38579     38581     38580     38582
     38584     38583     38585     38587     38586     38588     38590     38589     38591
     38593     38592     38594     38596     38595     38597     38599     38598     38600
     38602     38601     38603     38605     38604     38606     38608     38607     38609
     38611     38610     38612     38614     38613     38615     38617     38616     38618
     38620     38619     38621     38623     38622     38624     38626     38625     38627
     38629     38628     38630     38632     38631     38633     38635     38634     38636
     38638     38637     38639     38641     38640     38642     38644     38643     38645
     38647     38646     38648     38650     38649     38651     38653     38652     38654
     38656     38655     38657     38659     38658     38660     38662     38661     38663
     38665     38664     38666     38668     38667     38669     38671     38670     38672
     38674     38673     38675     38677     38676     38678     38680     38679     38681
     38683     38682     38684     38686     38685     38687     38689     38688     38690
     38692     38691     38693     38695     38694     38696     38698     38697     38699
     38701     38700     38702     38704     38703     38705     38707     38706     38708
     38710     38709     38711     38713     38712     38714     38716     38715     38717
     38719     38718     38720     38722     38721     38723     38725     38724     38726
     38728     38727     38729     38731     38730     38732     38734     38733     38735
     38737     38736     38738     38740     38739     38741     38743     38742     38744
     38746     38745     38747     38749     38748     38750     38752     38751     38753
     38755     38754     38756     38758     38757     38759     38761     38760     38762
     38764     38763     38765     38767     38766     38768     38770     38769     38771
     38773     38772     38774     38776     38775     38777     38779     38778     38780
     38782     38781     38783     38785     38784     38786     38788     38787     38789
     38791     38790     38792     38794     38793     38795     38797     38796     38798
     38800     38799     38801     38803     38802     38804     38806     38805     38807
     38809     38808     38810     38812     38811     38813     38815     38814     38816
     38818     38817     38819     38821     38820     38822     38824     38823     38825
     38827     38826     38828     38830     38829     38831     38833     38832     38834
     38836     38835     38837     38839     38838     38840     38842     38841     38843
     38845     38844     38846     38848     38847     38849     38851     38850     38852
     38854     38853     38855     38857     38856     38858     38860     38859     38861
     38863     38862     38864     38866     38865     38867     38869     38868     38870
     38872     38871     38873     38875     38874     38876     38878     38877     38879
     38881     38880     38882     38884     38883     38885     38887     38886     38888
     38890     38889     38891     38893     38892     38894     38896     38895     38897
     38899     38898     38900     38902     38901     38903     38905     38904     38906
     38908     38907     38909     38911     38910     38912     38914     38913     38915
     38917     38916     38918     38920     38919     38921     38923     38922     38924
     38926     38925     38927     38929     38928     38930     38932     38931     38933
     38935     38934     38936     38938     38937     38939     38941     38940     38942
     38944     38943     38945     38947     38946     38948     38950     38949     38951
     38953     38952     38954     38956     38955     38957     38959     38958     38960
     38962     38961     38963     38965     38964     38966     38968     38967     38969
     38971     38970     38972     38974     38973     38975     38977     38976     38978
     38980     38979     38981     38983     38982     38984     38986     38985     38987
     38989     38988     38990     38992     38991     38993     38995     38994     38996
     38998     38997     38999     39001     39000     39002     39004     39003     39005
     39007     39006     39008     39010     39009     39011     39013     39012     39014
     39016     39015     39017     39019     39018     39020     39022     39021     39023
     39025     39024     39026     39028     39027     39029     39031     39030     39032
     39034     39033     39035     39037     39036     39038     39040     39039     39041
     39043     39042     39044     39046     39045     39047     39049     39048     39050
     39052     39051     39053     39055     39054     39056     39058     39057     39059
     39061     39060     39062     39064     39063     39065     39067     39066     39068
     39070     39069     39071     39073     39072     39074     39076     39075     39077
     39079     39078     39080     39082     39081     39083     39085     39084     39086
     39088     39087     39089     39091     39090     39092     39094     39093     39095
     39097     39096     39098     39100     39099     39101     39103     39102     39104
     39106     39105     39107     39109     39108     39110     39112     39111     39113
     39115     39114     39116     39118     39117     39119     39121     39120     39122
     39124     39123     39125     39127     39126     39128     39130     39129     39131
     39133     39132     39134     39136     39135     39137     39139     39138     39140
     39142     39141     39143     39145     39144     39146     39148     39147     39149
     39151     39150     39152     39154     39153     39155     39157     39156     39158
     39160     39159     39161     39163     39162     39164     39166     39165     39167
     39169     39168     39170     39172     39171     39173     39175     39174     39176
     39178     39177     39179     39181     39180     39182     39184     39183     39185
     39187     39186     39188     39190     39189     39191     39193     39192     39194
     39196     39195     39197     39199     39198     39200     39202     39201     39203
     39205     39204     39206     39208     39207     39209     39211     39210     39212
     39214     39213     39215     39217     39216     39218     39220     39219     39221
     39223     39222     39224     39226     39225     39227     39229     39228     39230
     39232     39231     39233     39235     39234     39236     39238     39237     39239
     39241     39240     39242     39244     39243     39245     39247     39246     39248
     39250     39249     39251     39253     39252     39254     39256     39255     39257
     39259     39258     39260     39262     39261     39263     39265     39264     39266
     39268     39267     39269     39271     39270     39272     39274     39273     39275
     39277     39276     39278     39280     39279     39281     39283     39282     39284
     39286     39285     39287     39289     39288     39290     39292     39291     39293
     39295     39294     39296     39298     39297     39299     39301     39300     39302
     39304     39303     39305     39307     39306     39308     39310     39309     39311
     39313     39312     39314     39316     39315     39317     39319     39318     39320
     39322     39321     39323     39325     39324     39326     39328     39327     39329
     39331     39330     39332     39334     39333     39335     39337     39336     39338
     39340     39339     39341     39343     39342     39344     39346     39345     39347
     39349     39348     39350     39352     39351     39353     39355     39354     39356
     39358     39357     39359     39361     39360     39362     39364     39363     39365
     39367     39366     39368     39370     39369     39371     39373     39372     39374
     39376     39375     39377     39379     39378     39380     39382     39381     39383
     39385     39384     39386     39388     39387     39389     39391     39390     39392
     39394     39393     39395     39397     39396     39398     39400     39399     39401
     39403     39402     39404     39406     39405     39407     39409     39408     39410
     39412     39411     39413     39415     39414     39416     39418     39417     39419
     39421     39420     39422     39424     39423     39425     39427     39426     39428
     39430     39429     39431     39433     39432     39434     39436     39435     39437
     39439     39438     39440     39442     39441     39443     39445     39444     39446
     39448     39447     39449     39451     39450     39452     39454     39453     39455
     39457     39456     39458     39460     39459     39461     39463     39462     39464
     39466     39465     39467     39469     39468     39470     39472     39471     39473
     39475     39474     39476     39478     39477     39479     39481     39480     39482
     39484     39483     39485     39487     39486     39488     39490     39489     39491
     39493     39492     39494     39496     39495     39497     39499     39498     39500
     39502     39501     39503     39505     39504     39506     39508     39507     39509
     39511     39510     39512     39514     39513     39515     39517     39516     39518
     39520     39519     39521     39523     39522     39524     39526     39525     39527
     39529     39528     39530     39532     39531     39533     39535     39534     39536
     39538     39537     39539     39541     39540     39542     39544     39543     39545
     39547     39546     39548     39550     39549     39551     39553     39552     39554
     39556     39555     39557     39559     39558     39560     39562     39561     39563
     39565     39564     39566     39568     39567     39569     39571     39570     39572
     39574     39573     39575     39577     39576     39578     39580     39579     39581
     39583     39582     39584     39586     39585     39587     39589     39588     39590
     39592     39591     39593     39595     39594     39596     39598     39597     39599
     39601     39600     39602     39604     39603     39605     39607     39606     39608
     39610     39609     39611     39613     39612     39614     39616     39615     39617
     39619     39618     39620     39622     39621     39623     39625     39624     39626
     39628     39627     39629     39631     39630     39632     39634     39633     39635
     39637     39636     39638     39640     39639     39641     39643     39642     39644
     39646     39645     39647     39649     39648     39650     39652     39651     39653
     39655     39654     39656     39658     39657     39659     39661     39660     39662
     39664     39663     39665     39667     39666     39668     39670     39669     39671
     39673     39672     39674     39676     39675     39677     39679     39678     39680
     39682     39681     39683     39685     39684     39686     39688     39687     39689
     39691     39690     39692     39694     39693     39695     39697     39696     39698
     39700     39699     39701     39703     39702     39704     39706     39705     39707
     39709     39708     39710     39712     39711     39713     39715     39714     39716
     39718     39717     39719     39721     39720     39722     39724     39723     39725
     39727     39726     39728     39730     39729     39731     39733     39732     39734
     39736     39735     39737     39739     39738     39740     39742     39741     39743
     39745     39744     39746     39748     39747     39749     39751     39750     39752
     39754     39753     39755     39757     39756     39758     39760     39759     39761
     39763     39762     39764     39766     39765     39767     39769     39768     39770
     39772     39771     39773     39775     39774     39776     39778     39777     39779
     39781     39780     39782     39784     39783     39785     39787     39786     39788
     39790     39789     39791     39793     39792     39794     39796     39795     39797
     39799     39798     39800     39802     39801     39803     39805     39804     39806
     39808     39807     39809     39811     39810     39812     39814     39813     39815
     39817     39816     39818     39820     39819     39821     39823     39822     39824
     39826     39825     39827     39829     39828     39830     39832     39831     39833
     39835     39834     39836     39838     39837     39839     39841     39840     39842
     39844     39843     39845     39847     39846     39848     39850     39849     39851
     39853     39852     39854     39856     39855     39857     39859     39858     39860
     39862     39861     39863     39865     39864     39866     39868     39867     39869
     39871     39870     39872     39874     39873     39875     39877     39876     39878
     39880     39879     39881     39883     39882     39884     39886     39885     39887
     39889     39888     39890     39892     39891     39893     39895     39894     39896
     39898     39897     39899     39901     39900     39902     39904     39903     39905
     39907     39906     39908     39910     39909     39911     39913     39912     39914
     39916     39915     39917     39919     39918     39920     39922     39921     39923
     39925     39924     39926     39928     39927     39929     39931     39930     39932
     39934     39933     39935     39937     39936     39938     39940     39939     39941
     39943     39942     39944     39946     39945     39947     39949     39948     39950
     39952     39951     39953     39955     39954     39956     39958     39957     39959
     39961     39960     39962     39964     39963     39965     39967     39966     39968
     39970     39969     39971     39973     39972     39974     39976     39975     39977
     39979     39978     39980     39982     39981     39983     39985     39984     39986
     39988     39987     39989     39991     39990     39992     39994     39993     39995
     39997     39996     39998     40000     39999     40001     40003     40002     40004
     40006     40005     40007     40009     40008     40010     40012     40011     40013
     40015     40014     40016     40018     40017     40019     40021     40020     40022
     40024     40023     40025     40027     40026     40028     40030     40029     40031
     40033     40032     40034     40036     40035     40037     40039     40038     40040
     40042     40041     40043     40045     40044     40046     40048     40047     40049
     40051     40050     40052     40054     40053     40055     40057     40056     40058
     40060     40059     40061     40063     40062     40064     40066     40065     40067
     40069     40068     40070     40072     40071     40073     40075     40074     40076
     40078     40077     40079     40081     40080     40082     40084     40083     40085
     40087     40086     40088     40090     40089     40091     40093     40092     40094
     40096     40095     40097     40099     40098     40100     40102     40101     40103
     40105     40104     40106     40108     40107     40109     40111     40110     40112
     40114     40113     40115     40117     40116     40118     40120     40119     40121
     40123     40122     40124     40126     40125     40127     40129     40128     40130
     40132     40131     40133     40135     40134     40136     40138     40137     40139
     40141     40140     40142     40144     40143     40145     40147     40146     40148
     40150     40149     40151     40153     40152     40154     40156     40155     40157
     40159     40158     40160     40162     40161     40163     40165     40164     40166
     40168     40167     40169     40171     40170     40172     40174     40173     40175
     40177     40176     40178     40180     40179     40181     40183     40182     40184
     40186     40185     40187     40189     40188     40190     40192     40191     40193
     40195     40194     40196     40198     40197     40199     40201     40200     40202
     40204     40203     40205     40207     40206     40208     40210     40209     40211
     40213     40212     40214     40216     40215     40217     40219     40218     40220
     40222     40221     40223     40225     40224     40226     40228     40227     40229
     40231     40230     40232     40234     40233     40235     40237     40236     40238
     40240     40239     40241     40243     40242     40244     40246     40245     40247
     40249     40248     40250     40252     40251     40253     40255     40254     40256
     40258     40257     40259     40261     40260     40262     40264     40263     40265
     40267     40266     40268     40270     40269     40271     40273     40272     40274
     40276     40275     40277     40279     40278     40280     40282     40281     40283
     40285     40284     40286     40288     40287     40289     40291     40290     40292
     40294     40293     40295     40297     40296     40298     40300     40299     40301
     40303     40302     40304     40306     40305     40307     40309     40308     40310
     40312     40311     40313     40315     40314     40316     40318     40317     40319
     40321     40320     40322     40324     40323     40325     40327     40326     40328
     40330     40329     40331     40333     40332     40334     40336     40335     40337
     40339     40338     40340     40342     40341     40343     40345     40344     40346
     40348     40347     40349     40351     40350     40352     40354     40353     40355
     40357     40356     40358     40360     40359     40361     40363     40362     40364
     40366     40365     40367     40369     40368     40370     40372     40371     40373
     40375     40374     40376     40378     40377     40379     40381     40380     40382
     40384     40383     40385     40387     40386     40388     40390     40389     40391
     40393     40392     40394     40396     40395     40397     40399     40398     40400
     40402     40401     40403     40405     40404     40406     40408     40407     40409
     40411     40410     40412     40414     40413     40415     40417     40416     40418
     40420     40419     40421     40423     40422     40424     40426     40425     40427
     40429     40428     40430     40432     40431     40433     40435     40434     40436
     40438     40437     40439     40441     40440     40442     40444     40443     40445
     40447     40446     40448     40450     40449     40451     40453     40452     40454
     40456     40455     40457     40459     40458     40460     40462     40461     40463
     40465     40464     40466     40468     40467     40469     40471     40470     40472
     40474     40473     40475     40477     40476     40478     40480     40479     40481
     40483     40482     40484     40486     40485     40487     40489     40488     40490
     40492     40491     40493     40495     40494     40496     40498     40497     40499
     40501     40500     40502     40504     40503     40505     40507     40506     40508
     40510     40509     40511     40513     40512     40514     40516     40515     40517
     40519     40518     40520     40522     40521     40523     40525     40524     40526
     40528     40527     40529     40531     40530     40532     40534     40533     40535
     40537     40536     40538     40540     40539     40541     40543     40542     40544
     40546     40545     40547     40549     40548     40550     40552     40551     40553
     40555     40554     40556     40558     40557     40559     40561     40560     40562
     40564     40563     40565     40567     40566     40568     40570     40569     40571
     40573     40572     40574     40576     40575     40577     40579     40578     40580
     40582     40581     40583     40585     40584     40586     40588     40587     40589
     40591     40590     40592     40594     40593     40595     40597     40596     40598
     40600     40599     40601     40603     40602     40604     40606     40605     40607
     40609     40608     40610     40612     40611     40613     40615     40614     40616
     40618     40617     40619     40621     40620     40622     40624     40623     40625
     40627     40626     40628     40630     40629     40631     40633     40632     40634
     40636     40635     40637     40639     40638     40640     40642     40641     40643
     40645     40644     40646     40648     40647     40649     40651     40650     40652
     40654     40653     40655     40657     40656     40658     40660     40659     40661
     40663     40662     40664     40666     40665     40667     40669     40668     40670
     40672     40671     40673     40675     40674     40676     40678     40677     40679
     40681     40680     40682     40684     40683     40685     40687     40686     40688
     40690     40689     40691     40693     40692     40694     40696     40695     40697
     40699     40698     40700     40702     40701     40703     40705     40704     40706
     40708     40707     40709     40711     40710     40712     40714     40713     40715
     40717     40716     40718     40720     40719     40721     40723     40722     40724
     40726     40725     40727     40729     40728     40730     40732     40731     40733
     40735     40734     40736     40738     40737     40739     40741     40740     40742
     40744     40743     40745     40747     40746     40748     40750     40749     40751
     40753     40752     40754     40756     40755     40757     40759     40758     40760
     40762     40761     40763     40765     40764     40766     40768     40767     40769
     40771     40770     40772     40774     40773     40775     40777     40776     40778
     40780     40779     40781     40783     40782     40784     40786     40785     40787
     40789     40788     40790     40792     40791     40793     40795     40794     40796
     40798     40797     40799     40801     40800     40802     40804     40803     40805
     40807     40806     40808     40810     40809     40811     40813     40812     40814
     40816     40815     40817     40819     40818     40820     40822     40821     40823
     40825     40824     40826     40828     40827     40829     40831     40830     40832
     40834     40833     40835     40837     40836     40838     40840     40839     40841
     40843     40842     40844     40846     40845     40847     40849     40848     40850
     40852     40851     40853     40855     40854     40856     40858     40857     40859
     40861     40860     40862     40864     40863     40865     40867     40866     40868
     40870     40869     40871     40873     40872     40874     40876     40875     40877
     40879     40878     40880     40882     40881     40883     40885     40884     40886
     40888     40887     40889     40891     40890     40892     40894     40893     40895
     40897     40896     40898     40900     40899     40901     40903     40902     40904
     40906     40905     40907     40909     40908     40910     40912     40911     40913
     40915     40914     40916     40918     40917     40919     40921     40920     40922
     40924     40923     40925     40927     40926     40928     40930     40929     40931
     40933     40932     40934     40936     40935     40937     40939     40938     40940
     40942     40941     40943     40945     40944     40946     40948     40947     40949
     40951     40950     40952     40954     40953     40955     40957     40956     40958
     40960     40959     40961     40963     40962     40964     40966     40965     40967
     40969     40968     40970     40972     40971     40973     40975     40974     40976
     40978     40977     40979     40981     40980     40982     40984     40983     40985
     40987     40986     40988     40990     40989     40991     40993     40992     40994
     40996     40995     40997     40999     40998     41000     41002     41001     41003
     41005     41004     41006     41008     41007     41009     41011     41010     41012
     41014     41013     41015     41017     41016     41018     41020     41019     41021
     41023     41022     41024     41026     41025     41027     41029     41028     41030
     41032     41031     41033     41035     41034     41036     41038     41037     41039
     41041     41040     41042     41044     41043     41045     41047     41046     41048
     41050     41049     41051     41053     41052     41054     41056     41055     41057
     41059     41058     41060     41062     41061     41063     41065     41064     41066
     41068     41067     41069     41071     41070     41072     41074     41073     41075
     41077     41076     41078     41080     41079     41081     41083     41082     41084
     41086     41085     41087     41089     41088     41090     41092     41091     41093
     41095     41094     41096     41098     41097     41099     41101     41100     41102
     41104     41103     41105     41107     41106     41108     41110     41109     41111
     41113     41112     41114     41116     41115     41117     41119     41118     41120
     41122     41121     41123     41125     41124     41126     41128     41127     41129
     41131     41130     41132     41134     41133     41135     41137     41136     41138
     41140     41139     41141     41143     41142     41144     41146     41145     41147
     41149     41148     41150     41152     41151     41153     41155     41154     41156
     41158     41157     41159     41161     41160     41162     41164     41163     41165
     41167     41166     41168     41170     41169     41171     41173     41172     41174
     41176     41175     41177     41179     41178     41180     41182     41181     41183
     41185     41184     41186     41188     41187     41189     41191     41190     41192
     41194     41193     41195     41197     41196     41198     41200     41199     41201
     41203     41202     41204     41206     41205     41207     41209     41208     41210
     41212     41211     41213     41215     41214     41216     41218     41217     41219
     41221     41220     41222     41224     41223     41225     41227     41226     41228
     41230     41229     41231     41233     41232     41234     41236     41235     41237
     41239     41238     41240     41242     41241     41243     41245     41244     41246
     41248     41247     41249     41251     41250     41252     41254     41253     41255
     41257     41256     41258     41260     41259     41261     41263     41262     41264
     41266     41265     41267     41269     41268     41270     41272     41271     41273
     41275     41274     41276     41278     41277     41279     41281     41280     41282
     41284     41283     41285     41287     41286     41288     41290     41289     41291
     41293     41292     41294     41296     41295     41297     41299     41298     41300
     41302     41301     41303     41305     41304     41306     41308     41307     41309
     41311     41310     41312     41314     41313     41315     41317     41316     41318
     41320     41319     41321     41323     41322     41324     41326     41325     41327
     41329     41328     41330     41332     41331     41333     41335     41334     41336
     41338     41337     41339     41341     41340     41342     41344     41343     41345
     41347     41346     41348     41350     41349     41351     41353     41352     41354
     41356     41355     41357     41359     41358     41360     41362     41361     41363
     41365     41364     41366     41368     41367     41369     41371     41370     41372
     41374     41373     41375     41377     41376     41378     41380     41379     41381
     41383     41382     41384     41386     41385     41387     41389     41388     41390
     41392     41391     41393     41395     41394     41396     41398     41397     41399
     41401     41400     41402     41404     41403     41405     41407     41406     41408
     41410     41409     41411     41413     41412     41414     41416     41415     41417
     41419     41418     41420     41422     41421     41423     41425     41424     41426
     41428     41427     41429     41431     41430     41432     41434     41433     41435
     41437     41436     41438     41440     41439     41441     41443     41442     41444
     41446     41445     41447     41449     41448     41450     41452     41451     41453
     41455     41454     41456     41458     41457     41459     41461     41460     41462
     41464     41463     41465     41467     41466     41468     41470     41469     41471
     41473     41472     41474     41476     41475     41477     41479     41478     41480
     41482     41481     41483     41485     41484     41486     41488     41487     41489
     41491     41490     41492     41494     41493     41495     41497     41496     41498
     41500     41499     41501     41503     41502     41504     41506     41505     41507
     41509     41508     41510     41512     41511     41513     41515     41514     41516
     41518     41517     41519     41521     41520     41522     41524     41523     41525
     41527     41526     41528     41530     41529     41531     41533     41532     41534
     41536     41535     41537     41539     41538     41540     41542     41541     41543
     41545     41544     41546     41548     41547     41549     41551     41550     41552
     41554     41553     41555     41557     41556     41558     41560     41559     41561
     41563     41562     41564     41566     41565     41567     41569     41568     41570
     41572     41571     41573     41575     41574     41576     41578     41577     41579
     41581     41580     41582     41584     41583     41585     41587     41586     41588
     41590     41589     41591     41593     41592     41594     41596     41595     41597
     41599     41598     41600     41602     41601     41603     41605     41604     41606
     41608     41607     41609     41611     41610     41612     41614     41613     41615
     41617     41616     41618     41620     41619     41621     41623     41622     41624
     41626     41625     41627     41629     41628     41630     41632     41631     41633
     41635     41634     41636     41638     41637     41639     41641     41640     41642
     41644     41643     41645     41647     41646     41648     41650     41649     41651
     41653     41652     41654     41656     41655     41657     41659     41658     41660
     41662     41661     41663     41665     41664     41666     41668     41667     41669
     41671     41670     41672     41674     41673     41675     41677     41676     41678
     41680     41679     41681     41683     41682     41684     41686     41685     41687
     41689     41688     41690     41692     41691     41693     41695     41694     41696
     41698     41697     41699     41701     41700     41702     41704     41703     41705
     41707     41706     41708     41710     41709     41711     41713     41712     41714
     41716     41715     41717     41719     41718     41720     41722     41721     41723
     41725     41724     41726     41728     41727     41729     41731     41730     41732
     41734     41733     41735     41737     41736     41738     41740     41739     41741
     41743     41742     41744     41746     41745     41747     41749     41748     41750
     41752     41751     41753     41755     41754     41756     41758     41757     41759
     41761     41760     41762     41764     41763     41765     41767     41766     41768
     41770     41769     41771     41773     41772     41774     41776     41775     41777
     41779     41778     41780     41782     41781     41783     41785     41784     41786
     41788     41787     41789     41791     41790     41792     41794     41793     41795
     41797     41796     41798     41800     41799     41801     41803     41802     41804
     41806     41805     41807     41809     41808     41810     41812     41811     41813
     41815     41814     41816     41818     41817     41819     41821     41820     41822
     41824     41823     41825     41827     41826     41828     41830     41829     41831
     41833     41832     41834     41836     41835     41837     41839     41838     41840
     41842     41841     41843     41845     41844     41846     41848     41847     41849
     41851     41850     41852     41854     41853     41855     41857     41856     41858
     41860     41859     41861     41863     41862     41864     41866     41865     41867
     41869     41868     41870     41872     41871     41873     41875     41874     41876
     41878     41877     41879     41881     41880     41882     41884     41883     41885
     41887     41886     41888     41890     41889     41891     41893     41892     41894
     41896     41895     41897     41899     41898     41900     41902     41901     41903
     41905     41904     41906     41908     41907     41909     41911     41910     41912
     41914     41913     41915     41917     41916     41918     41920     41919     41921
     41923     41922     41924     41926     41925     41927     41929     41928     41930
     41932     41931     41933     41935     41934     41936     41938     41937     41939
     41941     41940     41942     41944     41943     41945     41947     41946     41948
     41950     41949     41951     41953     41952     41954     41956     41955     41957
     41959     41958     41960     41962     41961     41963     41965     41964     41966
     41968     41967     41969     41971     41970     41972     41974     41973     41975
     41977     41976     41978     41980     41979     41981     41983     41982     41984
     41986     41985     41987     41989     41988     41990     41992     41991     41993
     41995     41994     41996     41998     41997     41999     42001     42000     42002
     42004     42003     42005     42007     42006     42008     42010     42009     42011
     42013     42012     42014     42016     42015     42017     42019     42018     42020
     42022     42021     42023     42025     42024     42026     42028     42027     42029
     42031     42030     42032     42034     42033     42035     42037     42036     42038
     42040     42039     42041     42043     42042     42044     42046     42045     42047
     42049     42048     42050     42052     42051     42053     42055     42054     42056
     42058     42057     42059     42061     42060     42062     42064     42063     42065
     42067     42066     42068     42070     42069     42071     42073     42072     42074
     42076     42075     42077     42079     42078     42080     42082     42081     42083
     42085     42084     42086     42088     42087     42089     42091     42090     42092
     42094     42093     42095     42097     42096     42098     42100     42099     42101
     42103     42102     42104     42106     42105     42107     42109     42108     42110
     42112     42111     42113     42115     42114     42116     42118     42117     42119
     42121     42120     42122     42124     42123     42125     42127     42126     42128
     42130     42129     42131     42133     42132     42134     42136     42135     42137
     42139     42138     42140     42142     42141     42143     42145     42144     42146
     42148     42147     42149     42151     42150     42152     42154     42153     42155
     42157     42156     42158     42160     42159     42161     42163     42162     42164
     42166     42165     42167     42169     42168     42170     42172     42171     42173
     42175     42174     42176     42178     42177     42179     42181     42180     42182
     42184     42183     42185     42187     42186     42188     42190     42189     42191
     42193     42192     42194     42196     42195     42197     42199     42198     42200
     42202     42201     42203     42205     42204     42206     42208     42207     42209
     42211     42210     42212     42214     42213     42215     42217     42216     42218
     42220     42219     42221     42223     42222     42224     42226     42225     42227
     42229     42228     42230     42232     42231     42233     42235     42234     42236
     42238     42237     42239     42241     42240     42242     42244     42243     42245
     42247     42246     42248     42250     42249     42251     42253     42252     42254
     42256     42255     42257     42259     42258     42260     42262     42261     42263
     42265     42264     42266     42268     42267     42269     42271     42270     42272
     42274     42273     42275     42277     42276     42278     42280     42279     42281
     42283     42282     42284     42286     42285     42287     42289     42288     42290
     42292     42291     42293     42295     42294     42296     42298     42297     42299
     42301     42300     42302     42304     42303     42305     42307     42306     42308
     42310     42309     42311     42313     42312     42314     42316     42315     42317
     42319     42318     42320     42322     42321     42323     42325     42324     42326
     42328     42327     42329     42331     42330     42332     42334     42333     42335
     42337     42336     42338     42340     42339     42341     42343     42342     42344
     42346     42345     42347     42349     42348     42350     42352     42351     42353
     42355     42354     42356     42358     42357     42359     42361     42360     42362
     42364     42363     42365     42367     42366     42368     42370     42369     42371
     42373     42372     42374     42376     42375     42377     42379     42378     42380
     42382     42381     42383     42385     42384     42386     42388     42387     42389
     42391     42390     42392     42394     42393     42395     42397     42396     42398
     42400     42399     42401     42403     42402     42404     42406     42405     42407
     42409     42408     42410     42412     42411     42413     42415     42414     42416
     42418     42417     42419     42421     42420     42422     42424     42423     42425
     42427     42426     42428     42430     42429     42431     42433     42432     42434
     42436     42435     42437     42439     42438     42440     42442     42441     42443
     42445     42444     42446     42448     42447     42449     42451     42450     42452
     42454     42453     42455     42457     42456     42458     42460     42459     42461
     42463     42462     42464     42466     42465     42467     42469     42468     42470
     42472     42471     42473     42475     42474     42476     42478     42477     42479
     42481     42480     42482     42484     42483     42485     42487     42486     42488
     42490     42489     42491     42493     42492     42494     42496     42495     42497
     42499     42498     42500     42502     42501     42503     42505     42504     42506
     42508     42507     42509     42511     42510     42512     42514     42513     42515
     42517     42516     42518     42520     42519     42521     42523     42522     42524
     42526     42525     42527     42529     42528     42530     42532     42531     42533
     42535     42534     42536     42538     42537     42539     42541     42540     42542
     42544     42543     42545     42547     42546     42548     42550     42549     42551
     42553     42552     42554     42556     42555     42557     42559     42558     42560
     42562     42561     42563     42565     42564     42566     42568     42567     42569
     42571     42570     42572     42574     42573     42575     42577     42576     42578
     42580     42579     42581     42583     42582     42584     42586     42585     42587
     42589     42588     42590     42592     42591     42593     42595     42594     42596
     42598     42597     42599     42601     42600     42602     42604     42603     42605
     42607     42606     42608     42610     42609     42611     42613     42612     42614
     42616     42615     42617     42619     42618     42620     42622     42621     42623
     42625     42624     42626     42628     42627     42629     42631     42630     42632
     42634     42633     42635     42637     42636     42638     42640     42639     42641
     42643     42642     42644     42646     42645     42647     42649     42648     42650
     42652     42651     42653     42655     42654     42656     42658     42657     42659
     42661     42660     42662     42664     42663     42665     42667     42666     42668
     42670     42669     42671     42673     42672     42674     42676     42675     42677
     42679     42678     42680     42682     42681     42683     42685     42684     42686
     42688     42687     42689     42691     42690     42692     42694     42693     42695
     42697     42696     42698     42700     42699     42701     42703     42702     42704
     42706     42705     42707     42709     42708     42710     42712     42711     42713
     42715     42714     42716     42718     42717     42719     42721     42720     42722
     42724     42723     42725     42727     42726     42728     42730     42729     42731
     42733     42732     42734     42736     42735     42737     42739     42738     42740
     42742     42741     42743     42745     42744     42746     42748     42747     42749
     42751     42750     42752     42754     42753     42755     42757     42756     42758
     42760     42759     42761     42763     42762     42764     42766     42765     42767
     42769     42768     42770     42772     42771     42773     42775     42774     42776
     42778     42777     42779     42781     42780     42782     42784     42783     42785
     42787     42786     42788     42790     42789     42791     42793     42792     42794
     42796     42795     42797     42799     42798     42800     42802     42801     42803
     42805     42804     42806     42808     42807     42809     42811     42810     42812
     42814     42813     42815     42817     42816     42818     42820     42819     42821
     42823     42822     42824     42826     42825     42827     42829     42828     42830
     42832     42831     42833     42835     42834     42836     42838     42837     42839
     42841     42840     42842     42844     42843     42845     42847     42846     42848
     42850     42849     42851     42853     42852     42854     42856     42855     42857
     42859     42858     42860     42862     42861     42863     42865     42864     42866
     42868     42867     42869     42871     42870     42872     42874     42873     42875
     42877     42876     42878     42880     42879     42881     42883     42882     42884
     42886     42885     42887     42889     42888     42890     42892     42891     42893
     42895     42894     42896     42898     42897     42899     42901     42900     42902
     42904     42903     42905     42907     42906     42908     42910     42909     42911
     42913     42912     42914     42916     42915     42917     42919     42918     42920
     42922     42921     42923     42925     42924     42926     42928     42927     42929
     42931     42930     42932     42934     42933     42935     42937     42936     42938
     42940     42939     42941     42943     42942     42944     42946     42945     42947
     42949     42948     42950     42952     42951     42953     42955     42954     42956
     42958     42957     42959     42961     42960     42962     42964     42963     42965
     42967     42966     42968     42970     42969     42971     42973     42972     42974
     42976     42975     42977     42979     42978     42980     42982     42981     42983
     42985     42984     42986     42988     42987     42989     42991     42990     42992
     42994     42993     42995     42997     42996     42998     43000     42999     43001
     43003     43002     43004     43006     43005     43007     43009     43008     43010
     43012     43011     43013     43015     43014     43016     43018     43017     43019
     43021     43020     43022     43024     43023     43025     43027     43026     43028
     43030     43029     43031     43033     43032     43034     43036     43035     43037
     43039     43038     43040     43042     43041     43043     43045     43044     43046
     43048     43047     43049     43051     43050     43052     43054     43053     43055
     43057     43056     43058     43060     43059     43061     43063     43062     43064
     43066     43065     43067     43069     43068     43070     43072     43071     43073
     43075     43074     43076     43078     43077     43079     43081     43080     43082
     43084     43083     43085     43087     43086     43088     43090     43089     43091
     43093     43092     43094     43096     43095     43097     43099     43098     43100
     43102     43101     43103     43105     43104     43106     43108     43107     43109
     43111     43110     43112     43114     43113     43115     43117     43116     43118
     43120     43119     43121     43123     43122     43124     43126     43125     43127
     43129     43128     43130     43132     43131     43133     43135     43134     43136
     43138     43137     43139     43141     43140     43142     43144     43143     43145
     43147     43146     43148     43150     43149     43151     43153     43152     43154
     43156     43155     43157     43159     43158     43160     43162     43161     43163
     43165     43164     43166     43168     43167     43169     43171     43170     43172
     43174     43173     43175     43177     43176     43178     43180     43179     43181
     43183     43182     43184     43186     43185     43187     43189     43188     43190
     43192     43191     43193     43195     43194     43196     43198     43197     43199
     43201     43200     43202     43204     43203     43205     43207     43206     43208
     43210     43209     43211     43213     43212     43214     43216     43215     43217
     43219     43218     43220     43222     43221     43223     43225     43224     43226
     43228     43227     43229     43231     43230     43232     43234     43233     43235
     43237     43236     43238     43240     43239     43241     43243     43242     43244
     43246     43245     43247     43249     43248     43250     43252     43251     43253
     43255     43254     43256     43258     43257     43259     43261     43260     43262
     43264     43263     43265     43267     43266     43268     43270     43269     43271
     43273     43272     43274     43276     43275     43277     43279     43278     43280
     43282     43281     43283     43285     43284     43286     43288     43287     43289
     43291     43290     43292     43294     43293     43295     43297     43296     43298
     43300     43299     43301     43303     43302     43304     43306     43305     43307
     43309     43308     43310     43312     43311     43313     43315     43314     43316
     43318     43317     43319     43321     43320     43322     43324     43323     43325
     43327     43326     43328     43330     43329     43331     43333     43332     43334
     43336     43335     43337     43339     43338     43340     43342     43341     43343
     43345     43344     43346     43348     43347     43349     43351     43350     43352
     43354     43353     43355     43357     43356     43358     43360     43359     43361
     43363     43362     43364     43366     43365     43367     43369     43368     43370
     43372     43371     43373     43375     43374     43376     43378     43377     43379
     43381     43380     43382     43384     43383     43385     43387     43386     43388
     43390     43389     43391     43393     43392     43394     43396     43395     43397
     43399     43398     43400     43402     43401     43403     43405     43404     43406
     43408     43407     43409     43411     43410     43412     43414     43413     43415
     43417     43416     43418     43420     43419     43421     43423     43422     43424
     43426     43425     43427     43429     43428     43430     43432     43431     43433
     43435     43434     43436     43438     43437     43439     43441     43440     43442
     43444     43443     43445     43447     43446     43448     43450     43449     43451
     43453     43452     43454     43456     43455     43457     43459     43458     43460
     43462     43461     43463     43465     43464     43466     43468     43467     43469
     43471     43470     43472     43474     43473     43475     43477     43476     43478
     43480     43479     43481     43483     43482     43484     43486     43485     43487
     43489     43488     43490     43492     43491     43493     43495     43494     43496
     43498     43497     43499     43501     43500     43502     43504     43503     43505
     43507     43506     43508     43510     43509     43511     43513     43512     43514
     43516     43515     43517     43519     43518     43520     43522     43521     43523
     43525     43524     43526     43528     43527     43529     43531     43530     43532
     43534     43533     43535     43537     43536     43538     43540     43539     43541
     43543     43542     43544     43546     43545     43547     43549     43548     43550
     43552     43551     43553     43555     43554     43556     43558     43557     43559
     43561     43560     43562     43564     43563     43565     43567     43566     43568
     43570     43569     43571     43573     43572     43574     43576     43575     43577
     43579     43578     43580     43582     43581     43583     43585     43584     43586
     43588     43587     43589     43591     43590     43592     43594     43593     43595
     43597     43596     43598     43600     43599     43601     43603     43602     43604
     43606     43605     43607     43609     43608     43610     43612     43611     43613
     43615     43614     43616     43618     43617     43619     43621     43620     43622
     43624     43623     43625     43627     43626     43628     43630     43629     43631
     43633     43632     43634     43636     43635     43637     43639     43638     43640
     43642     43641     43643     43645     43644     43646     43648     43647     43649
     43651     43650     43652     43654     43653     43655     43657     43656     43658
     43660     43659     43661     43663     43662     43664     43666     43665     43667
     43669     43668     43670     43672     43671     43673     43675     43674     43676
     43678     43677     43679     43681     43680     43682     43684     43683     43685
     43687     43686     43688     43690     43689     43691     43693     43692     43694
     43696     43695     43697     43699     43698     43700     43702     43701     43703
     43705     43704     43706     43708     43707     43709     43711     43710     43712
     43714     43713     43715     43717     43716     43718     43720     43719     43721
     43723     43722     43724     43726     43725     43727     43729     43728     43730
     43732     43731     43733     43735     43734     43736     43738     43737     43739
     43741     43740     43742     43744     43743     43745     43747     43746     43748
     43750     43749     43751     43753     43752     43754     43756     43755     43757
     43759     43758     43760     43762     43761     43763     43765     43764     43766
     43768     43767     43769     43771     43770     43772     43774     43773     43775
     43777     43776     43778     43780     43779     43781     43783     43782     43784
     43786     43785     43787     43789     43788     43790     43792     43791     43793
     43795     43794     43796     43798     43797     43799     43801     43800     43802
     43804     43803     43805     43807     43806     43808     43810     43809     43811
     43813     43812     43814     43816     43815     43817     43819     43818     43820
     43822     43821     43823     43825     43824     43826     43828     43827     43829
     43831     43830     43832     43834     43833     43835     43837     43836     43838
     43840     43839     43841     43843     43842     43844     43846     43845     43847
     43849     43848     43850     43852     43851     43853     43855     43854     43856
     43858     43857     43859     43861     43860     43862     43864     43863     43865
     43867     43866     43868     43870     43869     43871     43873     43872     43874
     43876     43875     43877     43879     43878     43880     43882     43881     43883
     43885     43884     43886     43888     43887     43889     43891     43890     43892
     43894     43893     43895     43897     43896     43898     43900     43899     43901
     43903     43902     43904     43906     43905     43907     43909     43908     43910
     43912     43911     43913     43915     43914     43916     43918     43917     43919
     43921     43920     43922     43924     43923     43925     43927     43926     43928
     43930     43929     43931     43933     43932     43934     43936     43935     43937
     43939     43938     43940     43942     43941     43943     43945     43944     43946
     43948     43947     43949     43951     43950     43952     43954     43953     43955
     43957     43956     43958     43960     43959     43961     43963     43962     43964
     43966     43965     43967     43969     43968     43970     43972     43971     43973
     43975     43974     43976     43978     43977     43979     43981     43980     43982
     43984     43983     43985     43987     43986     43988     43990     43989     43991
     43993     43992     43994     43996     43995     43997     43999     43998     44000
     44002     44001     44003     44005     44004     44006     44008     44007     44009
     44011     44010     44012     44014     44013     44015     44017     44016     44018
     44020     44019     44021     44023     44022     44024     44026     44025     44027
     44029     44028     44030     44032     44031     44033     44035     44034     44036
     44038     44037     44039     44041     44040     44042     44044     44043     44045
     44047     44046     44048     44050     44049     44051     44053     44052     44054
     44056     44055     44057     44059     44058     44060     44062     44061     44063
     44065     44064     44066     44068     44067     44069     44071     44070     44072
     44074     44073     44075     44077     44076     44078     44080     44079     44081
     44083     44082     44084     44086     44085     44087     44089     44088     44090
     44092     44091     44093     44095     44094     44096     44098     44097     44099
     44101     44100     44102     44104     44103     44105     44107     44106     44108
     44110     44109     44111     44113     44112     44114     44116     44115     44117
     44119     44118     44120     44122     44121     44123     44125     44124     44126
     44128     44127     44129     44131     44130     44132     44134     44133     44135
     44137     44136     44138     44140     44139     44141     44143     44142     44144
     44146     44145     44147     44149     44148     44150     44152     44151     44153
     44155     44154     44156     44158     44157     44159     44161     44160     44162
     44164     44163     44165     44167     44166     44168     44170     44169     44171
     44173     44172     44174     44176     44175     44177     44179     44178     44180
     44182     44181     44183     44185     44184     44186     44188     44187     44189
     44191     44190     44192     44194     44193     44195     44197     44196     44198
     44200     44199     44201     44203     44202     44204     44206     44205     44207
     44209     44208     44210     44212     44211     44213     44215     44214     44216
     44218     44217     44219     44221     44220     44222     44224     44223     44225
     44227     44226     44228     44230     44229     44231     44233     44232     44234
     44236     44235     44237     44239     44238     44240     44242     44241     44243
     44245     44244     44246     44248     44247     44249     44251     44250     44252
     44254     44253     44255     44257     44256     44258     44260     44259     44261
     44263     44262     44264     44266     44265     44267     44269     44268     44270
     44272     44271     44273     44275     44274     44276     44278     44277     44279
     44281     44280     44282     44284     44283     44285     44287     44286     44288
     44290     44289     44291     44293     44292     44294     44296     44295     44297
     44299     44298     44300     44302     44301     44303     44305     44304     44306
     44308     44307     44309     44311     44310     44312     44314     44313     44315
     44317     44316     44318     44320     44319     44321     44323     44322     44324
     44326     44325     44327     44329     44328     44330     44332     44331     44333
     44335     44334     44336     44338     44337     44339     44341     44340     44342
     44344     44343     44345     44347     44346     44348     44350     44349     44351
     44353     44352     44354     44356     44355     44357     44359     44358     44360
     44362     44361     44363     44365     44364     44366     44368     44367     44369
     44371     44370     44372     44374     44373     44375     44377     44376     44378
     44380     44379     44381     44383     44382     44384     44386     44385     44387
     44389     44388     44390     44392     44391     44393     44395     44394     44396
     44398     44397     44399     44401     44400     44402     44404     44403     44405
     44407     44406     44408     44410     44409     44411     44413     44412     44414
     44416     44415     44417     44419     44418     44420     44422     44421     44423
     44425     44424     44426     44428     44427     44429     44431     44430     44432
     44434     44433     44435     44437     44436     44438     44440     44439     44441
     44443     44442     44444     44446     44445     44447     44449     44448     44450
     44452     44451     44453     44455     44454     44456     44458     44457     44459
     44461     44460     44462     44464     44463     44465     44467     44466     44468
     44470     44469     44471     44473     44472     44474     44476     44475     44477
     44479     44478     44480     44482     44481     44483     44485     44484     44486
     44488     44487     44489     44491     44490     44492     44494     44493     44495
     44497     44496     44498     44500     44499     44501     44503     44502     44504
     44506     44505     44507     44509     44508     44510     44512     44511     44513
     44515     44514     44516     44518     44517     44519     44521     44520     44522
     44524     44523     44525     44527     44526     44528     44530     44529     44531
     44533     44532     44534     44536     44535     44537     44539     44538     44540
     44542     44541     44543     44545     44544     44546     44548     44547     44549
     44551     44550     44552     44554     44553     44555     44557     44556     44558
     44560     44559     44561     44563     44562     44564     44566     44565     44567
     44569     44568     44570     44572     44571     44573     44575     44574     44576
     44578     44577     44579     44581     44580     44582     44584     44583     44585
     44587     44586     44588     44590     44589     44591     44593     44592     44594
     44596     44595     44597     44599     44598     44600     44602     44601     44603
     44605     44604     44606     44608     44607     44609     44611     44610     44612
     44614     44613     44615     44617     44616     44618     44620     44619     44621
     44623     44622     44624     44626     44625     44627     44629     44628     44630
     44632     44631     44633     44635     44634     44636     44638     44637     44639
     44641     44640     44642     44644     44643     44645     44647     44646     44648
     44650     44649     44651     44653     44652     44654     44656     44655     44657
     44659     44658     44660     44662     44661     44663     44665     44664     44666
     44668     44667     44669     44671     44670     44672     44674     44673     44675
     44677     44676     44678     44680     44679     44681     44683     44682     44684
     44686     44685     44687     44689     44688     44690     44692     44691     44693
     44695     44694     44696     44698     44697     44699     44701     44700     44702
     44704     44703     44705     44707     44706     44708     44710     44709     44711
     44713     44712     44714     44716     44715     44717     44719     44718     44720
     44722     44721     44723     44725     44724     44726     44728     44727     44729
     44731     44730     44732     44734     44733     44735     44737     44736     44738
     44740     44739     44741     44743     44742     44744     44746     44745     44747
     44749     44748     44750     44752     44751     44753     44755     44754     44756
     44758     44757     44759     44761     44760     44762     44764     44763     44765
     44767     44766     44768     44770     44769     44771     44773     44772     44774
     44776     44775     44777     44779     44778     44780     44782     44781     44783
     44785     44784     44786     44788     44787     44789     44791     44790     44792
     44794     44793     44795     44797     44796     44798     44800     44799     44801
     44803     44802     44804     44806     44805     44807     44809     44808     44810
     44812     44811     44813     44815     44814     44816     44818     44817     44819
     44821     44820     44822     44824     44823     44825     44827     44826     44828
     44830     44829     44831     44833     44832     44834     44836     44835     44837
     44839     44838     44840     44842     44841     44843     44845     44844     44846
     44848     44847     44849     44851     44850     44852     44854     44853     44855
     44857     44856     44858     44860     44859     44861     44863     44862     44864
     44866     44865     44867     44869     44868     44870     44872     44871     44873
     44875     44874     44876     44878     44877     44879     44881     44880     44882
     44884     44883     44885     44887     44886     44888     44890     44889     44891
     44893     44892     44894     44896     44895     44897     44899     44898     44900
     44902     44901     44903     44905     44904     44906     44908     44907     44909
     44911     44910     44912     44914     44913     44915     44917     44916     44918
     44920     44919     44921     44923     44922     44924     44926     44925     44927
     44929     44928     44930     44932     44931     44933     44935     44934     44936
     44938     44937     44939     44941     44940     44942     44944     44943     44945
     44947     44946     44948     44950     44949     44951     44953     44952     44954
     44956     44955     44957     44959     44958     44960     44962     44961     44963
     44965     44964     44966     44968     44967     44969     44971     44970     44972
     44974     44973     44975     44977     44976     44978     44980     44979     44981
     44983     44982     44984     44986     44985     44987     44989     44988     44990
     44992     44991     44993     44995     44994     44996     44998     44997     44999
     45001     45000     45002     45004     45003     45005     45007     45006     45008
     45010     45009     45011     45013     45012     45014     45016     45015     45017
     45019     45018     45020     45022     45021     45023     45025     45024     45026
     45028     45027     45029     45031     45030     45032     45034     45033     45035
     45037     45036     45038     45040     45039     45041     45043     45042     45044
     45046     45045     45047     45049     45048     45050     45052     45051     45053
     45055     45054     45056     45058     45057     45059     45061     45060     45062
     45064     45063     45065     45067     45066     45068     45070     45069     45071
     45073     45072     45074     45076     45075     45077     45079     45078     45080
     45082     45081     45083     45085     45084     45086     45088     45087     45089
     45091     45090     45092     45094     45093     45095     45097     45096     45098
     45100     45099     45101     45103     45102     45104     45106     45105     45107
     45109     45108     45110     45112     45111     45113     45115     45114     45116
     45118     45117     45119     45121     45120     45122     45124     45123     45125
     45127     45126     45128     45130     45129     45131     45133     45132     45134
     45136     45135     45137     45139     45138     45140     45142     45141     45143
     45145     45144     45146     45148     45147     45149     45151     45150     45152
     45154     45153     45155     45157     45156     45158     45160     45159     45161
     45163     45162     45164     45166     45165     45167     45169     45168     45170
     45172     45171     45173     45175     45174     45176     45178     45177     45179
     45181     45180     45182     45184     45183     45185     45187     45186     45188
     45190     45189     45191     45193     45192     45194     45196     45195     45197
     45199     45198     45200     45202     45201     45203     45205     45204     45206
     45208     45207     45209     45211     45210     45212     45214     45213     45215
     45217     45216     45218     45220     45219     45221     45223     45222     45224
     45226     45225     45227     45229     45228     45230     45232     45231     45233
     45235     45234     45236     45238     45237     45239     45241     45240     45242
     45244     45243     45245     45247     45246     45248     45250     45249     45251
     45253     45252     45254     45256     45255     45257     45259     45258     45260
     45262     45261     45263     45265     45264     45266     45268     45267     45269
     45271     45270     45272     45274     45273     45275     45277     45276     45278
     45280     45279     45281     45283     45282     45284     45286     45285     45287
     45289     45288     45290     45292     45291     45293     45295     45294     45296
     45298     45297     45299     45301     45300     45302     45304     45303     45305
     45307     45306     45308     45310     45309     45311     45313     45312     45314
     45316     45315     45317     45319     45318     45320     45322     45321     45323
     45325     45324     45326     45328     45327     45329     45331     45330     45332
     45334     45333     45335     45337     45336     45338     45340     45339     45341
     45343     45342     45344     45346     45345     45347     45349     45348     45350
     45352     45351     45353     45355     45354     45356     45358     45357     45359
     45361     45360     45362     45364     45363     45365     45367     45366     45368
     45370     45369     45371     45373     45372     45374     45376     45375     45377
     45379     45378     45380     45382     45381     45383     45385     45384     45386
     45388     45387     45389     45391     45390     45392     45394     45393     45395
     45397     45396     45398     45400     45399     45401     45403     45402     45404
     45406     45405     45407     45409     45408     45410     45412     45411     45413
     45415     45414     45416     45418     45417     45419     45421     45420     45422
     45424     45423     45425     45427     45426     45428     45430     45429     45431
     45433     45432     45434     45436     45435     45437     45439     45438     45440
     45442     45441     45443     45445     45444     45446     45448     45447     45449
     45451     45450     45452     45454     45453     45455     45457     45456     45458
     45460     45459     45461     45463     45462     45464     45466     45465     45467
     45469     45468     45470     45472     45471     45473     45475     45474     45476
     45478     45477     45479     45481     45480     45482     45484     45483     45485
     45487     45486     45488     45490     45489     45491     45493     45492     45494
     45496     45495     45497     45499     45498     45500     45502     45501     45503
     45505     45504     45506     45508     45507     45509     45511     45510     45512
     45514     45513     45515     45517     45516     45518     45520     45519     45521
     45523     45522     45524     45526     45525     45527     45529     45528     45530
     45532     45531     45533     45535     45534     45536     45538     45537     45539
     45541     45540     45542     45544     45543     45545     45547     45546     45548
     45550     45549     45551     45553     45552     45554     45556     45555     45557
     45559     45558     45560     45562     45561     45563     45565     45564     45566
     45568     45567     45569     45571     45570     45572     45574     45573     45575
     45577     45576     45578     45580     45579     45581     45583     45582     45584
     45586     45585     45587     45589     45588     45590     45592     45591     45593
     45595     45594     45596     45598     45597     45599     45601     45600     45602
     45604     45603     45605     45607     45606     45608     45610     45609     45611
     45613     45612     45614     45616     45615     45617     45619     45618     45620
     45622     45621     45623     45625     45624     45626     45628     45627     45629
     45631     45630     45632     45634     45633     45635     45637     45636     45638
     45640     45639     45641     45643     45642     45644     45646     45645     45647
     45649     45648     45650     45652     45651     45653     45655     45654     45656
     45658     45657     45659     45661     45660     45662     45664     45663     45665
     45667     45666     45668     45670     45669     45671     45673     45672     45674
     45676     45675     45677     45679     45678     45680     45682     45681     45683
     45685     45684     45686     45688     45687     45689     45691     45690     45692
     45694     45693     45695     45697     45696     45698     45700     45699     45701
     45703     45702     45704     45706     45705     45707     45709     45708     45710
     45712     45711     45713     45715     45714     45716     45718     45717     45719
     45721     45720     45722     45724     45723     45725     45727     45726     45728
     45730     45729     45731     45733     45732     45734     45736     45735     45737
     45739     45738     45740     45742     45741     45743     45745     45744     45746
     45748     45747     45749     45751     45750     45752     45754     45753     45755
     45757     45756     45758     45760     45759     45761     45763     45762     45764
     45766     45765     45767     45769     45768     45770     45772     45771     45773
     45775     45774     45776     45778     45777     45779     45781     45780     45782
     45784     45783     45785     45787     45786     45788     45790     45789     45791
     45793     45792     45794     45796     45795     45797     45799     45798     45800
     45802     45801     45803     45805     45804     45806     45808     45807     45809
     45811     45810     45812     45814     45813     45815     45817     45816     45818
     45820     45819     45821     45823     45822     45824     45826     45825     45827
     45829     45828     45830     45832     45831     45833     45835     45834     45836
     45838     45837     45839     45841     45840     45842     45844     45843     45845
     45847     45846     45848     45850     45849     45851     45853     45852     45854
     45856     45855     45857     45859     45858     45860     45862     45861     45863
     45865     45864     45866     45868     45867     45869     45871     45870     45872
     45874     45873     45875     45877     45876     45878     45880     45879     45881
     45883     45882     45884     45886     45885     45887     45889     45888     45890
     45892     45891     45893     45895     45894     45896     45898     45897     45899
     45901     45900     45902     45904     45903     45905     45907     45906     45908
     45910     45909     45911     45913     45912     45914     45916     45915     45917
     45919     45918     45920     45922     45921     45923     45925     45924     45926
     45928     45927     45929     45931     45930     45932     45934     45933     45935
     45937     45936     45938     45940     45939     45941     45943     45942     45944
     45946     45945     45947     45949     45948     45950     45952     45951     45953
     45955     45954     45956     45958     45957     45959     45961     45960     45962
     45964     45963     45965     45967     45966     45968     45970     45969     45971
     45973     45972     45974     45976     45975     45977     45979     45978     45980
     45982     45981     45983     45985     45984     45986     45988     45987     45989
     45991     45990     45992     45994     45993     45995     45997     45996     45998
     46000     45999     46001     46003     46002     46004     46006     46005     46007
     46009     46008     46010     46012     46011     46013     46015     46014     46016
     46018     46017     46019     46021     46020     46022     46024     46023     46025
     46027     46026     46028     46030     46029     46031     46033     46032     46034
     46036     46035     46037     46039     46038     46040     46042     46041     46043
     46045     46044     46046     46048     46047     46049     46051     46050     46052
     46054     46053     46055     46057     46056     46058     46060     46059     46061
     46063     46062     46064     46066     46065     46067     46069     46068     46070
     46072     46071     46073     46075     46074     46076     46078     46077     46079
     46081     46080     46082     46084     46083     46085     46087     46086     46088
     46090     46089     46091     46093     46092     46094     46096     46095     46097
     46099     46098     46100     46102     46101     46103     46105     46104     46106
     46108     46107     46109     46111     46110     46112     46114     46113     46115
     46117     46116     46118     46120     46119     46121     46123     46122     46124
     46126     46125     46127     46129     46128     46130     46132     46131     46133
     46135     46134     46136     46138     46137     46139     46141     46140     46142
     46144     46143     46145     46147     46146     46148     46150     46149     46151
     46153     46152     46154     46156     46155     46157     46159     46158     46160
     46162     46161     46163     46165     46164     46166     46168     46167     46169
     46171     46170     46172     46174     46173     46175     46177     46176     46178
     46180     46179     46181     46183     46182     46184     46186     46185     46187
     46189     46188     46190     46192     46191     46193     46195     46194     46196
     46198     46197     46199     46201     46200     46202     46204     46203     46205
     46207     46206     46208     46210     46209     46211     46213     46212     46214
     46216     46215     46217     46219     46218     46220     46222     46221     46223
     46225     46224     46226     46228     46227     46229     46231     46230     46232
     46234     46233     46235     46237     46236     46238     46240     46239     46241
     46243     46242     46244     46246     46245     46247     46249     46248     46250
     46252     46251     46253     46255     46254     46256     46258     46257     46259
     46261     46260     46262     46264     46263     46265     46267     46266     46268
     46270     46269     46271     46273     46272     46274     46276     46275     46277
     46279     46278     46280     46282     46281     46283     46285     46284     46286
     46288     46287     46289     46291     46290     46292     46294     46293     46295
     46297     46296     46298     46300     46299     46301     46303     46302     46304
     46306     46305     46307     46309     46308     46310     46312     46311     46313
     46315     46314     46316     46318     46317     46319     46321     46320     46322
     46324     46323     46325     46327     46326     46328     46330     46329     46331
     46333     46332     46334     46336     46335     46337     46339     46338     46340
     46342     46341     46343     46345     46344     46346     46348     46347     46349
     46351     46350     46352     46354     46353     46355     46357     46356     46358
     46360     46359     46361     46363     46362     46364     46366     46365     46367
     46369     46368     46370     46372     46371     46373     46375     46374     46376
     46378     46377     46379     46381     46380     46382     46384     46383     46385
     46387     46386     46388     46390     46389     46391     46393     46392     46394
     46396     46395     46397     46399     46398     46400     46402     46401     46403
     46405     46404     46406     46408     46407     46409     46411     46410     46412
     46414     46413     46415     46417     46416     46418     46420     46419     46421
     46423     46422     46424     46426     46425     46427     46429     46428     46430
     46432     46431     46433     46435     46434     46436     46438     46437     46439
     46441     46440     46442     46444     46443     46445     46447     46446     46448
     46450     46449     46451     46453     46452     46454     46456     46455     46457
     46459     46458     46460     46462     46461     46463     46465     46464     46466
     46468     46467     46469     46471     46470     46472     46474     46473     46475
     46477     46476     46478     46480     46479     46481     46483     46482     46484
     46486     46485     46487     46489     46488     46490     46492     46491     46493
     46495     46494     46496     46498     46497     46499     46501     46500     46502
     46504     46503     46505     46507     46506     46508     46510     46509     46511
     46513     46512     46514     46516     46515     46517     46519     46518     46520
     46522     46521     46523     46525     46524     46526     46528     46527     46529
     46531     46530     46532     46534     46533     46535     46537     46536     46538
     46540     46539     46541     46543     46542     46544     46546     46545     46547
     46549     46548     46550     46552     46551     46553     46555     46554     46556
     46558     46557     46559     46561     46560     46562     46564     46563     46565
     46567     46566     46568     46570     46569     46571     46573     46572     46574
     46576     46575     46577     46579     46578     46580     46582     46581     46583
     46585     46584     46586     46588     46587     46589     46591     46590     46592
     46594     46593     46595     46597     46596     46598     46600     46599     46601
     46603     46602     46604     46606     46605     46607     46609     46608     46610
     46612     46611     46613     46615     46614     46616     46618     46617     46619
     46621     46620     46622     46624     46623     46625     46627     46626     46628
     46630     46629     46631     46633     46632     46634     46636     46635     46637
     46639     46638     46640     46642     46641     46643     46645     46644     46646
     46648     46647     46649     46651     46650     46652     46654     46653     46655
     46657     46656     46658     46660     46659     46661     46663     46662     46664
     46666     46665     46667     46669     46668     46670     46672     46671     46673
     46675     46674     46676     46678     46677     46679     46681     46680     46682
     46684     46683     46685     46687     46686     46688     46690     46689     46691
     46693     46692     46694     46696     46695     46697     46699     46698     46700
     46702     46701     46703     46705     46704     46706     46708     46707     46709
     46711     46710     46712     46714     46713     46715     46717     46716     46718
     46720     46719     46721     46723     46722     46724     46726     46725     46727
     46729     46728     46730     46732     46731     46733     46735     46734     46736
     46738     46737     46739     46741     46740     46742     46744     46743     46745
     46747     46746     46748     46750     46749     46751     46753     46752     46754
     46756     46755     46757     46759     46758     46760     46762     46761     46763
     46765     46764     46766     46768     46767     46769     46771     46770     46772
     46774     46773     46775     46777     46776     46778     46780     46779     46781
     46783     46782     46784     46786     46785     46787     46789     46788     46790
     46792     46791     46793     46795     46794     46796     46798     46797     46799
     46801     46800     46802     46804     46803     46805     46807     46806     46808
     46810     46809     46811     46813     46812     46814     46816     46815     46817
     46819     46818     46820     46822     46821     46823     46825     46824     46826
     46828     46827     46829     46831     46830     46832     46834     46833     46835
     46837     46836     46838     46840     46839     46841     46843     46842     46844
     46846     46845     46847     46849     46848     46850     46852     46851     46853
     46855     46854     46856     46858     46857     46859     46861     46860     46862
     46864     46863     46865     46867     46866     46868     46870     46869     46871
     46873     46872     46874     46876     46875     46877     46879     46878     46880
     46882     46881     46883     46885     46884     46886     46888     46887     46889
     46891     46890     46892     46894     46893     46895     46897     46896     46898
     46900     46899     46901     46903     46902     46904     46906     46905     46907
     46909     46908     46910     46912     46911     46913     46915     46914     46916
     46918     46917     46919     46921     46920     46922     46924     46923     46925
     46927     46926     46928     46930     46929     46931     46933     46932     46934
     46936     46935     46937     46939     46938     46940     46942     46941     46943
     46945     46944     46946     46948     46947     46949     46951     46950     46952
     46954     46953     46955     46957     46956     46958     46960     46959     46961
     46963     46962     46964     46966     46965     46967     46969     46968     46970
     46972     46971     46973     46975     46974     46976     46978     46977     46979
     46981     46980     46982     46984     46983     46985     46987     46986     46988
     46990     46989     46991     46993     46992     46994     46996     46995     46997
     46999     46998     47000     47002     47001     47003     47005     47004     47006
     47008     47007     47009     47011     47010     47012     47014     47013     47015
     47017     47016     47018     47020     47019     47021     47023     47022     47024
     47026     47025     47027     47029     47028     47030     47032     47031     47033
     47035     47034     47036     47038     47037     47039     47041     47040     47042
     47044     47043     47045     47047     47046     47048     47050     47049     47051
     47053     47052     47054     47056     47055     47057     47059     47058     47060
     47062     47061     47063     47065     47064     47066     47068     47067     47069
     47071     47070     47072     47074     47073     47075     47077     47076     47078
     47080     47079     47081     47083     47082     47084     47086     47085     47087
     47089     47088     47090     47092     47091     47093     47095     47094     47096
     47098     47097     47099     47101     47100     47102     47104     47103     47105
     47107     47106     47108     47110     47109     47111     47113     47112     47114
     47116     47115     47117     47119     47118     47120     47122     47121     47123
     47125     47124     47126     47128     47127     47129     47131     47130     47132
     47134     47133     47135     47137     47136     47138     47140     47139     47141
     47143     47142     47144     47146     47145     47147     47149     47148     47150
     47152     47151     47153     47155     47154     47156     47158     47157     47159
     47161     47160     47162     47164     47163     47165     47167     47166     47168
     47170     47169     47171     47173     47172     47174     47176     47175     47177
     47179     47178     47180     47182     47181     47183     47185     47184     47186
     47188     47187     47189     47191     47190     47192     47194     47193     47195
     47197     47196     47198     47200     47199     47201     47203     47202     47204
     47206     47205     47207     47209     47208     47210     47212     47211     47213
     47215     47214     47216     47218     47217     47219     47221     47220     47222
     47224     47223     47225     47227     47226     47228     47230     47229     47231
     47233     47232     47234     47236     47235     47237     47239     47238     47240
     47242     47241     47243     47245     47244     47246     47248     47247     47249
     47251     47250     47252     47254     47253     47255     47257     47256     47258
     47260     47259     47261     47263     47262     47264     47266     47265     47267
     47269     47268     47270     47272     47271     47273     47275     47274     47276
     47278     47277     47279     47281     47280     47282     47284     47283     47285
     47287     47286     47288     47290     47289     47291     47293     47292     47294
     47296     47295     47297     47299     47298     47300     47302     47301     47303
     47305     47304     47306     47308     47307     47309     47311     47310     47312
     47314     47313     47315     47317     47316     47318     47320     47319     47321
     47323     47322     47324     47326     47325     47327     47329     47328     47330
     47332     47331     47333     47335     47334     47336     47338     47337     47339
     47341     47340     47342     47344     47343     47345     47347     47346     47348
     47350     47349     47351     47353     47352     47354     47356     47355     47357
     47359     47358     47360     47362     47361     47363     47365     47364     47366
     47368     47367     47369     47371     47370     47372     47374     47373     47375
     47377     47376     47378     47380     47379     47381     47383     47382     47384
     47386     47385     47387     47389     47388     47390     47392     47391     47393
     47395     47394     47396     47398     47397     47399     47401     47400     47402
     47404     47403     47405     47407     47406     47408     47410     47409     47411
     47413     47412     47414     47416     47415     47417     47419     47418     47420
     47422     47421     47423     47425     47424     47426     47428     47427     47429
     47431     47430     47432     47434     47433     47435     47437     47436     47438
     47440     47439     47441     47443     47442     47444     47446     47445     47447
     47449     47448     47450     47452     47451     47453     47455     47454     47456
     47458     47457     47459     47461     47460     47462     47464     47463     47465
     47467     47466     47468     47470     47469     47471     47473     47472     47474
     47476     47475     47477     47479     47478     47480     47482     47481     47483
     47485     47484     47486     47488     47487     47489     47491     47490     47492
     47494     47493     47495     47497     47496     47498     47500     47499     47501
     47503     47502     47504     47506     47505     47507     47509     47508     47510
     47512     47511     47513     47515     47514     47516     47518     47517     47519
     47521     47520     47522     47524     47523     47525     47527     47526     47528
     47530     47529     47531     47533     47532     47534     47536     47535     47537
     47539     47538     47540     47542     47541     47543     47545     47544     47546
     47548     47547     47549     47551     47550     47552     47554     47553     47555
     47557     47556     47558     47560     47559     47561     47563     47562     47564
     47566     47565     47567     47569     47568     47570     47572     47571     47573
     47575     47574     47576     47578     47577     47579     47581     47580     47582
     47584     47583     47585     47587     47586     47588     47590     47589     47591
     47593     47592     47594     47596     47595     47597     47599     47598     47600
     47602     47601     47603     47605     47604     47606     47608     47607     47609
     47611     47610     47612     47614     47613     47615     47617     47616     47618
     47620     47619     47621     47623     47622     47624     47626     47625     47627
     47629     47628     47630     47632     47631     47633     47635     47634     47636
     47638     47637     47639     47641     47640     47642     47644     47643     47645
     47647     47646     47648     47650     47649     47651     47653     47652     47654
     47656     47655     47657     47659     47658     47660     47662     47661     47663
     47665     47664     47666     47668     47667     47669     47671     47670     47672
     47674     47673     47675     47677     47676     47678     47680     47679     47681
     47683     47682     47684     47686     47685     47687     47689     47688     47690
     47692     47691     47693     47695     47694     47696     47698     47697     47699
     47701     47700     47702     47704     47703     47705     47707     47706     47708
     47710     47709     47711     47713     47712     47714     47716     47715     47717
     47719     47718     47720     47722     47721     47723     47725     47724     47726
     47728     47727     47729     47731     47730     47732     47734     47733     47735
     47737     47736     47738     47740     47739     47741     47743     47742     47744
     47746     47745     47747     47749     47748     47750     47752     47751     47753
     47755     47754     47756     47758     47757     47759     47761     47760     47762
     47764     47763     47765     47767     47766     47768     47770     47769     47771
     47773     47772     47774     47776     47775     47777     47779     47778     47780
     47782     47781     47783     47785     47784     47786     47788     47787     47789
     47791     47790     47792     47794     47793     47795     47797     47796     47798
     47800     47799     47801     47803     47802     47804     47806     47805     47807
     47809     47808     47810     47812     47811     47813     47815     47814     47816
     47818     47817     47819     47821     47820     47822     47824     47823     47825
     47827     47826     47828     47830     47829     47831     47833     47832     47834
     47836     47835     47837     47839     47838     47840     47842     47841     47843
     47845     47844     47846     47848     47847     47849     47851     47850     47852
     47854     47853     47855     47857     47856     47858     47860     47859     47861
     47863     47862     47864     47866     47865     47867     47869     47868     47870
     47872     47871     47873     47875     47874     47876     47878     47877     47879
     47881     47880     47882     47884     47883     47885     47887     47886     47888
     47890     47889     47891     47893     47892     47894     47896     47895     47897
     47899     47898     47900     47902     47901     47903     47905     47904     47906
     47908     47907     47909     47911     47910     47912     47914     47913     47915
     47917     47916     47918     47920     47919     47921     47923     47922     47924
     47926     47925     47927     47929     47928     47930     47932     47931     47933
     47935     47934     47936     47938     47937     47939     47941     47940     47942
     47944     47943     47945     47947     47946     47948     47950     47949     47951
     47953     47952     47954     47956     47955     47957     47959     47958     47960
     47962     47961     47963     47965     47964     47966     47968     47967     47969
     47971     47970     47972     47974     47973     47975     47977     47976     47978
     47980     47979     47981     47983     47982     47984     47986     47985     47987
     47989     47988     47990     47992     47991     47993     47995     47994     47996
     47998     47997     47999     48001     48000     48002     48004     48003     48005
     48007     48006     48008     48010     48009     48011     48013     48012     48014
     48016     48015     48017     48019     48018     48020     48022     48021     48023
     48025     48024     48026     48028     48027     48029     48031     48030     48032
     48034     48033     48035     48037     48036     48038     48040     48039     48041
     48043     48042     48044     48046     48045     48047     48049     48048     48050
     48052     48051     48053     48055     48054     48056     48058     48057     48059
     48061     48060     48062     48064     48063     48065     48067     48066     48068
     48070     48069     48071     48073     48072     48074     48076     48075     48077
     48079     48078     48080     48082     48081     48083     48085     48084     48086
     48088     48087     48089     48091     48090     48092     48094     48093     48095
     48097     48096     48098     48100     48099     48101     48103     48102     48104
     48106     48105     48107     48109     48108     48110     48112     48111     48113
     48115     48114     48116     48118     48117     48119     48121     48120     48122
     48124     48123     48125     48127     48126     48128     48130     48129     48131
     48133     48132     48134     48136     48135     48137     48139     48138     48140
     48142     48141     48143     48145     48144     48146     48148     48147     48149
     48151     48150     48152     48154     48153     48155     48157     48156     48158
     48160     48159     48161     48163     48162     48164     48166     48165     48167
     48169     48168     48170     48172     48171     48173     48175     48174     48176
     48178     48177     48179     48181     48180     48182     48184     48183     48185
     48187     48186     48188     48190     48189     48191     48193     48192     48194
     48196     48195     48197     48199     48198     48200     48202     48201     48203
     48205     48204     48206     48208     48207     48209     48211     48210     48212
     48214     48213     48215     48217     48216     48218     48220     48219     48221
     48223     48222     48224     48226     48225     48227     48229     48228     48230
     48232     48231     48233     48235     48234     48236     48238     48237     48239
     48241     48240     48242     48244     48243     48245     48247     48246     48248
     48250     48249     48251     48253     48252     48254     48256     48255     48257
     48259     48258     48260     48262     48261     48263     48265     48264     48266
     48268     48267     48269     48271     48270     48272     48274     48273     48275
     48277     48276     48278     48280     48279     48281     48283     48282     48284
     48286     48285     48287     48289     48288     48290     48292     48291     48293
     48295     48294     48296     48298     48297     48299     48301     48300     48302
     48304     48303     48305     48307     48306     48308     48310     48309     48311
     48313     48312     48314     48316     48315     48317     48319     48318     48320
     48322     48321     48323     48325     48324     48326     48328     48327     48329
     48331     48330     48332     48334     48333     48335     48337     48336     48338
     48340     48339     48341     48343     48342     48344     48346     48345     48347
     48349     48348     48350     48352     48351     48353     48355     48354     48356
     48358     48357     48359     48361     48360     48362     48364     48363     48365
     48367     48366     48368     48370     48369     48371     48373     48372     48374
     48376     48375     48377     48379     48378     48380     48382     48381     48383
     48385     48384     48386     48388     48387     48389     48391     48390     48392
     48394     48393     48395     48397     48396     48398     48400     48399     48401
     48403     48402     48404     48406     48405     48407     48409     48408     48410
     48412     48411     48413     48415     48414     48416     48418     48417     48419
     48421     48420     48422     48424     48423     48425     48427     48426     48428
     48430     48429     48431     48433     48432     48434     48436     48435     48437
     48439     48438     48440     48442     48441     48443     48445     48444     48446
     48448     48447     48449     48451     48450     48452     48454     48453     48455
     48457     48456     48458     48460     48459     48461     48463     48462     48464
     48466     48465     48467     48469     48468     48470     48472     48471     48473
     48475     48474     48476     48478     48477     48479     48481     48480     48482
     48484     48483     48485     48487     48486     48488     48490     48489     48491
     48493     48492     48494     48496     48495     48497     48499     48498     48500
     48502     48501     48503     48505     48504     48506     48508     48507     48509
     48511     48510     48512     48514     48513     48515     48517     48516     48518
     48520     48519     48521     48523     48522     48524     48526     48525     48527
     48529     48528     48530     48532     48531     48533     48535     48534     48536
     48538     48537     48539     48541     48540     48542     48544     48543     48545
     48547     48546     48548     48550     48549     48551     48553     48552     48554
     48556     48555     48557     48559     48558     48560     48562     48561     48563
     48565     48564     48566     48568     48567     48569     48571     48570     48572
     48574     48573     48575     48577     48576     48578     48580     48579     48581
     48583     48582     48584     48586     48585     48587     48589     48588     48590
     48592     48591     48593     48595     48594     48596     48598     48597     48599
     48601     48600     48602     48604     48603     48605     48607     48606     48608
     48610     48609     48611     48613     48612     48614     48616     48615     48617
     48619     48618     48620     48622     48621     48623     48625     48624     48626
     48628     48627     48629     48631     48630     48632     48634     48633     48635
     48637     48636     48638     48640     48639     48641     48643     48642     48644
     48646     48645     48647     48649     48648     48650     48652     48651     48653
     48655     48654     48656     48658     48657     48659     48661     48660     48662
     48664     48663     48665     48667     48666     48668     48670     48669     48671
     48673     48672     48674     48676     48675     48677     48679     48678     48680
     48682     48681     48683     48685     48684     48686     48688     48687     48689
     48691     48690     48692     48694     48693     48695     48697     48696     48698
     48700     48699     48701     48703     48702     48704     48706     48705     48707
     48709     48708     48710     48712     48711     48713     48715     48714     48716
     48718     48717     48719     48721     48720     48722     48724     48723     48725
     48727     48726     48728     48730     48729     48731     48733     48732     48734
     48736     48735     48737     48739     48738     48740     48742     48741     48743
     48745     48744     48746     48748     48747     48749     48751     48750     48752
     48754     48753     48755     48757     48756     48758     48760     48759     48761
     48763     48762     48764     48766     48765     48767     48769     48768     48770
     48772     48771     48773     48775     48774     48776     48778     48777     48779
     48781     48780     48782     48784     48783     48785     48787     48786     48788
     48790     48789     48791     48793     48792     48794     48796     48795     48797
     48799     48798     48800     48802     48801     48803     48805     48804     48806
     48808     48807     48809     48811     48810     48812     48814     48813     48815
     48817     48816     48818     48820     48819     48821     48823     48822     48824
     48826     48825     48827     48829     48828     48830     48832     48831     48833
     48835     48834     48836     48838     48837     48839     48841     48840     48842
     48844     48843     48845     48847     48846     48848     48850     48849     48851
     48853     48852     48854     48856     48855     48857     48859     48858     48860
     48862     48861     48863     48865     48864     48866     48868     48867     48869
     48871     48870     48872     48874     48873     48875     48877     48876     48878
     48880     48879     48881     48883     48882     48884     48886     48885     48887
     48889     48888     48890     48892     48891     48893     48895     48894     48896
     48898     48897     48899     48901     48900     48902     48904     48903     48905
     48907     48906     48908     48910     48909     48911     48913     48912     48914
     48916     48915     48917     48919     48918     48920     48922     48921     48923
     48925     48924     48926     48928     48927     48929     48931     48930     48932
     48934     48933     48935     48937     48936     48938     48940     48939     48941
     48943     48942     48944     48946     48945     48947     48949     48948     48950
     48952     48951     48953     48955     48954     48956     48958     48957     48959
     48961     48960     48962     48964     48963     48965     48967     48966     48968
     48970     48969     48971     48973     48972     48974     48976     48975     48977
     48979     48978     48980     48982     48981     48983     48985     48984     48986
     48988     48987     48989     48991     48990     48992     48994     48993     48995
     48997     48996     48998     49000     48999     49001     49003     49002     49004
     49006     49005     49007     49009     49008     49010     49012     49011     49013
     49015     49014     49016     49018     49017     49019     49021     49020     49022
     49024     49023     49025     49027     49026     49028     49030     49029     49031
     49033     49032     49034     49036     49035     49037     49039     49038     49040
     49042     49041     49043     49045     49044     49046     49048     49047     49049
     49051     49050     49052     49054     49053     49055     49057     49056     49058
     49060     49059     49061     49063     49062     49064     49066     49065     49067
     49069     49068     49070     49072     49071     49073     49075     49074     49076
     49078     49077     49079     49081     49080     49082     49084     49083     49085
     49087     49086     49088     49090     49089     49091     49093     49092     49094
     49096     49095     49097     49099     49098     49100     49102     49101     49103
     49105     49104     49106     49108     49107     49109     49111     49110     49112
     49114     49113     49115     49117     49116     49118     49120     49119     49121
     49123     49122     49124     49126     49125     49127     49129     49128     49130
     49132     49131     49133     49135     49134     49136     49138     49137     49139
     49141     49140     49142     49144     49143     49145     49147     49146     49148
     49150     49149     49151     49153     49152     49154     49156     49155     49157
     49159     49158     49160     49162     49161     49163     49165     49164     49166
     49168     49167     49169     49171     49170     49172     49174     49173     49175
     49177     49176     49178     49180     49179     49181     49183     49182     49184
     49186     49185     49187     49189     49188     49190     49192     49191     49193
     49195     49194     49196     49198     49197     49199     49201     49200     49202
     49204     49203     49205     49207     49206     49208     49210     49209     49211
     49213     49212     49214     49216     49215     49217     49219     49218     49220
     49222     49221     49223     49225     49224     49226     49228     49227     49229
     49231     49230     49232     49234     49233     49235     49237     49236     49238
     49240     49239     49241     49243     49242     49244     49246     49245     49247
     49249     49248     49250     49252     49251     49253     49255     49254     49256
     49258     49257     49259     49261     49260     49262     49264     49263     49265
     49267     49266     49268     49270     49269     49271     49273     49272     49274
     49276     49275     49277     49279     49278     49280     49282     49281     49283
     49285     49284     49286     49288     49287     49289     49291     49290     49292
     49294     49293     49295     49297     49296     49298     49300     49299     49301
     49303     49302     49304     49306     49305     49307     49309     49308     49310
     49312     49311     49313     49315     49314     49316     49318     49317     49319
     49321     49320     49322     49324     49323     49325     49327     49326     49328
     49330     49329     49331     49333     49332     49334     49336     49335     49337
     49339     49338     49340     49342     49341     49343     49345     49344     49346
     49348     49347     49349     49351     49350     49352     49354     49353     49355
     49357     49356     49358     49360     49359     49361     49363     49362     49364
     49366     49365     49367     49369     49368     49370     49372     49371     49373
     49375     49374     49376     49378     49377     49379     49381     49380     49382
     49384     49383     49385     49387     49386     49388     49390     49389     49391
     49393     49392     49394     49396     49395     49397     49399     49398     49400
     49402     49401     49403     49405     49404     49406     49408     49407     49409
     49411     49410     49412     49414     49413     49415     49417     49416     49418
     49420     49419     49421     49423     49422     49424     49426     49425     49427
     49429     49428     49430     49432     49431     49433     49435     49434     49436
     49438     49437     49439     49441     49440     49442     49444     49443     49445
     49447     49446     49448     49450     49449     49451     49453     49452     49454
     49456     49455     49457     49459     49458     49460     49462     49461     49463
     49465     49464     49466     49468     49467     49469     49471     49470     49472
     49474     49473     49475     49477     49476     49478     49480     49479     49481
     49483     49482     49484     49486     49485     49487     49489     49488     49490
     49492     49491     49493     49495     49494     49496     49498     49497     49499
     49501     49500     49502     49504     49503     49505     49507     49506     49508
     49510     49509     49511     49513     49512     49514     49516     49515     49517
     49519     49518     49520     49522     49521     49523     49525     49524     49526
     49528     49527     49529     49531     49530     49532     49534     49533     49535
     49537     49536     49538     49540     49539     49541     49543     49542     49544
     49546     49545     49547     49549     49548     49550     49552     49551     49553
     49555     49554     49556     49558     49557     49559     49561     49560     49562
     49564     49563     49565     49567     49566     49568     49570     49569     49571
     49573     49572     49574     49576     49575     49577     49579     49578     49580
     49582     49581     49583     49585     49584     49586     49588     49587     49589
     49591     49590     49592     49594     49593     49595     49597     49596     49598
     49600     49599     49601     49603     49602     49604     49606     49605     49607
     49609     49608     49610     49612     49611     49613     49615     49614     49616
     49618     49617     49619     49621     49620     49622     49624     49623     49625
     49627     49626     49628     49630     49629     49631     49633     49632     49634
     49636     49635     49637     49639     49638     49640     49642     49641     49643
     49645     49644     49646     49648     49647     49649     49651     49650     49652
     49654     49653     49655     49657     49656     49658     49660     49659     49661
     49663     49662     49664     49666     49665     49667     49669     49668     49670
     49672     49671     49673     49675     49674     49676     49678     49677     49679
     49681     49680     49682     49684     49683     49685     49687     49686     49688
     49690     49689     49691     49693     49692     49694     49696     49695     49697
     49699     49698     49700     49702     49701     49703     49705     49704     49706
     49708     49707     49709     49711     49710     49712     49714     49713     49715
     49717     49716     49718     49720     49719     49721     49723     49722     49724
     49726     49725     49727     49729     49728     49730     49732     49731     49733
     49735     49734     49736     49738     49737     49739     49741     49740     49742
     49744     49743     49745     49747     49746     49748     49750     49749     49751
     49753     49752     49754     49756     49755     49757     49759     49758     49760
     49762     49761     49763     49765     49764     49766     49768     49767     49769
     49771     49770     49772     49774     49773     49775     49777     49776     49778
     49780     49779     49781     49783     49782     49784     49786     49785     49787
     49789     49788     49790     49792     49791     49793     49795     49794     49796
     49798     49797     49799     49801     49800     49802     49804     49803     49805
     49807     49806     49808     49810     49809     49811     49813     49812     49814
     49816     49815     49817     49819     49818     49820     49822     49821     49823
     49825     49824     49826     49828     49827     49829     49831     49830     49832
     49834     49833     49835     49837     49836     49838     49840     49839     49841
     49843     49842     49844     49846     49845     49847     49849     49848     49850
     49852     49851     49853     49855     49854     49856     49858     49857     49859
     49861     49860     49862     49864     49863     49865     49867     49866     49868
     49870     49869     49871     49873     49872     49874     49876     49875     49877
     49879     49878     49880     49882     49881     49883     49885     49884     49886
     49888     49887     49889     49891     49890     49892     49894     49893     49895
     49897     49896     49898     49900     49899     49901     49903     49902     49904
     49906     49905     49907     49909     49908     49910     49912     49911     49913
     49915     49914     49916     49918     49917     49919     49921     49920     49922
     49924     49923     49925     49927     49926     49928     49930     49929     49931
     49933     49932     49934     49936     49935     49937     49939     49938     49940
     49942     49941     49943     49945     49944     49946     49948     49947     49949
     49951     49950     49952     49954     49953     49955     49957     49956     49958
     49960     49959     49961     49963     49962     49964     49966     49965     49967
     49969     49968     49970     49972     49971     49973     49975     49974     49976
     49978     49977     49979     49981     49980     49982     49984     49983     49985
     49987     49986     49988     49990     49989     49991     49993     49992     49994
     49996     49995     49997     49999     49998     50000     50002     50001     50003
     50005     50004     50006     50008     50007     50009     50011     50010     50012
     50014     50013     50015     50017     50016     50018     50020     50019     50021
     50023     50022     50024     50026     50025     50027     50029     50028     50030
     50032     50031     50033     50035     50034     50036     50038     50037     50039
     50041     50040     50042     50044     50043     50045     50047     50046     50048
     50050     50049     50051     50053     50052     50054     50056     50055     50057
     50059     50058     50060     50062     50061     50063     50065     50064     50066
     50068     50067     50069     50071     50070     50072     50074     50073     50075
     50077     50076     50078     50080     50079     50081     50083     50082     50084
     50086     50085     50087     50089     50088     50090     50092     50091     50093
     50095     50094     50096     50098     50097     50099     50101     50100     50102
     50104     50103     50105     50107     50106     50108     50110     50109     50111
     50113     50112     50114     50116     50115     50117     50119     50118     50120
     50122     50121     50123     50125     50124     50126     50128     50127     50129
     50131     50130     50132     50134     50133     50135     50137     50136     50138
     50140     50139     50141     50143     50142     50144     50146     50145     50147
     50149     50148     50150     50152     50151     50153     50155     50154     50156
     50158     50157     50159     50161     50160     50162     50164     50163     50165
     50167     50166     50168     50170     50169     50171     50173     50172     50174
     50176     50175     50177     50179     50178     50180     50182     50181     50183
     50185     50184     50186     50188     50187     50189     50191     50190     50192
     50194     50193     50195     50197     50196     50198     50200     50199     50201
     50203     50202     50204     50206     50205     50207     50209     50208     50210
     50212     50211     50213     50215     50214     50216     50218     50217     50219
     50221     50220     50222     50224     50223     50225     50227     50226     50228
     50230     50229     50231     50233     50232     50234     50236     50235     50237
     50239     50238     50240     50242     50241     50243     50245     50244     50246
     50248     50247     50249     50251     50250     50252     50254     50253     50255
     50257     50256     50258     50260     50259     50261     50263     50262     50264
     50266     50265     50267     50269     50268     50270     50272     50271     50273
     50275     50274     50276     50278     50277     50279     50281     50280     50282
     50284     50283     50285     50287     50286     50288     50290     50289     50291
     50293     50292     50294     50296     50295     50297     50299     50298     50300
     50302     50301     50303     50305     50304     50306     50308     50307     50309
     50311     50310     50312     50314     50313     50315     50317     50316     50318
     50320     50319     50321     50323     50322     50324     50326     50325     50327
     50329     50328     50330     50332     50331     50333     50335     50334     50336
     50338     50337     50339     50341     50340     50342     50344     50343     50345
     50347     50346     50348     50350     50349     50351     50353     50352     50354
     50356     50355     50357     50359     50358     50360     50362     50361     50363
     50365     50364     50366     50368     50367     50369     50371     50370     50372
     50374     50373     50375     50377     50376     50378     50380     50379     50381
     50383     50382     50384     50386     50385     50387     50389     50388     50390
     50392     50391     50393     50395     50394     50396     50398     50397     50399
     50401     50400     50402     50404     50403     50405     50407     50406     50408
     50410     50409     50411     50413     50412     50414     50416     50415     50417
     50419     50418     50420     50422     50421     50423     50425     50424     50426
     50428     50427     50429     50431     50430     50432     50434     50433     50435
     50437     50436     50438     50440     50439     50441     50443     50442     50444
     50446     50445     50447     50449     50448     50450     50452     50451     50453
     50455     50454     50456     50458     50457     50459     50461     50460     50462
     50464     50463     50465     50467     50466     50468     50470     50469     50471
     50473     50472     50474     50476     50475     50477     50479     50478     50480
     50482     50481     50483     50485     50484     50486     50488     50487     50489
     50491     50490     50492     50494     50493     50495     50497     50496     50498
     50500     50499     50501     50503     50502     50504     50506     50505     50507
     50509     50508     50510     50512     50511     50513     50515     50514     50516
     50518     50517     50519     50521     50520     50522     50524     50523     50525
     50527     50526     50528     50530     50529     50531     50533     50532     50534
     50536     50535     50537     50539     50538     50540     50542     50541     50543
     50545     50544     50546     50548     50547     50549     50551     50550     50552
     50554     50553     50555     50557     50556     50558     50560     50559     50561
     50563     50562     50564     50566     50565     50567     50569     50568     50570
     50572     50571     50573     50575     50574     50576     50578     50577     50579
     50581     50580     50582     50584     50583     50585     50587     50586     50588
     50590     50589     50591     50593     50592     50594     50596     50595     50597
     50599     50598     50600     50602     50601     50603     50605     50604     50606
     50608     50607     50609     50611     50610     50612     50614     50613     50615
     50617     50616     50618     50620     50619     50621     50623     50622     50624
     50626     50625     50627     50629     50628     50630     50632     50631     50633
     50635     50634     50636     50638     50637     50639     50641     50640     50642
     50644     50643     50645     50647     50646     50648     50650     50649     50651
     50653     50652     50654     50656     50655     50657     50659     50658     50660
     50662     50661     50663     50665     50664     50666     50668     50667     50669
     50671     50670     50672     50674     50673     50675     50677     50676     50678
     50680     50679     50681     50683     50682     50684     50686     50685     50687
     50689     50688     50690     50692     50691     50693     50695     50694     50696
     50698     50697     50699     50701     50700     50702     50704     50703     50705
     50707     50706     50708     50710     50709     50711     50713     50712     50714
     50716     50715     50717     50719     50718     50720     50722     50721     50723
     50725     50724     50726     50728     50727     50729     50731     50730     50732
     50734     50733     50735     50737     50736     50738     50740     50739     50741
     50743     50742     50744     50746     50745     50747     50749     50748     50750
     50752     50751     50753     50755     50754     50756     50758     50757     50759
     50761     50760     50762     50764     50763     50765     50767     50766     50768
     50770     50769     50771     50773     50772     50774     50776     50775     50777
     50779     50778     50780     50782     50781     50783     50785     50784     50786
     50788     50787     50789     50791     50790     50792     50794     50793     50795
     50797     50796     50798     50800     50799     50801     50803     50802     50804
     50806     50805     50807     50809     50808     50810     50812     50811     50813
     50815     50814     50816     50818     50817     50819     50821     50820     50822
     50824     50823     50825     50827     50826     50828     50830     50829     50831
     50833     50832     50834     50836     50835     50837     50839     50838     50840
     50842     50841     50843     50845     50844     50846     50848     50847     50849
     50851     50850     50852     50854     50853     50855     50857     50856     50858
     50860     50859     50861     50863     50862     50864     50866     50865     50867
     50869     50868     50870     50872     50871     50873     50875     50874     50876
     50878     50877     50879     50881     50880     50882     50884     50883     50885
     50887     50886     50888     50890     50889     50891     50893     50892     50894
     50896     50895     50897     50899     50898     50900     50902     50901     50903
     50905     50904     50906     50908     50907     50909     50911     50910     50912
     50914     50913     50915     50917     50916     50918     50920     50919     50921
     50923     50922     50924     50926     50925     50927     50929     50928     50930
     50932     50931     50933     50935     50934     50936     50938     50937     50939
     50941     50940     50942     50944     50943     50945     50947     50946     50948
     50950     50949     50951     50953     50952     50954     50956     50955     50957
     50959     50958     50960     50962     50961     50963     50965     50964     50966
     50968     50967     50969     50971     50970     50972     50974     50973     50975
     50977     50976     50978     50980     50979     50981     50983     50982     50984
     50986     50985     50987     50989     50988     50990     50992     50991     50993
     50995     50994     50996     50998     50997     50999     51001     51000     51002
     51004     51003     51005     51007     51006     51008     51010     51009     51011
     51013     51012     51014     51016     51015     51017     51019     51018     51020
     51022     51021     51023     51025     51024     51026     51028     51027     51029
     51031     51030     51032     51034     51033     51035     51037     51036     51038
     51040     51039     51041     51043     51042     51044     51046     51045     51047
     51049     51048     51050     51052     51051     51053     51055     51054     51056
     51058     51057     51059     51061     51060     51062     51064     51063     51065
     51067     51066     51068     51070     51069     51071     51073     51072     51074
     51076     51075     51077     51079     51078     51080     51082     51081     51083
     51085     51084     51086     51088     51087     51089     51091     51090     51092
     51094     51093     51095     51097     51096     51098     51100     51099     51101
     51103     51102     51104     51106     51105     51107     51109     51108     51110
     51112     51111     51113     51115     51114     51116     51118     51117     51119
     51121     51120     51122     51124     51123     51125     51127     51126     51128
     51130     51129     51131     51133     51132     51134     51136     51135     51137
     51139     51138     51140     51142     51141     51143     51145     51144     51146
     51148     51147     51149     51151     51150     51152     51154     51153     51155
     51157     51156     51158     51160     51159     51161     51163     51162     51164
     51166     51165     51167     51169     51168     51170     51172     51171     51173
     51175     51174     51176     51178     51177     51179     51181     51180     51182
     51184     51183     51185     51187     51186     51188     51190     51189     51191
     51193     51192     51194     51196     51195     51197     51199     51198     51200
     51202     51201     51203     51205     51204     51206     51208     51207     51209
     51211     51210     51212     51214     51213     51215     51217     51216     51218
     51220     51219     51221     51223     51222     51224     51226     51225     51227
     51229     51228     51230     51232     51231     51233     51235     51234     51236
     51238     51237     51239     51241     51240     51242     51244     51243     51245
     51247     51246     51248     51250     51249     51251     51253     51252     51254
     51256     51255     51257     51259     51258     51260     51262     51261     51263
     51265     51264     51266     51268     51267     51269     51271     51270     51272
     51274     51273     51275     51277     51276     51278     51280     51279     51281
     51283     51282     51284     51286     51285     51287     51289     51288     51290
     51292     51291     51293     51295     51294     51296     51298     51297     51299
     51301     51300     51302     51304     51303     51305     51307     51306     51308
     51310     51309     51311     51313     51312     51314     51316     51315     51317
     51319     51318     51320     51322     51321     51323     51325     51324     51326
     51328     51327     51329     51331     51330     51332     51334     51333     51335
     51337     51336     51338     51340     51339     51341     51343     51342     51344
     51346     51345     51347     51349     51348     51350     51352     51351     51353
     51355     51354     51356     51358     51357     51359     51361     51360     51362
     51364     51363     51365     51367     51366     51368     51370     51369     51371
     51373     51372     51374     51376     51375     51377     51379     51378     51380
     51382     51381     51383     51385     51384     51386     51388     51387     51389
     51391     51390     51392     51394     51393     51395     51397     51396     51398
     51400     51399     51401     51403     51402     51404     51406     51405     51407
     51409     51408     51410     51412     51411     51413     51415     51414     51416
     51418     51417     51419     51421     51420     51422     51424     51423     51425
     51427     51426     51428     51430     51429     51431     51433     51432     51434
     51436     51435     51437     51439     51438     51440     51442     51441     51443
     51445     51444     51446     51448     51447     51449     51451     51450     51452
     51454     51453     51455     51457     51456     51458     51460     51459     51461
     51463     51462     51464     51466     51465     51467     51469     51468     51470
     51472     51471     51473     51475     51474     51476     51478     51477     51479
     51481     51480     51482     51484     51483     51485     51487     51486     51488
     51490     51489     51491     51493     51492     51494     51496     51495     51497
     51499     51498     51500     51502     51501     51503     51505     51504     51506
     51508     51507     51509     51511     51510     51512     51514     51513     51515
     51517     51516     51518     51520     51519     51521     51523     51522     51524
     51526     51525     51527     51529     51528     51530     51532     51531     51533
     51535     51534     51536     51538     51537     51539     51541     51540     51542
     51544     51543     51545     51547     51546     51548     51550     51549     51551
     51553     51552     51554     51556     51555     51557     51559     51558     51560
     51562     51561     51563     51565     51564     51566     51568     51567     51569
     51571     51570     51572     51574     51573     51575     51577     51576     51578
     51580     51579     51581     51583     51582     51584     51586     51585     51587
     51589     51588     51590     51592     51591     51593     51595     51594     51596
     51598     51597     51599     51601     51600     51602     51604     51603     51605
     51607     51606     51608     51610     51609     51611     51613     51612     51614
     51616     51615     51617     51619     51618     51620     51622     51621     51623
     51625     51624     51626     51628     51627     51629     51631     51630     51632
     51634     51633     51635     51637     51636     51638     51640     51639     51641
     51643     51642     51644     51646     51645     51647     51649     51648     51650
     51652     51651     51653     51655     51654     51656     51658     51657     51659
     51661     51660     51662     51664     51663     51665     51667     51666     51668
     51670     51669     51671     51673     51672     51674     51676     51675     51677
     51679     51678     51680     51682     51681     51683     51685     51684     51686
     51688     51687     51689     51691     51690     51692     51694     51693     51695
     51697     51696     51698     51700     51699     51701     51703     51702     51704
     51706     51705     51707     51709     51708     51710     51712     51711     51713
     51715     51714     51716     51718     51717     51719     51721     51720     51722
     51724     51723     51725     51727     51726     51728     51730     51729     51731
     51733     51732     51734     51736     51735     51737     51739     51738     51740
     51742     51741     51743     51745     51744     51746     51748     51747     51749
     51751     51750     51752     51754     51753     51755     51757     51756     51758
     51760     51759     51761     51763     51762     51764     51766     51765     51767
     51769     51768     51770     51772     51771     51773     51775     51774     51776
     51778     51777     51779     51781     51780     51782     51784     51783     51785
     51787     51786     51788     51790     51789     51791     51793     51792     51794
     51796     51795     51797     51799     51798     51800     51802     51801     51803
     51805     51804     51806     51808     51807     51809     51811     51810     51812
     51814     51813     51815     51817     51816     51818     51820     51819     51821
     51823     51822     51824     51826     51825     51827     51829     51828     51830
     51832     51831     51833     51835     51834     51836     51838     51837     51839
     51841     51840     51842     51844     51843     51845     51847     51846     51848
     51850     51849     51851     51853     51852     51854     51856     51855     51857
     51859     51858     51860     51862     51861     51863     51865     51864     51866
     51868     51867     51869     51871     51870     51872     51874     51873     51875
     51877     51876     51878     51880     51879     51881     51883     51882     51884
     51886     51885     51887     51889     51888     51890     51892     51891     51893
     51895     51894     51896     51898     51897     51899     51901     51900     51902
     51904     51903     51905     51907     51906     51908     51910     51909     51911
     51913     51912     51914     51916     51915     51917     51919     51918     51920
     51922     51921     51923     51925     51924     51926     51928     51927     51929
     51931     51930     51932     51934     51933     51935     51937     51936     51938
     51940     51939     51941     51943     51942     51944     51946     51945     51947
     51949     51948     51950     51952     51951     51953     51955     51954     51956
     51958     51957     51959     51961     51960     51962     51964     51963     51965
     51967     51966     51968     51970     51969     51971     51973     51972     51974
     51976     51975     51977     51979     51978     51980     51982     51981     51983
     51985     51984     51986     51988     51987     51989     51991     51990     51992
     51994     51993     51995     51997     51996     51998     52000     51999     52001
     52003     52002     52004     52006     52005     52007     52009     52008     52010
     52012     52011     52013     52015     52014     52016     52018     52017     52019
     52021     52020     52022     52024     52023     52025     52027     52026     52028
     52030     52029     52031     52033     52032     52034     52036     52035     52037
     52039     52038     52040     52042     52041     52043     52045     52044     52046
     52048     52047     52049     52051     52050     52052     52054     52053     52055
     52057     52056     52058     52060     52059     52061     52063     52062     52064
     52066     52065     52067     52069     52068     52070     52072     52071     52073
     52075     52074     52076     52078     52077     52079     52081     52080     52082
     52084     52083     52085     52087     52086     52088     52090     52089     52091
     52093     52092     52094     52096     52095     52097     52099     52098     52100
     52102     52101     52103     52105     52104     52106     52108     52107     52109
     52111     52110     52112     52114     52113     52115     52117     52116     52118
     52120     52119     52121     52123     52122     52124     52126     52125     52127
     52129     52128     52130     52132     52131     52133     52135     52134     52136
     52138     52137     52139     52141     52140     52142     52144     52143     52145
     52147     52146     52148     52150     52149     52151     52153     52152     52154
     52156     52155     52157     52159     52158     52160     52162     52161     52163
     52165     52164     52166     52168     52167     52169     52171     52170     52172
     52174     52173     52175     52177     52176     52178     52180     52179     52181
     52183     52182     52184     52186     52185     52187     52189     52188     52190
     52192     52191     52193     52195     52194     52196     52198     52197     52199
     52201     52200     52202     52204     52203     52205     52207     52206     52208
     52210     52209     52211     52213     52212     52214     52216     52215     52217
     52219     52218     52220     52222     52221     52223     52225     52224     52226
     52228     52227     52229     52231     52230     52232     52234     52233     52235
     52237     52236     52238     52240     52239     52241     52243     52242     52244
     52246     52245     52247     52249     52248     52250     52252     52251     52253
     52255     52254     52256     52258     52257     52259     52261     52260     52262
     52264     52263     52265     52267     52266     52268     52270     52269     52271
     52273     52272     52274     52276     52275     52277     52279     52278     52280
     52282     52281     52283     52285     52284     52286     52288     52287     52289
     52291     52290     52292     52294     52293     52295     52297     52296     52298
     52300     52299     52301     52303     52302     52304     52306     52305     52307
     52309     52308     52310     52312     52311     52313     52315     52314     52316
     52318     52317     52319     52321     52320     52322     52324     52323     52325
     52327     52326     52328     52330     52329     52331     52333     52332     52334
     52336     52335     52337     52339     52338     52340     52342     52341     52343
     52345     52344     52346     52348     52347     52349     52351     52350     52352
     52354     52353     52355     52357     52356     52358     52360     52359     52361
     52363     52362     52364     52366     52365     52367     52369     52368     52370
     52372     52371     52373     52375     52374     52376     52378     52377     52379
     52381     52380     52382     52384     52383     52385     52387     52386     52388
     52390     52389     52391     52393     52392     52394     52396     52395     52397
     52399     52398     52400     52402     52401     52403     52405     52404     52406
     52408     52407     52409     52411     52410     52412     52414     52413     52415
     52417     52416     52418     52420     52419     52421     52423     52422     52424
     52426     52425     52427     52429     52428     52430     52432     52431     52433
     52435     52434     52436     52438     52437     52439     52441     52440     52442
     52444     52443     52445     52447     52446     52448     52450     52449     52451
     52453     52452     52454     52456     52455     52457     52459     52458     52460
     52462     52461     52463     52465     52464     52466     52468     52467     52469
     52471     52470     52472     52474     52473     52475     52477     52476     52478
     52480     52479     52481     52483     52482     52484     52486     52485     52487
     52489     52488     52490     52492     52491     52493     52495     52494     52496
     52498     52497     52499     52501     52500     52502     52504     52503     52505
     52507     52506     52508     52510     52509     52511     52513     52512     52514
     52516     52515     52517     52519     52518     52520     52522     52521     52523
     52525     52524     52526     52528     52527     52529     52531     52530     52532
     52534     52533     52535     52537     52536     52538     52540     52539     52541
     52543     52542     52544     52546     52545     52547     52549     52548     52550
     52552     52551     52553     52555     52554     52556     52558     52557     52559
     52561     52560     52562     52564     52563     52565     52567     52566     52568
     52570     52569     52571     52573     52572     52574     52576     52575     52577
     52579     52578     52580     52582     52581     52583     52585     52584     52586
     52588     52587     52589     52591     52590     52592     52594     52593     52595
     52597     52596     52598     52600     52599     52601     52603     52602     52604
     52606     52605     52607     52609     52608     52610     52612     52611     52613
     52615     52614     52616     52618     52617     52619     52621     52620     52622
     52624     52623     52625     52627     52626     52628     52630     52629     52631
     52633     52632     52634     52636     52635     52637     52639     52638     52640
     52642     52641     52643     52645     52644     52646     52648     52647     52649
     52651     52650     52652     52654     52653     52655     52657     52656     52658
     52660     52659     52661     52663     52662     52664     52666     52665     52667
     52669     52668     52670     52672     52671     52673     52675     52674     52676
     52678     52677     52679     52681     52680     52682     52684     52683     52685
     52687     52686     52688     52690     52689     52691     52693     52692     52694
     52696     52695     52697     52699     52698     52700     52702     52701     52703
     52705     52704     52706     52708     52707     52709     52711     52710     52712
     52714     52713     52715     52717     52716     52718     52720     52719     52721
     52723     52722     52724     52726     52725     52727     52729     52728     52730
     52732     52731     52733     52735     52734     52736     52738     52737     52739
     52741     52740     52742     52744     52743     52745     52747     52746     52748
     52750     52749     52751     52753     52752     52754     52756     52755     52757
     52759     52758     52760     52762     52761     52763     52765     52764     52766
     52768     52767     52769     52771     52770     52772     52774     52773     52775
     52777     52776     52778     52780     52779     52781     52783     52782     52784
     52786     52785     52787     52789     52788     52790     52792     52791     52793
     52795     52794     52796     52798     52797     52799     52801     52800     52802
     52804     52803     52805     52807     52806     52808     52810     52809     52811
     52813     52812     52814     52816     52815     52817     52819     52818     52820
     52822     52821     52823     52825     52824     52826     52828     52827     52829
     52831     52830     52832     52834     52833     52835     52837     52836     52838
     52840     52839     52841     52843     52842     52844     52846     52845     52847
     52849     52848     52850     52852     52851     52853     52855     52854     52856
     52858     52857     52859     52861     52860     52862     52864     52863     52865
     52867     52866     52868     52870     52869     52871     52873     52872     52874
     52876     52875     52877     52879     52878     52880     52882     52881     52883
     52885     52884     52886     52888     52887     52889     52891     52890     52892
     52894     52893     52895     52897     52896     52898     52900     52899     52901
     52903     52902     52904     52906     52905     52907     52909     52908     52910
     52912     52911     52913     52915     52914     52916     52918     52917     52919
     52921     52920     52922     52924     52923     52925     52927     52926     52928
     52930     52929     52931     52933     52932     52934     52936     52935     52937
     52939     52938     52940     52942     52941     52943     52945     52944     52946
     52948     52947     52949     52951     52950     52952     52954     52953     52955
     52957     52956     52958     52960     52959     52961     52963     52962     52964
     52966     52965     52967     52969     52968     52970     52972     52971     52973
     52975     52974     52976     52978     52977     52979     52981     52980     52982
     52984     52983     52985     52987     52986     52988     52990     52989     52991
     52993     52992     52994     52996     52995     52997     52999     52998     53000
     53002     53001     53003     53005     53004     53006     53008     53007     53009
     53011     53010     53012     53014     53013     53015     53017     53016     53018
     53020     53019     53021     53023     53022     53024     53026     53025     53027
     53029     53028     53030     53032     53031     53033     53035     53034     53036
     53038     53037     53039     53041     53040     53042     53044     53043     53045
     53047     53046     53048     53050     53049     53051     53053     53052     53054
     53056     53055     53057     53059     53058     53060     53062     53061     53063
     53065     53064     53066     53068     53067     53069     53071     53070     53072
     53074     53073     53075     53077     53076     53078     53080     53079     53081
     53083     53082     53084     53086     53085     53087     53089     53088     53090
     53092     53091     53093     53095     53094     53096     53098     53097     53099
     53101     53100     53102     53104     53103     53105     53107     53106     53108
     53110     53109     53111     53113     53112     53114     53116     53115     53117
     53119     53118     53120     53122     53121     53123     53125     53124     53126
     53128     53127     53129     53131     53130     53132     53134     53133     53135
     53137     53136     53138     53140     53139     53141     53143     53142     53144
     53146     53145     53147     53149     53148     53150     53152     53151     53153
     53155     53154     53156     53158     53157     53159     53161     53160     53162
     53164     53163     53165     53167     53166     53168     53170     53169     53171
     53173     53172     53174     53176     53175     53177     53179     53178     53180
     53182     53181     53183     53185     53184     53186     53188     53187     53189
     53191     53190     53192     53194     53193     53195     53197     53196     53198
     53200     53199     53201     53203     53202     53204     53206     53205     53207
     53209     53208     53210     53212     53211     53213     53215     53214     53216
     53218     53217     53219     53221     53220     53222     53224     53223     53225
     53227     53226     53228     53230     53229     53231     53233     53232     53234
     53236     53235     53237     53239     53238     53240     53242     53241     53243
     53245     53244     53246     53248     53247     53249     53251     53250     53252
     53254     53253     53255     53257     53256     53258     53260     53259     53261
     53263     53262     53264     53266     53265     53267     53269     53268     53270
     53272     53271     53273     53275     53274     53276     53278     53277     53279
     53281     53280     53282     53284     53283     53285     53287     53286     53288
     53290     53289     53291     53293     53292     53294     53296     53295     53297
     53299     53298     53300     53302     53301     53303     53305     53304     53306
     53308     53307     53309     53311     53310     53312     53314     53313     53315
     53317     53316     53318     53320     53319     53321     53323     53322     53324
     53326     53325     53327     53329     53328     53330     53332     53331     53333
     53335     53334     53336     53338     53337     53339     53341     53340     53342
     53344     53343     53345     53347     53346     53348     53350     53349     53351
     53353     53352     53354     53356     53355     53357     53359     53358     53360
     53362     53361     53363     53365     53364     53366     53368     53367     53369
     53371     53370     53372     53374     53373     53375     53377     53376     53378
     53380     53379     53381     53383     53382     53384     53386     53385     53387
     53389     53388     53390     53392     53391     53393     53395     53394     53396
     53398     53397     53399     53401     53400     53402     53404     53403     53405
     53407     53406     53408     53410     53409     53411     53413     53412     53414
     53416     53415     53417     53419     53418     53420     53422     53421     53423
     53425     53424     53426     53428     53427     53429     53431     53430     53432
     53434     53433     53435     53437     53436     53438     53440     53439     53441
     53443     53442     53444     53446     53445     53447     53449     53448     53450
     53452     53451     53453     53455     53454     53456     53458     53457     53459
     53461     53460     53462     53464     53463     53465     53467     53466     53468
     53470     53469     53471     53473     53472     53474     53476     53475     53477
     53479     53478     53480     53482     53481     53483     53485     53484     53486
     53488     53487     53489     53491     53490     53492     53494     53493     53495
     53497     53496     53498     53500     53499     53501     53503     53502     53504
     53506     53505     53507     53509     53508     53510     53512     53511     53513
     53515     53514     53516     53518     53517     53519     53521     53520     53522
     53524     53523     53525     53527     53526     53528     53530     53529     53531
     53533     53532     53534     53536     53535     53537     53539     53538     53540
     53542     53541     53543     53545     53544     53546     53548     53547     53549
     53551     53550     53552     53554     53553     53555     53557     53556     53558
     53560     53559     53561     53563     53562     53564     53566     53565     53567
     53569     53568     53570     53572     53571     53573     53575     53574     53576
     53578     53577     53579     53581     53580     53582     53584     53583     53585
     53587     53586     53588     53590     53589     53591     53593     53592     53594
     53596     53595     53597     53599     53598     53600     53602     53601     53603
     53605     53604     53606     53608     53607     53609     53611     53610     53612
     53614     53613     53615     53617     53616     53618     53620     53619     53621
     53623     53622     53624     53626     53625     53627     53629     53628     53630
     53632     53631     53633     53635     53634     53636     53638     53637     53639
     53641     53640     53642     53644     53643     53645     53647     53646     53648
     53650     53649     53651     53653     53652     53654     53656     53655     53657
     53659     53658     53660     53662     53661     53663     53665     53664     53666
     53668     53667     53669     53671     53670     53672     53674     53673     53675
     53677     53676     53678     53680     53679     53681     53683     53682     53684
     53686     53685     53687     53689     53688     53690     53692     53691     53693
     53695     53694     53696     53698     53697     53699     53701     53700     53702
     53704     53703     53705     53707     53706     53708     53710     53709     53711
     53713     53712     53714     53716     53715     53717     53719     53718     53720
     53722     53721     53723     53725     53724     53726     53728     53727     53729
     53731     53730     53732     53734     53733     53735     53737     53736     53738
     53740     53739     53741     53743     53742     53744     53746     53745     53747
     53749     53748     53750     53752     53751     53753     53755     53754     53756
     53758     53757     53759     53761     53760     53762     53764     53763     53765
     53767     53766     53768     53770     53769     53771     53773     53772     53774
     53776     53775     53777     53779     53778     53780     53782     53781     53783
     53785     53784     53786     53788     53787     53789     53791     53790     53792
     53794     53793     53795     53797     53796     53798     53800     53799     53801
     53803     53802     53804     53806     53805     53807     53809     53808     53810
     53812     53811     53813     53815     53814     53816     53818     53817     53819
     53821     53820     53822     53824     53823     53825     53827     53826     53828
     53830     53829     53831     53833     53832     53834     53836     53835     53837
     53839     53838     53840     53842     53841     53843     53845     53844     53846
     53848     53847     53849     53851     53850     53852     53854     53853     53855
     53857     53856     53858     53860     53859     53861     53863     53862     53864
     53866     53865     53867     53869     53868     53870     53872     53871     53873
     53875     53874     53876     53878     53877     53879     53881     53880     53882
     53884     53883     53885     53887     53886     53888     53890     53889     53891
     53893     53892     53894     53896     53895     53897     53899     53898     53900
     53902     53901     53903     53905     53904     53906     53908     53907     53909
     53911     53910     53912     53914     53913     53915     53917     53916     53918
     53920     53919     53921     53923     53922     53924     53926     53925     53927
     53929     53928     53930     53932     53931     53933     53935     53934     53936
     53938     53937     53939     53941     53940     53942     53944     53943     53945
     53947     53946     53948     53950     53949     53951     53953     53952     53954
     53956     53955     53957     53959     53958     53960     53962     53961     53963
     53965     53964     53966     53968     53967     53969     53971     53970     53972
     53974     53973     53975     53977     53976     53978     53980     53979     53981
     53983     53982     53984     53986     53985     53987     53989     53988     53990
     53992     53991     53993     53995     53994     53996     53998     53997     53999
     54001     54000     54002     54004     54003     54005     54007     54006     54008
     54010     54009     54011     54013     54012     54014     54016     54015     54017
     54019     54018     54020     54022     54021     54023     54025     54024     54026
     54028     54027     54029     54031     54030     54032     54034     54033     54035
     54037     54036     54038     54040     54039     54041     54043     54042     54044
     54046     54045     54047     54049     54048     54050     54052     54051     54053
     54055     54054     54056     54058     54057     54059     54061     54060     54062
     54064     54063     54065     54067     54066     54068     54070     54069     54071
     54073     54072     54074     54076     54075     54077     54079     54078     54080
     54082     54081     54083     54085     54084     54086     54088     54087     54089
     54091     54090     54092     54094     54093     54095     54097     54096     54098
     54100     54099     54101     54103     54102     54104     54106     54105     54107
     54109     54108     54110     54112     54111     54113     54115     54114     54116
     54118     54117     54119     54121     54120     54122     54124     54123     54125
     54127     54126     54128     54130     54129     54131     54133     54132     54134
     54136     54135     54137     54139     54138     54140     54142     54141     54143
     54145     54144     54146     54148     54147     54149     54151     54150     54152
     54154     54153     54155     54157     54156     54158     54160     54159     54161
     54163     54162     54164     54166     54165     54167     54169     54168     54170
     54172     54171     54173     54175     54174     54176     54178     54177     54179
     54181     54180     54182     54184     54183     54185     54187     54186     54188
     54190     54189     54191     54193     54192     54194     54196     54195     54197
     54199     54198     54200     54202     54201     54203     54205     54204     54206
     54208     54207     54209     54211     54210     54212     54214     54213     54215
     54217     54216     54218     54220     54219     54221     54223     54222     54224
     54226     54225     54227     54229     54228     54230     54232     54231     54233
     54235     54234     54236     54238     54237     54239     54241     54240     54242
     54244     54243     54245     54247     54246     54248     54250     54249     54251
     54253     54252     54254     54256     54255     54257     54259     54258     54260
     54262     54261     54263     54265     54264     54266     54268     54267     54269
     54271     54270     54272     54274     54273     54275     54277     54276     54278
     54280     54279     54281     54283     54282     54284     54286     54285     54287
     54289     54288     54290     54292     54291     54293     54295     54294     54296
     54298     54297     54299     54301     54300     54302     54304     54303     54305
     54307     54306     54308     54310     54309     54311     54313     54312     54314
     54316     54315     54317     54319     54318     54320     54322     54321     54323
     54325     54324     54326     54328     54327     54329     54331     54330     54332
     54334     54333     54335     54337     54336     54338     54340     54339     54341
     54343     54342     54344     54346     54345     54347     54349     54348     54350
     54352     54351     54353     54355     54354     54356     54358     54357     54359
     54361     54360     54362     54364     54363     54365     54367     54366     54368
     54370     54369     54371     54373     54372     54374     54376     54375     54377
     54379     54378     54380     54382     54381     54383     54385     54384     54386
     54388     54387     54389     54391     54390     54392     54394     54393     54395
     54397     54396     54398     54400     54399     54401     54403     54402     54404
     54406     54405     54407     54409     54408     54410     54412     54411     54413
     54415     54414     54416     54418     54417     54419     54421     54420     54422
     54424     54423     54425     54427     54426     54428     54430     54429     54431
     54433     54432     54434     54436     54435     54437     54439     54438     54440
     54442     54441     54443     54445     54444     54446     54448     54447     54449
     54451     54450     54452     54454     54453     54455     54457     54456     54458
     54460     54459     54461     54463     54462     54464     54466     54465     54467
     54469     54468     54470     54472     54471     54473     54475     54474     54476
     54478     54477     54479     54481     54480     54482     54484     54483     54485
     54487     54486     54488     54490     54489     54491     54493     54492     54494
     54496     54495     54497     54499     54498     54500     54502     54501     54503
     54505     54504     54506     54508     54507     54509     54511     54510     54512
     54514     54513     54515     54517     54516     54518     54520     54519     54521
     54523     54522     54524     54526     54525     54527     54529     54528     54530
     54532     54531     54533     54535     54534     54536     54538     54537     54539
     54541     54540     54542     54544     54543     54545     54547     54546     54548
     54550     54549     54551     54553     54552     54554     54556     54555     54557
     54559     54558     54560     54562     54561     54563     54565     54564     54566
     54568     54567     54569     54571     54570     54572     54574     54573     54575
     54577     54576     54578     54580     54579     54581     54583     54582     54584
     54586     54585     54587     54589     54588     54590     54592     54591     54593
     54595     54594     54596     54598     54597     54599     54601     54600     54602
     54604     54603     54605     54607     54606     54608     54610     54609     54611
     54613     54612     54614     54616     54615     54617     54619     54618     54620
     54622     54621     54623     54625     54624     54626     54628     54627     54629
     54631     54630     54632     54634     54633     54635     54637     54636     54638
     54640     54639     54641     54643     54642     54644     54646     54645     54647
     54649     54648     54650     54652     54651     54653     54655     54654     54656
     54658     54657     54659     54661     54660     54662     54664     54663     54665
     54667     54666     54668     54670     54669     54671     54673     54672     54674
     54676     54675     54677     54679     54678     54680     54682     54681     54683
     54685     54684     54686     54688     54687     54689     54691     54690     54692
     54694     54693     54695     54697     54696     54698     54700     54699     54701
     54703     54702     54704     54706     54705     54707     54709     54708     54710
     54712     54711     54713     54715     54714     54716     54718     54717     54719
     54721     54720     54722     54724     54723     54725     54727     54726     54728
     54730     54729     54731     54733     54732     54734     54736     54735     54737
     54739     54738     54740     54742     54741     54743     54745     54744     54746
     54748     54747     54749     54751     54750     54752     54754     54753     54755
     54757     54756     54758     54760     54759     54761     54763     54762     54764
     54766     54765     54767     54769     54768     54770     54772     54771     54773
     54775     54774     54776     54778     54777     54779     54781     54780     54782
     54784     54783     54785     54787     54786     54788     54790     54789     54791
     54793     54792     54794     54796     54795     54797     54799     54798     54800
     54802     54801     54803     54805     54804     54806     54808     54807     54809
     54811     54810     54812     54814     54813     54815     54817     54816     54818
     54820     54819     54821     54823     54822     54824     54826     54825     54827
     54829     54828     54830     54832     54831     54833     54835     54834     54836
     54838     54837     54839     54841     54840     54842     54844     54843     54845
     54847     54846     54848     54850     54849     54851     54853     54852     54854
     54856     54855     54857     54859     54858     54860     54862     54861     54863
     54865     54864     54866     54868     54867     54869     54871     54870     54872
     54874     54873     54875     54877     54876     54878     54880     54879     54881
     54883     54882     54884     54886     54885     54887     54889     54888     54890
     54892     54891     54893     54895     54894     54896     54898     54897     54899
     54901     54900     54902     54904     54903     54905     54907     54906     54908
     54910     54909     54911     54913     54912     54914     54916     54915     54917
     54919     54918     54920     54922     54921     54923     54925     54924     54926
     54928     54927     54929     54931     54930     54932     54934     54933     54935
     54937     54936     54938     54940     54939     54941     54943     54942     54944
     54946     54945     54947     54949     54948     54950     54952     54951     54953
     54955     54954     54956     54958     54957     54959     54961     54960     54962
     54964     54963     54965     54967     54966     54968     54970     54969     54971
     54973     54972     54974     54976     54975     54977     54979     54978     54980
     54982     54981     54983     54985     54984     54986     54988     54987     54989
     54991     54990     54992     54994     54993     54995     54997     54996     54998
     55000     54999     55001     55003     55002     55004     55006     55005     55007
     55009     55008     55010     55012     55011     55013     55015     55014     55016
     55018     55017     55019     55021     55020     55022     55024     55023     55025
     55027     55026     55028     55030     55029     55031     55033     55032     55034
     55036     55035     55037     55039     55038     55040     55042     55041     55043
     55045     55044     55046     55048     55047     55049     55051     55050     55052
     55054     55053     55055     55057     55056     55058     55060     55059     55061
     55063     55062     55064     55066     55065     55067     55069     55068     55070
     55072     55071     55073     55075     55074     55076     55078     55077     55079
     55081     55080     55082     55084     55083     55085     55087     55086     55088
     55090     55089     55091     55093     55092     55094     55096     55095     55097
     55099     55098     55100     55102     55101     55103     55105     55104     55106
     55108     55107     55109     55111     55110     55112     55114     55113     55115
     55117     55116     55118     55120     55119     55121     55123     55122     55124
     55126     55125     55127     55129     55128     55130     55132     55131     55133
     55135     55134     55136     55138     55137     55139     55141     55140     55142
     55144     55143     55145     55147     55146     55148     55150     55149     55151
     55153     55152     55154     55156     55155     55157     55159     55158     55160
     55162     55161     55163     55165     55164     55166     55168     55167     55169
     55171     55170     55172     55174     55173     55175     55177     55176     55178
     55180     55179     55181     55183     55182     55184     55186     55185     55187
     55189     55188     55190     55192     55191     55193     55195     55194     55196
     55198     55197     55199     55201     55200     55202     55204     55203     55205
     55207     55206     55208     55210     55209     55211     55213     55212     55214
     55216     55215     55217     55219     55218     55220     55222     55221     55223
     55225     55224     55226     55228     55227     55229     55231     55230     55232
     55234     55233     55235     55237     55236     55238     55240     55239     55241
     55243     55242     55244     55246     55245     55247     55249     55248     55250
     55252     55251     55253     55255     55254     55256     55258     55257     55259
     55261     55260     55262     55264     55263     55265     55267     55266     55268
     55270     55269     55271     55273     55272     55274     55276     55275     55277
     55279     55278     55280     55282     55281     55283     55285     55284     55286
     55288     55287     55289     55291     55290     55292     55294     55293     55295
     55297     55296     55298     55300     55299     55301     55303     55302     55304
     55306     55305     55307     55309     55308     55310     55312     55311     55313
     55315     55314     55316     55318     55317     55319     55321     55320     55322
     55324     55323     55325     55327     55326     55328     55330     55329     55331
     55333     55332     55334     55336     55335     55337     55339     55338     55340
     55342     55341     55343     55345     55344     55346     55348     55347     55349
     55351     55350     55352     55354     55353     55355     55357     55356     55358
     55360     55359     55361     55363     55362     55364     55366     55365     55367
     55369     55368     55370     55372     55371     55373     55375     55374     55376
     55378     55377     55379     55381     55380     55382     55384     55383     55385
     55387     55386     55388     55390     55389     55391     55393     55392     55394
     55396     55395     55397     55399     55398     55400     55402     55401     55403
     55405     55404     55406     55408     55407     55409     55411     55410     55412
     55414     55413     55415     55417     55416     55418     55420     55419     55421
     55423     55422     55424     55426     55425     55427     55429     55428     55430
     55432     55431     55433     55435     55434     55436     55438     55437     55439
     55441     55440     55442     55444     55443     55445     55447     55446     55448
     55450     55449     55451     55453     55452     55454     55456     55455     55457
     55459     55458     55460     55462     55461     55463     55465     55464     55466
     55468     55467     55469     55471     55470     55472     55474     55473     55475
     55477     55476     55478     55480     55479     55481     55483     55482     55484
     55486     55485     55487     55489     55488     55490     55492     55491     55493
     55495     55494     55496     55498     55497     55499     55501     55500     55502
     55504     55503     55505     55507     55506     55508     55510     55509     55511
     55513     55512     55514     55516     55515     55517     55519     55518     55520
     55522     55521     55523     55525     55524     55526     55528     55527     55529
     55531     55530     55532     55534     55533     55535     55537     55536     55538
     55540     55539     55541     55543     55542     55544     55546     55545     55547
     55549     55548     55550     55552     55551     55553     55555     55554     55556
     55558     55557     55559     55561     55560     55562     55564     55563     55565
     55567     55566     55568     55570     55569     55571     55573     55572     55574
     55576     55575     55577     55579     55578     55580     55582     55581     55583
     55585     55584     55586     55588     55587     55589     55591     55590     55592
     55594     55593     55595     55597     55596     55598     55600     55599     55601
     55603     55602     55604     55606     55605     55607     55609     55608     55610
     55612     55611     55613     55615     55614     55616     55618     55617     55619
     55621     55620     55622     55624     55623     55625     55627     55626     55628
     55630     55629     55631     55633     55632     55634     55636     55635     55637
     55639     55638     55640     55642     55641     55643     55645     55644     55646
     55648     55647     55649     55651     55650     55652     55654     55653     55655
     55657     55656     55658     55660     55659     55661     55663     55662     55664
     55666     55665     55667     55669     55668     55670     55672     55671     55673
     55675     55674     55676     55678     55677     55679     55681     55680     55682
     55684     55683     55685     55687     55686     55688     55690     55689     55691
     55693     55692     55694     55696     55695     55697     55699     55698     55700
     55702     55701     55703     55705     55704     55706     55708     55707     55709
     55711     55710     55712     55714     55713     55715     55717     55716     55718
     55720     55719     55721     55723     55722     55724     55726     55725     55727
     55729     55728     55730     55732     55731     55733     55735     55734     55736
     55738     55737     55739     55741     55740     55742     55744     55743     55745
     55747     55746     55748     55750     55749     55751     55753     55752     55754
     55756     55755     55757     55759     55758     55760     55762     55761     55763
     55765     55764     55766     55768     55767     55769     55771     55770     55772
     55774     55773     55775     55777     55776     55778     55780     55779     55781
     55783     55782     55784     55786     55785     55787     55789     55788     55790
     55792     55791     55793     55795     55794     55796     55798     55797     55799
     55801     55800     55802     55804     55803     55805     55807     55806     55808
     55810     55809     55811     55813     55812     55814     55816     55815     55817
     55819     55818     55820     55822     55821     55823     55825     55824     55826
     55828     55827     55829     55831     55830     55832     55834     55833     55835
     55837     55836     55838     55840     55839     55841     55843     55842     55844
     55846     55845     55847     55849     55848     55850     55852     55851     55853
     55855     55854     55856     55858     55857     55859     55861     55860     55862
     55864     55863     55865     55867     55866     55868     55870     55869     55871
     55873     55872     55874     55876     55875     55877     55879     55878     55880
     55882     55881     55883     55885     55884     55886     55888     55887     55889
     55891     55890     55892     55894     55893     55895     55897     55896     55898
     55900     55899     55901     55903     55902     55904     55906     55905     55907
     55909     55908     55910     55912     55911     55913     55915     55914     55916
     55918     55917     55919     55921     55920     55922     55924     55923     55925
     55927     55926     55928     55930     55929     55931     55933     55932     55934
     55936     55935     55937     55939     55938     55940     55942     55941     55943
     55945     55944     55946     55948     55947     55949     55951     55950     55952
     55954     55953     55955     55957     55956     55958     55960     55959     55961
     55963     55962     55964     55966     55965     55967     55969     55968     55970
     55972     55971     55973     55975     55974     55976     55978     55977     55979
     55981     55980     55982     55984     55983     55985     55987     55986     55988
     55990     55989     55991     55993     55992     55994     55996     55995     55997
     55999     55998     56000     56002     56001     56003     56005     56004     56006
     56008     56007     56009     56011     56010     56012     56014     56013     56015
     56017     56016     56018     56020     56019     56021     56023     56022     56024
     56026     56025     56027     56029     56028     56030     56032     56031     56033
     56035     56034     56036     56038     56037     56039     56041     56040     56042
     56044     56043     56045     56047     56046     56048     56050     56049     56051
     56053     56052     56054     56056     56055     56057     56059     56058     56060
     56062     56061     56063     56065     56064     56066     56068     56067     56069
     56071     56070     56072     56074     56073     56075     56077     56076     56078
     56080     56079     56081     56083     56082     56084     56086     56085     56087
     56089     56088     56090     56092     56091     56093     56095     56094     56096
     56098     56097     56099     56101     56100     56102     56104     56103     56105
     56107     56106     56108     56110     56109     56111     56113     56112     56114
     56116     56115     56117     56119     56118     56120     56122     56121     56123
     56125     56124     56126     56128     56127     56129     56131     56130     56132
     56134     56133     56135     56137     56136     56138     56140     56139     56141
     56143     56142     56144     56146     56145     56147     56149     56148     56150
     56152     56151     56153     56155     56154     56156     56158     56157     56159
     56161     56160     56162     56164     56163     56165     56167     56166     56168
     56170     56169     56171     56173     56172     56174     56176     56175     56177
     56179     56178     56180     56182     56181     56183     56185     56184     56186
     56188     56187     56189     56191     56190     56192     56194     56193     56195
     56197     56196     56198     56200     56199     56201     56203     56202     56204
     56206     56205     56207     56209     56208     56210     56212     56211     56213
     56215     56214     56216     56218     56217     56219     56221     56220     56222
     56224     56223     56225     56227     56226     56228     56230     56229     56231
     56233     56232     56234     56236     56235     56237     56239     56238     56240
     56242     56241     56243     56245     56244     56246     56248     56247     56249
     56251     56250     56252     56254     56253     56255     56257     56256     56258
     56260     56259     56261     56263     56262     56264     56266     56265     56267
     56269     56268     56270     56272     56271     56273     56275     56274     56276
     56278     56277     56279     56281     56280     56282     56284     56283     56285
     56287     56286     56288     56290     56289     56291     56293     56292     56294
     56296     56295     56297     56299     56298     56300     56302     56301     56303
     56305     56304     56306     56308     56307     56309     56311     56310     56312
     56314     56313     56315     56317     56316     56318     56320     56319     56321
     56323     56322     56324     56326     56325     56327     56329     56328     56330
     56332     56331     56333     56335     56334     56336     56338     56337     56339
     56341     56340     56342     56344     56343     56345     56347     56346     56348
     56350     56349     56351     56353     56352     56354     56356     56355     56357
     56359     56358     56360     56362     56361     56363     56365     56364     56366
     56368     56367     56369     56371     56370     56372     56374     56373     56375
     56377     56376     56378     56380     56379     56381     56383     56382     56384
     56386     56385     56387     56389     56388     56390     56392     56391     56393
     56395     56394     56396     56398     56397     56399     56401     56400     56402
     56404     56403     56405     56407     56406     56408     56410     56409     56411
     56413     56412     56414     56416     56415     56417     56419     56418     56420
     56422     56421     56423     56425     56424     56426     56428     56427     56429
     56431     56430     56432     56434     56433     56435     56437     56436     56438
     56440     56439     56441     56443     56442     56444     56446     56445     56447
     56449     56448     56450     56452     56451     56453     56455     56454     56456
     56458     56457     56459     56461     56460     56462     56464     56463     56465
     56467     56466     56468     56470     56469     56471     56473     56472     56474
     56476     56475     56477     56479     56478     56480     56482     56481     56483
     56485     56484     56486     56488     56487     56489     56491     56490     56492
     56494     56493     56495     56497     56496     56498     56500     56499     56501
     56503     56502     56504     56506     56505     56507     56509     56508     56510
     56512     56511     56513     56515     56514     56516     56518     56517     56519
     56521     56520     56522     56524     56523     56525     56527     56526     56528
     56530     56529     56531     56533     56532     56534     56536     56535     56537
     56539     56538     56540     56542     56541     56543     56545     56544     56546
     56548     56547     56549     56551     56550     56552     56554     56553     56555
     56557     56556     56558     56560     56559     56561     56563     56562     56564
     56566     56565     56567     56569     56568     56570     56572     56571     56573
     56575     56574     56576     56578     56577     56579     56581     56580     56582
     56584     56583     56585     56587     56586     56588     56590     56589     56591
     56593     56592     56594     56596     56595     56597     56599     56598     56600
     56602     56601     56603     56605     56604     56606     56608     56607     56609
     56611     56610     56612     56614     56613     56615     56617     56616     56618
     56620     56619     56621     56623     56622     56624     56626     56625     56627
     56629     56628     56630     56632     56631     56633     56635     56634     56636
     56638     56637     56639     56641     56640     56642     56644     56643     56645
     56647     56646     56648     56650     56649     56651     56653     56652     56654
     56656     56655     56657     56659     56658     56660     56662     56661     56663
     56665     56664     56666     56668     56667     56669     56671     56670     56672
     56674     56673     56675     56677     56676     56678     56680     56679     56681
     56683     56682     56684     56686     56685     56687     56689     56688     56690
     56692     56691     56693     56695     56694     56696     56698     56697     56699
     56701     56700     56702     56704     56703     56705     56707     56706     56708
     56710     56709     56711     56713     56712     56714     56716     56715     56717
     56719     56718     56720     56722     56721     56723     56725     56724     56726
     56728     56727     56729     56731     56730     56732     56734     56733     56735
     56737     56736     56738     56740     56739     56741     56743     56742     56744
     56746     56745     56747     56749     56748     56750     56752     56751     56753
     56755     56754     56756     56758     56757     56759     56761     56760     56762
     56764     56763     56765     56767     56766     56768     56770     56769     56771
     56773     56772     56774     56776     56775     56777     56779     56778     56780
     56782     56781     56783     56785     56784     56786     56788     56787     56789
     56791     56790     56792     56794     56793     56795     56797     56796     56798
     56800     56799     56801     56803     56802     56804     56806     56805     56807
     56809     56808     56810     56812     56811     56813     56815     56814     56816
     56818     56817     56819     56821     56820     56822     56824     56823     56825
     56827     56826     56828     56830     56829     56831     56833     56832     56834
     56836     56835     56837     56839     56838     56840     56842     56841     56843
     56845     56844     56846     56848     56847     56849     56851     56850     56852
     56854     56853     56855     56857     56856     56858     56860     56859     56861
     56863     56862     56864     56866     56865     56867     56869     56868     56870
     56872     56871     56873     56875     56874     56876     56878     56877     56879
     56881     56880     56882     56884     56883     56885     56887     56886     56888
     56890     56889     56891     56893     56892     56894     56896     56895     56897
     56899     56898     56900     56902     56901     56903     56905     56904     56906
     56908     56907     56909     56911     56910     56912     56914     56913     56915
     56917     56916     56918     56920     56919     56921     56923     56922     56924
     56926     56925     56927     56929     56928     56930     56932     56931     56933
     56935     56934     56936     56938     56937     56939     56941     56940     56942
     56944     56943     56945     56947     56946     56948     56950     56949     56951
     56953     56952     56954     56956     56955     56957     56959     56958     56960
     56962     56961     56963     56965     56964     56966     56968     56967     56969
     56971     56970     56972     56974     56973     56975     56977     56976     56978
     56980     56979     56981     56983     56982     56984     56986     56985     56987
     56989     56988     56990     56992     56991     56993     56995     56994     56996
     56998     56997     56999     57001     57000     57002     57004     57003     57005
     57007     57006     57008     57010     57009     57011     57013     57012     57014
     57016     57015     57017     57019     57018     57020     57022     57021     57023
     57025     57024     57026     57028     57027     57029     57031     57030     57032
     57034     57033     57035     57037     57036     57038     57040     57039     57041
     57043     57042     57044     57046     57045     57047     57049     57048     57050
     57052     57051     57053     57055     57054     57056     57058     57057     57059
     57061     57060     57062     57064     57063     57065     57067     57066     57068
     57070     57069     57071     57073     57072     57074     57076     57075     57077
     57079     57078     57080     57082     57081     57083     57085     57084     57086
     57088     57087     57089     57091     57090     57092     57094     57093     57095
     57097     57096     57098     57100     57099     57101     57103     57102     57104
     57106     57105     57107     57109     57108     57110     57112     57111     57113
     57115     57114     57116     57118     57117     57119     57121     57120     57122
     57124     57123     57125     57127     57126     57128     57130     57129     57131
     57133     57132     57134     57136     57135     57137     57139     57138     57140
     57142     57141     57143     57145     57144     57146     57148     57147     57149
     57151     57150     57152     57154     57153     57155     57157     57156     57158
     57160     57159     57161     57163     57162     57164     57166     57165     57167
     57169     57168     57170     57172     57171     57173     57175     57174     57176
     57178     57177     57179     57181     57180     57182     57184     57183     57185
     57187     57186     57188     57190     57189     57191     57193     57192     57194
     57196     57195     57197     57199     57198     57200     57202     57201     57203
     57205     57204     57206     57208     57207     57209     57211     57210     57212
     57214     57213     57215     57217     57216     57218     57220     57219     57221
     57223     57222     57224     57226     57225     57227     57229     57228     57230
     57232     57231     57233     57235     57234     57236     57238     57237     57239
     57241     57240     57242     57244     57243     57245     57247     57246     57248
     57250     57249     57251     57253     57252     57254     57256     57255     57257
     57259     57258     57260     57262     57261     57263     57265     57264     57266
     57268     57267     57269     57271     57270     57272     57274     57273     57275
     57277     57276     57278     57280     57279     57281     57283     57282     57284
     57286     57285     57287     57289     57288     57290     57292     57291     57293
     57295     57294     57296     57298     57297     57299     57301     57300     57302
     57304     57303     57305     57307     57306     57308     57310     57309     57311
     57313     57312     57314     57316     57315     57317     57319     57318     57320
     57322     57321     57323     57325     57324     57326     57328     57327     57329
     57331     57330     57332     57334     57333     57335     57337     57336     57338
     57340     57339     57341     57343     57342     57344     57346     57345     57347
     57349     57348     57350     57352     57351     57353     57355     57354     57356
     57358     57357     57359     57361     57360     57362     57364     57363     57365
     57367     57366     57368     57370     57369     57371     57373     57372     57374
     57376     57375     57377     57379     57378     57380     57382     57381     57383
     57385     57384     57386     57388     57387     57389     57391     57390     57392
     57394     57393     57395     57397     57396     57398     57400     57399     57401
     57403     57402     57404     57406     57405     57407     57409     57408     57410
     57412     57411     57413     57415     57414     57416     57418     57417     57419
     57421     57420     57422     57424     57423     57425     57427     57426     57428
     57430     57429     57431     57433     57432     57434     57436     57435     57437
     57439     57438     57440     57442     57441     57443     57445     57444     57446
     57448     57447     57449     57451     57450     57452     57454     57453     57455
     57457     57456     57458     57460     57459     57461     57463     57462     57464
     57466     57465     57467     57469     57468     57470     57472     57471     57473
     57475     57474     57476     57478     57477     57479     57481     57480     57482
     57484     57483     57485     57487     57486     57488     57490     57489     57491
     57493     57492     57494     57496     57495     57497     57499     57498     57500
     57502     57501     57503     57505     57504     57506     57508     57507     57509
     57511     57510     57512     57514     57513     57515     57517     57516     57518
     57520     57519     57521     57523     57522     57524     57526     57525     57527
     57529     57528     57530     57532     57531     57533     57535     57534     57536
     57538     57537     57539     57541     57540     57542     57544     57543     57545
     57547     57546     57548     57550     57549     57551     57553     57552     57554
     57556     57555     57557     57559     57558     57560     57562     57561     57563
     57565     57564     57566     57568     57567     57569     57571     57570     57572
     57574     57573     57575     57577     57576     57578     57580     57579     57581
     57583     57582     57584     57586     57585     57587     57589     57588     57590
     57592     57591     57593     57595     57594     57596     57598     57597     57599
     57601     57600     57602     57604     57603     57605     57607     57606     57608
     57610     57609     57611     57613     57612     57614     57616     57615     57617
     57619     57618     57620     57622     57621     57623     57625     57624     57626
     57628     57627     57629     57631     57630     57632     57634     57633     57635
     57637     57636     57638     57640     57639     57641     57643     57642     57644
     57646     57645     57647     57649     57648     57650     57652     57651     57653
     57655     57654     57656     57658     57657     57659     57661     57660     57662
     57664     57663     57665     57667     57666     57668     57670     57669     57671
     57673     57672     57674     57676     57675     57677     57679     57678     57680
     57682     57681     57683     57685     57684     57686     57688     57687     57689
     57691     57690     57692     57694     57693     57695     57697     57696     57698
     57700     57699     57701     57703     57702     57704     57706     57705     57707
     57709     57708     57710     57712     57711     57713     57715     57714     57716
     57718     57717     57719     57721     57720     57722     57724     57723     57725
     57727     57726     57728     57730     57729     57731     57733     57732     57734
     57736     57735     57737     57739     57738     57740     57742     57741     57743
     57745     57744     57746     57748     57747     57749     57751     57750     57752
     57754     57753     57755     57757     57756     57758     57760     57759     57761
     57763     57762     57764     57766     57765     57767     57769     57768     57770
     57772     57771     57773     57775     57774     57776     57778     57777     57779
     57781     57780     57782     57784     57783     57785     57787     57786     57788
     57790     57789     57791     57793     57792     57794     57796     57795     57797
     57799     57798     57800     57802     57801     57803     57805     57804     57806
     57808     57807     57809     57811     57810     57812     57814     57813     57815
     57817     57816     57818     57820     57819     57821     57823     57822     57824
     57826     57825     57827     57829     57828     57830     57832     57831     57833
     57835     57834     57836     57838     57837     57839     57841     57840     57842
     57844     57843     57845     57847     57846     57848     57850     57849     57851
     57853     57852     57854     57856     57855     57857     57859     57858     57860
     57862     57861     57863     57865     57864     57866     57868     57867     57869
     57871     57870     57872     57874     57873     57875     57877     57876     57878
     57880     57879     57881     57883     57882     57884     57886     57885     57887
     57889     57888     57890     57892     57891     57893     57895     57894     57896
     57898     57897     57899     57901     57900     57902     57904     57903     57905
     57907     57906     57908     57910     57909     57911     57913     57912     57914
     57916     57915     57917     57919     57918     57920     57922     57921     57923
     57925     57924     57926     57928     57927     57929     57931     57930     57932
     57934     57933     57935     57937     57936     57938     57940     57939     57941
     57943     57942     57944     57946     57945     57947     57949     57948     57950
     57952     57951     57953     57955     57954     57956     57958     57957     57959
     57961     57960     57962     57964     57963     57965     57967     57966     57968
     57970     57969     57971     57973     57972     57974     57976     57975     57977
     57979     57978     57980     57982     57981     57983     57985     57984     57986
     57988     57987     57989     57991     57990     57992     57994     57993     57995
     57997     57996     57998     58000     57999     58001     58003     58002     58004
     58006     58005     58007     58009     58008     58010     58012     58011     58013
     58015     58014     58016     58018     58017     58019     58021     58020     58022
     58024     58023     58025     58027     58026     58028     58030     58029     58031
     58033     58032     58034     58036     58035     58037     58039     58038     58040
     58042     58041     58043     58045     58044     58046     58048     58047     58049
     58051     58050     58052     58054     58053     58055     58057     58056     58058
     58060     58059     58061     58063     58062     58064     58066     58065     58067
     58069     58068     58070     58072     58071     58073     58075     58074     58076
     58078     58077     58079     58081     58080     58082     58084     58083     58085
     58087     58086     58088     58090     58089     58091     58093     58092     58094
     58096     58095     58097     58099     58098     58100     58102     58101     58103
     58105     58104     58106     58108     58107     58109     58111     58110     58112
     58114     58113     58115     58117     58116     58118     58120     58119     58121
     58123     58122     58124     58126     58125     58127     58129     58128     58130
     58132     58131     58133     58135     58134     58136     58138     58137     58139
     58141     58140     58142     58144     58143     58145     58147     58146     58148
     58150     58149     58151     58153     58152     58154     58156     58155     58157
     58159     58158     58160     58162     58161     58163     58165     58164     58166
     58168     58167     58169     58171     58170     58172     58174     58173     58175
     58177     58176     58178     58180     58179     58181     58183     58182     58184
     58186     58185     58187     58189     58188     58190     58192     58191     58193
     58195     58194     58196     58198     58197     58199     58201     58200     58202
     58204     58203     58205     58207     58206     58208     58210     58209     58211
     58213     58212     58214     58216     58215     58217     58219     58218     58220
     58222     58221     58223     58225     58224     58226     58228     58227     58229
     58231     58230     58232     58234     58233     58235     58237     58236     58238
     58240     58239     58241     58243     58242     58244     58246     58245     58247
     58249     58248     58250     58252     58251     58253     58255     58254     58256
     58258     58257     58259     58261     58260     58262     58264     58263     58265
     58267     58266     58268     58270     58269     58271     58273     58272     58274
     58276     58275     58277     58279     58278     58280     58282     58281     58283
     58285     58284     58286     58288     58287     58289     58291     58290     58292
     58294     58293     58295     58297     58296     58298     58300     58299     58301
     58303     58302     58304     58306     58305     58307     58309     58308     58310
     58312     58311     58313     58315     58314     58316     58318     58317     58319
     58321     58320     58322     58324     58323     58325     58327     58326     58328
     58330     58329     58331     58333     58332     58334     58336     58335     58337
     58339     58338     58340     58342     58341     58343     58345     58344     58346
     58348     58347     58349     58351     58350     58352     58354     58353     58355
     58357     58356     58358     58360     58359     58361     58363     58362     58364
     58366     58365     58367     58369     58368     58370     58372     58371     58373
     58375     58374     58376     58378     58377     58379     58381     58380     58382
     58384     58383     58385     58387     58386     58388     58390     58389     58391
     58393     58392     58394     58396     58395     58397     58399     58398     58400
     58402     58401     58403     58405     58404     58406     58408     58407     58409
     58411     58410     58412     58414     58413     58415     58417     58416     58418
     58420     58419     58421     58423     58422     58424     58426     58425     58427
     58429     58428     58430     58432     58431     58433     58435     58434     58436
     58438     58437     58439     58441     58440     58442     58444     58443     58445
     58447     58446     58448     58450     58449     58451     58453     58452     58454
     58456     58455     58457     58459     58458     58460     58462     58461     58463
     58465     58464     58466     58468     58467     58469     58471     58470     58472
     58474     58473     58475     58477     58476     58478     58480     58479     58481
     58483     58482     58484     58486     58485     58487     58489     58488     58490
     58492     58491     58493     58495     58494     58496     58498     58497     58499
     58501     58500     58502     58504     58503     58505     58507     58506     58508
     58510     58509     58511     58513     58512     58514     58516     58515     58517
     58519     58518     58520     58522     58521     58523     58525     58524     58526
     58528     58527     58529     58531     58530     58532     58534     58533     58535
     58537     58536     58538     58540     58539     58541     58543     58542     58544
     58546     58545     58547     58549     58548     58550     58552     58551     58553
     58555     58554     58556     58558     58557     58559     58561     58560     58562
     58564     58563     58565     58567     58566     58568     58570     58569     58571
     58573     58572     58574     58576     58575     58577     58579     58578     58580
     58582     58581     58583     58585     58584     58586     58588     58587     58589
     58591     58590     58592     58594     58593     58595     58597     58596     58598
     58600     58599     58601     58603     58602     58604     58606     58605     58607
     58609     58608     58610     58612     58611     58613     58615     58614     58616
     58618     58617     58619     58621     58620     58622     58624     58623     58625
     58627     58626     58628     58630     58629     58631     58633     58632     58634
     58636     58635     58637     58639     58638     58640     58642     58641     58643
     58645     58644     58646     58648     58647     58649     58651     58650     58652
     58654     58653     58655     58657     58656     58658     58660     58659     58661
     58663     58662     58664     58666     58665     58667     58669     58668     58670
     58672     58671     58673     58675     58674     58676     58678     58677     58679
     58681     58680     58682     58684     58683     58685     58687     58686     58688
     58690     58689     58691     58693     58692     58694     58696     58695     58697
     58699     58698     58700     58702     58701     58703     58705     58704     58706
     58708     58707     58709     58711     58710     58712     58714     58713     58715
     58717     58716     58718     58720     58719     58721     58723     58722     58724
     58726     58725     58727     58729     58728     58730     58732     58731     58733
     58735     58734     58736     58738     58737     58739     58741     58740     58742
     58744     58743     58745     58747     58746     58748     58750     58749     58751
     58753     58752     58754     58756     58755     58757     58759     58758     58760
     58762     58761     58763     58765     58764     58766     58768     58767     58769
     58771     58770     58772     58774     58773     58775     58777     58776     58778
     58780     58779     58781     58783     58782     58784     58786     58785     58787
     58789     58788     58790     58792     58791     58793     58795     58794     58796
     58798     58797     58799     58801     58800     58802     58804     58803     58805
     58807     58806     58808     58810     58809     58811     58813     58812     58814
     58816     58815     58817     58819     58818     58820     58822     58821     58823
     58825     58824     58826     58828     58827     58829     58831     58830     58832
     58834     58833     58835     58837     58836     58838     58840     58839     58841
     58843     58842     58844     58846     58845     58847     58849     58848     58850
     58852     58851     58853     58855     58854     58856     58858     58857     58859
     58861     58860     58862     58864     58863     58865     58867     58866     58868
     58870     58869     58871     58873     58872     58874     58876     58875     58877
     58879     58878     58880     58882     58881     58883     58885     58884     58886
     58888     58887     58889     58891     58890     58892     58894     58893     58895
     58897     58896     58898     58900     58899     58901     58903     58902     58904
     58906     58905     58907     58909     58908     58910     58912     58911     58913
     58915     58914     58916     58918     58917     58919     58921     58920     58922
     58924     58923     58925     58927     58926     58928     58930     58929     58931
     58933     58932     58934     58936     58935     58937     58939     58938     58940
     58942     58941     58943     58945     58944     58946     58948     58947     58949
     58951     58950     58952     58954     58953     58955     58957     58956     58958
     58960     58959     58961     58963     58962     58964     58966     58965     58967
     58969     58968     58970     58972     58971     58973     58975     58974     58976
     58978     58977     58979     58981     58980     58982     58984     58983     58985
     58987     58986     58988     58990     58989     58991     58993     58992     58994
     58996     58995     58997     58999     58998     59000     59002     59001     59003
     59005     59004     59006     59008     59007     59009     59011     59010     59012
     59014     59013     59015     59017     59016     59018     59020     59019     59021
     59023     59022     59024     59026     59025     59027     59029     59028     59030
     59032     59031     59033     59035     59034     59036     59038     59037     59039
     59041     59040     59042     59044     59043     59045     59047     59046     59048
     59050     59049     59051     59053     59052     59054     59056     59055     59057
     59059     59058     59060     59062     59061     59063     59065     59064     59066
     59068     59067     59069     59071     59070     59072     59074     59073     59075
     59077     59076     59078     59080     59079     59081     59083     59082     59084
     59086     59085     59087     59089     59088     59090     59092     59091     59093
     59095     59094     59096     59098     59097     59099     59101     59100     59102
     59104     59103     59105     59107     59106     59108     59110     59109     59111
     59113     59112     59114     59116     59115     59117     59119     59118     59120
     59122     59121     59123     59125     59124     59126     59128     59127     59129
     59131     59130     59132     59134     59133     59135     59137     59136     59138
     59140     59139     59141     59143     59142     59144     59146     59145     59147
     59149     59148     59150     59152     59151     59153     59155     59154     59156
     59158     59157     59159     59161     59160     59162     59164     59163     59165
     59167     59166     59168     59170     59169     59171     59173     59172     59174
     59176     59175     59177     59179     59178     59180     59182     59181     59183
     59185     59184     59186     59188     59187     59189     59191     59190     59192
     59194     59193     59195     59197     59196     59198     59200     59199     59201
     59203     59202     59204     59206     59205     59207     59209     59208     59210
     59212     59211     59213     59215     59214     59216     59218     59217     59219
     59221     59220     59222     59224     59223     59225     59227     59226     59228
     59230     59229     59231     59233     59232     59234     59236     59235     59237
     59239     59238     59240     59242     59241     59243     59245     59244     59246
     59248     59247     59249     59251     59250     59252     59254     59253     59255
     59257     59256     59258     59260     59259     59261     59263     59262     59264
     59266     59265     59267     59269     59268     59270     59272     59271     59273
     59275     59274     59276     59278     59277     59279     59281     59280     59282
     59284     59283     59285     59287     59286     59288     59290     59289     59291
     59293     59292     59294     59296     59295     59297     59299     59298     59300
     59302     59301     59303     59305     59304     59306     59308     59307     59309
     59311     59310     59312     59314     59313     59315     59317     59316     59318
     59320     59319     59321     59323     59322     59324     59326     59325     59327
     59329     59328     59330     59332     59331     59333     59335     59334     59336
     59338     59337     59339     59341     59340     59342     59344     59343     59345
     59347     59346     59348     59350     59349     59351     59353     59352     59354
     59356     59355     59357     59359     59358     59360     59362     59361     59363
     59365     59364     59366     59368     59367     59369     59371     59370     59372
     59374     59373     59375     59377     59376     59378     59380     59379     59381
     59383     59382     59384     59386     59385     59387     59389     59388     59390
     59392     59391     59393     59395     59394     59396     59398     59397     59399
     59401     59400     59402     59404     59403     59405     59407     59406     59408
     59410     59409     59411     59413     59412     59414     59416     59415     59417
     59419     59418     59420     59422     59421     59423     59425     59424     59426
     59428     59427     59429     59431     59430     59432     59434     59433     59435
     59437     59436     59438     59440     59439     59441     59443     59442     59444
     59446     59445     59447     59449     59448     59450     59452     59451     59453
     59455     59454     59456     59458     59457     59459     59461     59460     59462
     59464     59463     59465     59467     59466     59468     59470     59469     59471
     59473     59472     59474     59476     59475     59477     59479     59478     59480
     59482     59481     59483     59485     59484     59486     59488     59487     59489
     59491     59490     59492     59494     59493     59495     59497     59496     59498
     59500     59499     59501     59503     59502     59504     59506     59505     59507
     59509     59508     59510     59512     59511     59513     59515     59514     59516
     59518     59517     59519     59521     59520     59522     59524     59523     59525
     59527     59526     59528     59530     59529     59531     59533     59532     59534
     59536     59535     59537     59539     59538     59540     59542     59541     59543
     59545     59544     59546     59548     59547     59549     59551     59550     59552
     59554     59553     59555     59557     59556     59558     59560     59559     59561
     59563     59562     59564     59566     59565     59567     59569     59568     59570
     59572     59571     59573     59575     59574     59576     59578     59577     59579
     59581     59580     59582     59584     59583     59585     59587     59586     59588
     59590     59589     59591     59593     59592     59594     59596     59595     59597
     59599     59598     59600     59602     59601     59603     59605     59604     59606
     59608     59607     59609     59611     59610     59612     59614     59613     59615
     59617     59616     59618     59620     59619     59621     59623     59622     59624
     59626     59625     59627     59629     59628     59630     59632     59631     59633
     59635     59634     59636     59638     59637     59639     59641     59640     59642
     59644     59643     59645     59647     59646     59648     59650     59649     59651
     59653     59652     59654     59656     59655     59657     59659     59658     59660
     59662     59661     59663     59665     59664     59666     59668     59667     59669
     59671     59670     59672     59674     59673     59675     59677     59676     59678
     59680     59679     59681     59683     59682     59684     59686     59685     59687
     59689     59688     59690     59692     59691     59693     59695     59694     59696
     59698     59697     59699     59701     59700     59702     59704     59703     59705
     59707     59706     59708     59710     59709     59711     59713     59712     59714
     59716     59715     59717     59719     59718     59720     59722     59721     59723
     59725     59724     59726     59728     59727     59729     59731     59730     59732
     59734     59733     59735     59737     59736     59738     59740     59739     59741
     59743     59742     59744     59746     59745     59747     59749     59748     59750
     59752     59751     59753     59755     59754     59756     59758     59757     59759
     59761     59760     59762     59764     59763     59765     59767     59766     59768
     59770     59769     59771     59773     59772     59774     59776     59775     59777
     59779     59778     59780     59782     59781     59783     59785     59784     59786
     59788     59787     59789     59791     59790     59792     59794     59793     59795
     59797     59796     59798     59800     59799     59801     59803     59802     59804
     59806     59805     59807     59809     59808     59810     59812     59811     59813
     59815     59814     59816     59818     59817     59819     59821     59820     59822
     59824     59823     59825     59827     59826     59828     59830     59829     59831
     59833     59832     59834     59836     59835     59837     59839     59838     59840
     59842     59841     59843     59845     59844     59846     59848     59847     59849
     59851     59850     59852     59854     59853     59855     59857     59856     59858
     59860     59859     59861     59863     59862     59864     59866     59865     59867
     59869     59868     59870     59872     59871     59873     59875     59874     59876
     59878     59877     59879     59881     59880     59882     59884     59883     59885
     59887     59886     59888     59890     59889     59891     59893     59892     59894
     59896     59895     59897     59899     59898     59900     59902     59901     59903
     59905     59904     59906     59908     59907     59909     59911     59910     59912
     59914     59913     59915     59917     59916     59918     59920     59919     59921
     59923     59922     59924     59926     59925     59927     59929     59928     59930
     59932     59931     59933     59935     59934     59936     59938     59937     59939
     59941     59940     59942     59944     59943     59945     59947     59946     59948
     59950     59949     59951     59953     59952     59954     59956     59955     59957
     59959     59958     59960     59962     59961     59963     59965     59964     59966
     59968     59967     59969     59971     59970     59972     59974     59973     59975
     59977     59976     59978     59980     59979     59981     59983     59982     59984
     59986     59985     59987     59989     59988     59990     59992     59991     59993
     59995     59994     59996     59998     59997     59999     60001     60000     60002
     60004     60003     60005     60007     60006     60008     60010     60009     60011
     60013     60012     60014     60016     60015     60017     60019     60018     60020
     60022     60021     60023     60025     60024     60026     60028     60027     60029
     60031     60030     60032     60034     60033     60035     60037     60036     60038
     60040     60039     60041     60043     60042     60044     60046     60045     60047
     60049     60048     60050     60052     60051     60053     60055     60054     60056
     60058     60057     60059     60061     60060     60062     60064     60063     60065
     60067     60066     60068     60070     60069     60071     60073     60072     60074
     60076     60075     60077     60079     60078     60080     60082     60081     60083
     60085     60084     60086     60088     60087     60089     60091     60090     60092
     60094     60093     60095     60097     60096     60098     60100     60099     60101
     60103     60102     60104     60106     60105     60107     60109     60108     60110
     60112     60111     60113     60115     60114     60116     60118     60117     60119
     60121     60120     60122     60124     60123     60125     60127     60126     60128
     60130     60129     60131     60133     60132     60134     60136     60135     60137
     60139     60138     60140     60142     60141     60143     60145     60144     60146
     60148     60147     60149     60151     60150     60152     60154     60153     60155
     60157     60156     60158     60160     60159     60161     60163     60162     60164
     60166     60165     60167     60169     60168     60170     60172     60171     60173
     60175     60174     60176     60178     60177     60179     60181     60180     60182
     60184     60183     60185     60187     60186     60188     60190     60189     60191
     60193     60192     60194     60196     60195     60197     60199     60198     60200
     60202     60201     60203     60205     60204     60206     60208     60207     60209
     60211     60210     60212     60214     60213     60215     60217     60216     60218
     60220     60219     60221     60223     60222     60224     60226     60225     60227
     60229     60228     60230     60232     60231     60233     60235     60234     60236
     60238     60237     60239     60241     60240     60242     60244     60243     60245
     60247     60246     60248     60250     60249     60251     60253     60252     60254
     60256     60255     60257     60259     60258     60260     60262     60261     60263
     60265     60264     60266     60268     60267     60269     60271     60270     60272
     60274     60273     60275     60277     60276     60278     60280     60279     60281
     60283     60282     60284     60286     60285     60287     60289     60288     60290
     60292     60291     60293     60295     60294     60296     60298     60297     60299
     60301     60300     60302     60304     60303     60305     60307     60306     60308
     60310     60309     60311     60313     60312     60314     60316     60315     60317
     60319     60318     60320     60322     60321     60323     60325     60324     60326
     60328     60327     60329     60331     60330     60332     60334     60333     60335
     60337     60336     60338     60340     60339     60341     60343     60342     60344
     60346     60345     60347     60349     60348     60350     60352     60351     60353
     60355     60354     60356     60358     60357     60359     60361     60360     60362
     60364     60363     60365     60367     60366     60368     60370     60369     60371
     60373     60372     60374     60376     60375     60377     60379     60378     60380
     60382     60381     60383     60385     60384     60386     60388     60387     60389
     60391     60390     60392     60394     60393     60395     60397     60396     60398
     60400     60399     60401     60403     60402     60404     60406     60405     60407
     60409     60408     60410     60412     60411     60413     60415     60414     60416
     60418     60417     60419     60421     60420     60422     60424     60423     60425
     60427     60426     60428     60430     60429     60431     60433     60432     60434
     60436     60435     60437     60439     60438     60440     60442     60441     60443
     60445     60444     60446     60448     60447     60449     60451     60450     60452
     60454     60453     60455     60457     60456     60458     60460     60459     60461
     60463     60462     60464     60466     60465     60467     60469     60468     60470
     60472     60471     60473     60475     60474     60476     60478     60477     60479
     60481     60480     60482     60484     60483     60485     60487     60486     60488
     60490     60489     60491     60493     60492     60494     60496     60495     60497
     60499     60498     60500     60502     60501     60503     60505     60504     60506
     60508     60507     60509     60511     60510     60512     60514     60513     60515
     60517     60516     60518     60520     60519     60521     60523     60522     60524
     60526     60525     60527     60529     60528     60530     60532     60531     60533
     60535     60534     60536     60538     60537     60539     60541     60540     60542
     60544     60543     60545     60547     60546     60548     60550     60549     60551
     60553     60552     60554     60556     60555     60557     60559     60558     60560
     60562     60561     60563     60565     60564     60566     60568     60567     60569
     60571     60570     60572     60574     60573     60575     60577     60576     60578
     60580     60579     60581     60583     60582     60584     60586     60585     60587
     60589     60588     60590     60592     60591     60593     60595     60594     60596
     60598     60597     60599     60601     60600     60602     60604     60603     60605
     60607     60606     60608     60610     60609     60611     60613     60612     60614
     60616     60615     60617     60619     60618     60620     60622     60621     60623
     60625     60624     60626     60628     60627     60629     60631     60630     60632
     60634     60633     60635     60637     60636     60638     60640     60639     60641
     60643     60642     60644     60646     60645     60647     60649     60648     60650
     60652     60651     60653     60655     60654     60656     60658     60657     60659
     60661     60660     60662     60664     60663     60665     60667     60666     60668
     60670     60669     60671     60673     60672     60674     60676     60675     60677
     60679     60678     60680     60682     60681     60683     60685     60684     60686
     60688     60687     60689     60691     60690     60692     60694     60693     60695
     60697     60696     60698     60700     60699     60701     60703     60702     60704
     60706     60705     60707     60709     60708     60710     60712     60711     60713
     60715     60714     60716     60718     60717     60719     60721     60720     60722
     60724     60723     60725     60727     60726     60728     60730     60729     60731
     60733     60732     60734     60736     60735     60737     60739     60738     60740
     60742     60741     60743     60745     60744     60746     60748     60747     60749
     60751     60750     60752     60754     60753     60755     60757     60756     60758
     60760     60759     60761     60763     60762     60764     60766     60765     60767
     60769     60768     60770     60772     60771     60773     60775     60774     60776
     60778     60777     60779     60781     60780     60782     60784     60783     60785
     60787     60786     60788     60790     60789     60791     60793     60792     60794
     60796     60795     60797     60799     60798     60800     60802     60801     60803
     60805     60804     60806     60808     60807     60809     60811     60810     60812
     60814     60813     60815     60817     60816     60818     60820     60819     60821
     60823     60822     60824     60826     60825     60827     60829     60828     60830
     60832     60831     60833     60835     60834     60836     60838     60837     60839
     60841     60840     60842     60844     60843     60845     60847     60846     60848
     60850     60849     60851     60853     60852     60854     60856     60855     60857
     60859     60858     60860     60862     60861     60863     60865     60864     60866
     60868     60867     60869     60871     60870     60872     60874     60873     60875
     60877     60876     60878     60880     60879     60881     60883     60882     60884
     60886     60885     60887     60889     60888     60890     60892     60891     60893
     60895     60894     60896     60898     60897     60899     60901     60900     60902
     60904     60903     60905     60907     60906     60908     60910     60909     60911
     60913     60912     60914     60916     60915     60917     60919     60918     60920
     60922     60921     60923     60925     60924     60926     60928     60927     60929
     60931     60930     60932     60934     60933     60935     60937     60936     60938
     60940     60939     60941     60943     60942     60944     60946     60945     60947
     60949     60948     60950     60952     60951     60953     60955     60954     60956
     60958     60957     60959     60961     60960     60962     60964     60963     60965
     60967     60966     60968     60970     60969     60971     60973     60972     60974
     60976     60975     60977     60979     60978     60980     60982     60981     60983
     60985     60984     60986     60988     60987     60989     60991     60990     60992
     60994     60993     60995     60997     60996     60998     61000     60999     61001
     61003     61002     61004     61006     61005     61007     61009     61008     61010
     61012     61011     61013     61015     61014     61016     61018     61017     61019
     61021     61020     61022     61024     61023     61025     61027     61026     61028
     61030     61029     61031     61033     61032     61034     61036     61035     61037
     61039     61038     61040     61042     61041     61043     61045     61044     61046
     61048     61047     61049     61051     61050     61052     61054     61053     61055
     61057     61056     61058     61060     61059     61061     61063     61062     61064
     61066     61065     61067     61069     61068     61070     61072     61071     61073
     61075     61074     61076     61078     61077     61079     61081     61080     61082
     61084     61083     61085     61087     61086     61088     61090     61089     61091
     61093     61092     61094     61096     61095     61097     61099     61098     61100
     61102     61101     61103     61105     61104     61106     61108     61107     61109
     61111     61110     61112     61114     61113     61115     61117     61116     61118
     61120     61119     61121     61123     61122     61124     61126     61125     61127
     61129     61128     61130     61132     61131     61133     61135     61134     61136
     61138     61137     61139     61141     61140     61142     61144     61143     61145
     61147     61146     61148     61150     61149     61151     61153     61152     61154
     61156     61155     61157     61159     61158     61160     61162     61161     61163
     61165     61164     61166     61168     61167     61169     61171     61170     61172
     61174     61173     61175     61177     61176     61178     61180     61179     61181
     61183     61182     61184     61186     61185     61187     61189     61188     61190
     61192     61191     61193     61195     61194     61196     61198     61197     61199
     61201     61200     61202     61204     61203     61205     61207     61206     61208
     61210     61209     61211     61213     61212     61214     61216     61215     61217
     61219     61218     61220     61222     61221     61223     61225     61224     61226
     61228     61227     61229     61231     61230     61232     61234     61233     61235
     61237     61236     61238     61240     61239     61241     61243     61242     61244
     61246     61245     61247     61249     61248     61250     61252     61251     61253
     61255     61254     61256     61258     61257     61259     61261     61260     61262
     61264     61263     61265     61267     61266     61268     61270     61269     61271
     61273     61272     61274     61276     61275     61277     61279     61278     61280
     61282     61281     61283     61285     61284     61286     61288     61287     61289
     61291     61290     61292     61294     61293     61295     61297     61296     61298
     61300     61299     61301     61303     61302     61304     61306     61305     61307
     61309     61308     61310     61312     61311     61313     61315     61314     61316
     61318     61317     61319     61321     61320     61322     61324     61323     61325
     61327     61326     61328     61330     61329     61331     61333     61332     61334
     61336     61335     61337     61339     61338     61340     61342     61341     61343
     61345     61344     61346     61348     61347     61349     61351     61350     61352
     61354     61353     61355     61357     61356     61358     61360     61359     61361
     61363     61362     61364     61366     61365     61367     61369     61368     61370
     61372     61371     61373     61375     61374     61376     61378     61377     61379
     61381     61380     61382     61384     61383     61385     61387     61386     61388
     61390     61389     61391     61393     61392     61394     61396     61395     61397
     61399     61398     61400     61402     61401     61403     61405     61404     61406
     61408     61407     61409     61411     61410     61412     61414     61413     61415
     61417     61416     61418     61420     61419     61421     61423     61422     61424
     61426     61425     61427     61429     61428     61430     61432     61431     61433
     61435     61434     61436     61438     61437     61439     61441     61440     61442
     61444     61443     61445     61447     61446     61448     61450     61449     61451
     61453     61452     61454     61456     61455     61457     61459     61458     61460
     61462     61461     61463     61465     61464     61466     61468     61467     61469
     61471     61470     61472     61474     61473     61475     61477     61476     61478
     61480     61479     61481     61483     61482     61484     61486     61485     61487
     61489     61488     61490     61492     61491     61493     61495     61494     61496
     61498     61497     61499     61501     61500     61502     61504     61503     61505
     61507     61506     61508     61510     61509     61511     61513     61512     61514
     61516     61515     61517     61519     61518     61520     61522     61521     61523
     61525     61524     61526     61528     61527     61529     61531     61530     61532
     61534     61533     61535     61537     61536     61538     61540     61539     61541
     61543     61542     61544     61546     61545     61547     61549     61548     61550
     61552     61551     61553     61555     61554     61556     61558     61557     61559
     61561     61560     61562     61564     61563     61565     61567     61566     61568
     61570     61569     61571     61573     61572     61574     61576     61575     61577
     61579     61578     61580     61582     61581     61583     61585     61584     61586
     61588     61587     61589     61591     61590     61592     61594     61593     61595
     61597     61596     61598     61600     61599     61601     61603     61602     61604
     61606     61605     61607     61609     61608     61610     61612     61611     61613
     61615     61614     61616     61618     61617     61619     61621     61620     61622
     61624     61623     61625     61627     61626     61628     61630     61629     61631
     61633     61632     61634     61636     61635     61637     61639     61638     61640
     61642     61641     61643     61645     61644     61646     61648     61647     61649
     61651     61650     61652     61654     61653     61655     61657     61656     61658
     61660     61659     61661     61663     61662     61664     61666     61665     61667
     61669     61668     61670     61672     61671     61673     61675     61674     61676
     61678     61677     61679     61681     61680     61682     61684     61683     61685
     61687     61686     61688     61690     61689     61691     61693     61692     61694
     61696     61695     61697     61699     61698     61700     61702     61701     61703
     61705     61704     61706     61708     61707     61709     61711     61710     61712
     61714     61713     61715     61717     61716     61718     61720     61719     61721
     61723     61722     61724     61726     61725     61727     61729     61728     61730
     61732     61731     61733     61735     61734     61736     61738     61737     61739
     61741     61740     61742     61744     61743     61745     61747     61746     61748
     61750     61749     61751     61753     61752     61754     61756     61755     61757
     61759     61758     61760     61762     61761     61763     61765     61764     61766
     61768     61767     61769     61771     61770     61772     61774     61773     61775
     61777     61776     61778     61780     61779     61781     61783     61782     61784
     61786     61785     61787     61789     61788     61790     61792     61791     61793
     61795     61794     61796     61798     61797     61799     61801     61800     61802
     61804     61803     61805     61807     61806     61808     61810     61809     61811
     61813     61812     61814     61816     61815     61817     61819     61818     61820
     61822     61821     61823     61825     61824     61826     61828     61827     61829
     61831     61830     61832     61834     61833     61835     61837     61836     61838
     61840     61839     61841     61843     61842     61844     61846     61845     61847
     61849     61848     61850     61852     61851     61853     61855     61854     61856
     61858     61857     61859     61861     61860     61862     61864     61863     61865
     61867     61866     61868     61870     61869     61871     61873     61872     61874
     61876     61875     61877     61879     61878     61880     61882     61881     61883
     61885     61884     61886     61888     61887     61889     61891     61890     61892
     61894     61893     61895     61897     61896     61898     61900     61899     61901
     61903     61902     61904     61906     61905     61907     61909     61908     61910
     61912     61911     61913     61915     61914     61916     61918     61917     61919
     61921     61920     61922     61924     61923     61925     61927     61926     61928
     61930     61929     61931     61933     61932     61934     61936     61935     61937
     61939     61938     61940     61942     61941     61943     61945     61944     61946
     61948     61947     61949     61951     61950     61952     61954     61953     61955
     61957     61956     61958     61960     61959     61961     61963     61962     61964
     61966     61965     61967     61969     61968     61970     61972     61971     61973
     61975     61974     61976     61978     61977     61979     61981     61980     61982
     61984     61983     61985     61987     61986     61988     61990     61989     61991
     61993     61992     61994     61996     61995     61997     61999     61998     62000
     62002     62001     62003     62005     62004     62006     62008     62007     62009
     62011     62010     62012     62014     62013     62015     62017     62016     62018
     62020     62019     62021     62023     62022     62024     62026     62025     62027
     62029     62028     62030     62032     62031     62033     62035     62034     62036
     62038     62037     62039     62041     62040     62042     62044     62043     62045
     62047     62046     62048     62050     62049     62051     62053     62052     62054
     62056     62055     62057     62059     62058     62060     62062     62061     62063
     62065     62064     62066     62068     62067     62069     62071     62070     62072
     62074     62073     62075     62077     62076     62078     62080     62079     62081
     62083     62082     62084     62086     62085     62087     62089     62088     62090
     62092     62091     62093     62095     62094     62096     62098     62097     62099
     62101     62100     62102     62104     62103     62105     62107     62106     62108
     62110     62109     62111     62113     62112     62114     62116     62115     62117
     62119     62118     62120     62122     62121     62123     62125     62124     62126
     62128     62127     62129     62131     62130     62132     62134     62133     62135
     62137     62136     62138     62140     62139     62141     62143     62142     62144
     62146     62145     62147     62149     62148     62150     62152     62151     62153
     62155     62154     62156     62158     62157     62159     62161     62160     62162
     62164     62163     62165     62167     62166     62168     62170     62169     62171
     62173     62172     62174     62176     62175     62177     62179     62178     62180
     62182     62181     62183     62185     62184     62186     62188     62187     62189
     62191     62190     62192     62194     62193     62195     62197     62196     62198
     62200     62199     62201     62203     62202     62204     62206     62205     62207
     62209     62208     62210     62212     62211     62213     62215     62214     62216
     62218     62217     62219     62221     62220     62222     62224     62223     62225
     62227     62226     62228     62230     62229     62231     62233     62232     62234
     62236     62235     62237     62239     62238     62240     62242     62241     62243
     62245     62244     62246     62248     62247     62249     62251     62250     62252
     62254     62253     62255     62257     62256     62258     62260     62259     62261
     62263     62262     62264     62266     62265     62267     62269     62268     62270
     62272     62271     62273     62275     62274     62276     62278     62277     62279
     62281     62280     62282     62284     62283     62285     62287     62286     62288
     62290     62289     62291     62293     62292     62294     62296     62295     62297
     62299     62298     62300     62302     62301     62303     62305     62304     62306
     62308     62307     62309     62311     62310     62312     62314     62313     62315
     62317     62316     62318     62320     62319     62321     62323     62322     62324
     62326     62325     62327     62329     62328     62330     62332     62331     62333
     62335     62334     62336     62338     62337     62339     62341     62340     62342
     62344     62343     62345     62347     62346     62348     62350     62349     62351
     62353     62352     62354     62356     62355     62357     62359     62358     62360
     62362     62361     62363     62365     62364     62366     62368     62367     62369
     62371     62370     62372     62374     62373     62375     62377     62376     62378
     62380     62379     62381     62383     62382     62384     62386     62385     62387
     62389     62388     62390     62392     62391     62393     62395     62394     62396
     62398     62397     62399     62401     62400     62402     62404     62403     62405
     62407     62406     62408     62410     62409     62411     62413     62412     62414
     62416     62415     62417     62419     62418     62420     62422     62421     62423
     62425     62424     62426     62428     62427     62429     62431     62430     62432
     62434     62433     62435     62437     62436     62438     62440     62439     62441
     62443     62442     62444     62446     62445     62447     62449     62448     62450
     62452     62451     62453     62455     62454     62456     62458     62457     62459
     62461     62460     62462     62464     62463     62465     62467     62466     62468
     62470     62469     62471     62473     62472     62474     62476     62475     62477
     62479     62478     62480     62482     62481     62483     62485     62484     62486
     62488     62487     62489     62491     62490     62492     62494     62493     62495
     62497     62496     62498     62500     62499     62501     62503     62502     62504
     62506     62505     62507     62509     62508     62510     62512     62511     62513
     62515     62514     62516     62518     62517     62519     62521     62520     62522
     62524     62523     62525     62527     62526     62528     62530     62529     62531
     62533     62532     62534     62536     62535     62537     62539     62538     62540
     62542     62541     62543     62545     62544     62546     62548     62547     62549
     62551     62550     62552     62554     62553     62555     62557     62556     62558
     62560     62559     62561     62563     62562     62564     62566     62565     62567
     62569     62568     62570     62572     62571     62573     62575     62574     62576
     62578     62577     62579     62581     62580     62582     62584     62583     62585
     62587     62586     62588     62590     62589     62591     62593     62592     62594
     62596     62595     62597     62599     62598     62600     62602     62601     62603
     62605     62604     62606     62608     62607     62609     62611     62610     62612
     62614     62613     62615     62617     62616     62618     62620     62619     62621
     62623     62622     62624     62626     62625     62627     62629     62628     62630
     62632     62631     62633     62635     62634     62636     62638     62637     62639
     62641     62640     62642     62644     62643     62645     62647     62646     62648
     62650     62649     62651     62653     62652     62654     62656     62655     62657
     62659     62658     62660     62662     62661     62663     62665     62664     62666
     62668     62667     62669     62671     62670     62672     62674     62673     62675
     62677     62676     62678     62680     62679     62681     62683     62682     62684
     62686     62685     62687     62689     62688     62690     62692     62691     62693
     62695     62694     62696     62698     62697     62699     62701     62700     62702
     62704     62703     62705     62707     62706     62708     62710     62709     62711
     62713     62712     62714     62716     62715     62717     62719     62718     62720
     62722     62721     62723     62725     62724     62726     62728     62727     62729
     62731     62730     62732     62734     62733     62735     62737     62736     62738
     62740     62739     62741     62743     62742     62744     62746     62745     62747
     62749     62748     62750     62752     62751     62753     62755     62754     62756
     62758     62757     62759     62761     62760     62762     62764     62763     62765
     62767     62766     62768     62770     62769     62771     62773     62772     62774
     62776     62775     62777     62779     62778     62780     62782     62781     62783
     62785     62784     62786     62788     62787     62789     62791     62790     62792
     62794     62793     62795     62797     62796     62798     62800     62799     62801
     62803     62802     62804     62806     62805     62807     62809     62808     62810
     62812     62811     62813     62815     62814     62816     62818     62817     62819
     62821     62820     62822     62824     62823     62825     62827     62826     62828
     62830     62829     62831     62833     62832     62834     62836     62835     62837
     62839     62838     62840     62842     62841     62843     62845     62844     62846
     62848     62847     62849     62851     62850     62852     62854     62853     62855
     62857     62856     62858     62860     62859     62861     62863     62862     62864
     62866     62865     62867     62869     62868     62870     62872     62871     62873
     62875     62874     62876     62878     62877     62879     62881     62880     62882
     62884     62883     62885     62887     62886     62888     62890     62889     62891
     62893     62892     62894     62896     62895     62897     62899     62898     62900
     62902     62901     62903     62905     62904     62906     62908     62907     62909
     62911     62910     62912     62914     62913     62915     62917     62916     62918
     62920     62919     62921     62923     62922     62924     62926     62925     62927
     62929     62928     62930     62932     62931     62933     62935     62934     62936
     62938     62937     62939     62941     62940     62942     62944     62943     62945
     62947     62946     62948     62950     62949     62951     62953     62952     62954
     62956     62955     62957     62959     62958     62960     62962     62961     62963
     62965     62964     62966     62968     62967     62969     62971     62970     62972
     62974     62973     62975     62977     62976     62978     62980     62979     62981
     62983     62982     62984     62986     62985     62987     62989     62988     62990
     62992     62991     62993     62995     62994     62996     62998     62997     62999
     63001     63000     63002     63004     63003     63005     63007     63006     63008
     63010     63009     63011     63013     63012     63014     63016     63015     63017
     63019     63018     63020     63022     63021     63023     63025     63024     63026
     63028     63027     63029     63031     63030     63032     63034     63033     63035
     63037     63036     63038     63040     63039     63041     63043     63042     63044
     63046     63045     63047     63049     63048     63050     63052     63051     63053
     63055     63054     63056     63058     63057     63059     63061     63060     63062
     63064     63063     63065     63067     63066     63068     63070     63069     63071
     63073     63072     63074     63076     63075     63077     63079     63078     63080
     63082     63081     63083     63085     63084     63086     63088     63087     63089
     63091     63090     63092     63094     63093     63095     63097     63096     63098
     63100     63099     63101     63103     63102     63104     63106     63105     63107
     63109     63108     63110     63112     63111     63113     63115     63114     63116
     63118     63117     63119     63121     63120     63122     63124     63123     63125
     63127     63126     63128     63130     63129     63131     63133     63132     63134
     63136     63135     63137     63139     63138     63140     63142     63141     63143
     63145     63144     63146     63148     63147     63149     63151     63150     63152
     63154     63153     63155     63157     63156     63158     63160     63159     63161
     63163     63162     63164     63166     63165     63167     63169     63168     63170
     63172     63171     63173     63175     63174     63176     63178     63177     63179
     63181     63180     63182     63184     63183     63185     63187     63186     63188
     63190     63189     63191     63193     63192     63194     63196     63195     63197
     63199     63198     63200     63202     63201     63203     63205     63204     63206
     63208     63207     63209     63211     63210     63212     63214     63213     63215
     63217     63216     63218     63220     63219     63221     63223     63222     63224
     63226     63225     63227     63229     63228     63230     63232     63231     63233
     63235     63234     63236     63238     63237     63239     63241     63240     63242
     63244     63243     63245     63247     63246     63248     63250     63249     63251
     63253     63252     63254     63256     63255     63257     63259     63258     63260
     63262     63261     63263     63265     63264     63266     63268     63267     63269
     63271     63270     63272     63274     63273     63275     63277     63276     63278
     63280     63279     63281     63283     63282     63284     63286     63285     63287
     63289     63288     63290     63292     63291     63293     63295     63294     63296
     63298     63297     63299     63301     63300     63302     63304     63303     63305
     63307     63306     63308     63310     63309     63311     63313     63312     63314
     63316     63315     63317     63319     63318     63320     63322     63321     63323
     63325     63324     63326     63328     63327     63329     63331     63330     63332
     63334     63333     63335     63337     63336     63338     63340     63339     63341
     63343     63342     63344     63346     63345     63347     63349     63348     63350
     63352     63351     63353     63355     63354     63356     63358     63357     63359
     63361     63360     63362     63364     63363     63365     63367     63366     63368
     63370     63369     63371     63373     63372     63374     63376     63375     63377
     63379     63378     63380     63382     63381     63383     63385     63384     63386
     63388     63387     63389     63391     63390     63392     63394     63393     63395
     63397     63396     63398     63400     63399     63401     63403     63402     63404
     63406     63405     63407     63409     63408     63410     63412     63411     63413
     63415     63414     63416     63418     63417     63419     63421     63420     63422
     63424     63423     63425     63427     63426     63428     63430     63429     63431
     63433     63432     63434     63436     63435     63437     63439     63438     63440
     63442     63441     63443     63445     63444     63446     63448     63447     63449
     63451     63450     63452     63454     63453     63455     63457     63456     63458
     63460     63459     63461     63463     63462     63464     63466     63465     63467
     63469     63468     63470     63472     63471     63473     63475     63474     63476
     63478     63477     63479     63481     63480     63482     63484     63483     63485
     63487     63486     63488     63490     63489     63491     63493     63492     63494
     63496     63495     63497     63499     63498     63500     63502     63501     63503
     63505     63504     63506     63508     63507     63509     63511     63510     63512
     63514     63513     63515     63517     63516     63518     63520     63519     63521
     63523     63522     63524     63526     63525     63527     63529     63528     63530
     63532     63531     63533     63535     63534     63536     63538     63537     63539
     63541     63540     63542     63544     63543     63545     63547     63546     63548
     63550     63549     63551     63553     63552     63554     63556     63555     63557
     63559     63558     63560     63562     63561     63563     63565     63564     63566
     63568     63567     63569     63571     63570     63572     63574     63573     63575
     63577     63576     63578     63580     63579     63581     63583     63582     63584
     63586     63585     63587     63589     63588     63590     63592     63591     63593
     63595     63594     63596     63598     63597     63599     63601     63600     63602
     63604     63603     63605     63607     63606     63608     63610     63609     63611
     63613     63612     63614     63616     63615     63617     63619     63618     63620
     63622     63621     63623     63625     63624     63626     63628     63627     63629
     63631     63630     63632     63634     63633     63635     63637     63636     63638
     63640     63639     63641     63643     63642     63644     63646     63645     63647
     63649     63648     63650     63652     63651     63653     63655     63654     63656
     63658     63657     63659     63661     63660     63662     63664     63663     63665
     63667     63666     63668     63670     63669     63671     63673     63672     63674
     63676     63675     63677     63679     63678     63680     63682     63681     63683
     63685     63684     63686     63688     63687     63689     63691     63690     63692
     63694     63693     63695     63697     63696     63698     63700     63699     63701
     63703     63702     63704     63706     63705     63707     63709     63708     63710
     63712     63711     63713     63715     63714     63716     63718     63717     63719
     63721     63720     63722     63724     63723     63725     63727     63726     63728
     63730     63729     63731     63733     63732     63734     63736     63735     63737
     63739     63738     63740     63742     63741     63743     63745     63744     63746
     63748     63747     63749     63751     63750     63752     63754     63753     63755
     63757     63756     63758     63760     63759     63761     63763     63762     63764
     63766     63765     63767     63769     63768     63770     63772     63771     63773
     63775     63774     63776     63778     63777     63779     63781     63780     63782
     63784     63783     63785     63787     63786     63788     63790     63789     63791
     63793     63792     63794     63796     63795     63797     63799     63798     63800
     63802     63801     63803     63805     63804     63806     63808     63807     63809
     63811     63810     63812     63814     63813     63815     63817     63816     63818
     63820     63819     63821     63823     63822     63824     63826     63825     63827
     63829     63828     63830     63832     63831     63833     63835     63834     63836
     63838     63837     63839     63841     63840     63842     63844     63843     63845
     63847     63846     63848     63850     63849     63851     63853     63852     63854
     63856     63855     63857     63859     63858     63860     63862     63861     63863
     63865     63864     63866     63868     63867     63869     63871     63870     63872
     63874     63873     63875     63877     63876     63878     63880     63879     63881
     63883     63882     63884     63886     63885     63887     63889     63888     63890
     63892     63891     63893     63895     63894     63896     63898     63897     63899
     63901     63900     63902     63904     63903     63905     63907     63906     63908
     63910     63909     63911     63913     63912     63914     63916     63915     63917
     63919     63918     63920     63922     63921     63923     63925     63924     63926
     63928     63927     63929     63931     63930     63932     63934     63933     63935
     63937     63936     63938     63940     63939     63941     63943     63942     63944
     63946     63945     63947     63949     63948     63950     63952     63951     63953
     63955     63954     63956     63958     63957     63959     63961     63960     63962
     63964     63963     63965     63967     63966     63968     63970     63969     63971
     63973     63972     63974     63976     63975     63977     63979     63978     63980
     63982     63981     63983     63985     63984     63986     63988     63987     63989
     63991     63990     63992     63994     63993     63995     63997     63996     63998
     64000     63999     64001     64003     64002     64004     64006     64005     64007
     64009     64008     64010     64012     64011     64013     64015     64014     64016
     64018     64017     64019     64021     64020     64022     64024     64023     64025
     64027     64026     64028     64030     64029     64031     64033     64032     64034
     64036     64035     64037     64039     64038     64040     64042     64041     64043
     64045     64044     64046     64048     64047     64049     64051     64050     64052
     64054     64053     64055     64057     64056     64058     64060     64059     64061
     64063     64062     64064     64066     64065     64067     64069     64068     64070
     64072     64071     64073     64075     64074     64076     64078     64077     64079
     64081     64080     64082     64084     64083     64085     64087     64086     64088
     64090     64089     64091     64093     64092     64094     64096     64095     64097
     64099     64098     64100     64102     64101     64103     64105     64104     64106
     64108     64107     64109     64111     64110     64112     64114     64113     64115
     64117     64116     64118     64120     64119     64121     64123     64122     64124
     64126     64125     64127     64129     64128     64130     64132     64131     64133
     64135     64134     64136     64138     64137     64139     64141     64140     64142
     64144     64143     64145     64147     64146     64148     64150     64149     64151
     64153     64152     64154     64156     64155     64157     64159     64158     64160
     64162     64161     64163     64165     64164     64166     64168     64167     64169
     64171     64170     64172     64174     64173     64175     64177     64176     64178
     64180     64179     64181     64183     64182     64184     64186     64185     64187
     64189     64188     64190     64192     64191     64193     64195     64194     64196
     64198     64197     64199     64201     64200     64202     64204     64203     64205
     64207     64206     64208     64210     64209     64211     64213     64212     64214
     64216     64215     64217     64219     64218     64220     64222     64221     64223
     64225     64224     64226     64228     64227     64229     64231     64230     64232
     64234     64233     64235     64237     64236     64238     64240     64239     64241
     64243     64242     64244     64246     64245     64247     64249     64248     64250
     64252     64251     64253     64255     64254     64256     64258     64257     64259
     64261     64260     64262     64264     64263     64265     64267     64266     64268
     64270     64269     64271     64273     64272     64274     64276     64275     64277
     64279     64278     64280     64282     64281     64283     64285     64284     64286
     64288     64287     64289     64291     64290     64292     64294     64293     64295
     64297     64296     64298     64300     64299     64301     64303     64302     64304
     64306     64305     64307     64309     64308     64310     64312     64311     64313
     64315     64314     64316     64318     64317     64319     64321     64320     64322
     64324     64323     64325     64327     64326     64328     64330     64329     64331
     64333     64332     64334     64336     64335     64337     64339     64338     64340
     64342     64341     64343     64345     64344     64346     64348     64347     64349
     64351     64350     64352     64354     64353     64355     64357     64356     64358
     64360     64359     64361     64363     64362     64364     64366     64365     64367
     64369     64368     64370     64372     64371     64373     64375     64374     64376
     64378     64377     64379     64381     64380     64382     64384     64383     64385
     64387     64386     64388     64390     64389     64391     64393     64392     64394
     64396     64395     64397     64399     64398     64400     64402     64401     64403
     64405     64404     64406     64408     64407     64409     64411     64410     64412
     64414     64413     64415     64417     64416     64418     64420     64419     64421
     64423     64422     64424     64426     64425     64427     64429     64428     64430
     64432     64431     64433     64435     64434     64436     64438     64437     64439
     64441     64440     64442     64444     64443     64445     64447     64446     64448
     64450     64449     64451     64453     64452     64454     64456     64455     64457
     64459     64458     64460     64462     64461     64463     64465     64464     64466
     64468     64467     64469     64471     64470     64472     64474     64473     64475
     64477     64476     64478     64480     64479     64481     64483     64482     64484
     64486     64485     64487     64489     64488     64490     64492     64491     64493
     64495     64494     64496     64498     64497     64499     64501     64500     64502
     64504     64503     64505     64507     64506     64508     64510     64509     64511
     64513     64512     64514     64516     64515     64517     64519     64518     64520
     64522     64521     64523     64525     64524     64526     64528     64527     64529
     64531     64530     64532     64534     64533     64535     64537     64536     64538
     64540     64539     64541     64543     64542     64544     64546     64545     64547
     64549     64548     64550     64552     64551     64553     64555     64554     64556
     64558     64557     64559     64561     64560     64562     64564     64563     64565
     64567     64566     64568     64570     64569     64571     64573     64572     64574
     64576     64575     64577     64579     64578     64580     64582     64581     64583
     64585     64584     64586     64588     64587     64589     64591     64590     64592
     64594     64593     64595     64597     64596     64598     64600     64599     64601
     64603     64602     64604     64606     64605     64607     64609     64608     64610
     64612     64611     64613     64615     64614     64616     64618     64617     64619
     64621     64620     64622     64624     64623     64625     64627     64626     64628
     64630     64629     64631     64633     64632     64634     64636     64635     64637
     64639     64638     64640     64642     64641     64643     64645     64644     64646
     64648     64647     64649     64651     64650     64652     64654     64653     64655
     64657     64656     64658     64660     64659     64661     64663     64662     64664
     64666     64665     64667     64669     64668     64670     64672     64671     64673
     64675     64674     64676     64678     64677     64679     64681     64680     64682
     64684     64683     64685     64687     64686     64688     64690     64689     64691
     64693     64692     64694     64696     64695     64697     64699     64698     64700
     64702     64701     64703     64705     64704     64706     64708     64707     64709
     64711     64710     64712     64714     64713     64715     64717     64716     64718
     64720     64719     64721     64723     64722     64724     64726     64725     64727
     64729     64728     64730     64732     64731     64733     64735     64734     64736
     64738     64737     64739     64741     64740     64742     64744     64743     64745
     64747     64746     64748     64750     64749     64751     64753     64752     64754
     64756     64755     64757     64759     64758     64760     64762     64761     64763
     64765     64764     64766     64768     64767     64769     64771     64770     64772
     64774     64773     64775     64777     64776     64778     64780     64779     64781
     64783     64782     64784     64786     64785     64787     64789     64788     64790
     64792     64791     64793     64795     64794     64796     64798     64797     64799
     64801     64800     64802     64804     64803     64805     64807     64806     64808
     64810     64809     64811     64813     64812     64814     64816     64815     64817
     64819     64818     64820     64822     64821     64823     64825     64824     64826
     64828     64827     64829     64831     64830     64832     64834     64833     64835
     64837     64836     64838     64840     64839     64841     64843     64842     64844
     64846     64845     64847     64849     64848     64850     64852     64851     64853
     64855     64854     64856     64858     64857     64859     64861     64860     64862
     64864     64863     64865     64867     64866     64868     64870     64869     64871
     64873     64872     64874     64876     64875     64877     64879     64878     64880
     64882     64881     64883     64885     64884     64886     64888     64887     64889
     64891     64890     64892     64894     64893     64895     64897     64896     64898
     64900     64899     64901     64903     64902     64904     64906     64905     64907
     64909     64908     64910     64912     64911     64913     64915     64914     64916
     64918     64917     64919     64921     64920     64922     64924     64923     64925
     64927     64926     64928     64930     64929     64931     64933     64932     64934
     64936     64935     64937     64939     64938     64940     64942     64941     64943
     64945     64944     64946     64948     64947     64949     64951     64950     64952
     64954     64953     64955     64957     64956     64958     64960     64959     64961
     64963     64962     64964     64966     64965     64967     64969     64968     64970
     64972     64971     64973     64975     64974     64976     64978     64977     64979
     64981     64980     64982     64984     64983     64985     64987     64986     64988
     64990     64989     64991     64993     64992     64994     64996     64995     64997
     64999     64998     65000     65002     65001     65003     65005     65004     65006
     65008     65007     65009     65011     65010     65012     65014     65013     65015
     65017     65016     65018     65020     65019     65021     65023     65022     65024
     65026     65025     65027     65029     65028     65030     65032     65031     65033
     65035     65034     65036     65038     65037     65039     65041     65040     65042
     65044     65043     65045     65047     65046     65048     65050     65049     65051
     65053     65052     65054     65056     65055     65057     65059     65058     65060
     65062     65061     65063     65065     65064     65066     65068     65067     65069
     65071     65070     65072     65074     65073     65075     65077     65076     65078
     65080     65079     65081     65083     65082     65084     65086     65085     65087
     65089     65088     65090     65092     65091     65093     65095     65094     65096
     65098     65097     65099     65101     65100     65102     65104     65103     65105
     65107     65106     65108     65110     65109     65111     65113     65112     65114
     65116     65115     65117     65119     65118     65120     65122     65121     65123
     65125     65124     65126     65128     65127     65129     65131     65130     65132
     65134     65133     65135     65137     65136     65138     65140     65139     65141
     65143     65142     65144     65146     65145     65147     65149     65148     65150
     65152     65151     65153     65155     65154     65156     65158     65157     65159
     65161     65160     65162     65164     65163     65165     65167     65166     65168
     65170     65169     65171     65173     65172     65174     65176     65175     65177
     65179     65178     65180     65182     65181     65183     65185     65184     65186
     65188     65187     65189     65191     65190     65192     65194     65193     65195
     65197     65196     65198     65200     65199     65201     65203     65202     65204
     65206     65205     65207     65209     65208     65210     65212     65211     65213
     65215     65214     65216     65218     65217     65219     65221     65220     65222
     65224     65223     65225     65227     65226     65228     65230     65229     65231
     65233     65232     65234     65236     65235     65237     65239     65238     65240
     65242     65241     65243     65245     65244     65246     65248     65247     65249
     65251     65250     65252     65254     65253     65255     65257     65256     65258
     65260     65259     65261     65263     65262     65264     65266     65265     65267
     65269     65268     65270     65272     65271     65273     65275     65274     65276
     65278     65277     65279     65281     65280     65282     65284     65283     65285
     65287     65286     65288     65290     65289     65291     65293     65292     65294
     65296     65295     65297     65299     65298     65300     65302     65301     65303
     65305     65304     65306     65308     65307     65309     65311     65310     65312
     65314     65313     65315     65317     65316     65318     65320     65319     65321
     65323     65322     65324     65326     65325     65327     65329     65328     65330
     65332     65331     65333     65335     65334     65336     65338     65337     65339
     65341     65340     65342     65344     65343     65345     65347     65346     65348
     65350     65349     65351     65353     65352     65354     65356     65355     65357
     65359     65358     65360     65362     65361     65363     65365     65364     65366
     65368     65367     65369     65371     65370     65372     65374     65373     65375
     65377     65376     65378     65380     65379     65381     65383     65382     65384
     65386     65385     65387     65389     65388     65390     65392     65391     65393
     65395     65394     65396     65398     65397     65399     65401     65400     65402
     65404     65403     65405     65407     65406     65408     65410     65409     65411
     65413     65412     65414     65416     65415     65417     65419     65418     65420
     65422     65421     65423     65425     65424     65426     65428     65427     65429
     65431     65430     65432     65434     65433     65435     65437     65436     65438
     65440     65439     65441     65443     65442     65444     65446     65445     65447
     65449     65448     65450     65452     65451     65453     65455     65454     65456
     65458     65457     65459     65461     65460     65462     65464     65463     65465
     65467     65466     65468     65470     65469     65471     65473     65472     65474
     65476     65475     65477     65479     65478     65480     65482     65481     65483
     65485     65484     65486     65488     65487     65489     65491     65490     65492
     65494     65493     65495     65497     65496     65498     65500     65499     65501
     65503     65502     65504     65506     65505     65507     65509     65508     65510
     65512     65511     65513     65515     65514     65516     65518     65517     65519
     65521     65520     65522     65524     65523     65525     65527     65526     65528
     65530     65529     65531     65533     65532     65534     65536     65535     65537
     65539     65538     65540     65542     65541     65543     65545     65544     65546
     65548     65547     65549     65551     65550     65552     65554     65553     65555
     65557     65556     65558     65560     65559     65561     65563     65562     65564
     65566     65565     65567     65569     65568     65570     65572     65571     65573
     65575     65574     65576     65578     65577     65579     65581     65580     65582
     65584     65583     65585     65587     65586     65588     65590     65589     65591
     65593     65592     65594     65596     65595     65597     65599     65598     65600
     65602     65601     65603     65605     65604     65606     65608     65607     65609
     65611     65610     65612     65614     65613     65615     65617     65616     65618
     65620     65619     65621     65623     65622     65624     65626     65625     65627
     65629     65628     65630     65632     65631     65633     65635     65634     65636
     65638     65637     65639     65641     65640     65642     65644     65643     65645
     65647     65646     65648     65650     65649     65651     65653     65652     65654
     65656     65655     65657     65659     65658     65660     65662     65661     65663
     65665     65664     65666     65668     65667     65669     65671     65670     65672
     65674     65673     65675     65677     65676     65678     65680     65679     65681
     65683     65682     65684     65686     65685     65687     65689     65688     65690
     65692     65691     65693     65695     65694     65696     65698     65697     65699
     65701     65700     65702     65704     65703     65705     65707     65706     65708
     65710     65709     65711     65713     65712     65714     65716     65715     65717
     65719     65718     65720     65722     65721     65723     65725     65724     65726
     65728     65727     65729     65731     65730     65732     65734     65733     65735
     65737     65736     65738     65740     65739     65741     65743     65742     65744
     65746     65745     65747     65749     65748     65750     65752     65751     65753
     65755     65754     65756     65758     65757     65759     65761     65760     65762
     65764     65763     65765     65767     65766     65768     65770     65769     65771
     65773     65772     65774     65776     65775     65777     65779     65778     65780
     65782     65781     65783     65785     65784     65786     65788     65787     65789
     65791     65790     65792     65794     65793     65795     65797     65796     65798
     65800     65799     65801     65803     65802     65804     65806     65805     65807
     65809     65808     65810     65812     65811     65813     65815     65814     65816
     65818     65817     65819     65821     65820     65822     65824     65823     65825
     65827     65826     65828     65830     65829     65831     65833     65832     65834
     65836     65835     65837     65839     65838     65840     65842     65841     65843
     65845     65844     65846     65848     65847     65849     65851     65850     65852
     65854     65853     65855     65857     65856     65858     65860     65859     65861
     65863     65862     65864     65866     65865     65867     65869     65868     65870
     65872     65871     65873     65875     65874     65876     65878     65877     65879
     65881     65880     65882     65884     65883     65885     65887     65886     65888
     65890     65889     65891     65893     65892     65894     65896     65895     65897
     65899     65898     65900     65902     65901     65903     65905     65904     65906
     65908     65907     65909     65911     65910     65912     65914     65913     65915
     65917     65916     65918     65920     65919     65921     65923     65922     65924
     65926     65925     65927     65929     65928     65930     65932     65931     65933
     65935     65934     65936     65938     65937     65939     65941     65940     65942
     65944     65943     65945     65947     65946     65948     65950     65949     65951
     65953     65952     65954     65956     65955     65957     65959     65958     65960
     65962     65961     65963     65965     65964     65966     65968     65967     65969
     65971     65970     65972     65974     65973     65975     65977     65976     65978
     65980     65979     65981     65983     65982     65984     65986     65985     65987
     65989     65988     65990     65992     65991     65993     65995     65994     65996
     65998     65997     65999     66001     66000     66002     66004     66003     66005
     66007     66006     66008     66010     66009     66011     66013     66012     66014
     66016     66015     66017     66019     66018     66020     66022     66021     66023
     66025     66024     66026     66028     66027     66029     66031     66030     66032
     66034     66033     66035     66037     66036     66038     66040     66039     66041
     66043     66042     66044     66046     66045     66047     66049     66048     66050
     66052     66051     66053     66055     66054     66056     66058     66057     66059
     66061     66060     66062     66064     66063     66065     66067     66066     66068
     66070     66069     66071     66073     66072     66074     66076     66075     66077
     66079     66078     66080     66082     66081     66083     66085     66084     66086
     66088     66087     66089     66091     66090     66092     66094     66093     66095
     66097     66096     66098     66100     66099     66101     66103     66102     66104
     66106     66105     66107     66109     66108     66110     66112     66111     66113
     66115     66114     66116     66118     66117     66119     66121     66120     66122
     66124     66123     66125     66127     66126     66128     66130     66129     66131
     66133     66132     66134     66136     66135     66137     66139     66138     66140
     66142     66141     66143     66145     66144     66146     66148     66147     66149
     66151     66150     66152     66154     66153     66155     66157     66156     66158
     66160     66159     66161     66163     66162     66164     66166     66165     66167
     66169     66168     66170     66172     66171     66173     66175     66174     66176
     66178     66177     66179     66181     66180     66182     66184     66183     66185
     66187     66186     66188     66190     66189     66191     66193     66192     66194
     66196     66195     66197     66199     66198     66200     66202     66201     66203
     66205     66204     66206     66208     66207     66209     66211     66210     66212
     66214     66213     66215     66217     66216     66218     66220     66219     66221
     66223     66222     66224     66226     66225     66227     66229     66228     66230
     66232     66231     66233     66235     66234     66236     66238     66237     66239
     66241     66240     66242     66244     66243     66245     66247     66246     66248
     66250     66249     66251     66253     66252     66254     66256     66255     66257
     66259     66258     66260     66262     66261     66263     66265     66264     66266
     66268     66267     66269     66271     66270     66272     66274     66273     66275
     66277     66276     66278     66280     66279     66281     66283     66282     66284
     66286     66285     66287     66289     66288     66290     66292     66291     66293
     66295     66294     66296     66298     66297     66299     66301     66300     66302
     66304     66303     66305     66307     66306     66308     66310     66309     66311
     66313     66312     66314     66316     66315     66317     66319     66318     66320
     66322     66321     66323     66325     66324     66326     66328     66327     66329
     66331     66330     66332     66334     66333     66335     66337     66336     66338
     66340     66339     66341     66343     66342     66344     66346     66345     66347
     66349     66348     66350     66352     66351     66353     66355     66354     66356
     66358     66357     66359     66361     66360     66362     66364     66363     66365
     66367     66366     66368     66370     66369     66371     66373     66372     66374
     66376     66375     66377     66379     66378     66380     66382     66381     66383
     66385     66384     66386     66388     66387     66389     66391     66390     66392
     66394     66393     66395     66397     66396     66398     66400     66399     66401
     66403     66402     66404     66406     66405     66407     66409     66408     66410
     66412     66411     66413     66415     66414     66416     66418     66417     66419
     66421     66420     66422     66424     66423     66425     66427     66426     66428
     66430     66429     66431     66433     66432     66434     66436     66435     66437
     66439     66438     66440     66442     66441     66443     66445     66444     66446
     66448     66447     66449     66451     66450     66452     66454     66453     66455
     66457     66456     66458     66460     66459     66461     66463     66462     66464
     66466     66465     66467     66469     66468     66470     66472     66471     66473
     66475     66474     66476     66478     66477     66479     66481     66480     66482
     66484     66483     66485     66487     66486     66488     66490     66489     66491
     66493     66492     66494     66496     66495     66497     66499     66498     66500
     66502     66501     66503     66505     66504     66506     66508     66507     66509
     66511     66510     66512     66514     66513     66515     66517     66516     66518
     66520     66519     66521     66523     66522     66524     66526     66525     66527
     66529     66528     66530     66532     66531     66533     66535     66534     66536
     66538     66537     66539     66541     66540     66542     66544     66543     66545
     66547     66546     66548     66550     66549     66551     66553     66552     66554
     66556     66555     66557     66559     66558     66560     66562     66561     66563
     66565     66564     66566     66568     66567     66569     66571     66570     66572
     66574     66573     66575     66577     66576     66578     66580     66579     66581
     66583     66582     66584     66586     66585     66587     66589     66588     66590
     66592     66591     66593     66595     66594     66596     66598     66597     66599
     66601     66600     66602     66604     66603     66605     66607     66606     66608
     66610     66609     66611     66613     66612     66614     66616     66615     66617
     66619     66618     66620     66622     66621     66623     66625     66624     66626
     66628     66627     66629     66631     66630     66632     66634     66633     66635
     66637     66636     66638     66640     66639     66641     66643     66642     66644
     66646     66645     66647     66649     66648     66650     66652     66651     66653
     66655     66654     66656     66658     66657     66659     66661     66660     66662
     66664     66663     66665     66667     66666     66668     66670     66669     66671
     66673     66672     66674     66676     66675     66677     66679     66678     66680
     66682     66681     66683     66685     66684     66686     66688     66687     66689
     66691     66690     66692     66694     66693     66695     66697     66696     66698
     66700     66699     66701     66703     66702     66704     66706     66705     66707
     66709     66708     66710     66712     66711     66713     66715     66714     66716
     66718     66717     66719     66721     66720     66722     66724     66723     66725
     66727     66726     66728     66730     66729     66731     66733     66732     66734
     66736     66735     66737     66739     66738     66740     66742     66741     66743
     66745     66744     66746     66748     66747     66749     66751     66750     66752
     66754     66753     66755     66757     66756     66758     66760     66759     66761
     66763     66762     66764     66766     66765     66767     66769     66768     66770
     66772     66771     66773     66775     66774     66776     66778     66777     66779
     66781     66780     66782     66784     66783     66785     66787     66786     66788
     66790     66789     66791     66793     66792     66794     66796     66795     66797
     66799     66798     66800     66802     66801     66803     66805     66804     66806
     66808     66807     66809     66811     66810     66812     66814     66813     66815
     66817     66816     66818     66820     66819     66821     66823     66822     66824
     66826     66825     66827     66829     66828     66830     66832     66831     66833
     66835     66834     66836     66838     66837     66839     66841     66840     66842
     66844     66843     66845     66847     66846     66848     66850     66849     66851
     66853     66852     66854     66856     66855     66857     66859     66858     66860
     66862     66861     66863     66865     66864     66866     66868     66867     66869
     66871     66870     66872     66874     66873     66875     66877     66876     66878
     66880     66879     66881     66883     66882     66884     66886     66885     66887
     66889     66888     66890     66892     66891     66893     66895     66894     66896
     66898     66897     66899     66901     66900     66902     66904     66903     66905
     66907     66906     66908     66910     66909     66911     66913     66912     66914
     66916     66915     66917     66919     66918     66920     66922     66921     66923
     66925     66924     66926     66928     66927     66929     66931     66930     66932
     66934     66933     66935     66937     66936     66938     66940     66939     66941
     66943     66942     66944     66946     66945     66947     66949     66948     66950
     66952     66951     66953     66955     66954     66956     66958     66957     66959
     66961     66960     66962     66964     66963     66965     66967     66966     66968
     66970     66969     66971     66973     66972     66974     66976     66975     66977
     66979     66978     66980     66982     66981     66983     66985     66984     66986
     66988     66987     66989     66991     66990     66992     66994     66993     66995
     66997     66996     66998     67000     66999     67001     67003     67002     67004
     67006     67005     67007     67009     67008     67010     67012     67011     67013
     67015     67014     67016     67018     67017     67019     67021     67020     67022
     67024     67023     67025     67027     67026     67028     67030     67029     67031
     67033     67032     67034     67036     67035     67037     67039     67038     67040
     67042     67041     67043     67045     67044     67046     67048     67047     67049
     67051     67050     67052     67054     67053     67055     67057     67056     67058
     67060     67059     67061     67063     67062     67064     67066     67065     67067
     67069     67068     67070     67072     67071     67073     67075     67074     67076
     67078     67077     67079     67081     67080     67082     67084     67083     67085
     67087     67086     67088     67090     67089     67091     67093     67092     67094
     67096     67095     67097     67099     67098     67100     67102     67101     67103
     67105     67104     67106     67108     67107     67109     67111     67110     67112
     67114     67113     67115     67117     67116     67118     67120     67119     67121
     67123     67122     67124     67126     67125     67127     67129     67128     67130
     67132     67131     67133     67135     67134     67136     67138     67137     67139
     67141     67140     67142     67144     67143     67145     67147     67146     67148
     67150     67149     67151     67153     67152     67154     67156     67155     67157
     67159     67158     67160     67162     67161     67163     67165     67164     67166
     67168     67167     67169     67171     67170     67172     67174     67173     67175
     67177     67176     67178     67180     67179     67181     67183     67182     67184
     67186     67185     67187     67189     67188     67190     67192     67191     67193
     67195     67194     67196     67198     67197     67199     67201     67200     67202
     67204     67203     67205     67207     67206     67208     67210     67209     67211
     67213     67212     67214     67216     67215     67217     67219     67218     67220
     67222     67221     67223     67225     67224     67226     67228     67227     67229
     67231     67230     67232     67234     67233     67235     67237     67236     67238
     67240     67239     67241     67243     67242     67244     67246     67245     67247
     67249     67248     67250     67252     67251     67253     67255     67254     67256
     67258     67257     67259     67261     67260     67262     67264     67263     67265
     67267     67266     67268     67270     67269     67271     67273     67272     67274
     67276     67275     67277     67279     67278     67280     67282     67281     67283
     67285     67284     67286     67288     67287     67289     67291     67290     67292
     67294     67293     67295     67297     67296     67298     67300     67299     67301
     67303     67302     67304     67306     67305     67307     67309     67308     67310
     67312     67311     67313     67315     67314     67316     67318     67317     67319
     67321     67320     67322     67324     67323     67325     67327     67326     67328
     67330     67329     67331     67333     67332     67334     67336     67335     67337
     67339     67338     67340     67342     67341     67343     67345     67344     67346
     67348     67347     67349     67351     67350     67352     67354     67353     67355
     67357     67356     67358     67360     67359     67361     67363     67362     67364
     67366     67365     67367     67369     67368     67370     67372     67371     67373
     67375     67374     67376     67378     67377     67379     67381     67380     67382
     67384     67383     67385     67387     67386     67388     67390     67389     67391
     67393     67392     67394     67396     67395     67397     67399     67398     67400
     67402     67401     67403     67405     67404     67406     67408     67407     67409
     67411     67410     67412     67414     67413     67415     67417     67416     67418
     67420     67419     67421     67423     67422     67424     67426     67425     67427
     67429     67428     67430     67432     67431     67433     67435     67434     67436
     67438     67437     67439     67441     67440     67442     67444     67443     67445
     67447     67446     67448     67450     67449     67451     67453     67452     67454
     67456     67455     67457     67459     67458     67460     67462     67461     67463
     67465     67464     67466     67468     67467     67469     67471     67470     67472
     67474     67473     67475     67477     67476     67478     67480     67479     67481
     67483     67482     67484     67486     67485     67487     67489     67488     67490
     67492     67491     67493     67495     67494     67496     67498     67497     67499
     67501     67500     67502     67504     67503     67505     67507     67506     67508
     67510     67509     67511     67513     67512     67514     67516     67515     67517
     67519     67518     67520     67522     67521     67523     67525     67524     67526
     67528     67527     67529     67531     67530     67532     67534     67533     67535
     67537     67536     67538     67540     67539     67541     67543     67542     67544
     67546     67545     67547     67549     67548     67550     67552     67551     67553
     67555     67554     67556     67558     67557     67559     67561     67560     67562
     67564     67563     67565     67567     67566     67568     67570     67569     67571
     67573     67572     67574     67576     67575     67577     67579     67578     67580
     67582     67581     67583     67585     67584     67586     67588     67587     67589
     67591     67590     67592     67594     67593     67595     67597     67596     67598
     67600     67599     67601     67603     67602     67604     67606     67605     67607
     67609     67608     67610     67612     67611     67613     67615     67614     67616
     67618     67617     67619     67621     67620     67622     67624     67623     67625
     67627     67626     67628     67630     67629     67631     67633     67632     67634
     67636     67635     67637     67639     67638     67640     67642     67641     67643
     67645     67644     67646     67648     67647     67649     67651     67650     67652
     67654     67653     67655     67657     67656     67658     67660     67659     67661
     67663     67662     67664     67666     67665     67667     67669     67668     67670
     67672     67671     67673     67675     67674     67676     67678     67677     67679
     67681     67680     67682     67684     67683     67685     67687     67686     67688
     67690     67689     67691     67693     67692     67694     67696     67695     67697
     67699     67698     67700     67702     67701     67703     67705     67704     67706
     67708     67707     67709     67711     67710     67712     67714     67713     67715
     67717     67716     67718     67720     67719     67721     67723     67722     67724
     67726     67725     67727     67729     67728     67730     67732     67731     67733
     67735     67734     67736     67738     67737     67739     67741     67740     67742
     67744     67743     67745     67747     67746     67748     67750     67749     67751
     67753     67752     67754     67756     67755     67757     67759     67758     67760
     67762     67761     67763     67765     67764     67766     67768     67767     67769
     67771     67770     67772     67774     67773     67775     67777     67776     67778
     67780     67779     67781     67783     67782     67784     67786     67785     67787
     67789     67788     67790     67792     67791     67793     67795     67794     67796
     67798     67797     67799     67801     67800     67802     67804     67803     67805
     67807     67806     67808     67810     67809     67811     67813     67812     67814
     67816     67815     67817     67819     67818     67820     67822     67821     67823
     67825     67824     67826     67828     67827     67829     67831     67830     67832
     67834     67833     67835     67837     67836     67838     67840     67839     67841
     67843     67842     67844     67846     67845     67847     67849     67848     67850
     67852     67851     67853     67855     67854     67856     67858     67857     67859
     67861     67860     67862     67864     67863     67865     67867     67866     67868
     67870     67869     67871     67873     67872     67874     67876     67875     67877
     67879     67878     67880     67882     67881     67883     67885     67884     67886
     67888     67887     67889     67891     67890     67892     67894     67893     67895
     67897     67896     67898     67900     67899     67901     67903     67902     67904
     67906     67905     67907     67909     67908     67910     67912     67911     67913
     67915     67914     67916     67918     67917     67919     67921     67920     67922
     67924     67923     67925     67927     67926     67928     67930     67929     67931
     67933     67932     67934     67936     67935     67937     67939     67938     67940
     67942     67941     67943     67945     67944     67946     67948     67947     67949
     67951     67950     67952     67954     67953     67955     67957     67956     67958
     67960     67959     67961     67963     67962     67964     67966     67965     67967
     67969     67968     67970     67972     67971     67973     67975     67974     67976
     67978     67977     67979     67981     67980     67982     67984     67983     67985
     67987     67986     67988     67990     67989     67991     67993     67992     67994
     67996     67995     67997     67999     67998     68000     68002     68001     68003
     68005     68004     68006     68008     68007     68009     68011     68010     68012
     68014     68013     68015     68017     68016     68018     68020     68019     68021
     68023     68022     68024     68026     68025     68027     68029     68028     68030
     68032     68031     68033     68035     68034     68036     68038     68037     68039
     68041     68040     68042     68044     68043     68045     68047     68046     68048
     68050     68049     68051     68053     68052     68054     68056     68055     68057
     68059     68058     68060     68062     68061     68063     68065     68064     68066
     68068     68067     68069     68071     68070     68072     68074     68073     68075
     68077     68076     68078     68080     68079     68081     68083     68082     68084
     68086     68085     68087     68089     68088     68090     68092     68091     68093
     68095     68094     68096     68098     68097     68099     68101     68100     68102
     68104     68103     68105     68107     68106     68108     68110     68109     68111
     68113     68112     68114     68116     68115     68117     68119     68118     68120
     68122     68121     68123     68125     68124     68126     68128     68127     68129
     68131     68130     68132     68134     68133     68135     68137     68136     68138
     68140     68139     68141     68143     68142     68144     68146     68145     68147
     68149     68148     68150     68152     68151     68153     68155     68154     68156
     68158     68157     68159     68161     68160     68162     68164     68163     68165
     68167     68166     68168     68170     68169     68171     68173     68172     68174
     68176     68175     68177     68179     68178     68180     68182     68181     68183
     68185     68184     68186     68188     68187     68189     68191     68190     68192
     68194     68193     68195     68197     68196     68198     68200     68199     68201
     68203     68202     68204     68206     68205     68207     68209     68208     68210
     68212     68211     68213     68215     68214     68216     68218     68217     68219
     68221     68220     68222     68224     68223     68225     68227     68226     68228
     68230     68229     68231     68233     68232     68234     68236     68235     68237
     68239     68238     68240     68242     68241     68243     68245     68244     68246
     68248     68247     68249     68251     68250     68252     68254     68253     68255
     68257     68256     68258     68260     68259     68261     68263     68262     68264
     68266     68265     68267     68269     68268     68270     68272     68271     68273
     68275     68274     68276     68278     68277     68279     68281     68280     68282
     68284     68283     68285     68287     68286     68288     68290     68289     68291
     68293     68292     68294     68296     68295     68297     68299     68298     68300
     68302     68301     68303     68305     68304     68306     68308     68307     68309
     68311     68310     68312     68314     68313     68315     68317     68316     68318
     68320     68319     68321     68323     68322     68324     68326     68325     68327
     68329     68328     68330     68332     68331     68333     68335     68334     68336
     68338     68337     68339     68341     68340     68342     68344     68343     68345
     68347     68346     68348     68350     68349     68351     68353     68352     68354
     68356     68355     68357     68359     68358     68360     68362     68361     68363
     68365     68364     68366     68368     68367     68369     68371     68370     68372
     68374     68373     68375     68377     68376     68378     68380     68379     68381
     68383     68382     68384     68386     68385     68387     68389     68388     68390
     68392     68391     68393     68395     68394     68396     68398     68397     68399
     68401     68400     68402     68404     68403     68405     68407     68406     68408
     68410     68409     68411     68413     68412     68414     68416     68415     68417
     68419     68418     68420     68422     68421     68423     68425     68424     68426
     68428     68427     68429     68431     68430     68432     68434     68433     68435
     68437     68436     68438     68440     68439     68441     68443     68442     68444
     68446     68445     68447     68449     68448     68450     68452     68451     68453
     68455     68454     68456     68458     68457     68459     68461     68460     68462
     68464     68463     68465     68467     68466     68468     68470     68469     68471
     68473     68472     68474     68476     68475     68477     68479     68478     68480
     68482     68481     68483     68485     68484     68486     68488     68487     68489
     68491     68490     68492     68494     68493     68495     68497     68496     68498
     68500     68499     68501     68503     68502     68504     68506     68505     68507
     68509     68508     68510     68512     68511     68513     68515     68514     68516
     68518     68517     68519     68521     68520     68522     68524     68523     68525
     68527     68526     68528     68530     68529     68531     68533     68532     68534
     68536     68535     68537     68539     68538     68540     68542     68541     68543
     68545     68544     68546     68548     68547     68549     68551     68550     68552
     68554     68553     68555     68557     68556     68558     68560     68559     68561
     68563     68562     68564     68566     68565     68567     68569     68568     68570
     68572     68571     68573     68575     68574     68576     68578     68577     68579
     68581     68580     68582     68584     68583     68585     68587     68586     68588
     68590     68589     68591     68593     68592     68594     68596     68595     68597
     68599     68598     68600     68602     68601     68603     68605     68604     68606
     68608     68607     68609     68611     68610     68612     68614     68613     68615
     68617     68616     68618     68620     68619     68621     68623     68622     68624
     68626     68625     68627     68629     68628     68630     68632     68631     68633
     68635     68634     68636     68638     68637     68639     68641     68640     68642
     68644     68643     68645     68647     68646     68648     68650     68649     68651
     68653     68652     68654     68656     68655     68657     68659     68658     68660
     68662     68661     68663     68665     68664     68666     68668     68667     68669
     68671     68670     68672     68674     68673     68675     68677     68676     68678
     68680     68679     68681     68683     68682     68684     68686     68685     68687
     68689     68688     68690     68692     68691     68693     68695     68694     68696
     68698     68697     68699     68701     68700     68702     68704     68703     68705
     68707     68706     68708     68710     68709     68711     68713     68712     68714
     68716     68715     68717     68719     68718     68720     68722     68721     68723
     68725     68724     68726     68728     68727     68729     68731     68730     68732
     68734     68733     68735     68737     68736     68738     68740     68739     68741
     68743     68742     68744     68746     68745     68747     68749     68748     68750
     68752     68751     68753     68755     68754     68756     68758     68757     68759
     68761     68760     68762     68764     68763     68765     68767     68766     68768
     68770     68769     68771     68773     68772     68774     68776     68775     68777
     68779     68778     68780     68782     68781     68783     68785     68784     68786
     68788     68787     68789     68791     68790     68792     68794     68793     68795
     68797     68796     68798     68800     68799     68801     68803     68802     68804
     68806     68805     68807     68809     68808     68810     68812     68811     68813
     68815     68814     68816     68818     68817     68819     68821     68820     68822
     68824     68823     68825     68827     68826     68828     68830     68829     68831
     68833     68832     68834     68836     68835     68837     68839     68838     68840
     68842     68841     68843     68845     68844     68846     68848     68847     68849
     68851     68850     68852     68854     68853     68855     68857     68856     68858
     68860     68859     68861     68863     68862     68864     68866     68865     68867
     68869     68868     68870     68872     68871     68873     68875     68874     68876
     68878     68877     68879     68881     68880     68882     68884     68883     68885
     68887     68886     68888     68890     68889     68891     68893     68892     68894
     68896     68895     68897     68899     68898     68900     68902     68901     68903
     68905     68904     68906     68908     68907     68909     68911     68910     68912
     68914     68913     68915     68917     68916     68918     68920     68919     68921
     68923     68922     68924     68926     68925     68927     68929     68928     68930
     68932     68931     68933     68935     68934     68936     68938     68937     68939
     68941     68940     68942     68944     68943     68945     68947     68946     68948
     68950     68949     68951     68953     68952     68954     68956     68955     68957
     68959     68958     68960     68962     68961     68963     68965     68964     68966
     68968     68967     68969     68971     68970     68972     68974     68973     68975
     68977     68976     68978     68980     68979     68981     68983     68982     68984
     68986     68985     68987     68989     68988     68990     68992     68991     68993
     68995     68994     68996     68998     68997     68999     69001     69000     69002
     69004     69003     69005     69007     69006     69008     69010     69009     69011
     69013     69012     69014     69016     69015     69017     69019     69018     69020
     69022     69021     69023     69025     69024     69026     69028     69027     69029
     69031     69030     69032     69034     69033     69035     69037     69036     69038
     69040     69039     69041     69043     69042     69044     69046     69045     69047
     69049     69048     69050     69052     69051     69053     69055     69054     69056
     69058     69057     69059     69061     69060     69062     69064     69063     69065
     69067     69066     69068     69070     69069     69071     69073     69072     69074
     69076     69075     69077     69079     69078     69080     69082     69081     69083
     69085     69084     69086     69088     69087     69089     69091     69090     69092
     69094     69093     69095     69097     69096     69098     69100     69099     69101
     69103     69102     69104     69106     69105     69107     69109     69108     69110
     69112     69111     69113     69115     69114     69116     69118     69117     69119
     69121     69120     69122     69124     69123     69125     69127     69126     69128
     69130     69129     69131     69133     69132     69134     69136     69135     69137
     69139     69138     69140     69142     69141     69143     69145     69144     69146
     69148     69147     69149     69151     69150     69152     69154     69153     69155
     69157     69156     69158     69160     69159     69161     69163     69162     69164
     69166     69165     69167     69169     69168     69170     69172     69171     69173
     69175     69174     69176     69178     69177     69179     69181     69180     69182
     69184     69183     69185     69187     69186     69188     69190     69189     69191
     69193     69192     69194     69196     69195     69197     69199     69198     69200
     69202     69201     69203     69205     69204     69206     69208     69207     69209
     69211     69210     69212     69214     69213     69215     69217     69216     69218
     69220     69219     69221     69223     69222     69224     69226     69225     69227
     69229     69228     69230     69232     69231     69233     69235     69234     69236
     69238     69237     69239     69241     69240     69242     69244     69243     69245
     69247     69246     69248     69250     69249     69251     69253     69252     69254
     69256     69255     69257     69259     69258     69260     69262     69261     69263
     69265     69264     69266     69268     69267     69269     69271     69270     69272
     69274     69273     69275     69277     69276     69278     69280     69279     69281
     69283     69282     69284     69286     69285     69287     69289     69288     69290
     69292     69291     69293     69295     69294     69296     69298     69297     69299
     69301     69300     69302     69304     69303     69305     69307     69306     69308
     69310     69309     69311     69313     69312     69314     69316     69315     69317
     69319     69318     69320     69322     69321     69323     69325     69324     69326
     69328     69327     69329     69331     69330     69332     69334     69333     69335
     69337     69336     69338     69340     69339     69341     69343     69342     69344
     69346     69345     69347     69349     69348     69350     69352     69351     69353
     69355     69354     69356     69358     69357     69359     69361     69360     69362
     69364     69363     69365     69367     69366     69368     69370     69369     69371
     69373     69372     69374     69376     69375     69377     69379     69378     69380
     69382     69381     69383     69385     69384     69386     69388     69387     69389
     69391     69390     69392     69394     69393     69395     69397     69396     69398
     69400     69399     69401     69403     69402     69404     69406     69405     69407
     69409     69408     69410     69412     69411     69413     69415     69414     69416
     69418     69417     69419     69421     69420     69422     69424     69423     69425
     69427     69426     69428     69430     69429     69431     69433     69432     69434
     69436     69435     69437     69439     69438     69440     69442     69441     69443
     69445     69444     69446     69448     69447     69449     69451     69450     69452
     69454     69453     69455     69457     69456     69458     69460     69459     69461
     69463     69462     69464     69466     69465     69467     69469     69468     69470
     69472     69471     69473     69475     69474     69476     69478     69477     69479
     69481     69480     69482     69484     69483     69485     69487     69486     69488
     69490     69489     69491     69493     69492     69494     69496     69495     69497
     69499     69498     69500     69502     69501     69503     69505     69504     69506
     69508     69507     69509     69511     69510     69512     69514     69513     69515
     69517     69516     69518     69520     69519     69521     69523     69522     69524
     69526     69525     69527     69529     69528     69530     69532     69531     69533
     69535     69534     69536     69538     69537     69539     69541     69540     69542
     69544     69543     69545     69547     69546     69548     69550     69549     69551
     69553     69552     69554     69556     69555     69557     69559     69558     69560
     69562     69561     69563     69565     69564     69566     69568     69567     69569
     69571     69570     69572     69574     69573     69575     69577     69576     69578
     69580     69579     69581     69583     69582     69584     69586     69585     69587
     69589     69588     69590     69592     69591     69593     69595     69594     69596
     69598     69597     69599     69601     69600     69602     69604     69603     69605
     69607     69606     69608     69610     69609     69611     69613     69612     69614
     69616     69615     69617     69619     69618     69620     69622     69621     69623
     69625     69624     69626     69628     69627     69629     69631     69630     69632
     69634     69633     69635     69637     69636     69638     69640     69639     69641
     69643     69642     69644     69646     69645     69647     69649     69648     69650
     69652     69651     69653     69655     69654     69656     69658     69657     69659
     69661     69660     69662     69664     69663     69665     69667     69666     69668
     69670     69669     69671     69673     69672     69674     69676     69675     69677
     69679     69678     69680     69682     69681     69683     69685     69684     69686
     69688     69687     69689     69691     69690     69692     69694     69693     69695
     69697     69696     69698     69700     69699     69701     69703     69702     69704
     69706     69705     69707     69709     69708     69710     69712     69711     69713
     69715     69714     69716     69718     69717     69719     69721     69720     69722
     69724     69723     69725     69727     69726     69728     69730     69729     69731
     69733     69732     69734     69736     69735     69737     69739     69738     69740
     69742     69741     69743     69745     69744     69746     69748     69747     69749
     69751     69750     69752     69754     69753     69755     69757     69756     69758
     69760     69759     69761     69763     69762     69764     69766     69765     69767
     69769     69768     69770     69772     69771     69773     69775     69774     69776
     69778     69777     69779     69781     69780     69782     69784     69783     69785
     69787     69786     69788     69790     69789     69791     69793     69792     69794
     69796     69795     69797     69799     69798     69800     69802     69801     69803
     69805     69804     69806     69808     69807     69809     69811     69810     69812
     69814     69813     69815     69817     69816     69818     69820     69819     69821
     69823     69822     69824     69826     69825     69827     69829     69828     69830
     69832     69831     69833     69835     69834     69836     69838     69837     69839
     69841     69840     69842     69844     69843     69845     69847     69846     69848
     69850     69849     69851     69853     69852     69854     69856     69855     69857
     69859     69858     69860     69862     69861     69863     69865     69864     69866
     69868     69867     69869     69871     69870     69872     69874     69873     69875
     69877     69876     69878     69880     69879     69881     69883     69882     69884
     69886     69885     69887     69889     69888     69890     69892     69891     69893
     69895     69894     69896     69898     69897     69899     69901     69900     69902
     69904     69903     69905     69907     69906     69908     69910     69909     69911
     69913     69912     69914     69916     69915     69917     69919     69918     69920
     69922     69921     69923     69925     69924     69926     69928     69927     69929
     69931     69930     69932     69934     69933     69935     69937     69936     69938
     69940     69939     69941     69943     69942     69944     69946     69945     69947
     69949     69948     69950     69952     69951     69953     69955     69954     69956
     69958     69957     69959     69961     69960     69962     69964     69963     69965
     69967     69966     69968     69970     69969     69971     69973     69972     69974
     69976     69975     69977     69979     69978     69980     69982     69981     69983
     69985     69984     69986     69988     69987     69989     69991     69990     69992
     69994     69993     69995     69997     69996     69998     70000     69999     70001
     70003     70002     70004     70006     70005     70007     70009     70008     70010
     70012     70011     70013     70015     70014     70016     70018     70017     70019
     70021     70020     70022     70024     70023     70025     70027     70026     70028
     70030     70029     70031     70033     70032     70034     70036     70035     70037
     70039     70038     70040     70042     70041     70043     70045     70044     70046
     70048     70047     70049     70051     70050     70052     70054     70053     70055
     70057     70056     70058     70060     70059     70061     70063     70062     70064
     70066     70065     70067     70069     70068     70070     70072     70071     70073
     70075     70074     70076     70078     70077     70079     70081     70080     70082
     70084     70083     70085     70087     70086     70088     70090     70089     70091
     70093     70092     70094     70096     70095     70097     70099     70098     70100
     70102     70101     70103     70105     70104     70106     70108     70107     70109
     70111     70110     70112     70114     70113     70115     70117     70116     70118
     70120     70119     70121     70123     70122     70124     70126     70125     70127
     70129     70128     70130     70132     70131     70133     70135     70134     70136
     70138     70137     70139     70141     70140     70142     70144     70143     70145
     70147     70146     70148     70150     70149     70151     70153     70152     70154
     70156     70155     70157     70159     70158     70160     70162     70161     70163
     70165     70164     70166     70168     70167     70169     70171     70170     70172
     70174     70173     70175     70177     70176     70178     70180     70179     70181
     70183     70182     70184     70186     70185     70187     70189     70188     70190
     70192     70191     70193     70195     70194     70196     70198     70197     70199
     70201     70200     70202     70204     70203     70205     70207     70206     70208
     70210     70209     70211     70213     70212     70214     70216     70215     70217
     70219     70218     70220     70222     70221     70223     70225     70224     70226
     70228     70227     70229     70231     70230     70232     70234     70233     70235
     70237     70236     70238     70240     70239     70241     70243     70242     70244
     70246     70245     70247     70249     70248     70250     70252     70251     70253
     70255     70254     70256     70258     70257     70259     70261     70260     70262
     70264     70263     70265     70267     70266     70268     70270     70269     70271
     70273     70272     70274     70276     70275     70277     70279     70278     70280
     70282     70281     70283     70285     70284     70286     70288     70287     70289
     70291     70290     70292     70294     70293     70295     70297     70296     70298
     70300     70299     70301     70303     70302     70304     70306     70305     70307
     70309     70308     70310     70312     70311     70313     70315     70314     70316
     70318     70317     70319     70321     70320     70322     70324     70323     70325
     70327     70326     70328     70330     70329     70331     70333     70332     70334
     70336     70335     70337     70339     70338     70340     70342     70341     70343
     70345     70344     70346     70348     70347     70349     70351     70350     70352
     70354     70353     70355     70357     70356     70358     70360     70359     70361
     70363     70362     70364     70366     70365     70367     70369     70368     70370
     70372     70371     70373     70375     70374     70376     70378     70377     70379
     70381     70380     70382     70384     70383     70385     70387     70386     70388
     70390     70389     70391     70393     70392     70394     70396     70395     70397
     70399     70398     70400     70402     70401     70403     70405     70404     70406
     70408     70407     70409     70411     70410     70412     70414     70413     70415
     70417     70416     70418     70420     70419     70421     70423     70422     70424
     70426     70425     70427     70429     70428     70430     70432     70431     70433
     70435     70434     70436     70438     70437     70439     70441     70440     70442
     70444     70443     70445     70447     70446     70448     70450     70449     70451
     70453     70452     70454     70456     70455     70457     70459     70458     70460
     70462     70461     70463     70465     70464     70466     70468     70467     70469
     70471     70470     70472     70474     70473     70475     70477     70476     70478
     70480     70479     70481     70483     70482     70484     70486     70485     70487
     70489     70488     70490     70492     70491     70493     70495     70494     70496
     70498     70497     70499     70501     70500     70502     70504     70503     70505
     70507     70506     70508     70510     70509     70511     70513     70512     70514
     70516     70515     70517     70519     70518     70520     70522     70521     70523
     70525     70524     70526     70528     70527     70529     70531     70530     70532
     70534     70533     70535     70537     70536     70538     70540     70539     70541
     70543     70542     70544     70546     70545     70547     70549     70548     70550
     70552     70551     70553     70555     70554     70556     70558     70557     70559
     70561     70560     70562     70564     70563     70565     70567     70566     70568
     70570     70569     70571     70573     70572     70574     70576     70575     70577
     70579     70578     70580     70582     70581     70583     70585     70584     70586
     70588     70587     70589     70591     70590     70592     70594     70593     70595
     70597     70596     70598     70600     70599     70601     70603     70602     70604
     70606     70605     70607     70609     70608     70610     70612     70611     70613
     70615     70614     70616     70618     70617     70619     70621     70620     70622
     70624     70623     70625     70627     70626     70628     70630     70629     70631
     70633     70632     70634     70636     70635     70637     70639     70638     70640
     70642     70641     70643     70645     70644     70646     70648     70647     70649
     70651     70650     70652     70654     70653     70655     70657     70656     70658
     70660     70659     70661     70663     70662     70664     70666     70665     70667
     70669     70668     70670     70672     70671     70673     70675     70674     70676
     70678     70677     70679     70681     70680     70682     70684     70683     70685
     70687     70686     70688     70690     70689     70691     70693     70692     70694
     70696     70695     70697     70699     70698     70700     70702     70701     70703
     70705     70704     70706     70708     70707     70709     70711     70710     70712
     70714     70713     70715     70717     70716     70718     70720     70719     70721
     70723     70722     70724     70726     70725     70727     70729     70728     70730
     70732     70731     70733     70735     70734     70736     70738     70737     70739
     70741     70740     70742     70744     70743     70745     70747     70746     70748
     70750     70749     70751     70753     70752     70754     70756     70755     70757
     70759     70758     70760     70762     70761     70763     70765     70764     70766
     70768     70767     70769     70771     70770     70772     70774     70773     70775
     70777     70776     70778     70780     70779     70781     70783     70782     70784
     70786     70785     70787     70789     70788     70790     70792     70791     70793
     70795     70794     70796     70798     70797     70799     70801     70800     70802
     70804     70803     70805     70807     70806     70808     70810     70809     70811
     70813     70812     70814     70816     70815     70817     70819     70818     70820
     70822     70821     70823     70825     70824     70826     70828     70827     70829
     70831     70830     70832     70834     70833     70835     70837     70836     70838
     70840     70839     70841     70843     70842     70844     70846     70845     70847
     70849     70848     70850     70852     70851     70853     70855     70854     70856
     70858     70857     70859     70861     70860     70862     70864     70863     70865
     70867     70866     70868     70870     70869     70871     70873     70872     70874
     70876     70875     70877     70879     70878     70880     70882     70881     70883
     70885     70884     70886     70888     70887     70889     70891     70890     70892
     70894     70893     70895     70897     70896     70898     70900     70899     70901
     70903     70902     70904     70906     70905     70907     70909     70908     70910
     70912     70911     70913     70915     70914     70916     70918     70917     70919
     70921     70920     70922     70924     70923     70925     70927     70926     70928
     70930     70929     70931     70933     70932     70934     70936     70935     70937
     70939     70938     70940     70942     70941     70943     70945     70944     70946
     70948     70947     70949     70951     70950     70952     70954     70953     70955
     70957     70956     70958     70960     70959     70961     70963     70962     70964
     70966     70965     70967     70969     70968     70970     70972     70971     70973
     70975     70974     70976     70978     70977     70979     70981     70980     70982
     70984     70983     70985     70987     70986     70988     70990     70989     70991
     70993     70992     70994     70996     70995     70997     70999     70998     71000
     71002     71001     71003     71005     71004     71006     71008     71007     71009
     71011     71010     71012     71014     71013     71015     71017     71016     71018
     71020     71019     71021     71023     71022     71024     71026     71025     71027
     71029     71028     71030     71032     71031     71033     71035     71034     71036
     71038     71037     71039     71041     71040     71042     71044     71043     71045
     71047     71046     71048     71050     71049     71051     71053     71052     71054
     71056     71055     71057     71059     71058     71060     71062     71061     71063
     71065     71064     71066     71068     71067     71069     71071     71070     71072
     71074     71073     71075     71077     71076     71078     71080     71079     71081
     71083     71082     71084     71086     71085     71087     71089     71088     71090
     71092     71091     71093     71095     71094     71096     71098     71097     71099
     71101     71100     71102     71104     71103     71105     71107     71106     71108
     71110     71109     71111     71113     71112     71114     71116     71115     71117
     71119     71118     71120     71122     71121     71123     71125     71124     71126
     71128     71127     71129     71131     71130     71132     71134     71133     71135
     71137     71136     71138     71140     71139     71141     71143     71142     71144
     71146     71145     71147     71149     71148     71150     71152     71151     71153
     71155     71154     71156     71158     71157     71159     71161     71160     71162
     71164     71163     71165     71167     71166     71168     71170     71169     71171
     71173     71172     71174     71176     71175     71177     71179     71178     71180
     71182     71181     71183     71185     71184     71186     71188     71187     71189
     71191     71190     71192     71194     71193     71195     71197     71196     71198
     71200     71199     71201     71203     71202     71204     71206     71205     71207
     71209     71208     71210     71212     71211     71213     71215     71214     71216
     71218     71217     71219     71221     71220     71222     71224     71223     71225
     71227     71226     71228     71230     71229     71231     71233     71232     71234
     71236     71235     71237     71239     71238     71240     71242     71241     71243
     71245     71244     71246     71248     71247     71249     71251     71250     71252
     71254     71253     71255     71257     71256     71258     71260     71259     71261
     71263     71262     71264     71266     71265     71267     71269     71268     71270
     71272     71271     71273     71275     71274     71276     71278     71277     71279
     71281     71280     71282     71284     71283     71285     71287     71286     71288
     71290     71289     71291     71293     71292     71294     71296     71295     71297
     71299     71298     71300     71302     71301     71303     71305     71304     71306
     71308     71307     71309     71311     71310     71312     71314     71313     71315
     71317     71316     71318     71320     71319     71321     71323     71322     71324
     71326     71325     71327     71329     71328     71330     71332     71331     71333
     71335     71334     71336     71338     71337     71339     71341     71340     71342
     71344     71343     71345     71347     71346     71348     71350     71349     71351
     71353     71352     71354     71356     71355     71357     71359     71358     71360
     71362     71361     71363     71365     71364     71366     71368     71367     71369
     71371     71370     71372     71374     71373     71375     71377     71376     71378
     71380     71379     71381     71383     71382     71384     71386     71385     71387
     71389     71388     71390     71392     71391     71393     71395     71394     71396
     71398     71397     71399     71401     71400     71402     71404     71403     71405
     71407     71406     71408     71410     71409     71411     71413     71412     71414
     71416     71415     71417     71419     71418     71420     71422     71421     71423
     71425     71424     71426     71428     71427     71429     71431     71430     71432
     71434     71433     71435     71437     71436     71438     71440     71439     71441
     71443     71442     71444     71446     71445     71447     71449     71448     71450
     71452     71451     71453     71455     71454     71456     71458     71457     71459
     71461     71460     71462     71464     71463     71465     71467     71466     71468
     71470     71469     71471     71473     71472     71474     71476     71475     71477
     71479     71478     71480     71482     71481     71483     71485     71484     71486
     71488     71487     71489     71491     71490     71492     71494     71493     71495
     71497     71496     71498     71500     71499     71501     71503     71502     71504
     71506     71505     71507     71509     71508     71510     71512     71511     71513
     71515     71514     71516     71518     71517     71519     71521     71520     71522
     71524     71523     71525     71527     71526     71528     71530     71529     71531
     71533     71532     71534     71536     71535     71537     71539     71538     71540
     71542     71541     71543     71545     71544     71546     71548     71547     71549
     71551     71550     71552     71554     71553     71555     71557     71556     71558
     71560     71559     71561     71563     71562     71564     71566     71565     71567
     71569     71568     71570     71572     71571     71573     71575     71574     71576
     71578     71577     71579     71581     71580     71582     71584     71583     71585
     71587     71586     71588     71590     71589     71591     71593     71592     71594
     71596     71595     71597     71599     71598     71600     71602     71601     71603
     71605     71604     71606     71608     71607     71609     71611     71610     71612
     71614     71613     71615     71617     71616     71618     71620     71619     71621
     71623     71622     71624     71626     71625     71627     71629     71628     71630
     71632     71631     71633     71635     71634     71636     71638     71637     71639
     71641     71640     71642     71644     71643     71645     71647     71646     71648
     71650     71649     71651     71653     71652     71654     71656     71655     71657
     71659     71658     71660     71662     71661     71663     71665     71664     71666
     71668     71667     71669     71671     71670     71672     71674     71673     71675
     71677     71676     71678     71680     71679     71681     71683     71682     71684
     71686     71685     71687     71689     71688     71690     71692     71691     71693
     71695     71694     71696     71698     71697     71699     71701     71700     71702
     71704     71703     71705     71707     71706     71708     71710     71709     71711
     71713     71712     71714     71716     71715     71717     71719     71718     71720
     71722     71721     71723     71725     71724     71726     71728     71727     71729
     71731     71730     71732     71734     71733     71735     71737     71736     71738
     71740     71739     71741     71743     71742     71744     71746     71745     71747
     71749     71748     71750     71752     71751     71753     71755     71754     71756
     71758     71757     71759     71761     71760     71762     71764     71763     71765
     71767     71766     71768     71770     71769     71771     71773     71772     71774
     71776     71775     71777     71779     71778     71780     71782     71781     71783
     71785     71784     71786     71788     71787     71789     71791     71790     71792
     71794     71793     71795     71797     71796     71798     71800     71799     71801
     71803     71802     71804     71806     71805     71807     71809     71808     71810
     71812     71811     71813     71815     71814     71816     71818     71817     71819
     71821     71820     71822     71824     71823     71825     71827     71826     71828
     71830     71829     71831     71833     71832     71834     71836     71835     71837
     71839     71838     71840     71842     71841     71843     71845     71844     71846
     71848     71847     71849     71851     71850     71852     71854     71853     71855
     71857     71856     71858     71860     71859     71861     71863     71862     71864
     71866     71865     71867     71869     71868     71870     71872     71871     71873
     71875     71874     71876     71878     71877     71879     71881     71880     71882
     71884     71883     71885     71887     71886     71888     71890     71889     71891
     71893     71892     71894     71896     71895     71897     71899     71898     71900
     71902     71901     71903     71905     71904     71906     71908     71907     71909
     71911     71910     71912     71914     71913     71915     71917     71916     71918
     71920     71919     71921     71923     71922     71924     71926     71925     71927
     71929     71928     71930     71932     71931     71933     71935     71934     71936
     71938     71937     71939     71941     71940     71942     71944     71943     71945
     71947     71946     71948     71950     71949     71951     71953     71952     71954
     71956     71955     71957     71959     71958     71960     71962     71961     71963
     71965     71964     71966     71968     71967     71969     71971     71970     71972
     71974     71973     71975     71977     71976     71978     71980     71979     71981
     71983     71982     71984     71986     71985     71987     71989     71988     71990
     71992     71991     71993     71995     71994     71996     71998     71997     71999
     72001     72000     72002     72004     72003     72005     72007     72006     72008
     72010     72009     72011     72013     72012     72014     72016     72015     72017
     72019     72018     72020     72022     72021     72023     72025     72024     72026
     72028     72027     72029     72031     72030     72032     72034     72033     72035
     72037     72036     72038     72040     72039     72041     72043     72042     72044
     72046     72045     72047     72049     72048     72050     72052     72051     72053
     72055     72054     72056     72058     72057     72059     72061     72060     72062
     72064     72063     72065     72067     72066     72068     72070     72069     72071
     72073     72072     72074     72076     72075     72077     72079     72078     72080
     72082     72081     72083     72085     72084     72086     72088     72087     72089
     72091     72090     72092     72094     72093     72095     72097     72096     72098
     72100     72099     72101     72103     72102     72104     72106     72105     72107
     72109     72108     72110     72112     72111     72113     72115     72114     72116
     72118     72117     72119     72121     72120     72122     72124     72123     72125
     72127     72126     72128     72130     72129     72131     72133     72132     72134
     72136     72135     72137     72139     72138     72140     72142     72141     72143
     72145     72144     72146     72148     72147     72149     72151     72150     72152
     72154     72153     72155     72157     72156     72158     72160     72159     72161
     72163     72162     72164     72166     72165     72167     72169     72168     72170
     72172     72171     72173     72175     72174     72176     72178     72177     72179
     72181     72180     72182     72184     72183     72185     72187     72186     72188
     72190     72189     72191     72193     72192     72194     72196     72195     72197
     72199     72198     72200     72202     72201     72203     72205     72204     72206
     72208     72207     72209     72211     72210     72212     72214     72213     72215
     72217     72216     72218     72220     72219     72221     72223     72222     72224
     72226     72225     72227     72229     72228     72230     72232     72231     72233
     72235     72234     72236     72238     72237     72239     72241     72240     72242
     72244     72243     72245     72247     72246     72248     72250     72249     72251
     72253     72252     72254     72256     72255     72257     72259     72258     72260
     72262     72261     72263     72265     72264     72266     72268     72267     72269
     72271     72270     72272     72274     72273     72275     72277     72276     72278
     72280     72279     72281     72283     72282     72284     72286     72285     72287
     72289     72288     72290     72292     72291     72293     72295     72294     72296
     72298     72297     72299     72301     72300     72302     72304     72303     72305
     72307     72306     72308     72310     72309     72311     72313     72312     72314
     72316     72315     72317     72319     72318     72320     72322     72321     72323
     72325     72324     72326     72328     72327     72329     72331     72330     72332
     72334     72333     72335     72337     72336     72338     72340     72339     72341
     72343     72342     72344     72346     72345     72347     72349     72348     72350
     72352     72351     72353     72355     72354     72356     72358     72357     72359
     72361     72360     72362     72364     72363     72365     72367     72366     72368
     72370     72369     72371     72373     72372     72374     72376     72375     72377
     72379     72378     72380     72382     72381     72383     72385     72384     72386
     72388     72387     72389     72391     72390     72392     72394     72393     72395
     72397     72396     72398     72400     72399     72401     72403     72402     72404
     72406     72405     72407     72409     72408     72410     72412     72411     72413
     72415     72414     72416     72418     72417     72419     72421     72420     72422
     72424     72423     72425     72427     72426     72428     72430     72429     72431
     72433     72432     72434     72436     72435     72437     72439     72438     72440
     72442     72441     72443     72445     72444     72446     72448     72447     72449
     72451     72450     72452     72454     72453     72455     72457     72456     72458
     72460     72459     72461     72463     72462     72464     72466     72465     72467
     72469     72468     72470     72472     72471     72473     72475     72474     72476
     72478     72477     72479     72481     72480     72482     72484     72483     72485
     72487     72486     72488     72490     72489     72491     72493     72492     72494
     72496     72495     72497     72499     72498     72500     72502     72501     72503
     72505     72504     72506     72508     72507     72509     72511     72510     72512
     72514     72513     72515     72517     72516     72518     72520     72519     72521
     72523     72522     72524     72526     72525     72527     72529     72528     72530
     72532     72531     72533     72535     72534     72536     72538     72537     72539
     72541     72540     72542     72544     72543     72545     72547     72546     72548
     72550     72549     72551     72553     72552     72554     72556     72555     72557
     72559     72558     72560     72562     72561     72563     72565     72564     72566
     72568     72567     72569     72571     72570     72572     72574     72573     72575
     72577     72576     72578     72580     72579     72581     72583     72582     72584
     72586     72585     72587     72589     72588     72590     72592     72591     72593
     72595     72594     72596     72598     72597     72599     72601     72600     72602
     72604     72603     72605     72607     72606     72608     72610     72609     72611
     72613     72612     72614     72616     72615     72617     72619     72618     72620
     72622     72621     72623     72625     72624     72626     72628     72627     72629
     72631     72630     72632     72634     72633     72635     72637     72636     72638
     72640     72639     72641     72643     72642     72644     72646     72645     72647
     72649     72648     72650     72652     72651     72653     72655     72654     72656
     72658     72657     72659     72661     72660     72662     72664     72663     72665
     72667     72666     72668     72670     72669     72671     72673     72672     72674
     72676     72675     72677     72679     72678     72680     72682     72681     72683
     72685     72684     72686     72688     72687     72689     72691     72690     72692
     72694     72693     72695     72697     72696     72698     72700     72699     72701
     72703     72702     72704     72706     72705     72707     72709     72708     72710
     72712     72711     72713     72715     72714     72716     72718     72717     72719
     72721     72720     72722     72724     72723     72725     72727     72726     72728
     72730     72729     72731     72733     72732     72734     72736     72735     72737
     72739     72738     72740     72742     72741     72743     72745     72744     72746
     72748     72747     72749     72751     72750     72752     72754     72753     72755
     72757     72756     72758     72760     72759     72761     72763     72762     72764
     72766     72765     72767     72769     72768     72770     72772     72771     72773
     72775     72774     72776     72778     72777     72779     72781     72780     72782
     72784     72783     72785     72787     72786     72788     72790     72789     72791
     72793     72792     72794     72796     72795     72797     72799     72798     72800
     72802     72801     72803     72805     72804     72806     72808     72807     72809
     72811     72810     72812     72814     72813     72815     72817     72816     72818
     72820     72819     72821     72823     72822     72824     72826     72825     72827
     72829     72828     72830     72832     72831     72833     72835     72834     72836
     72838     72837     72839     72841     72840     72842     72844     72843     72845
     72847     72846     72848     72850     72849     72851     72853     72852     72854
     72856     72855     72857     72859     72858     72860     72862     72861     72863
     72865     72864     72866     72868     72867     72869     72871     72870     72872
     72874     72873     72875     72877     72876     72878     72880     72879     72881
     72883     72882     72884     72886     72885     72887     72889     72888     72890
     72892     72891     72893     72895     72894     72896     72898     72897     72899
     72901     72900     72902     72904     72903     72905     72907     72906     72908
     72910     72909     72911     72913     72912     72914     72916     72915     72917
     72919     72918     72920     72922     72921     72923     72925     72924     72926
     72928     72927     72929     72931     72930     72932     72934     72933     72935
     72937     72936     72938     72940     72939     72941     72943     72942     72944
     72946     72945     72947     72949     72948     72950     72952     72951     72953
     72955     72954     72956     72958     72957     72959     72961     72960     72962
     72964     72963     72965     72967     72966     72968     72970     72969     72971
     72973     72972     72974     72976     72975     72977     72979     72978     72980
     72982     72981     72983     72985     72984     72986     72988     72987     72989
     72991     72990     72992     72994     72993     72995     72997     72996     72998
     73000     72999     73001     73003     73002     73004     73006     73005     73007
     73009     73008     73010     73012     73011     73013     73015     73014     73016
     73018     73017     73019     73021     73020     73022     73024     73023     73025
     73027     73026     73028     73030     73029     73031     73033     73032     73034
     73036     73035     73037     73039     73038     73040     73042     73041     73043
     73045     73044     73046     73048     73047     73049     73051     73050     73052
     73054     73053     73055     73057     73056     73058     73060     73059     73061
     73063     73062     73064     73066     73065     73067     73069     73068     73070
     73072     73071     73073     73075     73074     73076     73078     73077     73079
     73081     73080     73082     73084     73083     73085     73087     73086     73088
     73090     73089     73091     73093     73092     73094     73096     73095     73097
     73099     73098     73100     73102     73101     73103     73105     73104     73106
     73108     73107     73109     73111     73110     73112     73114     73113     73115
     73117     73116     73118     73120     73119     73121     73123     73122     73124
     73126     73125     73127     73129     73128     73130     73132     73131     73133
     73135     73134     73136     73138     73137     73139     73141     73140     73142
     73144     73143     73145     73147     73146     73148     73150     73149     73151
     73153     73152     73154     73156     73155     73157     73159     73158     73160
     73162     73161     73163     73165     73164     73166     73168     73167     73169
     73171     73170     73172     73174     73173     73175     73177     73176     73178
     73180     73179     73181     73183     73182     73184     73186     73185     73187
     73189     73188     73190     73192     73191     73193     73195     73194     73196
     73198     73197     73199     73201     73200     73202     73204     73203     73205
     73207     73206     73208     73210     73209     73211     73213     73212     73214
     73216     73215     73217     73219     73218     73220     73222     73221     73223
     73225     73224     73226     73228     73227     73229     73231     73230     73232
     73234     73233     73235     73237     73236     73238     73240     73239     73241
     73243     73242     73244     73246     73245     73247     73249     73248     73250
     73252     73251     73253     73255     73254     73256     73258     73257     73259
     73261     73260     73262     73264     73263     73265     73267     73266     73268
     73270     73269     73271     73273     73272     73274     73276     73275     73277
     73279     73278     73280     73282     73281     73283     73285     73284     73286
     73288     73287     73289     73291     73290     73292     73294     73293     73295
     73297     73296     73298     73300     73299     73301     73303     73302     73304
     73306     73305     73307     73309     73308     73310     73312     73311     73313
     73315     73314     73316     73318     73317     73319     73321     73320     73322
     73324     73323     73325     73327     73326     73328     73330     73329     73331
     73333     73332     73334     73336     73335     73337     73339     73338     73340
     73342     73341     73343     73345     73344     73346     73348     73347     73349
     73351     73350     73352     73354     73353     73355     73357     73356     73358
     73360     73359     73361     73363     73362     73364     73366     73365     73367
     73369     73368     73370     73372     73371     73373     73375     73374     73376
     73378     73377     73379     73381     73380     73382     73384     73383     73385
     73387     73386     73388     73390     73389     73391     73393     73392     73394
     73396     73395     73397     73399     73398     73400     73402     73401     73403
     73405     73404     73406     73408     73407     73409     73411     73410     73412
     73414     73413     73415     73417     73416     73418     73420     73419     73421
     73423     73422     73424     73426     73425     73427     73429     73428     73430
     73432     73431     73433     73435     73434     73436     73438     73437     73439
     73441     73440     73442     73444     73443     73445     73447     73446     73448
     73450     73449     73451     73453     73452     73454     73456     73455     73457
     73459     73458     73460     73462     73461     73463     73465     73464     73466
     73468     73467     73469     73471     73470     73472     73474     73473     73475
     73477     73476     73478     73480     73479     73481     73483     73482     73484
     73486     73485     73487     73489     73488     73490     73492     73491     73493
     73495     73494     73496     73498     73497     73499     73501     73500     73502
     73504     73503     73505     73507     73506     73508     73510     73509     73511
     73513     73512     73514     73516     73515     73517     73519     73518     73520
     73522     73521     73523     73525     73524     73526     73528     73527     73529
     73531     73530     73532     73534     73533     73535     73537     73536     73538
     73540     73539     73541     73543     73542     73544     73546     73545     73547
     73549     73548     73550     73552     73551     73553     73555     73554     73556
     73558     73557     73559     73561     73560     73562     73564     73563     73565
     73567     73566     73568     73570     73569     73571     73573     73572     73574
     73576     73575     73577     73579     73578     73580     73582     73581     73583
     73585     73584     73586     73588     73587     73589     73591     73590     73592
     73594     73593     73595     73597     73596     73598     73600     73599     73601
     73603     73602     73604     73606     73605     73607     73609     73608     73610
     73612     73611     73613     73615     73614     73616     73618     73617     73619
     73621     73620     73622     73624     73623     73625     73627     73626     73628
     73630     73629     73631     73633     73632     73634     73636     73635     73637
     73639     73638     73640     73642     73641     73643     73645     73644     73646
     73648     73647     73649     73651     73650     73652     73654     73653     73655
     73657     73656     73658     73660     73659     73661     73663     73662     73664
     73666     73665     73667     73669     73668     73670     73672     73671     73673
     73675     73674     73676     73678     73677     73679     73681     73680     73682
     73684     73683     73685     73687     73686     73688     73690     73689     73691
     73693     73692     73694     73696     73695     73697     73699     73698     73700
     73702     73701     73703     73705     73704     73706     73708     73707     73709
     73711     73710     73712     73714     73713     73715     73717     73716     73718
     73720     73719     73721     73723     73722     73724     73726     73725     73727
     73729     73728     73730     73732     73731     73733     73735     73734     73736
     73738     73737     73739     73741     73740     73742     73744     73743     73745
     73747     73746     73748     73750     73749     73751     73753     73752     73754
     73756     73755     73757     73759     73758     73760     73762     73761     73763
     73765     73764     73766     73768     73767     73769     73771     73770     73772
     73774     73773     73775     73777     73776     73778     73780     73779     73781
     73783     73782     73784     73786     73785     73787     73789     73788     73790
     73792     73791     73793     73795     73794     73796     73798     73797     73799
     73801     73800     73802     73804     73803     73805     73807     73806     73808
     73810     73809     73811     73813     73812     73814     73816     73815     73817
     73819     73818     73820     73822     73821     73823     73825     73824     73826
     73828     73827     73829     73831     73830     73832     73834     73833     73835
     73837     73836     73838     73840     73839     73841     73843     73842     73844
     73846     73845     73847     73849     73848     73850     73852     73851     73853
     73855     73854     73856     73858     73857     73859     73861     73860     73862
     73864     73863     73865     73867     73866     73868     73870     73869     73871
     73873     73872     73874     73876     73875     73877     73879     73878     73880
     73882     73881     73883     73885     73884     73886     73888     73887     73889
     73891     73890     73892     73894     73893     73895     73897     73896     73898
     73900     73899     73901     73903     73902     73904     73906     73905     73907
     73909     73908     73910     73912     73911     73913     73915     73914     73916
     73918     73917     73919     73921     73920     73922     73924     73923     73925
     73927     73926     73928     73930     73929     73931     73933     73932     73934
     73936     73935     73937     73939     73938     73940     73942     73941     73943
     73945     73944     73946     73948     73947     73949     73951     73950     73952
     73954     73953     73955     73957     73956     73958     73960     73959     73961
     73963     73962     73964     73966     73965     73967     73969     73968     73970
     73972     73971     73973     73975     73974     73976     73978     73977     73979
     73981     73980     73982     73984     73983     73985     73987     73986     73988
     73990     73989     73991     73993     73992     73994     73996     73995     73997
     73999     73998     74000     74002     74001     74003     74005     74004     74006
     74008     74007     74009     74011     74010     74012     74014     74013     74015
     74017     74016     74018     74020     74019     74021     74023     74022     74024
     74026     74025     74027     74029     74028     74030     74032     74031     74033
     74035     74034     74036     74038     74037     74039     74041     74040     74042
     74044     74043     74045     74047     74046     74048     74050     74049     74051
     74053     74052     74054     74056     74055     74057     74059     74058     74060
     74062     74061     74063     74065     74064     74066     74068     74067     74069
     74071     74070     74072     74074     74073     74075     74077     74076     74078
     74080     74079     74081     74083     74082     74084     74086     74085     74087
     74089     74088     74090     74092     74091     74093     74095     74094     74096
     74098     74097     74099     74101     74100     74102     74104     74103     74105
     74107     74106     74108     74110     74109     74111     74113     74112     74114
     74116     74115     74117     74119     74118     74120     74122     74121     74123
     74125     74124     74126     74128     74127     74129     74131     74130     74132
     74134     74133     74135     74137     74136     74138     74140     74139     74141
     74143     74142     74144     74146     74145     74147     74149     74148     74150
     74152     74151     74153     74155     74154     74156     74158     74157     74159
     74161     74160     74162     74164     74163     74165     74167     74166     74168
     74170     74169     74171     74173     74172     74174     74176     74175     74177
     74179     74178     74180     74182     74181     74183     74185     74184     74186
     74188     74187     74189     74191     74190     74192     74194     74193     74195
     74197     74196     74198     74200     74199     74201     74203     74202     74204
     74206     74205     74207     74209     74208     74210     74212     74211     74213
     74215     74214     74216     74218     74217     74219     74221     74220     74222
     74224     74223     74225     74227     74226     74228     74230     74229     74231
     74233     74232     74234     74236     74235     74237     74239     74238     74240
     74242     74241     74243     74245     74244     74246     74248     74247     74249
     74251     74250     74252     74254     74253     74255     74257     74256     74258
     74260     74259     74261     74263     74262     74264     74266     74265     74267
     74269     74268     74270     74272     74271     74273     74275     74274     74276
     74278     74277     74279     74281     74280     74282     74284     74283     74285
     74287     74286     74288     74290     74289     74291     74293     74292     74294
     74296     74295     74297     74299     74298     74300     74302     74301     74303
     74305     74304     74306     74308     74307     74309     74311     74310     74312
     74314     74313     74315     74317     74316     74318     74320     74319     74321
     74323     74322     74324     74326     74325     74327     74329     74328     74330
     74332     74331     74333     74335     74334     74336     74338     74337     74339
     74341     74340     74342     74344     74343     74345     74347     74346     74348
     74350     74349     74351     74353     74352     74354     74356     74355     74357
     74359     74358     74360     74362     74361     74363     74365     74364     74366
     74368     74367     74369     74371     74370     74372     74374     74373     74375
     74377     74376     74378     74380     74379     74381     74383     74382     74384
     74386     74385     74387     74389     74388     74390     74392     74391     74393
     74395     74394     74396     74398     74397     74399     74401     74400     74402
     74404     74403     74405     74407     74406     74408     74410     74409     74411
     74413     74412     74414     74416     74415     74417     74419     74418     74420
     74422     74421     74423     74425     74424     74426     74428     74427     74429
     74431     74430     74432     74434     74433     74435     74437     74436     74438
     74440     74439     74441     74443     74442     74444     74446     74445     74447
     74449     74448     74450     74452     74451     74453     74455     74454     74456
     74458     74457     74459     74461     74460     74462     74464     74463     74465
     74467     74466     74468     74470     74469     74471     74473     74472     74474
     74476     74475     74477     74479     74478     74480     74482     74481     74483
     74485     74484     74486     74488     74487     74489     74491     74490     74492
     74494     74493     74495     74497     74496     74498     74500     74499     74501
     74503     74502     74504     74506     74505     74507     74509     74508     74510
     74512     74511     74513     74515     74514     74516     74518     74517     74519
     74521     74520     74522     74524     74523     74525     74527     74526     74528
     74530     74529     74531     74533     74532     74534     74536     74535     74537
     74539     74538     74540     74542     74541     74543     74545     74544     74546
     74548     74547     74549     74551     74550     74552     74554     74553     74555
     74557     74556     74558     74560     74559     74561     74563     74562     74564
     74566     74565     74567     74569     74568     74570     74572     74571     74573
     74575     74574     74576     74578     74577     74579     74581     74580     74582
     74584     74583     74585     74587     74586     74588     74590     74589     74591
     74593     74592     74594     74596     74595     74597     74599     74598     74600
     74602     74601     74603     74605     74604     74606     74608     74607     74609
     74611     74610     74612     74614     74613     74615     74617     74616     74618
     74620     74619     74621     74623     74622     74624     74626     74625     74627
     74629     74628     74630     74632     74631     74633     74635     74634     74636
     74638     74637     74639     74641     74640     74642     74644     74643     74645
     74647     74646     74648     74650     74649     74651     74653     74652     74654
     74656     74655     74657     74659     74658     74660     74662     74661     74663
     74665     74664     74666     74668     74667     74669     74671     74670     74672
     74674     74673     74675     74677     74676     74678     74680     74679     74681
     74683     74682     74684     74686     74685     74687     74689     74688     74690
     74692     74691     74693     74695     74694     74696     74698     74697     74699
     74701     74700     74702     74704     74703     74705     74707     74706     74708
     74710     74709     74711     74713     74712     74714     74716     74715     74717
     74719     74718     74720     74722     74721     74723     74725     74724     74726
     74728     74727     74729     74731     74730     74732     74734     74733     74735
     74737     74736     74738     74740     74739     74741     74743     74742     74744
     74746     74745     74747     74749     74748     74750     74752     74751     74753
     74755     74754     74756     74758     74757     74759     74761     74760     74762
     74764     74763     74765     74767     74766     74768     74770     74769     74771
     74773     74772     74774     74776     74775     74777     74779     74778     74780
     74782     74781     74783     74785     74784     74786     74788     74787     74789
     74791     74790     74792     74794     74793     74795     74797     74796     74798
     74800     74799     74801     74803     74802     74804     74806     74805     74807
     74809     74808     74810     74812     74811     74813     74815     74814     74816
     74818     74817     74819     74821     74820     74822     74824     74823     74825
     74827     74826     74828     74830     74829     74831     74833     74832     74834
     74836     74835     74837     74839     74838     74840     74842     74841     74843
     74845     74844     74846     74848     74847     74849     74851     74850     74852
     74854     74853     74855     74857     74856     74858     74860     74859     74861
     74863     74862     74864     74866     74865     74867     74869     74868     74870
     74872     74871     74873     74875     74874     74876     74878     74877     74879
     74881     74880     74882     74884     74883     74885     74887     74886     74888
     74890     74889     74891     74893     74892     74894     74896     74895     74897
     74899     74898     74900     74902     74901     74903     74905     74904     74906
     74908     74907     74909     74911     74910     74912     74914     74913     74915
     74917     74916     74918     74920     74919     74921     74923     74922     74924
     74926     74925     74927     74929     74928     74930     74932     74931     74933
     74935     74934     74936     74938     74937     74939     74941     74940     74942
     74944     74943     74945     74947     74946     74948     74950     74949     74951
     74953     74952     74954     74956     74955     74957     74959     74958     74960
     74962     74961     74963     74965     74964     74966     74968     74967     74969
     74971     74970     74972     74974     74973     74975     74977     74976     74978
     74980     74979     74981     74983     74982     74984     74986     74985     74987
     74989     74988     74990     74992     74991     74993     74995     74994     74996
     74998     74997     74999     75001     75000     75002     75004     75003     75005
     75007     75006     75008     75010     75009     75011     75013     75012     75014
     75016     75015     75017     75019     75018     75020     75022     75021     75023
     75025     75024     75026     75028     75027     75029     75031     75030     75032
     75034     75033     75035     75037     75036     75038     75040     75039     75041
     75043     75042     75044     75046     75045     75047     75049     75048     75050
     75052     75051     75053     75055     75054     75056     75058     75057     75059
     75061     75060     75062     75064     75063     75065     75067     75066     75068
     75070     75069     75071     75073     75072     75074     75076     75075     75077
     75079     75078     75080     75082     75081     75083     75085     75084     75086
     75088     75087     75089     75091     75090     75092     75094     75093     75095
     75097     75096     75098     75100     75099     75101     75103     75102     75104
     75106     75105     75107     75109     75108     75110     75112     75111     75113
     75115     75114     75116     75118     75117     75119     75121     75120     75122
     75124     75123     75125     75127     75126     75128     75130     75129     75131
     75133     75132     75134     75136     75135     75137     75139     75138     75140
     75142     75141     75143     75145     75144     75146     75148     75147     75149
     75151     75150     75152     75154     75153     75155     75157     75156     75158
     75160     75159     75161     75163     75162     75164     75166     75165     75167
     75169     75168     75170     75172     75171     75173     75175     75174     75176
     75178     75177     75179     75181     75180     75182     75184     75183     75185
     75187     75186     75188     75190     75189     75191     75193     75192     75194
     75196     75195     75197     75199     75198     75200     75202     75201     75203
     75205     75204     75206     75208     75207     75209     75211     75210     75212
     75214     75213     75215     75217     75216     75218     75220     75219     75221
     75223     75222     75224     75226     75225     75227     75229     75228     75230
     75232     75231     75233     75235     75234     75236     75238     75237     75239
     75241     75240     75242     75244     75243     75245     75247     75246     75248
     75250     75249     75251     75253     75252     75254     75256     75255     75257
     75259     75258     75260     75262     75261     75263     75265     75264     75266
     75268     75267     75269     75271     75270     75272     75274     75273     75275
     75277     75276     75278     75280     75279     75281     75283     75282     75284
     75286     75285     75287     75289     75288     75290     75292     75291     75293
     75295     75294     75296     75298     75297     75299     75301     75300     75302
     75304     75303     75305     75307     75306     75308     75310     75309     75311
     75313     75312     75314     75316     75315     75317     75319     75318     75320
     75322     75321     75323     75325     75324     75326     75328     75327     75329
     75331     75330     75332     75334     75333     75335     75337     75336     75338
     75340     75339     75341     75343     75342     75344     75346     75345     75347
     75349     75348     75350     75352     75351     75353     75355     75354     75356
     75358     75357     75359     75361     75360     75362     75364     75363     75365
     75367     75366     75368     75370     75369     75371     75373     75372     75374
     75376     75375     75377     75379     75378     75380     75382     75381     75383
     75385     75384     75386     75388     75387     75389     75391     75390     75392
     75394     75393     75395     75397     75396     75398     75400     75399     75401
     75403     75402     75404     75406     75405     75407     75409     75408     75410
     75412     75411     75413     75415     75414     75416     75418     75417     75419
     75421     75420     75422     75424     75423     75425     75427     75426     75428
     75430     75429     75431     75433     75432     75434     75436     75435     75437
     75439     75438     75440     75442     75441     75443     75445     75444     75446
     75448     75447     75449     75451     75450     75452     75454     75453     75455
     75457     75456     75458     75460     75459     75461     75463     75462     75464
     75466     75465     75467     75469     75468     75470     75472     75471     75473
     75475     75474     75476     75478     75477     75479     75481     75480     75482
     75484     75483     75485     75487     75486     75488     75490     75489     75491
     75493     75492     75494     75496     75495     75497     75499     75498     75500
     75502     75501     75503     75505     75504     75506     75508     75507     75509
     75511     75510     75512     75514     75513     75515     75517     75516     75518
     75520     75519     75521     75523     75522     75524     75526     75525     75527
     75529     75528     75530     75532     75531     75533     75535     75534     75536
     75538     75537     75539     75541     75540     75542     75544     75543     75545
     75547     75546     75548     75550     75549     75551     75553     75552     75554
     75556     75555     75557     75559     75558     75560     75562     75561     75563
     75565     75564     75566     75568     75567     75569     75571     75570     75572
     75574     75573     75575     75577     75576     75578     75580     75579     75581
     75583     75582     75584     75586     75585     75587     75589     75588     75590
     75592     75591     75593     75595     75594     75596     75598     75597     75599
     75601     75600     75602     75604     75603     75605     75607     75606     75608
     75610     75609     75611     75613     75612     75614     75616     75615     75617
     75619     75618     75620     75622     75621     75623     75625     75624     75626
     75628     75627     75629     75631     75630     75632     75634     75633     75635
     75637     75636     75638     75640     75639     75641     75643     75642     75644
     75646     75645     75647     75649     75648     75650     75652     75651     75653
     75655     75654     75656     75658     75657     75659     75661     75660     75662
     75664     75663     75665     75667     75666     75668     75670     75669     75671
     75673     75672     75674     75676     75675     75677     75679     75678     75680
     75682     75681     75683     75685     75684     75686     75688     75687     75689
     75691     75690     75692     75694     75693     75695     75697     75696     75698
     75700     75699     75701     75703     75702     75704     75706     75705     75707
     75709     75708     75710     75712     75711     75713     75715     75714     75716
     75718     75717     75719     75721     75720     75722     75724     75723     75725
     75727     75726     75728     75730     75729     75731     75733     75732     75734
     75736     75735     75737     75739     75738     75740     75742     75741     75743
     75745     75744     75746     75748     75747     75749     75751     75750     75752
     75754     75753     75755     75757     75756     75758     75760     75759     75761
     75763     75762     75764     75766     75765     75767     75769     75768     75770
     75772     75771     75773     75775     75774     75776     75778     75777     75779
     75781     75780     75782     75784     75783     75785     75787     75786     75788
     75790     75789     75791     75793     75792     75794     75796     75795     75797
     75799     75798     75800     75802     75801     75803     75805     75804     75806
     75808     75807     75809     75811     75810     75812     75814     75813     75815
     75817     75816     75818     75820     75819     75821     75823     75822     75824
     75826     75825     75827     75829     75828     75830     75832     75831     75833
     75835     75834     75836     75838     75837     75839     75841     75840     75842
     75844     75843     75845     75847     75846     75848     75850     75849     75851
     75853     75852     75854     75856     75855     75857     75859     75858     75860
     75862     75861     75863     75865     75864     75866     75868     75867     75869
     75871     75870     75872     75874     75873     75875     75877     75876     75878
     75880     75879     75881     75883     75882     75884     75886     75885     75887
     75889     75888     75890     75892     75891     75893     75895     75894     75896
     75898     75897     75899     75901     75900     75902     75904     75903     75905
     75907     75906     75908     75910     75909     75911     75913     75912     75914
     75916     75915     75917     75919     75918     75920     75922     75921     75923
     75925     75924     75926     75928     75927     75929     75931     75930     75932
     75934     75933     75935     75937     75936     75938     75940     75939     75941
     75943     75942     75944     75946     75945     75947     75949     75948     75950
     75952     75951     75953     75955     75954     75956     75958     75957     75959
     75961     75960     75962     75964     75963     75965     75967     75966     75968
     75970     75969     75971     75973     75972     75974     75976     75975     75977
     75979     75978     75980     75982     75981     75983     75985     75984     75986
     75988     75987     75989     75991     75990     75992     75994     75993     75995
     75997     75996     75998     76000     75999     76001     76003     76002     76004
     76006     76005     76007     76009     76008     76010     76012     76011     76013
     76015     76014     76016     76018     76017     76019     76021     76020     76022
     76024     76023     76025     76027     76026     76028     76030     76029     76031
     76033     76032     76034     76036     76035     76037     76039     76038     76040
     76042     76041     76043     76045     76044     76046     76048     76047     76049
     76051     76050     76052     76054     76053     76055     76057     76056     76058
     76060     76059     76061     76063     76062     76064     76066     76065     76067
     76069     76068     76070     76072     76071     76073     76075     76074     76076
     76078     76077     76079     76081     76080     76082     76084     76083     76085
     76087     76086     76088     76090     76089     76091     76093     76092     76094
     76096     76095     76097     76099     76098     76100     76102     76101     76103
     76105     76104     76106     76108     76107     76109     76111     76110     76112
     76114     76113     76115     76117     76116     76118     76120     76119     76121
     76123     76122     76124     76126     76125     76127     76129     76128     76130
     76132     76131     76133     76135     76134     76136     76138     76137     76139
     76141     76140     76142     76144     76143     76145     76147     76146     76148
     76150     76149     76151     76153     76152     76154     76156     76155     76157
     76159     76158     76160     76162     76161     76163     76165     76164     76166
     76168     76167     76169     76171     76170     76172     76174     76173     76175
     76177     76176     76178     76180     76179     76181     76183     76182     76184
     76186     76185     76187     76189     76188     76190     76192     76191     76193
     76195     76194     76196     76198     76197     76199     76201     76200     76202
     76204     76203     76205     76207     76206     76208     76210     76209     76211
     76213     76212     76214     76216     76215     76217     76219     76218     76220
     76222     76221     76223     76225     76224     76226     76228     76227     76229
     76231     76230     76232     76234     76233     76235     76237     76236     76238
     76240     76239     76241     76243     76242     76244     76246     76245     76247
     76249     76248     76250     76252     76251     76253     76255     76254     76256
     76258     76257     76259     76261     76260     76262     76264     76263     76265
     76267     76266     76268     76270     76269     76271     76273     76272     76274
     76276     76275     76277     76279     76278     76280     76282     76281     76283
     76285     76284     76286     76288     76287     76289     76291     76290     76292
     76294     76293     76295     76297     76296     76298     76300     76299     76301
     76303     76302     76304     76306     76305     76307     76309     76308     76310
     76312     76311     76313     76315     76314     76316     76318     76317     76319
     76321     76320     76322     76324     76323     76325     76327     76326     76328
     76330     76329     76331     76333     76332     76334     76336     76335     76337
     76339     76338     76340     76342     76341     76343     76345     76344     76346
     76348     76347     76349     76351     76350     76352     76354     76353     76355
     76357     76356     76358     76360     76359     76361     76363     76362     76364
     76366     76365     76367     76369     76368     76370     76372     76371     76373
     76375     76374     76376     76378     76377     76379     76381     76380     76382
     76384     76383     76385     76387     76386     76388     76390     76389     76391
     76393     76392     76394     76396     76395     76397     76399     76398     76400
     76402     76401     76403     76405     76404     76406     76408     76407     76409
     76411     76410     76412     76414     76413     76415     76417     76416     76418
     76420     76419     76421     76423     76422     76424     76426     76425     76427
     76429     76428     76430     76432     76431     76433     76435     76434     76436
     76438     76437     76439     76441     76440     76442     76444     76443     76445
     76447     76446     76448     76450     76449     76451     76453     76452     76454
     76456     76455     76457     76459     76458     76460     76462     76461     76463
     76465     76464     76466     76468     76467     76469     76471     76470     76472
     76474     76473     76475     76477     76476     76478     76480     76479     76481
     76483     76482     76484     76486     76485     76487     76489     76488     76490
     76492     76491     76493     76495     76494     76496     76498     76497     76499
     76501     76500     76502     76504     76503     76505     76507     76506     76508
     76510     76509     76511     76513     76512     76514     76516     76515     76517
     76519     76518     76520     76522     76521     76523     76525     76524     76526
     76528     76527     76529     76531     76530     76532     76534     76533     76535
     76537     76536     76538     76540     76539     76541     76543     76542     76544
     76546     76545     76547     76549     76548     76550     76552     76551     76553
     76555     76554     76556     76558     76557     76559     76561     76560     76562
     76564     76563     76565     76567     76566     76568     76570     76569     76571
     76573     76572     76574     76576     76575     76577     76579     76578     76580
     76582     76581     76583     76585     76584     76586     76588     76587     76589
     76591     76590     76592     76594     76593     76595     76597     76596     76598
     76600     76599     76601     76603     76602     76604     76606     76605     76607
     76609     76608     76610     76612     76611     76613     76615     76614     76616
     76618     76617     76619     76621     76620     76622     76624     76623     76625
     76627     76626     76628     76630     76629     76631     76633     76632     76634
     76636     76635     76637     76639     76638     76640     76642     76641     76643
     76645     76644     76646     76648     76647     76649     76651     76650     76652
     76654     76653     76655     76657     76656     76658     76660     76659     76661
     76663     76662     76664     76666     76665     76667     76669     76668     76670
     76672     76671     76673     76675     76674     76676     76678     76677     76679
     76681     76680     76682     76684     76683     76685     76687     76686     76688
     76690     76689     76691     76693     76692     76694     76696     76695     76697
     76699     76698     76700     76702     76701     76703     76705     76704     76706
     76708     76707     76709     76711     76710     76712     76714     76713     76715
     76717     76716     76718     76720     76719     76721     76723     76722     76724
     76726     76725     76727     76729     76728     76730     76732     76731     76733
     76735     76734     76736     76738     76737     76739     76741     76740     76742
     76744     76743     76745     76747     76746     76748     76750     76749     76751
     76753     76752     76754     76756     76755     76757     76759     76758     76760
     76762     76761     76763     76765     76764     76766     76768     76767     76769
     76771     76770     76772     76774     76773     76775     76777     76776     76778
     76780     76779     76781     76783     76782     76784     76786     76785     76787
     76789     76788     76790     76792     76791     76793     76795     76794     76796
     76798     76797     76799     76801     76800     76802     76804     76803     76805
     76807     76806     76808     76810     76809     76811     76813     76812     76814
     76816     76815     76817     76819     76818     76820     76822     76821     76823
     76825     76824     76826     76828     76827     76829     76831     76830     76832
     76834     76833     76835     76837     76836     76838     76840     76839     76841
     76843     76842     76844     76846     76845     76847     76849     76848     76850
     76852     76851     76853     76855     76854     76856     76858     76857     76859
     76861     76860     76862     76864     76863     76865     76867     76866     76868
     76870     76869     76871     76873     76872     76874     76876     76875     76877
     76879     76878     76880     76882     76881     76883     76885     76884     76886
     76888     76887     76889     76891     76890     76892     76894     76893     76895
     76897     76896     76898     76900     76899     76901     76903     76902     76904
     76906     76905     76907     76909     76908     76910     76912     76911     76913
     76915     76914     76916     76918     76917     76919     76921     76920     76922
     76924     76923     76925     76927     76926     76928     76930     76929     76931
     76933     76932     76934     76936     76935     76937     76939     76938     76940
     76942     76941     76943     76945     76944     76946     76948     76947     76949
     76951     76950     76952     76954     76953     76955     76957     76956     76958
     76960     76959     76961     76963     76962     76964     76966     76965     76967
     76969     76968     76970     76972     76971     76973     76975     76974     76976
     76978     76977     76979     76981     76980     76982     76984     76983     76985
     76987     76986     76988     76990     76989     76991     76993     76992     76994
     76996     76995     76997     76999     76998     77000     77002     77001     77003
     77005     77004     77006     77008     77007     77009     77011     77010     77012
     77014     77013     77015     77017     77016     77018     77020     77019     77021
     77023     77022     77024     77026     77025     77027     77029     77028     77030
     77032     77031     77033     77035     77034     77036     77038     77037     77039
     77041     77040     77042     77044     77043     77045     77047     77046     77048
     77050     77049     77051     77053     77052     77054     77056     77055     77057
     77059     77058     77060     77062     77061     77063     77065     77064     77066
     77068     77067     77069     77071     77070     77072     77074     77073     77075
     77077     77076     77078     77080     77079     77081     77083     77082     77084
     77086     77085     77087     77089     77088     77090     77092     77091     77093
     77095     77094     77096     77098     77097     77099     77101     77100     77102
     77104     77103     77105     77107     77106     77108     77110     77109     77111
     77113     77112     77114     77116     77115     77117     77119     77118     77120
     77122     77121     77123     77125     77124     77126     77128     77127     77129
     77131     77130     77132     77134     77133     77135     77137     77136     77138
     77140     77139     77141     77143     77142     77144     77146     77145     77147
     77149     77148     77150     77152     77151     77153     77155     77154     77156
     77158     77157     77159     77161     77160     77162     77164     77163     77165
     77167     77166     77168     77170     77169     77171     77173     77172     77174
     77176     77175     77177     77179     77178     77180     77182     77181     77183
     77185     77184     77186     77188     77187     77189     77191     77190     77192
     77194     77193     77195     77197     77196     77198     77200     77199     77201
     77203     77202     77204     77206     77205     77207     77209     77208     77210
     77212     77211     77213     77215     77214     77216     77218     77217     77219
     77221     77220     77222     77224     77223     77225     77227     77226     77228
     77230     77229     77231     77233     77232     77234     77236     77235     77237
     77239     77238     77240     77242     77241     77243     77245     77244     77246
     77248     77247     77249     77251     77250     77252     77254     77253     77255
     77257     77256     77258     77260     77259     77261     77263     77262     77264
     77266     77265     77267     77269     77268     77270     77272     77271     77273
     77275     77274     77276     77278     77277     77279     77281     77280     77282
     77284     77283     77285     77287     77286     77288     77290     77289     77291
     77293     77292     77294     77296     77295     77297     77299     77298     77300
     77302     77301     77303     77305     77304     77306     77308     77307     77309
     77311     77310     77312     77314     77313     77315     77317     77316     77318
     77320     77319     77321     77323     77322     77324     77326     77325     77327
     77329     77328     77330     77332     77331     77333     77335     77334     77336
     77338     77337     77339     77341     77340     77342     77344     77343     77345
     77347     77346     77348     77350     77349     77351     77353     77352     77354
     77356     77355     77357     77359     77358     77360     77362     77361     77363
     77365     77364     77366     77368     77367     77369     77371     77370     77372
     77374     77373     77375     77377     77376     77378     77380     77379     77381
     77383     77382     77384     77386     77385     77387     77389     77388     77390
     77392     77391     77393     77395     77394     77396     77398     77397     77399
     77401     77400     77402     77404     77403     77405     77407     77406     77408
     77410     77409     77411     77413     77412     77414     77416     77415     77417
     77419     77418     77420     77422     77421     77423     77425     77424     77426
     77428     77427     77429     77431     77430     77432     77434     77433     77435
     77437     77436     77438     77440     77439     77441     77443     77442     77444
     77446     77445     77447     77449     77448     77450     77452     77451     77453
     77455     77454     77456     77458     77457     77459     77461     77460     77462
     77464     77463     77465     77467     77466     77468     77470     77469     77471
     77473     77472     77474     77476     77475     77477     77479     77478     77480
     77482     77481     77483     77485     77484     77486     77488     77487     77489
     77491     77490     77492     77494     77493     77495     77497     77496     77498
     77500     77499     77501     77503     77502     77504     77506     77505     77507
     77509     77508     77510     77512     77511     77513     77515     77514     77516
     77518     77517     77519     77521     77520     77522     77524     77523     77525
     77527     77526     77528     77530     77529     77531     77533     77532     77534
     77536     77535     77537     77539     77538     77540     77542     77541     77543
     77545     77544     77546     77548     77547     77549     77551     77550     77552
     77554     77553     77555     77557     77556     77558     77560     77559     77561
     77563     77562     77564     77566     77565     77567     77569     77568     77570
     77572     77571     77573     77575     77574     77576     77578     77577     77579
     77581     77580     77582     77584     77583     77585     77587     77586     77588
     77590     77589     77591     77593     77592     77594     77596     77595     77597
     77599     77598     77600     77602     77601     77603     77605     77604     77606
     77608     77607     77609     77611     77610     77612     77614     77613     77615
     77617     77616     77618     77620     77619     77621     77623     77622     77624
     77626     77625     77627     77629     77628     77630     77632     77631     77633
     77635     77634     77636     77638     77637     77639     77641     77640     77642
     77644     77643     77645     77647     77646     77648     77650     77649     77651
     77653     77652     77654     77656     77655     77657     77659     77658     77660
     77662     77661     77663     77665     77664     77666     77668     77667     77669
     77671     77670     77672     77674     77673     77675     77677     77676     77678
     77680     77679     77681     77683     77682     77684     77686     77685     77687
     77689     77688     77690     77692     77691     77693     77695     77694     77696
     77698     77697     77699     77701     77700     77702     77704     77703     77705
     77707     77706     77708     77710     77709     77711     77713     77712     77714
     77716     77715     77717     77719     77718     77720     77722     77721     77723
     77725     77724     77726     77728     77727     77729     77731     77730     77732
     77734     77733     77735     77737     77736     77738     77740     77739     77741
     77743     77742     77744     77746     77745     77747     77749     77748     77750
     77752     77751     77753     77755     77754     77756     77758     77757     77759
     77761     77760     77762     77764     77763     77765     77767     77766     77768
     77770     77769     77771     77773     77772     77774     77776     77775     77777
     77779     77778     77780     77782     77781     77783     77785     77784     77786
     77788     77787     77789     77791     77790     77792     77794     77793     77795
     77797     77796     77798     77800     77799     77801     77803     77802     77804
     77806     77805     77807     77809     77808     77810     77812     77811     77813
     77815     77814     77816     77818     77817     77819     77821     77820     77822
     77824     77823     77825     77827     77826     77828     77830     77829     77831
     77833     77832     77834     77836     77835     77837     77839     77838     77840
     77842     77841     77843     77845     77844     77846     77848     77847     77849
     77851     77850     77852     77854     77853     77855     77857     77856     77858
     77860     77859     77861     77863     77862     77864     77866     77865     77867
     77869     77868     77870     77872     77871     77873     77875     77874     77876
     77878     77877     77879     77881     77880     77882     77884     77883     77885
     77887     77886     77888     77890     77889     77891     77893     77892     77894
     77896     77895     77897     77899     77898     77900     77902     77901     77903
     77905     77904     77906     77908     77907     77909     77911     77910     77912
     77914     77913     77915     77917     77916     77918     77920     77919     77921
     77923     77922     77924     77926     77925     77927     77929     77928     77930
     77932     77931     77933     77935     77934     77936     77938     77937     77939
     77941     77940     77942     77944     77943     77945     77947     77946     77948
     77950     77949     77951     77953     77952     77954     77956     77955     77957
     77959     77958     77960     77962     77961     77963     77965     77964     77966
     77968     77967     77969     77971     77970     77972     77974     77973     77975
     77977     77976     77978     77980     77979     77981     77983     77982     77984
     77986     77985     77987     77989     77988     77990     77992     77991     77993
     77995     77994     77996     77998     77997     77999     78001     78000     78002
     78004     78003     78005     78007     78006     78008     78010     78009     78011
     78013     78012     78014     78016     78015     78017     78019     78018     78020
     78022     78021     78023     78025     78024     78026     78028     78027     78029
     78031     78030     78032     78034     78033     78035     78037     78036     78038
     78040     78039     78041     78043     78042     78044     78046     78045     78047
     78049     78048     78050     78052     78051     78053     78055     78054     78056
     78058     78057     78059     78061     78060     78062     78064     78063     78065
     78067     78066     78068     78070     78069     78071     78073     78072     78074
     78076     78075     78077     78079     78078     78080     78082     78081     78083
     78085     78084     78086     78088     78087     78089     78091     78090     78092
     78094     78093     78095     78097     78096     78098     78100     78099     78101
     78103     78102     78104     78106     78105     78107     78109     78108     78110
     78112     78111     78113     78115     78114     78116     78118     78117     78119
     78121     78120     78122     78124     78123     78125     78127     78126     78128
     78130     78129     78131     78133     78132     78134     78136     78135     78137
     78139     78138     78140     78142     78141     78143     78145     78144     78146
     78148     78147     78149     78151     78150     78152     78154     78153     78155
     78157     78156     78158     78160     78159     78161     78163     78162     78164
     78166     78165     78167     78169     78168     78170     78172     78171     78173
     78175     78174     78176     78178     78177     78179     78181     78180     78182
     78184     78183     78185     78187     78186     78188     78190     78189     78191
     78193     78192     78194     78196     78195     78197     78199     78198     78200
     78202     78201     78203     78205     78204     78206     78208     78207     78209
     78211     78210     78212     78214     78213     78215     78217     78216     78218
     78220     78219     78221     78223     78222     78224     78226     78225     78227
     78229     78228     78230     78232     78231     78233     78235     78234     78236
     78238     78237     78239     78241     78240     78242     78244     78243     78245
     78247     78246     78248     78250     78249     78251     78253     78252     78254
     78256     78255     78257     78259     78258     78260     78262     78261     78263
     78265     78264     78266     78268     78267     78269     78271     78270     78272
     78274     78273     78275     78277     78276     78278     78280     78279     78281
     78283     78282     78284     78286     78285     78287     78289     78288     78290
     78292     78291     78293     78295     78294     78296     78298     78297     78299
     78301     78300     78302     78304     78303     78305     78307     78306     78308
     78310     78309     78311     78313     78312     78314     78316     78315     78317
     78319     78318     78320     78322     78321     78323     78325     78324     78326
     78328     78327     78329     78331     78330     78332     78334     78333     78335
     78337     78336     78338     78340     78339     78341     78343     78342     78344
     78346     78345     78347     78349     78348     78350     78352     78351     78353
     78355     78354     78356     78358     78357     78359     78361     78360     78362
     78364     78363     78365     78367     78366     78368     78370     78369     78371
     78373     78372     78374     78376     78375     78377     78379     78378     78380
     78382     78381     78383     78385     78384     78386     78388     78387     78389
     78391     78390     78392     78394     78393     78395     78397     78396     78398
     78400     78399     78401     78403     78402     78404     78406     78405     78407
     78409     78408     78410     78412     78411     78413     78415     78414     78416
     78418     78417     78419     78421     78420     78422     78424     78423     78425
     78427     78426     78428     78430     78429     78431     78433     78432     78434
     78436     78435     78437     78439     78438     78440     78442     78441     78443
     78445     78444     78446     78448     78447     78449     78451     78450     78452
     78454     78453     78455     78457     78456     78458     78460     78459     78461
     78463     78462     78464     78466     78465     78467     78469     78468     78470
     78472     78471     78473     78475     78474     78476     78478     78477     78479
     78481     78480     78482     78484     78483     78485     78487     78486     78488
     78490     78489     78491     78493     78492     78494     78496     78495     78497
     78499     78498     78500     78502     78501     78503     78505     78504     78506
     78508     78507     78509     78511     78510     78512     78514     78513     78515
     78517     78516     78518     78520     78519     78521     78523     78522     78524
     78526     78525     78527     78529     78528     78530     78532     78531     78533
     78535     78534     78536     78538     78537     78539     78541     78540     78542
     78544     78543     78545     78547     78546     78548     78550     78549     78551
     78553     78552     78554     78556     78555     78557     78559     78558     78560
     78562     78561     78563     78565     78564     78566     78568     78567     78569
     78571     78570     78572     78574     78573     78575     78577     78576     78578
     78580     78579     78581     78583     78582     78584     78586     78585     78587
     78589     78588     78590     78592     78591     78593     78595     78594     78596
     78598     78597     78599     78601     78600     78602     78604     78603     78605
     78607     78606     78608     78610     78609     78611     78613     78612     78614
     78616     78615     78617     78619     78618     78620     78622     78621     78623
     78625     78624     78626     78628     78627     78629     78631     78630     78632
     78634     78633     78635     78637     78636     78638     78640     78639     78641
     78643     78642     78644     78646     78645     78647     78649     78648     78650
     78652     78651     78653     78655     78654     78656     78658     78657     78659
     78661     78660     78662     78664     78663     78665     78667     78666     78668
     78670     78669     78671     78673     78672     78674     78676     78675     78677
     78679     78678     78680     78682     78681     78683     78685     78684     78686
     78688     78687     78689     78691     78690     78692     78694     78693     78695
     78697     78696     78698     78700     78699     78701     78703     78702     78704
     78706     78705     78707     78709     78708     78710     78712     78711     78713
     78715     78714     78716     78718     78717     78719     78721     78720     78722
     78724     78723     78725     78727     78726     78728     78730     78729     78731
     78733     78732     78734     78736     78735     78737     78739     78738     78740
     78742     78741     78743     78745     78744     78746     78748     78747     78749
     78751     78750     78752     78754     78753     78755     78757     78756     78758
     78760     78759     78761     78763     78762     78764     78766     78765     78767
     78769     78768     78770     78772     78771     78773     78775     78774     78776
     78778     78777     78779     78781     78780     78782     78784     78783     78785
     78787     78786     78788     78790     78789     78791     78793     78792     78794
     78796     78795     78797     78799     78798     78800     78802     78801     78803
     78805     78804     78806     78808     78807     78809     78811     78810     78812
     78814     78813     78815     78817     78816     78818     78820     78819     78821
     78823     78822     78824     78826     78825     78827     78829     78828     78830
     78832     78831     78833     78835     78834     78836     78838     78837     78839
     78841     78840     78842     78844     78843     78845     78847     78846     78848
     78850     78849     78851     78853     78852     78854     78856     78855     78857
     78859     78858     78860     78862     78861     78863     78865     78864     78866
     78868     78867     78869     78871     78870     78872     78874     78873     78875
     78877     78876     78878     78880     78879     78881     78883     78882     78884
     78886     78885     78887     78889     78888     78890     78892     78891     78893
     78895     78894     78896     78898     78897     78899     78901     78900     78902
     78904     78903     78905     78907     78906     78908     78910     78909     78911
     78913     78912     78914     78916     78915     78917     78919     78918     78920
     78922     78921     78923     78925     78924     78926     78928     78927     78929
     78931     78930     78932     78934     78933     78935     78937     78936     78938
     78940     78939     78941     78943     78942     78944     78946     78945     78947
     78949     78948     78950     78952     78951     78953     78955     78954     78956
     78958     78957     78959     78961     78960     78962     78964     78963     78965
     78967     78966     78968     78970     78969     78971     78973     78972     78974
     78976     78975     78977     78979     78978     78980     78982     78981     78983
     78985     78984     78986     78988     78987     78989     78991     78990     78992
     78994     78993     78995     78997     78996     78998     79000     78999     79001
     79003     79002     79004     79006     79005     79007     79009     79008     79010
     79012     79011     79013     79015     79014     79016     79018     79017     79019
     79021     79020     79022     79024     79023     79025     79027     79026     79028
     79030     79029     79031     79033     79032     79034     79036     79035     79037
     79039     79038     79040     79042     79041     79043     79045     79044     79046
     79048     79047     79049     79051     79050     79052     79054     79053     79055
     79057     79056     79058     79060     79059     79061     79063     79062     79064
     79066     79065     79067     79069     79068     79070     79072     79071     79073
     79075     79074     79076     79078     79077     79079     79081     79080     79082
     79084     79083     79085     79087     79086     79088     79090     79089     79091
     79093     79092     79094     79096     79095     79097     79099     79098     79100
     79102     79101     79103     79105     79104     79106     79108     79107     79109
     79111     79110     79112     79114     79113     79115     79117     79116     79118
     79120     79119     79121     79123     79122     79124     79126     79125     79127
     79129     79128     79130     79132     79131     79133     79135     79134     79136
     79138     79137     79139     79141     79140     79142     79144     79143     79145
     79147     79146     79148     79150     79149     79151     79153     79152     79154
     79156     79155     79157     79159     79158     79160     79162     79161     79163
     79165     79164     79166     79168     79167     79169     79171     79170     79172
     79174     79173     79175     79177     79176     79178     79180     79179     79181
     79183     79182     79184     79186     79185     79187     79189     79188     79190
     79192     79191     79193     79195     79194     79196     79198     79197     79199
     79201     79200     79202     79204     79203     79205     79207     79206     79208
     79210     79209     79211     79213     79212     79214     79216     79215     79217
     79219     79218     79220     79222     79221     79223     79225     79224     79226
     79228     79227     79229     79231     79230     79232     79234     79233     79235
     79237     79236     79238     79240     79239     79241     79243     79242     79244
     79246     79245     79247     79249     79248     79250     79252     79251     79253
     79255     79254     79256     79258     79257     79259     79261     79260     79262
     79264     79263     79265     79267     79266     79268     79270     79269     79271
     79273     79272     79274     79276     79275     79277     79279     79278     79280
     79282     79281     79283     79285     79284     79286     79288     79287     79289
     79291     79290     79292     79294     79293     79295     79297     79296     79298
     79300     79299     79301     79303     79302     79304     79306     79305     79307
     79309     79308     79310     79312     79311     79313     79315     79314     79316
     79318     79317     79319     79321     79320     79322     79324     79323     79325
     79327     79326     79328     79330     79329     79331     79333     79332     79334
     79336     79335     79337     79339     79338     79340     79342     79341     79343
     79345     79344     79346     79348     79347     79349     79351     79350     79352
     79354     79353     79355     79357     79356     79358     79360     79359     79361
     79363     79362     79364     79366     79365     79367     79369     79368     79370
     79372     79371     79373     79375     79374     79376     79378     79377     79379
     79381     79380     79382     79384     79383     79385     79387     79386     79388
     79390     79389     79391     79393     79392     79394     79396     79395     79397
     79399     79398     79400     79402     79401     79403     79405     79404     79406
     79408     79407     79409     79411     79410     79412     79414     79413     79415
     79417     79416     79418     79420     79419     79421     79423     79422     79424
     79426     79425     79427     79429     79428     79430     79432     79431     79433
     79435     79434     79436     79438     79437     79439     79441     79440     79442
     79444     79443     79445     79447     79446     79448     79450     79449     79451
     79453     79452     79454     79456     79455     79457     79459     79458     79460
     79462     79461     79463     79465     79464     79466     79468     79467     79469
     79471     79470     79472     79474     79473     79475     79477     79476     79478
     79480     79479     79481     79483     79482     79484     79486     79485     79487
     79489     79488     79490     79492     79491     79493     79495     79494     79496
     79498     79497     79499     79501     79500     79502     79504     79503     79505
     79507     79506     79508     79510     79509     79511     79513     79512     79514
     79516     79515     79517     79519     79518     79520     79522     79521     79523
     79525     79524     79526     79528     79527     79529     79531     79530     79532
     79534     79533     79535     79537     79536     79538     79540     79539     79541
     79543     79542     79544     79546     79545     79547     79549     79548     79550
     79552     79551     79553     79555     79554     79556     79558     79557     79559
     79561     79560     79562     79564     79563     79565     79567     79566     79568
     79570     79569     79571     79573     79572     79574     79576     79575     79577
     79579     79578     79580     79582     79581     79583     79585     79584     79586
     79588     79587     79589     79591     79590     79592     79594     79593     79595
     79597     79596     79598     79600     79599     79601     79603     79602     79604
     79606     79605     79607     79609     79608     79610     79612     79611     79613
     79615     79614     79616     79618     79617     79619     79621     79620     79622
     79624     79623     79625     79627     79626     79628     79630     79629     79631
     79633     79632     79634     79636     79635     79637     79639     79638     79640
     79642     79641     79643     79645     79644     79646     79648     79647     79649
     79651     79650     79652     79654     79653     79655     79657     79656     79658
     79660     79659     79661     79663     79662     79664     79666     79665     79667
     79669     79668     79670     79672     79671     79673     79675     79674     79676
     79678     79677     79679     79681     79680     79682     79684     79683     79685
     79687     79686     79688     79690     79689     79691     79693     79692     79694
     79696     79695     79697     79699     79698     79700     79702     79701     79703
     79705     79704     79706     79708     79707     79709     79711     79710     79712
     79714     79713     79715     79717     79716     79718     79720     79719     79721
     79723     79722     79724     79726     79725     79727     79729     79728     79730
     79732     79731     79733     79735     79734     79736     79738     79737     79739
     79741     79740     79742     79744     79743     79745     79747     79746     79748
     79750     79749     79751     79753     79752     79754     79756     79755     79757
     79759     79758     79760     79762     79761     79763     79765     79764     79766
     79768     79767     79769     79771     79770     79772     79774     79773     79775
     79777     79776     79778     79780     79779     79781     79783     79782     79784
     79786     79785     79787     79789     79788     79790     79792     79791     79793
     79795     79794     79796     79798     79797     79799     79801     79800     79802
     79804     79803     79805     79807     79806     79808     79810     79809     79811
     79813     79812     79814     79816     79815     79817     79819     79818     79820
     79822     79821     79823     79825     79824     79826     79828     79827     79829
     79831     79830     79832     79834     79833     79835     79837     79836     79838
     79840     79839     79841     79843     79842     79844     79846     79845     79847
     79849     79848     79850     79852     79851     79853     79855     79854     79856
     79858     79857     79859     79861     79860     79862     79864     79863     79865
     79867     79866     79868     79870     79869     79871     79873     79872     79874
     79876     79875     79877     79879     79878     79880     79882     79881     79883
     79885     79884     79886     79888     79887     79889     79891     79890     79892
     79894     79893     79895     79897     79896     79898     79900     79899     79901
     79903     79902     79904     79906     79905     79907     79909     79908     79910
     79912     79911     79913     79915     79914     79916     79918     79917     79919
     79921     79920     79922     79924     79923     79925     79927     79926     79928
     79930     79929     79931     79933     79932     79934     79936     79935     79937
     79939     79938     79940     79942     79941     79943     79945     79944     79946
     79948     79947     79949     79951     79950     79952     79954     79953     79955
     79957     79956     79958     79960     79959     79961     79963     79962     79964
     79966     79965     79967     79969     79968     79970     79972     79971     79973
     79975     79974     79976     79978     79977     79979     79981     79980     79982
     79984     79983     79985     79987     79986     79988     79990     79989     79991
     79993     79992     79994     79996     79995     79997     79999     79998     80000
     80002     80001     80003     80005     80004     80006     80008     80007     80009
     80011     80010     80012     80014     80013     80015     80017     80016     80018
     80020     80019     80021     80023     80022     80024     80026     80025     80027
     80029     80028     80030     80032     80031     80033     80035     80034     80036
     80038     80037     80039     80041     80040     80042     80044     80043     80045
     80047     80046     80048     80050     80049     80051     80053     80052     80054
     80056     80055     80057     80059     80058     80060     80062     80061     80063
     80065     80064     80066     80068     80067     80069     80071     80070     80072
     80074     80073     80075     80077     80076     80078     80080     80079     80081
     80083     80082     80084     80086     80085     80087     80089     80088     80090
     80092     80091     80093     80095     80094     80096     80098     80097     80099
     80101     80100     80102     80104     80103     80105     80107     80106     80108
     80110     80109     80111     80113     80112     80114     80116     80115     80117
     80119     80118     80120     80122     80121     80123     80125     80124     80126
     80128     80127     80129     80131     80130     80132     80134     80133     80135
     80137     80136     80138     80140     80139     80141     80143     80142     80144
     80146     80145     80147     80149     80148     80150     80152     80151     80153
     80155     80154     80156     80158     80157     80159     80161     80160     80162
     80164     80163     80165     80167     80166     80168     80170     80169     80171
     80173     80172     80174     80176     80175     80177     80179     80178     80180
     80182     80181     80183     80185     80184     80186     80188     80187     80189
     80191     80190     80192     80194     80193     80195     80197     80196     80198
     80200     80199     80201     80203     80202     80204     80206     80205     80207
     80209     80208     80210     80212     80211     80213     80215     80214     80216
     80218     80217     80219     80221     80220     80222     80224     80223     80225
     80227     80226     80228     80230     80229     80231     80233     80232     80234
     80236     80235     80237     80239     80238     80240     80242     80241     80243
     80245     80244     80246     80248     80247     80249     80251     80250     80252
     80254     80253     80255     80257     80256     80258     80260     80259     80261
     80263     80262     80264     80266     80265     80267     80269     80268     80270
     80272     80271     80273     80275     80274     80276     80278     80277     80279
     80281     80280     80282     80284     80283     80285     80287     80286     80288
     80290     80289     80291     80293     80292     80294     80296     80295     80297
     80299     80298     80300     80302     80301     80303     80305     80304     80306
     80308     80307     80309     80311     80310     80312     80314     80313     80315
     80317     80316     80318     80320     80319     80321     80323     80322     80324
     80326     80325     80327     80329     80328     80330     80332     80331     80333
     80335     80334     80336     80338     80337     80339     80341     80340     80342
     80344     80343     80345     80347     80346     80348     80350     80349     80351
     80353     80352     80354     80356     80355     80357     80359     80358     80360
     80362     80361     80363     80365     80364     80366     80368     80367     80369
     80371     80370     80372     80374     80373     80375     80377     80376     80378
     80380     80379     80381     80383     80382     80384     80386     80385     80387
     80389     80388     80390     80392     80391     80393     80395     80394     80396
     80398     80397     80399     80401     80400     80402     80404     80403     80405
     80407     80406     80408     80410     80409     80411     80413     80412     80414
     80416     80415     80417     80419     80418     80420     80422     80421     80423
     80425     80424     80426     80428     80427     80429     80431     80430     80432
     80434     80433     80435     80437     80436     80438     80440     80439     80441
     80443     80442     80444     80446     80445     80447     80449     80448     80450
     80452     80451     80453     80455     80454     80456     80458     80457     80459
     80461     80460     80462     80464     80463     80465     80467     80466     80468
     80470     80469     80471     80473     80472     80474     80476     80475     80477
     80479     80478     80480     80482     80481     80483     80485     80484     80486
     80488     80487     80489     80491     80490     80492     80494     80493     80495
     80497     80496     80498     80500     80499     80501     80503     80502     80504
     80506     80505     80507     80509     80508     80510     80512     80511     80513
     80515     80514     80516     80518     80517     80519     80521     80520     80522
     80524     80523     80525     80527     80526     80528     80530     80529     80531
     80533     80532     80534     80536     80535     80537     80539     80538     80540
     80542     80541     80543     80545     80544     80546     80548     80547     80549
     80551     80550     80552     80554     80553     80555     80557     80556     80558
     80560     80559     80561     80563     80562     80564     80566     80565     80567
     80569     80568     80570     80572     80571     80573     80575     80574     80576
     80578     80577     80579     80581     80580     80582     80584     80583     80585
     80587     80586     80588     80590     80589     80591     80593     80592     80594
     80596     80595     80597     80599     80598     80600     80602     80601     80603
     80605     80604     80606     80608     80607     80609     80611     80610     80612
     80614     80613     80615     80617     80616     80618     80620     80619     80621
     80623     80622     80624     80626     80625     80627     80629     80628     80630
     80632     80631     80633     80635     80634     80636     80638     80637     80639
     80641     80640     80642     80644     80643     80645     80647     80646     80648
     80650     80649     80651     80653     80652     80654     80656     80655     80657
     80659     80658     80660     80662     80661     80663     80665     80664     80666
     80668     80667     80669     80671     80670     80672     80674     80673     80675
     80677     80676     80678     80680     80679     80681     80683     80682     80684
     80686     80685     80687     80689     80688     80690     80692     80691     80693
     80695     80694     80696     80698     80697     80699     80701     80700     80702
     80704     80703     80705     80707     80706     80708     80710     80709     80711
     80713     80712     80714     80716     80715     80717     80719     80718     80720
     80722     80721     80723     80725     80724     80726     80728     80727     80729
     80731     80730     80732     80734     80733     80735     80737     80736     80738
     80740     80739     80741     80743     80742     80744     80746     80745     80747
     80749     80748     80750     80752     80751     80753     80755     80754     80756
     80758     80757     80759     80761     80760     80762     80764     80763     80765
     80767     80766     80768     80770     80769     80771     80773     80772     80774
     80776     80775     80777     80779     80778     80780     80782     80781     80783
     80785     80784     80786     80788     80787     80789     80791     80790     80792
     80794     80793     80795     80797     80796     80798     80800     80799     80801
     80803     80802     80804     80806     80805     80807     80809     80808     80810
     80812     80811     80813     80815     80814     80816     80818     80817     80819
     80821     80820     80822     80824     80823     80825     80827     80826     80828
     80830     80829     80831     80833     80832     80834     80836     80835     80837
     80839     80838     80840     80842     80841     80843     80845     80844     80846
     80848     80847     80849     80851     80850     80852     80854     80853     80855
     80857     80856     80858     80860     80859     80861     80863     80862     80864
     80866     80865     80867     80869     80868     80870     80872     80871     80873
     80875     80874     80876     80878     80877     80879     80881     80880     80882
     80884     80883     80885     80887     80886     80888     80890     80889     80891
     80893     80892     80894     80896     80895     80897     80899     80898     80900
     80902     80901     80903     80905     80904     80906     80908     80907     80909
     80911     80910     80912     80914     80913     80915     80917     80916     80918
     80920     80919     80921     80923     80922     80924     80926     80925     80927
     80929     80928     80930     80932     80931     80933     80935     80934     80936
     80938     80937     80939     80941     80940     80942     80944     80943     80945
     80947     80946     80948     80950     80949     80951     80953     80952     80954
     80956     80955     80957     80959     80958     80960     80962     80961     80963
     80965     80964     80966     80968     80967     80969     80971     80970     80972
     80974     80973     80975     80977     80976     80978     80980     80979     80981
     80983     80982     80984     80986     80985     80987     80989     80988     80990
     80992     80991     80993     80995     80994     80996     80998     80997     80999
     81001     81000     81002     81004     81003     81005     81007     81006     81008
     81010     81009     81011     81013     81012     81014     81016     81015     81017
     81019     81018     81020     81022     81021     81023     81025     81024     81026
     81028     81027     81029     81031     81030     81032     81034     81033     81035
     81037     81036     81038     81040     81039     81041     81043     81042     81044
     81046     81045     81047     81049     81048     81050     81052     81051     81053
     81055     81054     81056     81058     81057     81059     81061     81060     81062
     81064     81063     81065     81067     81066     81068     81070     81069     81071
     81073     81072     81074     81076     81075     81077     81079     81078     81080
     81082     81081     81083     81085     81084     81086     81088     81087     81089
     81091     81090     81092     81094     81093     81095     81097     81096     81098
     81100     81099     81101     81103     81102     81104     81106     81105     81107
     81109     81108     81110     81112     81111     81113     81115     81114     81116
     81118     81117     81119     81121     81120     81122     81124     81123     81125
     81127     81126     81128     81130     81129     81131     81133     81132     81134
     81136     81135     81137     81139     81138     81140     81142     81141     81143
     81145     81144     81146     81148     81147     81149     81151     81150     81152
     81154     81153     81155     81157     81156     81158     81160     81159     81161
     81163     81162     81164     81166     81165     81167     81169     81168     81170
     81172     81171     81173     81175     81174     81176     81178     81177     81179
     81181     81180     81182     81184     81183     81185     81187     81186     81188
     81190     81189     81191     81193     81192     81194     81196     81195     81197
     81199     81198     81200     81202     81201     81203     81205     81204     81206
     81208     81207     81209     81211     81210     81212     81214     81213     81215
     81217     81216     81218     81220     81219     81221     81223     81222     81224
     81226     81225     81227     81229     81228     81230     81232     81231     81233
     81235     81234     81236     81238     81237     81239     81241     81240     81242
     81244     81243     81245     81247     81246     81248     81250     81249     81251
     81253     81252     81254     81256     81255     81257     81259     81258     81260
     81262     81261     81263     81265     81264     81266     81268     81267     81269
     81271     81270     81272     81274     81273     81275     81277     81276     81278
     81280     81279     81281     81283     81282     81284     81286     81285     81287
     81289     81288     81290     81292     81291     81293     81295     81294     81296
     81298     81297     81299     81301     81300     81302     81304     81303     81305
     81307     81306     81308     81310     81309     81311     81313     81312     81314
     81316     81315     81317     81319     81318     81320     81322     81321     81323
     81325     81324     81326     81328     81327     81329     81331     81330     81332
     81334     81333     81335     81337     81336     81338     81340     81339     81341
     81343     81342     81344     81346     81345     81347     81349     81348     81350
     81352     81351     81353     81355     81354     81356     81358     81357     81359
     81361     81360     81362     81364     81363     81365     81367     81366     81368
     81370     81369     81371     81373     81372     81374     81376     81375     81377
     81379     81378     81380     81382     81381     81383     81385     81384     81386
     81388     81387     81389     81391     81390     81392     81394     81393     81395
     81397     81396     81398     81400     81399     81401     81403     81402     81404

     61788 !NPHI: dihedrals
         1         5         8         9         1         5         8        39
         1        47        44        39         1        47        44        45
         1        47        44        46         2         1         3         4
         2         1         5         6         2         1         5         7
         2         1         5         8         2         1        47        44
         2         1        47        48         2         1        47        49
         3         1         5         6         3         1         5         7
         3         1         5         8         3         1        47        44
         3         1        47        48         3         1        47        49
         4         3         1         5         4         3         1        47
         5         1        47        44         5         1        47        48
         5         1        47        49         5         8         9        10
         5         8         9        11         5         8        39        37
         5         8        39        40         5         8        39        44
         6         5         1        47         6         5         8         9
         6         5         8        39         7         5         1        47
         7         5         8         9         7         5         8        39
         8         5         1        47         8         9        11        12
         8         9        11        13         8         9        11        14
         8        39        37        14         8        39        37        34
         8        39        37        38         8        39        40        41
         8        39        40        42         8        39        40        43
         8        39        44        45         8        39        44        46
         8        39        44        47         9         8        39        37
         9         8        39        40         9         8        39        44
         9        11        14        15         9        11        14        16
         9        11        14        37        10         9         8        39
        10         9        11        12        10         9        11        13
        10         9        11        14        11         9         8        39
        11        14        16        17        11        14        16        18
        11        14        16        26        11        14        37        34
        11        14        37        38        11        14        37        39
        12        11        14        15        12        11        14        16
        12        11        14        37        13        11        14        15
        13        11        14        16        13        11        14        37
        14        16        18        19        14        16        18        20
        14        16        18        21        14        16        26        24
        14        16        26        27        14        16        26        31
        14        37        34        31        14        37        34        35
        14        37        34        36        14        37        39        40
        14        37        39        44        15        14        16        17
        15        14        16        18        15        14        16        26
        15        14        37        34        15        14        37        38
        15        14        37        39        16        14        37        34
        16        14        37        38        16        14        37        39
        16        18        21        22        16        18        21        23
        16        18        21        24        16        26        24        21
        16        26        24        25        16        26        24        50
        16        26        27        28        16        26        27        29
        16        26        27        30        16        26        31        32
        16        26        31        33        16        26        31        34
        17        16        14        37        17        16        18        19
        17        16        18        20        17        16        18        21
        17        16        26        24        17        16        26        27
        17        16        26        31        18        16        14        37
        18        16        26        24        18        16        26        27
        18        16        26        31        18        21        24        25
        18        21        24        26        18        21        24        50
        19        18        16        26        19        18        21        22
        19        18        21        23        19        18        21        24
        20        18        16        26        20        18        21        22
        20        18        21        23        20        18        21        24
        21        18        16        26        21        24        26        27
        21        24        26        31        21        24        50        51
        21        24        50        52        21        24        50        56
        22        21        24        25        22        21        24        26
        22        21        24        50        23        21        24        25
        23        21        24        26        23        21        24        50
        24        26        27        28        24        26        27        29
        24        26        27        30        24        26        31        32
        24        26        31        33        24        26        31        34
        24        50        52        53        24        50        52        54
        24        50        52        55        24        50        56        57
        24        50        56        58        24        50        56        59
        25        24        26        27        25        24        26        31
        25        24        50        51        25        24        50        52
        25        24        50        56        26        16        14        37
        26        24        50        51        26        24        50        52
        26        24        50        56        26        31        34        35
        26        31        34        36        26        31        34        37
        27        26        24        50        27        26        31        32
        27        26        31        33        27        26        31        34
        28        27        26        31        29        27        26        31
        30        27        26        31        31        26        24        50
        31        34        37        38        31        34        37        39
        32        31        34        35        32        31        34        36
        32        31        34        37        33        31        34        35
        33        31        34        36        33        31        34        37
        34        37        39        40        34        37        39        44
        35        34        37        38        35        34        37        39
        36        34        37        38        36        34        37        39
        37        39        40        41        37        39        40        42
        37        39        40        43        37        39        44        45
        37        39        44        46        37        39        44        47
        38        37        39        40        38        37        39        44
        39        44        47        48        39        44        47        49
        40        39        44        45        40        39        44        46
        40        39        44        47        41        40        39        44
        42        40        39        44        43        40        39        44
        45        44        47        48        45        44        47        49
        46        44        47        48        46        44        47        49
        50        56        59        60        50        56        59        61
        50        56        59        62        51        50        52        53
        51        50        52        54        51        50        52        55
        51        50        56        57        51        50        56        58
        51        50        56        59        52        50        56        57
        52        50        56        58        52        50        56        59
        53        52        50        56        54        52        50        56
        55        52        50        56        56        59        62        63
        56        59        62        64        56        59        62        65
        57        56        59        60        57        56        59        61
        57        56        59        62        58        56        59        60
        58        56        59        61        58        56        59        62
        59        62        65        66        59        62        65        67
        59        62        65        71        60        59        62        63
        60        59        62        64        60        59        62        65
        61        59        62        63        61        59        62        64
        61        59        62        65        62        65        67        68
        62        65        67        69        62        65        67        70
        62        65        71        72        62        65        71        73
        62        65        71        74        63        62        65        66
        63        62        65        67        63        62        65        71
        64        62        65        66        64        62        65        67
        64        62        65        71        66        65        67        68
        66        65        67        69        66        65        67        70
        66        65        71        72        66        65        71        73
        66        65        71        74        67        65        71        72
        67        65        71        73        67        65        71        74
        68        67        65        71        69        67        65        71
        70        67        65        71      4145      4146      4161      4162
      4145      4146      4161      4163      4145      4146      4161      4167
      4146      4145      4149      4150      4146      4145      4149      4151
      4146      4145      4149      4152      4146      4145      4153      4154
      4146      4145      4153      4155      4146      4145      4153      4156
      4146      4145      4157      4158      4146      4145      4157      4159
      4146      4145      4157      4160      4146      4161      4167      4164
      4147      4146      4145      4149      4147      4146      4145      4153
      4147      4146      4145      4157      4147      4146      4161      4162
      4147      4146      4161      4163      4147      4146      4161      4167
      4148      4146      4145      4149      4148      4146      4145      4153
      4148      4146      4145      4157      4148      4146      4161      4162
      4148      4146      4161      4163      4148      4146      4161      4167
      4149      4145      4146      4161      4149      4145      4153      4154
      4149      4145      4153      4155      4149      4145      4153      4156
      4149      4145      4157      4158      4149      4145      4157      4159
      4149      4145      4157      4160      4150      4149      4145      4153
      4150      4149      4145      4157      4151      4149      4145      4153
      4151      4149      4145      4157      4152      4149      4145      4153
      4152      4149      4145      4157      4153      4145      4146      4161
      4153      4145      4157      4158      4153      4145      4157      4159
      4153      4145      4157      4160      4154      4153      4145      4157
      4155      4153      4145      4157      4156      4153      4145      4157
      4157      4145      4146      4161      4161      4167      4164      4165
      4161      4167      4164      4166      4161      4167      4164      4168
      4162      4161      4167      4164      4163      4161      4167      4164
      4164      4168      4169      4170      4164      4168      4169      4171
      4164      4168      4169      4172      4165      4164      4168      4169
      4166      4164      4168      4169      4167      4164      4168      4169
      4168      4169      4172      4173      4168      4169      4172      4174
      4168      4169      4172      4180      4169      4172      4174      4175
      4169      4172      4180      4181      4169      4172      4180      4182
      4169      4172      4180      4183      4170      4169      4172      4173
      4170      4169      4172      4174      4170      4169      4172      4180
      4171      4169      4172      4173      4171      4169      4172      4174
      4171      4169      4172      4180      4172      4174      4175      4176
      4172      4174      4175      4177      4172      4180      4183      4184
      4173      4172      4174      4175      4173      4172      4180      4181
      4173      4172      4180      4182      4173      4172      4180      4183
      4174      4172      4180      4181      4174      4172      4180      4182
      4174      4172      4180      4183      4174      4175      4177      4178
      4174      4175      4177      4179      4174      4175      4177      4189
      4175      4174      4172      4180      4175      4177      4189      4190
      4175      4177      4189      4191      4175      4177      4189      4192
      4176      4175      4177      4178      4176      4175      4177      4179
      4176      4175      4177      4189      4177      4189      4192      4193
      4177      4189      4192      4194      4177      4189      4192      4195
      4178      4177      4189      4190      4178      4177      4189      4191
      4178      4177      4189      4192      4179      4177      4189      4190
      4179      4177      4189      4191      4179      4177      4189      4192
      4180      4183      4184      4185      4180      4183      4184      4186
      4181      4180      4183      4184      4182      4180      4183      4184
      4183      4184      4186      4187      4183      4184      4186      4188
      4183      4184      4186      4236      4184      4186      4236      4237
      4184      4186      4236      4238      4184      4186      4236      4239
      4185      4184      4186      4187      4185      4184      4186      4188
      4185      4184      4186      4236      4186      4236      4239      4240
      4186      4236      4239      4241      4186      4236      4239      4242
      4187      4186      4236      4237      4187      4186      4236      4238
      4187      4186      4236      4239      4188      4186      4236      4237
      4188      4186      4236      4238      4188      4186      4236      4239
      4189      4192      4195      4196      4189      4192      4195      4197
      4190      4189      4192      4193      4190      4189      4192      4194
      4190      4189      4192      4195      4191      4189      4192      4193
      4191      4189      4192      4194      4191      4189      4192      4195
      4192      4195      4197      4198      4192      4195      4197      4199
      4193      4192      4195      4196      4193      4192      4195      4197
      4194      4192      4195      4196      4194      4192      4195      4197
      4195      4197      4199      4200      4195      4197      4199      4201
      4195      4197      4199      4202      4196      4195      4197      4198
      4196      4195      4197      4199      4197      4199      4202      4203
      4197      4199      4202      4204      4198      4197      4199      4200
      4198      4197      4199      4201      4198      4197      4199      4202
      4199      4202      4204      4205      4199      4202      4204      4206
      4200      4199      4202      4203      4200      4199      4202      4204
      4201      4199      4202      4203      4201      4199      4202      4204
      4202      4204      4206      4207      4202      4204      4206      4208
      4202      4204      4206      4209      4203      4202      4204      4205
      4203      4202      4204      4206      4204      4206      4209      4210
      4204      4206      4209      4211      4205      4204      4206      4207
      4205      4204      4206      4208      4205      4204      4206      4209
      4206      4209      4211      4212      4206      4209      4211      4213
      4207      4206      4209      4210      4207      4206      4209      4211
      4208      4206      4209      4210      4208      4206      4209      4211
      4209      4211      4213      4214      4209      4211      4213      4215
      4209      4211      4213      4216      4210      4209      4211      4212
      4210      4209      4211      4213      4211      4213      4216      4217
      4211      4213      4216      4218      4212      4211      4213      4214
      4212      4211      4213      4215      4212      4211      4213      4216
      4213      4216      4218      4219      4213      4216      4218      4220
      4214      4213      4216      4217      4214      4213      4216      4218
      4215      4213      4216      4217      4215      4213      4216      4218
      4216      4218      4220      4221      4216      4218      4220      4222
      4216      4218      4220      4223      4217      4216      4218      4219
      4217      4216      4218      4220      4218      4220      4223      4224
      4218      4220      4223      4225      4218      4220      4223      4226
      4219      4218      4220      4221      4219      4218      4220      4222
      4219      4218      4220      4223      4220      4223      4226      4227
      4220      4223      4226      4228      4220      4223      4226      4229
      4221      4220      4223      4224      4221      4220      4223      4225
      4221      4220      4223      4226      4222      4220      4223      4224
      4222      4220      4223      4225      4222      4220      4223      4226
      4223      4226      4229      4230      4223      4226      4229      4231
      4223      4226      4229      4232      4224      4223      4226      4227
      4224      4223      4226      4228      4224      4223      4226      4229
      4225      4223      4226      4227      4225      4223      4226      4228
      4225      4223      4226      4229      4226      4229      4232      4233
      4226      4229      4232      4234      4226      4229      4232      4235
      4227      4226      4229      4230      4227      4226      4229      4231
      4227      4226      4229      4232      4228      4226      4229      4230
      4228      4226      4229      4231      4228      4226      4229      4232
      4230      4229      4232      4233      4230      4229      4232      4234
      4230      4229      4232      4235      4231      4229      4232      4233
      4231      4229      4232      4234      4231      4229      4232      4235
      4236      4239      4242      4243      4236      4239      4242      4244
      4236      4239      4242      4245      4237      4236      4239      4240
      4237      4236      4239      4241      4237      4236      4239      4242
      4238      4236      4239      4240      4238      4236      4239      4241
      4238      4236      4239      4242      4239      4242      4245      4246
      4239      4242      4245      4247      4239      4242      4245      4248
      4240      4239      4242      4243      4240      4239      4242      4244
      4240      4239      4242      4245      4241      4239      4242      4243
      4241      4239      4242      4244      4241      4239      4242      4245
      4242      4245      4248      4249      4242      4245      4248      4250
      4242      4245      4248      4251      4243      4242      4245      4246
      4243      4242      4245      4247      4243      4242      4245      4248
      4244      4242      4245      4246      4244      4242      4245      4247
      4244      4242      4245      4248      4245      4248      4251      4252
      4245      4248      4251      4253      4245      4248      4251      4254
      4246      4245      4248      4249      4246      4245      4248      4250
      4246      4245      4248      4251      4247      4245      4248      4249
      4247      4245      4248      4250      4247      4245      4248      4251
      4248      4251      4254      4255      4248      4251      4254      4256
      4248      4251      4254      4257      4249      4248      4251      4252
      4249      4248      4251      4253      4249      4248      4251      4254
      4250      4248      4251      4252      4250      4248      4251      4253
      4250      4248      4251      4254      4251      4254      4257      4258
      4251      4254      4257      4259      4251      4254      4257      4260
      4252      4251      4254      4255      4252      4251      4254      4256
      4252      4251      4254      4257      4253      4251      4254      4255
      4253      4251      4254      4256      4253      4251      4254      4257
      4254      4257      4260      4261      4254      4257      4260      4262
      4254      4257      4260      4263      4255      4254      4257      4258
      4255      4254      4257      4259      4255      4254      4257      4260
      4256      4254      4257      4258      4256      4254      4257      4259
      4256      4254      4257      4260      4257      4260      4263      4264
      4257      4260      4263      4265      4257      4260      4263      4266
      4258      4257      4260      4261      4258      4257      4260      4262
      4258      4257      4260      4263      4259      4257      4260      4261
      4259      4257      4260      4262      4259      4257      4260      4263
      4260      4263      4266      4267      4260      4263      4266      4268
      4260      4263      4266      4269      4261      4260      4263      4264
      4261      4260      4263      4265      4261      4260      4263      4266
      4262      4260      4263      4264      4262      4260      4263      4265
      4262      4260      4263      4266      4263      4266      4269      4270
      4263      4266      4269      4271      4263      4266      4269      4272
      4264      4263      4266      4267      4264      4263      4266      4268
      4264      4263      4266      4269      4265      4263      4266      4267
      4265      4263      4266      4268      4265      4263      4266      4269
      4266      4269      4272      4273      4266      4269      4272      4274
      4266      4269      4272      4275      4267      4266      4269      4270
      4267      4266      4269      4271      4267      4266      4269      4272
      4268      4266      4269      4270      4268      4266      4269      4271
      4268      4266      4269      4272      4269      4272      4275      4276
      4269      4272      4275      4277      4269      4272      4275      4278
      4270      4269      4272      4273      4270      4269      4272      4274
      4270      4269      4272      4275      4271      4269      4272      4273
      4271      4269      4272      4274      4271      4269      4272      4275
      4272      4275      4278      4279      4272      4275      4278      4280
      4272      4275      4278      4281      4273      4272      4275      4276
      4273      4272      4275      4277      4273      4272      4275      4278
      4274      4272      4275      4276      4274      4272      4275      4277
      4274      4272      4275      4278      4275      4278      4281      4282
      4275      4278      4281      4283      4275      4278      4281      4284
      4276      4275      4278      4279      4276      4275      4278      4280
      4276      4275      4278      4281      4277      4275      4278      4279
      4277      4275      4278      4280      4277      4275      4278      4281
      4279      4278      4281      4282      4279      4278      4281      4283
      4279      4278      4281      4284      4280      4278      4281      4282
      4280      4278      4281      4283      4280      4278      4281      4284
      5825      5838      5841      5842      5825      5838      5841      5843
      5825      5838      5841      5847      5826      5825      5830      5831
      5826      5825      5830      5832      5826      5825      5830      5833
      5826      5825      5834      5835      5826      5825      5834      5836
      5826      5825      5834      5837      5826      5825      5838      5839
      5826      5825      5838      5840      5826      5825      5838      5841
      5827      5826      5825      5830      5827      5826      5825      5834
      5827      5826      5825      5838      5828      5826      5825      5830
      5828      5826      5825      5834      5828      5826      5825      5838
      5829      5826      5825      5830      5829      5826      5825      5834
      5829      5826      5825      5838      5830      5825      5834      5835
      5830      5825      5834      5836      5830      5825      5834      5837
      5830      5825      5838      5839      5830      5825      5838      5840
      5830      5825      5838      5841      5831      5830      5825      5834
      5831      5830      5825      5838      5832      5830      5825      5834
      5832      5830      5825      5838      5833      5830      5825      5834
      5833      5830      5825      5838      5834      5825      5838      5839
      5834      5825      5838      5840      5834      5825      5838      5841
      5835      5834      5825      5838      5836      5834      5825      5838
      5837      5834      5825      5838      5838      5841      5847      5844
      5839      5838      5841      5842      5839      5838      5841      5843
      5839      5838      5841      5847      5840      5838      5841      5842
      5840      5838      5841      5843      5840      5838      5841      5847
      5841      5847      5844      5845      5841      5847      5844      5846
      5841      5847      5844      5848      5842      5841      5847      5844
      5843      5841      5847      5844      5844      5848      5849      5850
      5844      5848      5849      5851      5844      5848      5849      5852
      5845      5844      5848      5849      5846      5844      5848      5849
      5847      5844      5848      5849      5848      5849      5852      5853
      5848      5849      5852      5854      5848      5849      5852      5860
      5849      5852      5854      5855      5849      5852      5860      5861
      5849      5852      5860      5862      5849      5852      5860      5863
      5850      5849      5852      5853      5850      5849      5852      5854
      5850      5849      5852      5860      5851      5849      5852      5853
      5851      5849      5852      5854      5851      5849      5852      5860
      5852      5854      5855      5856      5852      5854      5855      5857
      5852      5860      5863      5864      5853      5852      5854      5855
      5853      5852      5860      5861      5853      5852      5860      5862
      5853      5852      5860      5863      5854      5852      5860      5861
      5854      5852      5860      5862      5854      5852      5860      5863
      5854      5855      5857      5858      5854      5855      5857      5859
      5854      5855      5857      5869      5855      5854      5852      5860
      5855      5857      5869      5870      5855      5857      5869      5871
      5855      5857      5869      5872      5856      5855      5857      5858
      5856      5855      5857      5859      5856      5855      5857      5869
      5857      5869      5872      5873      5857      5869      5872      5874
      5857      5869      5872      5875      5858      5857      5869      5870
      5858      5857      5869      5871      5858      5857      5869      5872
      5859      5857      5869      5870      5859      5857      5869      5871
      5859      5857      5869      5872      5860      5863      5864      5865
      5860      5863      5864      5866      5861      5860      5863      5864
      5862      5860      5863      5864      5863      5864      5866      5867
      5863      5864      5866      5868      5863      5864      5866      5914
      5864      5866      5914      5915      5864      5866      5914      5916
      5864      5866      5914      5917      5865      5864      5866      5867
      5865      5864      5866      5868      5865      5864      5866      5914
      5866      5914      5917      5918      5866      5914      5917      5919
      5866      5914      5917      5920      5867      5866      5914      5915
      5867      5866      5914      5916      5867      5866      5914      5917
      5868      5866      5914      5915      5868      5866      5914      5916
      5868      5866      5914      5917      5869      5872      5875      5876
      5869      5872      5875      5877      5869      5872      5875      5878
      5870      5869      5872      5873      5870      5869      5872      5874
      5870      5869      5872      5875      5871      5869      5872      5873
      5871      5869      5872      5874      5871      5869      5872      5875
      5872      5875      5878      5879      5872      5875      5878      5880
      5872      5875      5878      5881      5873      5872      5875      5876
      5873      5872      5875      5877      5873      5872      5875      5878
      5874      5872      5875      5876      5874      5872      5875      5877
      5874      5872      5875      5878      5875      5878      5881      5882
      5875      5878      5881      5883      5875      5878      5881      5884
      5876      5875      5878      5879      5876      5875      5878      5880
      5876      5875      5878      5881      5877      5875      5878      5879
      5877      5875      5878      5880      5877      5875      5878      5881
      5878      5881      5884      5885      5878      5881      5884      5886
      5878      5881      5884      5887      5879      5878      5881      5882
      5879      5878      5881      5883      5879      5878      5881      5884
      5880      5878      5881      5882      5880      5878      5881      5883
      5880      5878      5881      5884      5881      5884      5887      5888
      5881      5884      5887      5889      5882      5881      5884      5885
      5882      5881      5884      5886      5882      5881      5884      5887
      5883      5881      5884      5885      5883      5881      5884      5886
      5883      5881      5884      5887      5884      5887      5889      5890
      5884      5887      5889      5891      5885      5884      5887      5888
      5885      5884      5887      5889      5886      5884      5887      5888
      5886      5884      5887      5889      5887      5889      5891      5892
      5887      5889      5891      5893      5887      5889      5891      5894
      5888      5887      5889      5890      5888      5887      5889      5891
      5889      5891      5894      5895      5889      5891      5894      5896
      5890      5889      5891      5892      5890      5889      5891      5893
      5890      5889      5891      5894      5891      5894      5896      5897
      5891      5894      5896      5898      5892      5891      5894      5895
      5892      5891      5894      5896      5893      5891      5894      5895
      5893      5891      5894      5896      5894      5896      5898      5899
      5894      5896      5898      5900      5894      5896      5898      5901
      5895      5894      5896      5897      5895      5894      5896      5898
      5896      5898      5901      5902      5896      5898      5901      5903
      5896      5898      5901      5904      5897      5896      5898      5899
      5897      5896      5898      5900      5897      5896      5898      5901
      5898      5901      5904      5905      5898      5901      5904      5906
      5898      5901      5904      5907      5899      5898      5901      5902
      5899      5898      5901      5903      5899      5898      5901      5904
      5900      5898      5901      5902      5900      5898      5901      5903
      5900      5898      5901      5904      5901      5904      5907      5908
      5901      5904      5907      5909      5901      5904      5907      5910
      5902      5901      5904      5905      5902      5901      5904      5906
      5902      5901      5904      5907      5903      5901      5904      5905
      5903      5901      5904      5906      5903      5901      5904      5907
      5904      5907      5910      5911      5904      5907      5910      5912
      5904      5907      5910      5913      5905      5904      5907      5908
      5905      5904      5907      5909      5905      5904      5907      5910
      5906      5904      5907      5908      5906      5904      5907      5909
      5906      5904      5907      5910      5908      5907      5910      5911
      5908      5907      5910      5912      5908      5907      5910      5913
      5909      5907      5910      5911      5909      5907      5910      5912
      5909      5907      5910      5913      5914      5917      5920      5921
      5914      5917      5920      5922      5914      5917      5920      5923
      5915      5914      5917      5918      5915      5914      5917      5919
      5915      5914      5917      5920      5916      5914      5917      5918
      5916      5914      5917      5919      5916      5914      5917      5920
      5917      5920      5923      5924      5917      5920      5923      5925
      5917      5920      5923      5926      5918      5917      5920      5921
      5918      5917      5920      5922      5918      5917      5920      5923
      5919      5917      5920      5921      5919      5917      5920      5922
      5919      5917      5920      5923      5920      5923      5926      5927
      5920      5923      5926      5928      5920      5923      5926      5929
      5921      5920      5923      5924      5921      5920      5923      5925
      5921      5920      5923      5926      5922      5920      5923      5924
      5922      5920      5923      5925      5922      5920      5923      5926
      5923      5926      5929      5930      5923      5926      5929      5931
      5923      5926      5929      5932      5924      5923      5926      5927
      5924      5923      5926      5928      5924      5923      5926      5929
      5925      5923      5926      5927      5925      5923      5926      5928
      5925      5923      5926      5929      5926      5929      5932      5933
      5926      5929      5932      5934      5926      5929      5932      5935
      5927      5926      5929      5930      5927      5926      5929      5931
      5927      5926      5929      5932      5928      5926      5929      5930
      5928      5926      5929      5931      5928      5926      5929      5932
      5929      5932      5935      5936      5929      5932      5935      5937
      5929      5932      5935      5938      5930      5929      5932      5933
      5930      5929      5932      5934      5930      5929      5932      5935
      5931      5929      5932      5933      5931      5929      5932      5934
      5931      5929      5932      5935      5932      5935      5938      5939
      5932      5935      5938      5940      5932      5935      5938      5941
      5933      5932      5935      5936      5933      5932      5935      5937
      5933      5932      5935      5938      5934      5932      5935      5936
      5934      5932      5935      5937      5934      5932      5935      5938
      5935      5938      5941      5942      5935      5938      5941      5943
      5935      5938      5941      5944      5936      5935      5938      5939
      5936      5935      5938      5940      5936      5935      5938      5941
      5937      5935      5938      5939      5937      5935      5938      5940
      5937      5935      5938      5941      5938      5941      5944      5945
      5938      5941      5944      5946      5938      5941      5944      5947
      5939      5938      5941      5942      5939      5938      5941      5943
      5939      5938      5941      5944      5940      5938      5941      5942
      5940      5938      5941      5943      5940      5938      5941      5944
      5941      5944      5947      5948      5941      5944      5947      5949
      5941      5944      5947      5950      5942      5941      5944      5945
      5942      5941      5944      5946      5942      5941      5944      5947
      5943      5941      5944      5945      5943      5941      5944      5946
      5943      5941      5944      5947      5944      5947      5950      5951
      5944      5947      5950      5952      5944      5947      5950      5953
      5945      5944      5947      5948      5945      5944      5947      5949
      5945      5944      5947      5950      5946      5944      5947      5948
      5946      5944      5947      5949      5946      5944      5947      5950
      5947      5950      5953      5954      5947      5950      5953      5955
      5947      5950      5953      5956      5948      5947      5950      5951
      5948      5947      5950      5952      5948      5947      5950      5953
      5949      5947      5950      5951      5949      5947      5950      5952
      5949      5947      5950      5953      5950      5953      5956      5957
      5950      5953      5956      5958      5950      5953      5956      5959
      5951      5950      5953      5954      5951      5950      5953      5955
      5951      5950      5953      5956      5952      5950      5953      5954
      5952      5950      5953      5955      5952      5950      5953      5956
      5953      5956      5959      5960      5953      5956      5959      5961
      5953      5956      5959      5962      5954      5953      5956      5957
      5954      5953      5956      5958      5954      5953      5956      5959
      5955      5953      5956      5957      5955      5953      5956      5958
      5955      5953      5956      5959      5957      5956      5959      5960
      5957      5956      5959      5961      5957      5956      5959      5962
      5958      5956      5959      5960      5958      5956      5959      5961
      5958      5956      5959      5962      7481      7485      7487      7488
      7481      7485      7487      7489      7481      7485      7490      7491
      7481      7485      7490      7492      7481      7485      7490      7496
      7482      7481      7485      7486      7482      7481      7485      7487
      7482      7481      7485      7490      7483      7481      7485      7486
      7483      7481      7485      7487      7483      7481      7485      7490
      7484      7481      7485      7486      7484      7481      7485      7487
      7484      7481      7485      7490      7485      7490      7496      7493
      7486      7485      7487      7488      7486      7485      7487      7489
      7486      7485      7490      7491      7486      7485      7490      7492
      7486      7485      7490      7496      7487      7485      7490      7491
      7487      7485      7490      7492      7487      7485      7490      7496
      7488      7487      7485      7490      7489      7487      7485      7490
      7490      7496      7493      7494      7490      7496      7493      7495
      7490      7496      7493      7497      7491      7490      7496      7493
      7492      7490      7496      7493      7493      7497      7498      7499
      7493      7497      7498      7500      7493      7497      7498      7501
      7494      7493      7497      7498      7495      7493      7497      7498
      7496      7493      7497      7498      7497      7498      7501      7502
      7497      7498      7501      7503      7497      7498      7501      7509
      7498      7501      7503      7504      7498      7501      7509      7510
      7498      7501      7509      7511      7498      7501      7509      7512
      7499      7498      7501      7502      7499      7498      7501      7503
      7499      7498      7501      7509      7500      7498      7501      7502
      7500      7498      7501      7503      7500      7498      7501      7509
      7501      7503      7504      7505      7501      7503      7504      7506
      7501      7509      7512      7513      7502      7501      7503      7504
      7502      7501      7509      7510      7502      7501      7509      7511
      7502      7501      7509      7512      7503      7501      7509      7510
      7503      7501      7509      7511      7503      7501      7509      7512
      7503      7504      7506      7507      7503      7504      7506      7508
      7503      7504      7506      7518      7504      7503      7501      7509
      7504      7506      7518      7519      7504      7506      7518      7520
      7504      7506      7518      7521      7505      7504      7506      7507
      7505      7504      7506      7508      7505      7504      7506      7518
      7506      7518      7521      7522      7506      7518      7521      7523
      7506      7518      7521      7524      7507      7506      7518      7519
      7507      7506      7518      7520      7507      7506      7518      7521
      7508      7506      7518      7519      7508      7506      7518      7520
      7508      7506      7518      7521      7509      7512      7513      7514
      7509      7512      7513      7515      7510      7509      7512      7513
      7511      7509      7512      7513      7512      7513      7515      7516
      7512      7513      7515      7517      7512      7513      7515      7565
      7513      7515      7565      7566      7513      7515      7565      7567
      7513      7515      7565      7568      7514      7513      7515      7516
      7514      7513      7515      7517      7514      7513      7515      7565
      7515      7565      7568      7569      7515      7565      7568      7570
      7515      7565      7568      7571      7516      7515      7565      7566
      7516      7515      7565      7567      7516      7515      7565      7568
      7517      7515      7565      7566      7517      7515      7565      7567
      7517      7515      7565      7568      7518      7521      7524      7525
      7518      7521      7524      7526      7519      7518      7521      7522
      7519      7518      7521      7523      7519      7518      7521      7524
      7520      7518      7521      7522      7520      7518      7521      7523
      7520      7518      7521      7524      7521      7524      7526      7527
      7521      7524      7526      7528      7522      7521      7524      7525
      7522      7521      7524      7526      7523      7521      7524      7525
      7523      7521      7524      7526      7524      7526      7528      7529
      7524      7526      7528      7530      7524      7526      7528      7531
      7525      7524      7526      7527      7525      7524      7526      7528
      7526      7528      7531      7532      7526      7528      7531      7533
      7527      7526      7528      7529      7527      7526      7528      7530
      7527      7526      7528      7531      7528      7531      7533      7534
      7528      7531      7533      7535      7529      7528      7531      7532
      7529      7528      7531      7533      7530      7528      7531      7532
      7530      7528      7531      7533      7531      7533      7535      7536
      7531      7533      7535      7537      7531      7533      7535      7538
      7532      7531      7533      7534      7532      7531      7533      7535
      7533      7535      7538      7539      7533      7535      7538      7540
      7534      7533      7535      7536      7534      7533      7535      7537
      7534      7533      7535      7538      7535      7538      7540      7541
      7535      7538      7540      7542      7536      7535      7538      7539
      7536      7535      7538      7540      7537      7535      7538      7539
      7537      7535      7538      7540      7538      7540      7542      7543
      7538      7540      7542      7544      7538      7540      7542      7545
      7539      7538      7540      7541      7539      7538      7540      7542
      7540      7542      7545      7546      7540      7542      7545      7547
      7541      7540      7542      7543      7541      7540      7542      7544
      7541      7540      7542      7545      7542      7545      7547      7548
      7542      7545      7547      7549      7543      7542      7545      7546
      7543      7542      7545      7547      7544      7542      7545      7546
      7544      7542      7545      7547      7545      7547      7549      7550
      7545      7547      7549      7551      7545      7547      7549      7552
      7546      7545      7547      7548      7546      7545      7547      7549
      7547      7549      7552      7553      7547      7549      7552      7554
      7547      7549      7552      7555      7548      7547      7549      7550
      7548      7547      7549      7551      7548      7547      7549      7552
      7549      7552      7555      7556      7549      7552      7555      7557
      7549      7552      7555      7558      7550      7549      7552      7553
      7550      7549      7552      7554      7550      7549      7552      7555
      7551      7549      7552      7553      7551      7549      7552      7554
      7551      7549      7552      7555      7552      7555      7558      7559
      7552      7555      7558      7560      7552      7555      7558      7561
      7553      7552      7555      7556      7553      7552      7555      7557
      7553      7552      7555      7558      7554      7552      7555      7556
      7554      7552      7555      7557      7554      7552      7555      7558
      7555      7558      7561      7562      7555      7558      7561      7563
      7555      7558      7561      7564      7556      7555      7558      7559
      7556      7555      7558      7560      7556      7555      7558      7561
      7557      7555      7558      7559      7557      7555      7558      7560
      7557      7555      7558      7561      7559      7558      7561      7562
      7559      7558      7561      7563      7559      7558      7561      7564
      7560      7558      7561      7562      7560      7558      7561      7563
      7560      7558      7561      7564      7565      7568      7571      7572
      7565      7568      7571      7573      7565      7568      7571      7574
      7566      7565      7568      7569      7566      7565      7568      7570
      7566      7565      7568      7571      7567      7565      7568      7569
      7567      7565      7568      7570      7567      7565      7568      7571
      7568      7571      7574      7575      7568      7571      7574      7576
      7568      7571      7574      7577      7569      7568      7571      7572
      7569      7568      7571      7573      7569      7568      7571      7574
      7570      7568      7571      7572      7570      7568      7571      7573
      7570      7568      7571      7574      7571      7574      7577      7578
      7571      7574      7577      7579      7571      7574      7577      7580
      7572      7571      7574      7575      7572      7571      7574      7576
      7572      7571      7574      7577      7573      7571      7574      7575
      7573      7571      7574      7576      7573      7571      7574      7577
      7574      7577      7580      7581      7574      7577      7580      7582
      7574      7577      7580      7583      7575      7574      7577      7578
      7575      7574      7577      7579      7575      7574      7577      7580
      7576      7574      7577      7578      7576      7574      7577      7579
      7576      7574      7577      7580      7577      7580      7583      7584
      7577      7580      7583      7585      7577      7580      7583      7586
      7578      7577      7580      7581      7578      7577      7580      7582
      7578      7577      7580      7583      7579      7577      7580      7581
      7579      7577      7580      7582      7579      7577      7580      7583
      7580      7583      7586      7587      7580      7583      7586      7588
      7580      7583      7586      7589      7581      7580      7583      7584
      7581      7580      7583      7585      7581      7580      7583      7586
      7582      7580      7583      7584      7582      7580      7583      7585
      7582      7580      7583      7586      7583      7586      7589      7590
      7583      7586      7589      7591      7583      7586      7589      7592
      7584      7583      7586      7587      7584      7583      7586      7588
      7584      7583      7586      7589      7585      7583      7586      7587
      7585      7583      7586      7588      7585      7583      7586      7589
      7586      7589      7592      7593      7586      7589      7592      7594
      7586      7589      7592      7595      7587      7586      7589      7590
      7587      7586      7589      7591      7587      7586      7589      7592
      7588      7586      7589      7590      7588      7586      7589      7591
      7588      7586      7589      7592      7589      7592      7595      7596
      7589      7592      7595      7597      7589      7592      7595      7598
      7590      7589      7592      7593      7590      7589      7592      7594
      7590      7589      7592      7595      7591      7589      7592      7593
      7591      7589      7592      7594      7591      7589      7592      7595
      7592      7595      7598      7599      7592      7595      7598      7600
      7592      7595      7598      7601      7593      7592      7595      7596
      7593      7592      7595      7597      7593      7592      7595      7598
      7594      7592      7595      7596      7594      7592      7595      7597
      7594      7592      7595      7598      7595      7598      7601      7602
      7595      7598      7601      7603      7595      7598      7601      7604
      7596      7595      7598      7599      7596      7595      7598      7600
      7596      7595      7598      7601      7597      7595      7598      7599
      7597      7595      7598      7600      7597      7595      7598      7601
      7598      7601      7604      7605      7598      7601      7604      7606
      7598      7601      7604      7607      7599      7598      7601      7602
      7599      7598      7601      7603      7599      7598      7601      7604
      7600      7598      7601      7602      7600      7598      7601      7603
      7600      7598      7601      7604      7601      7604      7607      7608
      7601      7604      7607      7609      7601      7604      7607      7610
      7602      7601      7604      7605      7602      7601      7604      7606
      7602      7601      7604      7607      7603      7601      7604      7605
      7603      7601      7604      7606      7603      7601      7604      7607
      7604      7607      7610      7611      7604      7607      7610      7612
      7604      7607      7610      7613      7605      7604      7607      7608
      7605      7604      7607      7609      7605      7604      7607      7610
      7606      7604      7607      7608      7606      7604      7607      7609
      7606      7604      7607      7610      7608      7607      7610      7611
      7608      7607      7610      7612      7608      7607      7610      7613
      7609      7607      7610      7611      7609      7607      7610      7612
      7609      7607      7610      7613      7614      7618      7620      7621
      7614      7618      7620      7622      7614      7618      7623      7624
      7614      7618      7623      7625      7614      7618      7623      7629
      7615      7614      7618      7619      7615      7614      7618      7620
      7615      7614      7618      7623      7616      7614      7618      7619
      7616      7614      7618      7620      7616      7614      7618      7623
      7617      7614      7618      7619      7617      7614      7618      7620
      7617      7614      7618      7623      7618      7623      7629      7626
      7619      7618      7620      7621      7619      7618      7620      7622
      7619      7618      7623      7624      7619      7618      7623      7625
      7619      7618      7623      7629      7620      7618      7623      7624
      7620      7618      7623      7625      7620      7618      7623      7629
      7621      7620      7618      7623      7622      7620      7618      7623
      7623      7629      7626      7627      7623      7629      7626      7628
      7623      7629      7626      7630      7624      7623      7629      7626
      7625      7623      7629      7626      7626      7630      7631      7632
      7626      7630      7631      7633      7626      7630      7631      7634
      7627      7626      7630      7631      7628      7626      7630      7631
      7629      7626      7630      7631      7630      7631      7634      7635
      7630      7631      7634      7636      7630      7631      7634      7642
      7631      7634      7636      7637      7631      7634      7642      7643
      7631      7634      7642      7644      7631      7634      7642      7645
      7632      7631      7634      7635      7632      7631      7634      7636
      7632      7631      7634      7642      7633      7631      7634      7635
      7633      7631      7634      7636      7633      7631      7634      7642
      7634      7636      7637      7638      7634      7636      7637      7639
      7634      7642      7645      7646      7635      7634      7636      7637
      7635      7634      7642      7643      7635      7634      7642      7644
      7635      7634      7642      7645      7636      7634      7642      7643
      7636      7634      7642      7644      7636      7634      7642      7645
      7636      7637      7639      7640      7636      7637      7639      7641
      7636      7637      7639      7651      7637      7636      7634      7642
      7637      7639      7651      7652      7637      7639      7651      7653
      7637      7639      7651      7654      7638      7637      7639      7640
      7638      7637      7639      7641      7638      7637      7639      7651
      7639      7651      7654      7655      7639      7651      7654      7656
      7639      7651      7654      7657      7640      7639      7651      7652
      7640      7639      7651      7653      7640      7639      7651      7654
      7641      7639      7651      7652      7641      7639      7651      7653
      7641      7639      7651      7654      7642      7645      7646      7647
      7642      7645      7646      7648      7643      7642      7645      7646
      7644      7642      7645      7646      7645      7646      7648      7649
      7645      7646      7648      7650      7645      7646      7648      7698
      7646      7648      7698      7699      7646      7648      7698      7700
      7646      7648      7698      7701      7647      7646      7648      7649
      7647      7646      7648      7650      7647      7646      7648      7698
      7648      7698      7701      7702      7648      7698      7701      7703
      7648      7698      7701      7704      7649      7648      7698      7699
      7649      7648      7698      7700      7649      7648      7698      7701
      7650      7648      7698      7699      7650      7648      7698      7700
      7650      7648      7698      7701      7651      7654      7657      7658
      7651      7654      7657      7659      7652      7651      7654      7655
      7652      7651      7654      7656      7652      7651      7654      7657
      7653      7651      7654      7655      7653      7651      7654      7656
      7653      7651      7654      7657      7654      7657      7659      7660
      7654      7657      7659      7661      7655      7654      7657      7658
      7655      7654      7657      7659      7656      7654      7657      7658
      7656      7654      7657      7659      7657      7659      7661      7662
      7657      7659      7661      7663      7657      7659      7661      7664
      7658      7657      7659      7660      7658      7657      7659      7661
      7659      7661      7664      7665      7659      7661      7664      7666
      7660      7659      7661      7662      7660      7659      7661      7663
      7660      7659      7661      7664      7661      7664      7666      7667
      7661      7664      7666      7668      7662      7661      7664      7665
      7662      7661      7664      7666      7663      7661      7664      7665
      7663      7661      7664      7666      7664      7666      7668      7669
      7664      7666      7668      7670      7664      7666      7668      7671
      7665      7664      7666      7667      7665      7664      7666      7668
      7666      7668      7671      7672      7666      7668      7671      7673
      7667      7666      7668      7669      7667      7666      7668      7670
      7667      7666      7668      7671      7668      7671      7673      7674
      7668      7671      7673      7675      7669      7668      7671      7672
      7669      7668      7671      7673      7670      7668      7671      7672
      7670      7668      7671      7673      7671      7673      7675      7676
      7671      7673      7675      7677      7671      7673      7675      7678
      7672      7671      7673      7674      7672      7671      7673      7675
      7673      7675      7678      7679      7673      7675      7678      7680
      7674      7673      7675      7676      7674      7673      7675      7677
      7674      7673      7675      7678      7675      7678      7680      7681
      7675      7678      7680      7682      7676      7675      7678      7679
      7676      7675      7678      7680      7677      7675      7678      7679
      7677      7675      7678      7680      7678      7680      7682      7683
      7678      7680      7682      7684      7678      7680      7682      7685
      7679      7678      7680      7681      7679      7678      7680      7682
      7680      7682      7685      7686      7680      7682      7685      7687
      7680      7682      7685      7688      7681      7680      7682      7683
      7681      7680      7682      7684      7681      7680      7682      7685
      7682      7685      7688      7689      7682      7685      7688      7690
      7682      7685      7688      7691      7683      7682      7685      7686
      7683      7682      7685      7687      7683      7682      7685      7688
      7684      7682      7685      7686      7684      7682      7685      7687
      7684      7682      7685      7688      7685      7688      7691      7692
      7685      7688      7691      7693      7685      7688      7691      7694
      7686      7685      7688      7689      7686      7685      7688      7690
      7686      7685      7688      7691      7687      7685      7688      7689
      7687      7685      7688      7690      7687      7685      7688      7691
      7688      7691      7694      7695      7688      7691      7694      7696
      7688      7691      7694      7697      7689      7688      7691      7692
      7689      7688      7691      7693      7689      7688      7691      7694
      7690      7688      7691      7692      7690      7688      7691      7693
      7690      7688      7691      7694      7692      7691      7694      7695
      7692      7691      7694      7696      7692      7691      7694      7697
      7693      7691      7694      7695      7693      7691      7694      7696
      7693      7691      7694      7697      7698      7701      7704      7705
      7698      7701      7704      7706      7698      7701      7704      7707
      7699      7698      7701      7702      7699      7698      7701      7703
      7699      7698      7701      7704      7700      7698      7701      7702
      7700      7698      7701      7703      7700      7698      7701      7704
      7701      7704      7707      7708      7701      7704      7707      7709
      7701      7704      7707      7710      7702      7701      7704      7705
      7702      7701      7704      7706      7702      7701      7704      7707
      7703      7701      7704      7705      7703      7701      7704      7706
      7703      7701      7704      7707      7704      7707      7710      7711
      7704      7707      7710      7712      7704      7707      7710      7713
      7705      7704      7707      7708      7705      7704      7707      7709
      7705      7704      7707      7710      7706      7704      7707      7708
      7706      7704      7707      7709      7706      7704      7707      7710
      7707      7710      7713      7714      7707      7710      7713      7715
      7707      7710      7713      7716      7708      7707      7710      7711
      7708      7707      7710      7712      7708      7707      7710      7713
      7709      7707      7710      7711      7709      7707      7710      7712
      7709      7707      7710      7713      7710      7713      7716      7717
      7710      7713      7716      7718      7710      7713      7716      7719
      7711      7710      7713      7714      7711      7710      7713      7715
      7711      7710      7713      7716      7712      7710      7713      7714
      7712      7710      7713      7715      7712      7710      7713      7716
      7713      7716      7719      7720      7713      7716      7719      7721
      7713      7716      7719      7722      7714      7713      7716      7717
      7714      7713      7716      7718      7714      7713      7716      7719
      7715      7713      7716      7717      7715      7713      7716      7718
      7715      7713      7716      7719      7716      7719      7722      7723
      7716      7719      7722      7724      7716      7719      7722      7725
      7717      7716      7719      7720      7717      7716      7719      7721
      7717      7716      7719      7722      7718      7716      7719      7720
      7718      7716      7719      7721      7718      7716      7719      7722
      7719      7722      7725      7726      7719      7722      7725      7727
      7719      7722      7725      7728      7720      7719      7722      7723
      7720      7719      7722      7724      7720      7719      7722      7725
      7721      7719      7722      7723      7721      7719      7722      7724
      7721      7719      7722      7725      7722      7725      7728      7729
      7722      7725      7728      7730      7722      7725      7728      7731
      7723      7722      7725      7726      7723      7722      7725      7727
      7723      7722      7725      7728      7724      7722      7725      7726
      7724      7722      7725      7727      7724      7722      7725      7728
      7725      7728      7731      7732      7725      7728      7731      7733
      7725      7728      7731      7734      7726      7725      7728      7729
      7726      7725      7728      7730      7726      7725      7728      7731
      7727      7725      7728      7729      7727      7725      7728      7730
      7727      7725      7728      7731      7728      7731      7734      7735
      7728      7731      7734      7736      7728      7731      7734      7737
      7729      7728      7731      7732      7729      7728      7731      7733
      7729      7728      7731      7734      7730      7728      7731      7732
      7730      7728      7731      7733      7730      7728      7731      7734
      7731      7734      7737      7738      7731      7734      7737      7739
      7731      7734      7737      7740      7732      7731      7734      7735
      7732      7731      7734      7736      7732      7731      7734      7737
      7733      7731      7734      7735      7733      7731      7734      7736
      7733      7731      7734      7737      7734      7737      7740      7741
      7734      7737      7740      7742      7734      7737      7740      7743
      7735      7734      7737      7738      7735      7734      7737      7739
      7735      7734      7737      7740      7736      7734      7737      7738
      7736      7734      7737      7739      7736      7734      7737      7740
      7737      7740      7743      7744      7737      7740      7743      7745
      7737      7740      7743      7746      7738      7737      7740      7741
      7738      7737      7740      7742      7738      7737      7740      7743
      7739      7737      7740      7741      7739      7737      7740      7742
      7739      7737      7740      7743      7741      7740      7743      7744
      7741      7740      7743      7745      7741      7740      7743      7746
      7742      7740      7743      7744      7742      7740      7743      7745
      7742      7740      7743      7746        75        79        82        83
        75        79        82       113        75       121       118       113
        75       121       118       119        75       121       118       120
        76        75        77        78        76        75        79        80
        76        75        79        81        76        75        79        82
        76        75       121       118        76        75       121       122
        76        75       121       123        77        75        79        80
        77        75        79        81        77        75        79        82
        77        75       121       118        77        75       121       122
        77        75       121       123        78        77        75        79
        78        77        75       121        79        75       121       118
        79        75       121       122        79        75       121       123
        79        82        83        84        79        82        83        85
        79        82       113       111        79        82       113       114
        79        82       113       118        80        79        75       121
        80        79        82        83        80        79        82       113
        81        79        75       121        81        79        82        83
        81        79        82       113        82        79        75       121
        82        83        85        86        82        83        85        87
        82        83        85        88        82       113       111        88
        82       113       111       108        82       113       111       112
        82       113       114       115        82       113       114       116
        82       113       114       117        82       113       118       119
        82       113       118       120        82       113       118       121
        83        82       113       111        83        82       113       114
        83        82       113       118        83        85        88        89
        83        85        88        90        83        85        88       111
        84        83        82       113        84        83        85        86
        84        83        85        87        84        83        85        88
        85        83        82       113        85        88        90        91
        85        88        90        92        85        88        90       100
        85        88       111       108        85        88       111       112
        85        88       111       113        86        85        88        89
        86        85        88        90        86        85        88       111
        87        85        88        89        87        85        88        90
        87        85        88       111        88        90        92        93
        88        90        92        94        88        90        92        95
        88        90       100        98        88        90       100       101
        88        90       100       105        88       111       108       105
        88       111       108       109        88       111       108       110
        88       111       113       114        88       111       113       118
        89        88        90        91        89        88        90        92
        89        88        90       100        89        88       111       108
        89        88       111       112        89        88       111       113
        90        88       111       108        90        88       111       112
        90        88       111       113        90        92        95        96
        90        92        95        97        90        92        95        98
        90       100        98        95        90       100        98        99
        90       100        98       124        90       100       101       102
        90       100       101       103        90       100       101       104
        90       100       105       106        90       100       105       107
        90       100       105       108        91        90        88       111
        91        90        92        93        91        90        92        94
        91        90        92        95        91        90       100        98
        91        90       100       101        91        90       100       105
        92        90        88       111        92        90       100        98
        92        90       100       101        92        90       100       105
        92        95        98        99        92        95        98       100
        92        95        98       124        93        92        90       100
        93        92        95        96        93        92        95        97
        93        92        95        98        94        92        90       100
        94        92        95        96        94        92        95        97
        94        92        95        98        95        92        90       100
        95        98       100       101        95        98       100       105
        95        98       124       125        95        98       124       126
        95        98       124       130        96        95        98        99
        96        95        98       100        96        95        98       124
        97        95        98        99        97        95        98       100
        97        95        98       124        98       100       101       102
        98       100       101       103        98       100       101       104
        98       100       105       106        98       100       105       107
        98       100       105       108        98       124       126       127
        98       124       126       128        98       124       126       129
        98       124       130       131        98       124       130       132
        98       124       130       133        99        98       100       101
        99        98       100       105        99        98       124       125
        99        98       124       126        99        98       124       130
       100        90        88       111       100        98       124       125
       100        98       124       126       100        98       124       130
       100       105       108       109       100       105       108       110
       100       105       108       111       101       100        98       124
       101       100       105       106       101       100       105       107
       101       100       105       108       102       101       100       105
       103       101       100       105       104       101       100       105
       105       100        98       124       105       108       111       112
       105       108       111       113       106       105       108       109
       106       105       108       110       106       105       108       111
       107       105       108       109       107       105       108       110
       107       105       108       111       108       111       113       114
       108       111       113       118       109       108       111       112
       109       108       111       113       110       108       111       112
       110       108       111       113       111       113       114       115
       111       113       114       116       111       113       114       117
       111       113       118       119       111       113       118       120
       111       113       118       121       112       111       113       114
       112       111       113       118       113       118       121       122
       113       118       121       123       114       113       118       119
       114       113       118       120       114       113       118       121
       115       114       113       118       116       114       113       118
       117       114       113       118       119       118       121       122
       119       118       121       123       120       118       121       122
       120       118       121       123       124       130       133       134
       124       130       133       135       124       130       133       136
       125       124       126       127       125       124       126       128
       125       124       126       129       125       124       130       131
       125       124       130       132       125       124       130       133
       126       124       130       131       126       124       130       132
       126       124       130       133       127       126       124       130
       128       126       124       130       129       126       124       130
       130       133       136       137       130       133       136       138
       130       133       136       139       131       130       133       134
       131       130       133       135       131       130       133       136
       132       130       133       134       132       130       133       135
       132       130       133       136       133       136       139       140
       133       136       139       141       133       136       139       145
       134       133       136       137       134       133       136       138
       134       133       136       139       135       133       136       137
       135       133       136       138       135       133       136       139
       136       139       141       142       136       139       141       143
       136       139       141       144       136       139       145       146
       136       139       145       147       136       139       145       148
       137       136       139       140       137       136       139       141
       137       136       139       145       138       136       139       140
       138       136       139       141       138       136       139       145
       140       139       141       142       140       139       141       143
       140       139       141       144       140       139       145       146
       140       139       145       147       140       139       145       148
       141       139       145       146       141       139       145       147
       141       139       145       148       142       141       139       145
       143       141       139       145       144       141       139       145
      5963      5976      5979      5980      5963      5976      5979      5981
      5963      5976      5979      5985      5964      5963      5968      5969
      5964      5963      5968      5970      5964      5963      5968      5971
      5964      5963      5972      5973      5964      5963      5972      5974
      5964      5963      5972      5975      5964      5963      5976      5977
      5964      5963      5976      5978      5964      5963      5976      5979
      5965      5964      5963      5968      5965      5964      5963      5972
      5965      5964      5963      5976      5966      5964      5963      5968
      5966      5964      5963      5972      5966      5964      5963      5976
      5967      5964      5963      5968      5967      5964      5963      5972
      5967      5964      5963      5976      5968      5963      5972      5973
      5968      5963      5972      5974      5968      5963      5972      5975
      5968      5963      5976      5977      5968      5963      5976      5978
      5968      5963      5976      5979      5969      5968      5963      5972
      5969      5968      5963      5976      5970      5968      5963      5972
      5970      5968      5963      5976      5971      5968      5963      5972
      5971      5968      5963      5976      5972      5963      5976      5977
      5972      5963      5976      5978      5972      5963      5976      5979
      5973      5972      5963      5976      5974      5972      5963      5976
      5975      5972      5963      5976      5976      5979      5985      5982
      5977      5976      5979      5980      5977      5976      5979      5981
      5977      5976      5979      5985      5978      5976      5979      5980
      5978      5976      5979      5981      5978      5976      5979      5985
      5979      5985      5982      5983      5979      5985      5982      5984
      5979      5985      5982      5986      5980      5979      5985      5982
      5981      5979      5985      5982      5982      5986      5987      5988
      5982      5986      5987      5989      5982      5986      5987      5990
      5983      5982      5986      5987      5984      5982      5986      5987
      5985      5982      5986      5987      5986      5987      5990      5991
      5986      5987      5990      5992      5986      5987      5990      5998
      5987      5990      5992      5993      5987      5990      5998      5999
      5987      5990      5998      6000      5987      5990      5998      6001
      5988      5987      5990      5991      5988      5987      5990      5992
      5988      5987      5990      5998      5989      5987      5990      5991
      5989      5987      5990      5992      5989      5987      5990      5998
      5990      5992      5993      5994      5990      5992      5993      5995
      5990      5998      6001      6002      5991      5990      5992      5993
      5991      5990      5998      5999      5991      5990      5998      6000
      5991      5990      5998      6001      5992      5990      5998      5999
      5992      5990      5998      6000      5992      5990      5998      6001
      5992      5993      5995      5996      5992      5993      5995      5997
      5992      5993      5995      6007      5993      5992      5990      5998
      5993      5995      6007      6008      5993      5995      6007      6009
      5993      5995      6007      6010      5994      5993      5995      5996
      5994      5993      5995      5997      5994      5993      5995      6007
      5995      6007      6010      6011      5995      6007      6010      6012
      5995      6007      6010      6013      5996      5995      6007      6008
      5996      5995      6007      6009      5996      5995      6007      6010
      5997      5995      6007      6008      5997      5995      6007      6009
      5997      5995      6007      6010      5998      6001      6002      6003
      5998      6001      6002      6004      5999      5998      6001      6002
      6000      5998      6001      6002      6001      6002      6004      6005
      6001      6002      6004      6006      6001      6002      6004      6052
      6002      6004      6052      6053      6002      6004      6052      6054
      6002      6004      6052      6055      6003      6002      6004      6005
      6003      6002      6004      6006      6003      6002      6004      6052
      6004      6052      6055      6056      6004      6052      6055      6057
      6004      6052      6055      6058      6005      6004      6052      6053
      6005      6004      6052      6054      6005      6004      6052      6055
      6006      6004      6052      6053      6006      6004      6052      6054
      6006      6004      6052      6055      6007      6010      6013      6014
      6007      6010      6013      6015      6007      6010      6013      6016
      6008      6007      6010      6011      6008      6007      6010      6012
      6008      6007      6010      6013      6009      6007      6010      6011
      6009      6007      6010      6012      6009      6007      6010      6013
      6010      6013      6016      6017      6010      6013      6016      6018
      6010      6013      6016      6019      6011      6010      6013      6014
      6011      6010      6013      6015      6011      6010      6013      6016
      6012      6010      6013      6014      6012      6010      6013      6015
      6012      6010      6013      6016      6013      6016      6019      6020
      6013      6016      6019      6021      6013      6016      6019      6022
      6014      6013      6016      6017      6014      6013      6016      6018
      6014      6013      6016      6019      6015      6013      6016      6017
      6015      6013      6016      6018      6015      6013      6016      6019
      6016      6019      6022      6023      6016      6019      6022      6024
      6016      6019      6022      6025      6017      6016      6019      6020
      6017      6016      6019      6021      6017      6016      6019      6022
      6018      6016      6019      6020      6018      6016      6019      6021
      6018      6016      6019      6022      6019      6022      6025      6026
      6019      6022      6025      6027      6020      6019      6022      6023
      6020      6019      6022      6024      6020      6019      6022      6025
      6021      6019      6022      6023      6021      6019      6022      6024
      6021      6019      6022      6025      6022      6025      6027      6028
      6022      6025      6027      6029      6023      6022      6025      6026
      6023      6022      6025      6027      6024      6022      6025      6026
      6024      6022      6025      6027      6025      6027      6029      6030
      6025      6027      6029      6031      6025      6027      6029      6032
      6026      6025      6027      6028      6026      6025      6027      6029
      6027      6029      6032      6033      6027      6029      6032      6034
      6028      6027      6029      6030      6028      6027      6029      6031
      6028      6027      6029      6032      6029      6032      6034      6035
      6029      6032      6034      6036      6030      6029      6032      6033
      6030      6029      6032      6034      6031      6029      6032      6033
      6031      6029      6032      6034      6032      6034      6036      6037
      6032      6034      6036      6038      6032      6034      6036      6039
      6033      6032      6034      6035      6033      6032      6034      6036
      6034      6036      6039      6040      6034      6036      6039      6041
      6034      6036      6039      6042      6035      6034      6036      6037
      6035      6034      6036      6038      6035      6034      6036      6039
      6036      6039      6042      6043      6036      6039      6042      6044
      6036      6039      6042      6045      6037      6036      6039      6040
      6037      6036      6039      6041      6037      6036      6039      6042
      6038      6036      6039      6040      6038      6036      6039      6041
      6038      6036      6039      6042      6039      6042      6045      6046
      6039      6042      6045      6047      6039      6042      6045      6048
      6040      6039      6042      6043      6040      6039      6042      6044
      6040      6039      6042      6045      6041      6039      6042      6043
      6041      6039      6042      6044      6041      6039      6042      6045
      6042      6045      6048      6049      6042      6045      6048      6050
      6042      6045      6048      6051      6043      6042      6045      6046
      6043      6042      6045      6047      6043      6042      6045      6048
      6044      6042      6045      6046      6044      6042      6045      6047
      6044      6042      6045      6048      6046      6045      6048      6049
      6046      6045      6048      6050      6046      6045      6048      6051
      6047      6045      6048      6049      6047      6045      6048      6050
      6047      6045      6048      6051      6052      6055      6058      6059
      6052      6055      6058      6060      6052      6055      6058      6061
      6053      6052      6055      6056      6053      6052      6055      6057
      6053      6052      6055      6058      6054      6052      6055      6056
      6054      6052      6055      6057      6054      6052      6055      6058
      6055      6058      6061      6062      6055      6058      6061      6063
      6055      6058      6061      6064      6056      6055      6058      6059
      6056      6055      6058      6060      6056      6055      6058      6061
      6057      6055      6058      6059      6057      6055      6058      6060
      6057      6055      6058      6061      6058      6061      6064      6065
      6058      6061      6064      6066      6058      6061      6064      6067
      6059      6058      6061      6062      6059      6058      6061      6063
      6059      6058      6061      6064      6060      6058      6061      6062
      6060      6058      6061      6063      6060      6058      6061      6064
      6061      6064      6067      6068      6061      6064      6067      6069
      6061      6064      6067      6070      6062      6061      6064      6065
      6062      6061      6064      6066      6062      6061      6064      6067
      6063      6061      6064      6065      6063      6061      6064      6066
      6063      6061      6064      6067      6064      6067      6070      6071
      6064      6067      6070      6072      6064      6067      6070      6073
      6065      6064      6067      6068      6065      6064      6067      6069
      6065      6064      6067      6070      6066      6064      6067      6068
      6066      6064      6067      6069      6066      6064      6067      6070
      6067      6070      6073      6074      6067      6070      6073      6075
      6067      6070      6073      6076      6068      6067      6070      6071
      6068      6067      6070      6072      6068      6067      6070      6073
      6069      6067      6070      6071      6069      6067      6070      6072
      6069      6067      6070      6073      6070      6073      6076      6077
      6070      6073      6076      6078      6070      6073      6076      6079
      6071      6070      6073      6074      6071      6070      6073      6075
      6071      6070      6073      6076      6072      6070      6073      6074
      6072      6070      6073      6075      6072      6070      6073      6076
      6073      6076      6079      6080      6073      6076      6079      6081
      6073      6076      6079      6082      6074      6073      6076      6077
      6074      6073      6076      6078      6074      6073      6076      6079
      6075      6073      6076      6077      6075      6073      6076      6078
      6075      6073      6076      6079      6076      6079      6082      6083
      6076      6079      6082      6084      6076      6079      6082      6085
      6077      6076      6079      6080      6077      6076      6079      6081
      6077      6076      6079      6082      6078      6076      6079      6080
      6078      6076      6079      6081      6078      6076      6079      6082
      6079      6082      6085      6086      6079      6082      6085      6087
      6079      6082      6085      6088      6080      6079      6082      6083
      6080      6079      6082      6084      6080      6079      6082      6085
      6081      6079      6082      6083      6081      6079      6082      6084
      6081      6079      6082      6085      6082      6085      6088      6089
      6082      6085      6088      6090      6082      6085      6088      6091
      6083      6082      6085      6086      6083      6082      6085      6087
      6083      6082      6085      6088      6084      6082      6085      6086
      6084      6082      6085      6087      6084      6082      6085      6088
      6085      6088      6091      6092      6085      6088      6091      6093
      6085      6088      6091      6094      6086      6085      6088      6089
      6086      6085      6088      6090      6086      6085      6088      6091
      6087      6085      6088      6089      6087      6085      6088      6090
      6087      6085      6088      6091      6088      6091      6094      6095
      6088      6091      6094      6096      6088      6091      6094      6097
      6089      6088      6091      6092      6089      6088      6091      6093
      6089      6088      6091      6094      6090      6088      6091      6092
      6090      6088      6091      6093      6090      6088      6091      6094
      6091      6094      6097      6098      6091      6094      6097      6099
      6091      6094      6097      6100      6092      6091      6094      6095
      6092      6091      6094      6096      6092      6091      6094      6097
      6093      6091      6094      6095      6093      6091      6094      6096
      6093      6091      6094      6097      6095      6094      6097      6098
      6095      6094      6097      6099      6095      6094      6097      6100
      6096      6094      6097      6098      6096      6094      6097      6099
      6096      6094      6097      6100     10141     10154     10157     10158
     10141     10154     10157     10159     10141     10154     10157     10164
     10142     10141     10146     10147     10142     10141     10146     10148
     10142     10141     10146     10149     10142     10141     10150     10151
     10142     10141     10150     10152     10142     10141     10150     10153
     10142     10141     10154     10155     10142     10141     10154     10156
     10142     10141     10154     10157     10143     10142     10141     10146
     10143     10142     10141     10150     10143     10142     10141     10154
     10144     10142     10141     10146     10144     10142     10141     10150
     10144     10142     10141     10154     10145     10142     10141     10146
     10145     10142     10141     10150     10145     10142     10141     10154
     10146     10141     10150     10151     10146     10141     10150     10152
     10146     10141     10150     10153     10146     10141     10154     10155
     10146     10141     10154     10156     10146     10141     10154     10157
     10147     10146     10141     10150     10147     10146     10141     10154
     10148     10146     10141     10150     10148     10146     10141     10154
     10149     10146     10141     10150     10149     10146     10141     10154
     10150     10141     10154     10155     10150     10141     10154     10156
     10150     10141     10154     10157     10151     10150     10141     10154
     10152     10150     10141     10154     10153     10150     10141     10154
     10154     10157     10164     10160     10155     10154     10157     10158
     10155     10154     10157     10159     10155     10154     10157     10164
     10156     10154     10157     10158     10156     10154     10157     10159
     10156     10154     10157     10164     10157     10164     10160     10161
     10157     10164     10160     10162     10157     10164     10160     10163
     10158     10157     10164     10160     10159     10157     10164     10160
     10160     10163     10165     10166     10160     10163     10165     10167
     10160     10163     10165     10170     10161     10160     10163     10165
     10162     10160     10163     10165     10163     10165     10170     10168
     10163     10165     10170     10171     10163     10165     10170     10172
     10164     10160     10163     10165     10165     10170     10168     10169
     10165     10170     10168     10220     10165     10170     10172     10173
     10165     10170     10172     10174     10165     10170     10172     10176
     10166     10165     10170     10168     10166     10165     10170     10171
     10166     10165     10170     10172     10167     10165     10170     10168
     10167     10165     10170     10171     10167     10165     10170     10172
     10168     10170     10172     10173     10168     10170     10172     10174
     10168     10170     10172     10176     10168     10220     10222     10223
     10168     10220     10222     10224     10168     10220     10222     10225
     10169     10168     10170     10171     10169     10168     10170     10172
     10169     10168     10220     10221     10169     10168     10220     10222
     10170     10168     10220     10221     10170     10168     10220     10222
     10170     10172     10174     10175     10170     10172     10176     10177
     10170     10172     10176     10178     10171     10170     10168     10220
     10171     10170     10172     10173     10171     10170     10172     10174
     10171     10170     10172     10176     10172     10170     10168     10220
     10172     10176     10178     10179     10172     10176     10178     10180
     10173     10172     10174     10175     10173     10172     10176     10177
     10173     10172     10176     10178     10174     10172     10176     10177
     10174     10172     10176     10178     10175     10174     10172     10176
     10176     10178     10180     10181     10176     10178     10180     10182
     10176     10178     10180     10183     10177     10176     10178     10179
     10177     10176     10178     10180     10178     10180     10183     10184
     10178     10180     10183     10185     10178     10180     10183     10186
     10179     10178     10180     10181     10179     10178     10180     10182
     10179     10178     10180     10183     10180     10183     10186     10187
     10180     10183     10186     10188     10180     10183     10186     10189
     10181     10180     10183     10184     10181     10180     10183     10185
     10181     10180     10183     10186     10182     10180     10183     10184
     10182     10180     10183     10185     10182     10180     10183     10186
     10183     10186     10189     10190     10183     10186     10189     10191
     10183     10186     10189     10192     10184     10183     10186     10187
     10184     10183     10186     10188     10184     10183     10186     10189
     10185     10183     10186     10187     10185     10183     10186     10188
     10185     10183     10186     10189     10186     10189     10192     10193
     10186     10189     10192     10194     10186     10189     10192     10195
     10187     10186     10189     10190     10187     10186     10189     10191
     10187     10186     10189     10192     10188     10186     10189     10190
     10188     10186     10189     10191     10188     10186     10189     10192
     10189     10192     10195     10196     10189     10192     10195     10197
     10189     10192     10195     10198     10190     10189     10192     10193
     10190     10189     10192     10194     10190     10189     10192     10195
     10191     10189     10192     10193     10191     10189     10192     10194
     10191     10189     10192     10195     10192     10195     10198     10199
     10192     10195     10198     10200     10192     10195     10198     10201
     10193     10192     10195     10196     10193     10192     10195     10197
     10193     10192     10195     10198     10194     10192     10195     10196
     10194     10192     10195     10197     10194     10192     10195     10198
     10195     10198     10201     10202     10195     10198     10201     10203
     10195     10198     10201     10204     10196     10195     10198     10199
     10196     10195     10198     10200     10196     10195     10198     10201
     10197     10195     10198     10199     10197     10195     10198     10200
     10197     10195     10198     10201     10198     10201     10204     10205
     10198     10201     10204     10206     10198     10201     10204     10207
     10199     10198     10201     10202     10199     10198     10201     10203
     10199     10198     10201     10204     10200     10198     10201     10202
     10200     10198     10201     10203     10200     10198     10201     10204
     10201     10204     10207     10208     10201     10204     10207     10209
     10201     10204     10207     10210     10202     10201     10204     10205
     10202     10201     10204     10206     10202     10201     10204     10207
     10203     10201     10204     10205     10203     10201     10204     10206
     10203     10201     10204     10207     10204     10207     10210     10211
     10204     10207     10210     10212     10204     10207     10210     10213
     10205     10204     10207     10208     10205     10204     10207     10209
     10205     10204     10207     10210     10206     10204     10207     10208
     10206     10204     10207     10209     10206     10204     10207     10210
     10207     10210     10213     10214     10207     10210     10213     10215
     10207     10210     10213     10216     10208     10207     10210     10211
     10208     10207     10210     10212     10208     10207     10210     10213
     10209     10207     10210     10211     10209     10207     10210     10212
     10209     10207     10210     10213     10210     10213     10216     10217
     10210     10213     10216     10218     10210     10213     10216     10219
     10211     10210     10213     10214     10211     10210     10213     10215
     10211     10210     10213     10216     10212     10210     10213     10214
     10212     10210     10213     10215     10212     10210     10213     10216
     10214     10213     10216     10217     10214     10213     10216     10218
     10214     10213     10216     10219     10215     10213     10216     10217
     10215     10213     10216     10218     10215     10213     10216     10219
     10220     10222     10225     10226     10220     10222     10225     10227
     10220     10222     10225     10228     10221     10220     10222     10223
     10221     10220     10222     10224     10221     10220     10222     10225
     10222     10225     10228     10229     10222     10225     10228     10230
     10222     10225     10228     10231     10223     10222     10225     10226
     10223     10222     10225     10227     10223     10222     10225     10228
     10224     10222     10225     10226     10224     10222     10225     10227
     10224     10222     10225     10228     10225     10228     10231     10232
     10225     10228     10231     10233     10225     10228     10231     10234
     10226     10225     10228     10229     10226     10225     10228     10230
     10226     10225     10228     10231     10227     10225     10228     10229
     10227     10225     10228     10230     10227     10225     10228     10231
     10228     10231     10234     10235     10228     10231     10234     10236
     10228     10231     10234     10237     10229     10228     10231     10232
     10229     10228     10231     10233     10229     10228     10231     10234
     10230     10228     10231     10232     10230     10228     10231     10233
     10230     10228     10231     10234     10231     10234     10237     10238
     10231     10234     10237     10239     10231     10234     10237     10240
     10232     10231     10234     10235     10232     10231     10234     10236
     10232     10231     10234     10237     10233     10231     10234     10235
     10233     10231     10234     10236     10233     10231     10234     10237
     10234     10237     10240     10241     10234     10237     10240     10242
     10234     10237     10240     10243     10235     10234     10237     10238
     10235     10234     10237     10239     10235     10234     10237     10240
     10236     10234     10237     10238     10236     10234     10237     10239
     10236     10234     10237     10240     10237     10240     10243     10244
     10237     10240     10243     10245     10238     10237     10240     10241
     10238     10237     10240     10242     10238     10237     10240     10243
     10239     10237     10240     10241     10239     10237     10240     10242
     10239     10237     10240     10243     10240     10243     10245     10246
     10240     10243     10245     10247     10241     10240     10243     10244
     10241     10240     10243     10245     10242     10240     10243     10244
     10242     10240     10243     10245     10243     10245     10247     10248
     10243     10245     10247     10249     10243     10245     10247     10250
     10244     10243     10245     10246     10244     10243     10245     10247
     10245     10247     10250     10251     10245     10247     10250     10252
     10245     10247     10250     10253     10246     10245     10247     10248
     10246     10245     10247     10249     10246     10245     10247     10250
     10247     10250     10253     10254     10247     10250     10253     10255
     10247     10250     10253     10256     10248     10247     10250     10251
     10248     10247     10250     10252     10248     10247     10250     10253
     10249     10247     10250     10251     10249     10247     10250     10252
     10249     10247     10250     10253     10250     10253     10256     10257
     10250     10253     10256     10258     10250     10253     10256     10259
     10251     10250     10253     10254     10251     10250     10253     10255
     10251     10250     10253     10256     10252     10250     10253     10254
     10252     10250     10253     10255     10252     10250     10253     10256
     10253     10256     10259     10260     10253     10256     10259     10261
     10253     10256     10259     10262     10254     10253     10256     10257
     10254     10253     10256     10258     10254     10253     10256     10259
     10255     10253     10256     10257     10255     10253     10256     10258
     10255     10253     10256     10259     10256     10259     10262     10263
     10256     10259     10262     10264     10256     10259     10262     10265
     10257     10256     10259     10260     10257     10256     10259     10261
     10257     10256     10259     10262     10258     10256     10259     10260
     10258     10256     10259     10261     10258     10256     10259     10262
     10259     10262     10265     10266     10259     10262     10265     10267
     10259     10262     10265     10268     10260     10259     10262     10263
     10260     10259     10262     10264     10260     10259     10262     10265
     10261     10259     10262     10263     10261     10259     10262     10264
     10261     10259     10262     10265     10262     10265     10268     10269
     10262     10265     10268     10270     10262     10265     10268     10271
     10263     10262     10265     10266     10263     10262     10265     10267
     10263     10262     10265     10268     10264     10262     10265     10266
     10264     10262     10265     10267     10264     10262     10265     10268
     10266     10265     10268     10269     10266     10265     10268     10270
     10266     10265     10268     10271     10267     10265     10268     10269
     10267     10265     10268     10270     10267     10265     10268     10271
     15905     15909     15912     15913     15905     15909     15912     15914
     15905     15909     15912     15918     15906     15905     15909     15910
     15906     15905     15909     15911     15906     15905     15909     15912
     15907     15905     15909     15910     15907     15905     15909     15911
     15907     15905     15909     15912     15908     15905     15909     15910
     15908     15905     15909     15911     15908     15905     15909     15912
     15909     15912     15918     15915     15910     15909     15912     15913
     15910     15909     15912     15914     15910     15909     15912     15918
     15911     15909     15912     15913     15911     15909     15912     15914
     15911     15909     15912     15918     15912     15918     15915     15916
     15912     15918     15915     15917     15912     15918     15915     15919
     15913     15912     15918     15915     15914     15912     15918     15915
     15915     15919     15920     15921     15915     15919     15920     15922
     15915     15919     15920     15923     15916     15915     15919     15920
     15917     15915     15919     15920     15918     15915     15919     15920
     15919     15920     15923     15924     15919     15920     15923     15925
     15919     15920     15923     15931     15920     15923     15925     15926
     15920     15923     15931     15932     15920     15923     15931     15933
     15920     15923     15931     15934     15921     15920     15923     15924
     15921     15920     15923     15925     15921     15920     15923     15931
     15922     15920     15923     15924     15922     15920     15923     15925
     15922     15920     15923     15931     15923     15925     15926     15927
     15923     15925     15926     15928     15923     15931     15934     15935
     15924     15923     15925     15926     15924     15923     15931     15932
     15924     15923     15931     15933     15924     15923     15931     15934
     15925     15923     15931     15932     15925     15923     15931     15933
     15925     15923     15931     15934     15925     15926     15928     15929
     15925     15926     15928     15930     15925     15926     15928     15940
     15926     15925     15923     15931     15926     15928     15940     15941
     15926     15928     15940     15942     15926     15928     15940     15943
     15927     15926     15928     15929     15927     15926     15928     15930
     15927     15926     15928     15940     15928     15940     15943     15944
     15928     15940     15943     15945     15928     15940     15943     15946
     15929     15928     15940     15941     15929     15928     15940     15942
     15929     15928     15940     15943     15930     15928     15940     15941
     15930     15928     15940     15942     15930     15928     15940     15943
     15931     15934     15935     15936     15931     15934     15935     15937
     15932     15931     15934     15935     15933     15931     15934     15935
     15934     15935     15937     15938     15934     15935     15937     15939
     15934     15935     15937     15987     15935     15937     15987     15988
     15935     15937     15987     15989     15935     15937     15987     15990
     15936     15935     15937     15938     15936     15935     15937     15939
     15936     15935     15937     15987     15937     15987     15990     15991
     15937     15987     15990     15992     15937     15987     15990     15993
     15938     15937     15987     15988     15938     15937     15987     15989
     15938     15937     15987     15990     15939     15937     15987     15988
     15939     15937     15987     15989     15939     15937     15987     15990
     15940     15943     15946     15947     15940     15943     15946     15948
     15941     15940     15943     15944     15941     15940     15943     15945
     15941     15940     15943     15946     15942     15940     15943     15944
     15942     15940     15943     15945     15942     15940     15943     15946
     15943     15946     15948     15949     15943     15946     15948     15950
     15944     15943     15946     15947     15944     15943     15946     15948
     15945     15943     15946     15947     15945     15943     15946     15948
     15946     15948     15950     15951     15946     15948     15950     15952
     15946     15948     15950     15953     15947     15946     15948     15949
     15947     15946     15948     15950     15948     15950     15953     15954
     15948     15950     15953     15955     15949     15948     15950     15951
     15949     15948     15950     15952     15949     15948     15950     15953
     15950     15953     15955     15956     15950     15953     15955     15957
     15951     15950     15953     15954     15951     15950     15953     15955
     15952     15950     15953     15954     15952     15950     15953     15955
     15953     15955     15957     15958     15953     15955     15957     15959
     15953     15955     15957     15960     15954     15953     15955     15956
     15954     15953     15955     15957     15955     15957     15960     15961
     15955     15957     15960     15962     15956     15955     15957     15958
     15956     15955     15957     15959     15956     15955     15957     15960
     15957     15960     15962     15963     15957     15960     15962     15964
     15958     15957     15960     15961     15958     15957     15960     15962
     15959     15957     15960     15961     15959     15957     15960     15962
     15960     15962     15964     15965     15960     15962     15964     15966
     15960     15962     15964     15967     15961     15960     15962     15963
     15961     15960     15962     15964     15962     15964     15967     15968
     15962     15964     15967     15969     15963     15962     15964     15965
     15963     15962     15964     15966     15963     15962     15964     15967
     15964     15967     15969     15970     15964     15967     15969     15971
     15965     15964     15967     15968     15965     15964     15967     15969
     15966     15964     15967     15968     15966     15964     15967     15969
     15967     15969     15971     15972     15967     15969     15971     15973
     15967     15969     15971     15974     15968     15967     15969     15970
     15968     15967     15969     15971     15969     15971     15974     15975
     15969     15971     15974     15976     15969     15971     15974     15977
     15970     15969     15971     15972     15970     15969     15971     15973
     15970     15969     15971     15974     15971     15974     15977     15978
     15971     15974     15977     15979     15971     15974     15977     15980
     15972     15971     15974     15975     15972     15971     15974     15976
     15972     15971     15974     15977     15973     15971     15974     15975
     15973     15971     15974     15976     15973     15971     15974     15977
     15974     15977     15980     15981     15974     15977     15980     15982
     15974     15977     15980     15983     15975     15974     15977     15978
     15975     15974     15977     15979     15975     15974     15977     15980
     15976     15974     15977     15978     15976     15974     15977     15979
     15976     15974     15977     15980     15977     15980     15983     15984
     15977     15980     15983     15985     15977     15980     15983     15986
     15978     15977     15980     15981     15978     15977     15980     15982
     15978     15977     15980     15983     15979     15977     15980     15981
     15979     15977     15980     15982     15979     15977     15980     15983
     15981     15980     15983     15984     15981     15980     15983     15985
     15981     15980     15983     15986     15982     15980     15983     15984
     15982     15980     15983     15985     15982     15980     15983     15986
     15987     15990     15993     15994     15987     15990     15993     15995
     15987     15990     15993     15996     15988     15987     15990     15991
     15988     15987     15990     15992     15988     15987     15990     15993
     15989     15987     15990     15991     15989     15987     15990     15992
     15989     15987     15990     15993     15990     15993     15996     15997
     15990     15993     15996     15998     15990     15993     15996     15999
     15991     15990     15993     15994     15991     15990     15993     15995
     15991     15990     15993     15996     15992     15990     15993     15994
     15992     15990     15993     15995     15992     15990     15993     15996
     15993     15996     15999     16000     15993     15996     15999     16001
     15993     15996     15999     16002     15994     15993     15996     15997
     15994     15993     15996     15998     15994     15993     15996     15999
     15995     15993     15996     15997     15995     15993     15996     15998
     15995     15993     15996     15999     15996     15999     16002     16003
     15996     15999     16002     16004     15996     15999     16002     16005
     15997     15996     15999     16000     15997     15996     15999     16001
     15997     15996     15999     16002     15998     15996     15999     16000
     15998     15996     15999     16001     15998     15996     15999     16002
     15999     16002     16005     16006     15999     16002     16005     16007
     15999     16002     16005     16008     16000     15999     16002     16003
     16000     15999     16002     16004     16000     15999     16002     16005
     16001     15999     16002     16003     16001     15999     16002     16004
     16001     15999     16002     16005     16002     16005     16008     16009
     16002     16005     16008     16010     16002     16005     16008     16011
     16003     16002     16005     16006     16003     16002     16005     16007
     16003     16002     16005     16008     16004     16002     16005     16006
     16004     16002     16005     16007     16004     16002     16005     16008
     16005     16008     16011     16012     16005     16008     16011     16013
     16005     16008     16011     16014     16006     16005     16008     16009
     16006     16005     16008     16010     16006     16005     16008     16011
     16007     16005     16008     16009     16007     16005     16008     16010
     16007     16005     16008     16011     16008     16011     16014     16015
     16008     16011     16014     16016     16008     16011     16014     16017
     16009     16008     16011     16012     16009     16008     16011     16013
     16009     16008     16011     16014     16010     16008     16011     16012
     16010     16008     16011     16013     16010     16008     16011     16014
     16011     16014     16017     16018     16011     16014     16017     16019
     16011     16014     16017     16020     16012     16011     16014     16015
     16012     16011     16014     16016     16012     16011     16014     16017
     16013     16011     16014     16015     16013     16011     16014     16016
     16013     16011     16014     16017     16014     16017     16020     16021
     16014     16017     16020     16022     16014     16017     16020     16023
     16015     16014     16017     16018     16015     16014     16017     16019
     16015     16014     16017     16020     16016     16014     16017     16018
     16016     16014     16017     16019     16016     16014     16017     16020
     16017     16020     16023     16024     16017     16020     16023     16025
     16017     16020     16023     16026     16018     16017     16020     16021
     16018     16017     16020     16022     16018     16017     16020     16023
     16019     16017     16020     16021     16019     16017     16020     16022
     16019     16017     16020     16023     16020     16023     16026     16027
     16020     16023     16026     16028     16020     16023     16026     16029
     16021     16020     16023     16024     16021     16020     16023     16025
     16021     16020     16023     16026     16022     16020     16023     16024
     16022     16020     16023     16025     16022     16020     16023     16026
     16023     16026     16029     16030     16023     16026     16029     16031
     16023     16026     16029     16032     16024     16023     16026     16027
     16024     16023     16026     16028     16024     16023     16026     16029
     16025     16023     16026     16027     16025     16023     16026     16028
     16025     16023     16026     16029     16026     16029     16032     16033
     16026     16029     16032     16034     16026     16029     16032     16035
     16027     16026     16029     16030     16027     16026     16029     16031
     16027     16026     16029     16032     16028     16026     16029     16030
     16028     16026     16029     16031     16028     16026     16029     16032
     16030     16029     16032     16033     16030     16029     16032     16034
     16030     16029     16032     16035     16031     16029     16032     16033
     16031     16029     16032     16034     16031     16029     16032     16035
     10272     10285     10288     10289     10272     10285     10288     10290
     10272     10285     10288     10295     10273     10272     10277     10278
     10273     10272     10277     10279     10273     10272     10277     10280
     10273     10272     10281     10282     10273     10272     10281     10283
     10273     10272     10281     10284     10273     10272     10285     10286
     10273     10272     10285     10287     10273     10272     10285     10288
     10274     10273     10272     10277     10274     10273     10272     10281
     10274     10273     10272     10285     10275     10273     10272     10277
     10275     10273     10272     10281     10275     10273     10272     10285
     10276     10273     10272     10277     10276     10273     10272     10281
     10276     10273     10272     10285     10277     10272     10281     10282
     10277     10272     10281     10283     10277     10272     10281     10284
     10277     10272     10285     10286     10277     10272     10285     10287
     10277     10272     10285     10288     10278     10277     10272     10281
     10278     10277     10272     10285     10279     10277     10272     10281
     10279     10277     10272     10285     10280     10277     10272     10281
     10280     10277     10272     10285     10281     10272     10285     10286
     10281     10272     10285     10287     10281     10272     10285     10288
     10282     10281     10272     10285     10283     10281     10272     10285
     10284     10281     10272     10285     10285     10288     10295     10291
     10286     10285     10288     10289     10286     10285     10288     10290
     10286     10285     10288     10295     10287     10285     10288     10289
     10287     10285     10288     10290     10287     10285     10288     10295
     10288     10295     10291     10292     10288     10295     10291     10293
     10288     10295     10291     10294     10289     10288     10295     10291
     10290     10288     10295     10291     10291     10294     10296     10297
     10291     10294     10296     10298     10291     10294     10296     10301
     10292     10291     10294     10296     10293     10291     10294     10296
     10294     10296     10301     10299     10294     10296     10301     10302
     10294     10296     10301     10303     10295     10291     10294     10296
     10296     10301     10299     10300     10296     10301     10299     10351
     10296     10301     10303     10304     10296     10301     10303     10305
     10296     10301     10303     10307     10297     10296     10301     10299
     10297     10296     10301     10302     10297     10296     10301     10303
     10298     10296     10301     10299     10298     10296     10301     10302
     10298     10296     10301     10303     10299     10301     10303     10304
     10299     10301     10303     10305     10299     10301     10303     10307
     10299     10351     10353     10354     10299     10351     10353     10355
     10299     10351     10353     10356     10300     10299     10301     10302
     10300     10299     10301     10303     10300     10299     10351     10352
     10300     10299     10351     10353     10301     10299     10351     10352
     10301     10299     10351     10353     10301     10303     10305     10306
     10301     10303     10307     10308     10301     10303     10307     10309
     10302     10301     10299     10351     10302     10301     10303     10304
     10302     10301     10303     10305     10302     10301     10303     10307
     10303     10301     10299     10351     10303     10307     10309     10310
     10303     10307     10309     10311     10304     10303     10305     10306
     10304     10303     10307     10308     10304     10303     10307     10309
     10305     10303     10307     10308     10305     10303     10307     10309
     10306     10305     10303     10307     10307     10309     10311     10312
     10307     10309     10311     10313     10307     10309     10311     10314
     10308     10307     10309     10310     10308     10307     10309     10311
     10309     10311     10314     10315     10309     10311     10314     10316
     10309     10311     10314     10317     10310     10309     10311     10312
     10310     10309     10311     10313     10310     10309     10311     10314
     10311     10314     10317     10318     10311     10314     10317     10319
     10311     10314     10317     10320     10312     10311     10314     10315
     10312     10311     10314     10316     10312     10311     10314     10317
     10313     10311     10314     10315     10313     10311     10314     10316
     10313     10311     10314     10317     10314     10317     10320     10321
     10314     10317     10320     10322     10314     10317     10320     10323
     10315     10314     10317     10318     10315     10314     10317     10319
     10315     10314     10317     10320     10316     10314     10317     10318
     10316     10314     10317     10319     10316     10314     10317     10320
     10317     10320     10323     10324     10317     10320     10323     10325
     10317     10320     10323     10326     10318     10317     10320     10321
     10318     10317     10320     10322     10318     10317     10320     10323
     10319     10317     10320     10321     10319     10317     10320     10322
     10319     10317     10320     10323     10320     10323     10326     10327
     10320     10323     10326     10328     10320     10323     10326     10329
     10321     10320     10323     10324     10321     10320     10323     10325
     10321     10320     10323     10326     10322     10320     10323     10324
     10322     10320     10323     10325     10322     10320     10323     10326
     10323     10326     10329     10330     10323     10326     10329     10331
     10323     10326     10329     10332     10324     10323     10326     10327
     10324     10323     10326     10328     10324     10323     10326     10329
     10325     10323     10326     10327     10325     10323     10326     10328
     10325     10323     10326     10329     10326     10329     10332     10333
     10326     10329     10332     10334     10326     10329     10332     10335
     10327     10326     10329     10330     10327     10326     10329     10331
     10327     10326     10329     10332     10328     10326     10329     10330
     10328     10326     10329     10331     10328     10326     10329     10332
     10329     10332     10335     10336     10329     10332     10335     10337
     10329     10332     10335     10338     10330     10329     10332     10333
     10330     10329     10332     10334     10330     10329     10332     10335
     10331     10329     10332     10333     10331     10329     10332     10334
     10331     10329     10332     10335     10332     10335     10338     10339
     10332     10335     10338     10340     10332     10335     10338     10341
     10333     10332     10335     10336     10333     10332     10335     10337
     10333     10332     10335     10338     10334     10332     10335     10336
     10334     10332     10335     10337     10334     10332     10335     10338
     10335     10338     10341     10342     10335     10338     10341     10343
     10335     10338     10341     10344     10336     10335     10338     10339
     10336     10335     10338     10340     10336     10335     10338     10341
     10337     10335     10338     10339     10337     10335     10338     10340
     10337     10335     10338     10341     10338     10341     10344     10345
     10338     10341     10344     10346     10338     10341     10344     10347
     10339     10338     10341     10342     10339     10338     10341     10343
     10339     10338     10341     10344     10340     10338     10341     10342
     10340     10338     10341     10343     10340     10338     10341     10344
     10341     10344     10347     10348     10341     10344     10347     10349
     10341     10344     10347     10350     10342     10341     10344     10345
     10342     10341     10344     10346     10342     10341     10344     10347
     10343     10341     10344     10345     10343     10341     10344     10346
     10343     10341     10344     10347     10345     10344     10347     10348
     10345     10344     10347     10349     10345     10344     10347     10350
     10346     10344     10347     10348     10346     10344     10347     10349
     10346     10344     10347     10350     10351     10353     10356     10357
     10351     10353     10356     10358     10351     10353     10356     10359
     10352     10351     10353     10354     10352     10351     10353     10355
     10352     10351     10353     10356     10353     10356     10359     10360
     10353     10356     10359     10361     10353     10356     10359     10362
     10354     10353     10356     10357     10354     10353     10356     10358
     10354     10353     10356     10359     10355     10353     10356     10357
     10355     10353     10356     10358     10355     10353     10356     10359
     10356     10359     10362     10363     10356     10359     10362     10364
     10356     10359     10362     10365     10357     10356     10359     10360
     10357     10356     10359     10361     10357     10356     10359     10362
     10358     10356     10359     10360     10358     10356     10359     10361
     10358     10356     10359     10362     10359     10362     10365     10366
     10359     10362     10365     10367     10359     10362     10365     10368
     10360     10359     10362     10363     10360     10359     10362     10364
     10360     10359     10362     10365     10361     10359     10362     10363
     10361     10359     10362     10364     10361     10359     10362     10365
     10362     10365     10368     10369     10362     10365     10368     10370
     10362     10365     10368     10371     10363     10362     10365     10366
     10363     10362     10365     10367     10363     10362     10365     10368
     10364     10362     10365     10366     10364     10362     10365     10367
     10364     10362     10365     10368     10365     10368     10371     10372
     10365     10368     10371     10373     10365     10368     10371     10374
     10366     10365     10368     10369     10366     10365     10368     10370
     10366     10365     10368     10371     10367     10365     10368     10369
     10367     10365     10368     10370     10367     10365     10368     10371
     10368     10371     10374     10375     10368     10371     10374     10376
     10369     10368     10371     10372     10369     10368     10371     10373
     10369     10368     10371     10374     10370     10368     10371     10372
     10370     10368     10371     10373     10370     10368     10371     10374
     10371     10374     10376     10377     10371     10374     10376     10378
     10372     10371     10374     10375     10372     10371     10374     10376
     10373     10371     10374     10375     10373     10371     10374     10376
     10374     10376     10378     10379     10374     10376     10378     10380
     10374     10376     10378     10381     10375     10374     10376     10377
     10375     10374     10376     10378     10376     10378     10381     10382
     10376     10378     10381     10383     10376     10378     10381     10384
     10377     10376     10378     10379     10377     10376     10378     10380
     10377     10376     10378     10381     10378     10381     10384     10385
     10378     10381     10384     10386     10378     10381     10384     10387
     10379     10378     10381     10382     10379     10378     10381     10383
     10379     10378     10381     10384     10380     10378     10381     10382
     10380     10378     10381     10383     10380     10378     10381     10384
     10381     10384     10387     10388     10381     10384     10387     10389
     10381     10384     10387     10390     10382     10381     10384     10385
     10382     10381     10384     10386     10382     10381     10384     10387
     10383     10381     10384     10385     10383     10381     10384     10386
     10383     10381     10384     10387     10384     10387     10390     10391
     10384     10387     10390     10392     10384     10387     10390     10393
     10385     10384     10387     10388     10385     10384     10387     10389
     10385     10384     10387     10390     10386     10384     10387     10388
     10386     10384     10387     10389     10386     10384     10387     10390
     10387     10390     10393     10394     10387     10390     10393     10395
     10387     10390     10393     10396     10388     10387     10390     10391
     10388     10387     10390     10392     10388     10387     10390     10393
     10389     10387     10390     10391     10389     10387     10390     10392
     10389     10387     10390     10393     10390     10393     10396     10397
     10390     10393     10396     10398     10390     10393     10396     10399
     10391     10390     10393     10394     10391     10390     10393     10395
     10391     10390     10393     10396     10392     10390     10393     10394
     10392     10390     10393     10395     10392     10390     10393     10396
     10393     10396     10399     10400     10393     10396     10399     10401
     10393     10396     10399     10402     10394     10393     10396     10397
     10394     10393     10396     10398     10394     10393     10396     10399
     10395     10393     10396     10397     10395     10393     10396     10398
     10395     10393     10396     10399     10397     10396     10399     10400
     10397     10396     10399     10401     10397     10396     10399     10402
     10398     10396     10399     10400     10398     10396     10399     10401
     10398     10396     10399     10402     19573     19577     19580     19581
     19573     19577     19580     19582     19573     19577     19580     19586
     19574     19573     19577     19578     19574     19573     19577     19579
     19574     19573     19577     19580     19575     19573     19577     19578
     19575     19573     19577     19579     19575     19573     19577     19580
     19576     19573     19577     19578     19576     19573     19577     19579
     19576     19573     19577     19580     19577     19580     19586     19583
     19578     19577     19580     19581     19578     19577     19580     19582
     19578     19577     19580     19586     19579     19577     19580     19581
     19579     19577     19580     19582     19579     19577     19580     19586
     19580     19586     19583     19584     19580     19586     19583     19585
     19580     19586     19583     19587     19581     19580     19586     19583
     19582     19580     19586     19583     19583     19587     19588     19589
     19583     19587     19588     19590     19583     19587     19588     19591
     19584     19583     19587     19588     19585     19583     19587     19588
     19586     19583     19587     19588     19587     19588     19591     19592
     19587     19588     19591     19593     19587     19588     19591     19599
     19588     19591     19593     19594     19588     19591     19599     19600
     19588     19591     19599     19601     19588     19591     19599     19602
     19589     19588     19591     19592     19589     19588     19591     19593
     19589     19588     19591     19599     19590     19588     19591     19592
     19590     19588     19591     19593     19590     19588     19591     19599
     19591     19593     19594     19595     19591     19593     19594     19596
     19591     19599     19602     19603     19592     19591     19593     19594
     19592     19591     19599     19600     19592     19591     19599     19601
     19592     19591     19599     19602     19593     19591     19599     19600
     19593     19591     19599     19601     19593     19591     19599     19602
     19593     19594     19596     19597     19593     19594     19596     19598
     19593     19594     19596     19608     19594     19593     19591     19599
     19594     19596     19608     19609     19594     19596     19608     19610
     19594     19596     19608     19611     19595     19594     19596     19597
     19595     19594     19596     19598     19595     19594     19596     19608
     19596     19608     19611     19612     19596     19608     19611     19613
     19596     19608     19611     19614     19597     19596     19608     19609
     19597     19596     19608     19610     19597     19596     19608     19611
     19598     19596     19608     19609     19598     19596     19608     19610
     19598     19596     19608     19611     19599     19602     19603     19604
     19599     19602     19603     19605     19600     19599     19602     19603
     19601     19599     19602     19603     19602     19603     19605     19606
     19602     19603     19605     19607     19602     19603     19605     19655
     19603     19605     19655     19656     19603     19605     19655     19657
     19603     19605     19655     19658     19604     19603     19605     19606
     19604     19603     19605     19607     19604     19603     19605     19655
     19605     19655     19658     19659     19605     19655     19658     19660
     19605     19655     19658     19661     19606     19605     19655     19656
     19606     19605     19655     19657     19606     19605     19655     19658
     19607     19605     19655     19656     19607     19605     19655     19657
     19607     19605     19655     19658     19608     19611     19614     19615
     19608     19611     19614     19616     19608     19611     19614     19617
     19609     19608     19611     19612     19609     19608     19611     19613
     19609     19608     19611     19614     19610     19608     19611     19612
     19610     19608     19611     19613     19610     19608     19611     19614
     19611     19614     19617     19618     19611     19614     19617     19619
     19611     19614     19617     19620     19612     19611     19614     19615
     19612     19611     19614     19616     19612     19611     19614     19617
     19613     19611     19614     19615     19613     19611     19614     19616
     19613     19611     19614     19617     19614     19617     19620     19621
     19614     19617     19620     19622     19614     19617     19620     19623
     19615     19614     19617     19618     19615     19614     19617     19619
     19615     19614     19617     19620     19616     19614     19617     19618
     19616     19614     19617     19619     19616     19614     19617     19620
     19617     19620     19623     19624     19617     19620     19623     19625
     19617     19620     19623     19626     19618     19617     19620     19621
     19618     19617     19620     19622     19618     19617     19620     19623
     19619     19617     19620     19621     19619     19617     19620     19622
     19619     19617     19620     19623     19620     19623     19626     19627
     19620     19623     19626     19628     19621     19620     19623     19624
     19621     19620     19623     19625     19621     19620     19623     19626
     19622     19620     19623     19624     19622     19620     19623     19625
     19622     19620     19623     19626     19623     19626     19628     19629
     19623     19626     19628     19630     19624     19623     19626     19627
     19624     19623     19626     19628     19625     19623     19626     19627
     19625     19623     19626     19628     19626     19628     19630     19631
     19626     19628     19630     19632     19626     19628     19630     19633
     19627     19626     19628     19629     19627     19626     19628     19630
     19628     19630     19633     19634     19628     19630     19633     19635
     19628     19630     19633     19636     19629     19628     19630     19631
     19629     19628     19630     19632     19629     19628     19630     19633
     19630     19633     19636     19637     19630     19633     19636     19638
     19630     19633     19636     19639     19631     19630     19633     19634
     19631     19630     19633     19635     19631     19630     19633     19636
     19632     19630     19633     19634     19632     19630     19633     19635
     19632     19630     19633     19636     19633     19636     19639     19640
     19633     19636     19639     19641     19633     19636     19639     19642
     19634     19633     19636     19637     19634     19633     19636     19638
     19634     19633     19636     19639     19635     19633     19636     19637
     19635     19633     19636     19638     19635     19633     19636     19639
     19636     19639     19642     19643     19636     19639     19642     19644
     19636     19639     19642     19645     19637     19636     19639     19640
     19637     19636     19639     19641     19637     19636     19639     19642
     19638     19636     19639     19640     19638     19636     19639     19641
     19638     19636     19639     19642     19639     19642     19645     19646
     19639     19642     19645     19647     19639     19642     19645     19648
     19640     19639     19642     19643     19640     19639     19642     19644
     19640     19639     19642     19645     19641     19639     19642     19643
     19641     19639     19642     19644     19641     19639     19642     19645
     19642     19645     19648     19649     19642     19645     19648     19650
     19642     19645     19648     19651     19643     19642     19645     19646
     19643     19642     19645     19647     19643     19642     19645     19648
     19644     19642     19645     19646     19644     19642     19645     19647
     19644     19642     19645     19648     19645     19648     19651     19652
     19645     19648     19651     19653     19645     19648     19651     19654
     19646     19645     19648     19649     19646     19645     19648     19650
     19646     19645     19648     19651     19647     19645     19648     19649
     19647     19645     19648     19650     19647     19645     19648     19651
     19649     19648     19651     19652     19649     19648     19651     19653
     19649     19648     19651     19654     19650     19648     19651     19652
     19650     19648     19651     19653     19650     19648     19651     19654
     19655     19658     19661     19662     19655     19658     19661     19663
     19655     19658     19661     19664     19656     19655     19658     19659
     19656     19655     19658     19660     19656     19655     19658     19661
     19657     19655     19658     19659     19657     19655     19658     19660
     19657     19655     19658     19661     19658     19661     19664     19665
     19658     19661     19664     19666     19658     19661     19664     19667
     19659     19658     19661     19662     19659     19658     19661     19663
     19659     19658     19661     19664     19660     19658     19661     19662
     19660     19658     19661     19663     19660     19658     19661     19664
     19661     19664     19667     19668     19661     19664     19667     19669
     19661     19664     19667     19670     19662     19661     19664     19665
     19662     19661     19664     19666     19662     19661     19664     19667
     19663     19661     19664     19665     19663     19661     19664     19666
     19663     19661     19664     19667     19664     19667     19670     19671
     19664     19667     19670     19672     19664     19667     19670     19673
     19665     19664     19667     19668     19665     19664     19667     19669
     19665     19664     19667     19670     19666     19664     19667     19668
     19666     19664     19667     19669     19666     19664     19667     19670
     19667     19670     19673     19674     19667     19670     19673     19675
     19667     19670     19673     19676     19668     19667     19670     19671
     19668     19667     19670     19672     19668     19667     19670     19673
     19669     19667     19670     19671     19669     19667     19670     19672
     19669     19667     19670     19673     19670     19673     19676     19677
     19670     19673     19676     19678     19670     19673     19676     19679
     19671     19670     19673     19674     19671     19670     19673     19675
     19671     19670     19673     19676     19672     19670     19673     19674
     19672     19670     19673     19675     19672     19670     19673     19676
     19673     19676     19679     19680     19673     19676     19679     19681
     19673     19676     19679     19682     19674     19673     19676     19677
     19674     19673     19676     19678     19674     19673     19676     19679
     19675     19673     19676     19677     19675     19673     19676     19678
     19675     19673     19676     19679     19676     19679     19682     19683
     19676     19679     19682     19684     19676     19679     19682     19685
     19677     19676     19679     19680     19677     19676     19679     19681
     19677     19676     19679     19682     19678     19676     19679     19680
     19678     19676     19679     19681     19678     19676     19679     19682
     19679     19682     19685     19686     19679     19682     19685     19687
     19679     19682     19685     19688     19680     19679     19682     19683
     19680     19679     19682     19684     19680     19679     19682     19685
     19681     19679     19682     19683     19681     19679     19682     19684
     19681     19679     19682     19685     19682     19685     19688     19689
     19682     19685     19688     19690     19682     19685     19688     19691
     19683     19682     19685     19686     19683     19682     19685     19687
     19683     19682     19685     19688     19684     19682     19685     19686
     19684     19682     19685     19687     19684     19682     19685     19688
     19685     19688     19691     19692     19685     19688     19691     19693
     19685     19688     19691     19694     19686     19685     19688     19689
     19686     19685     19688     19690     19686     19685     19688     19691
     19687     19685     19688     19689     19687     19685     19688     19690
     19687     19685     19688     19691     19688     19691     19694     19695
     19688     19691     19694     19696     19688     19691     19694     19697
     19689     19688     19691     19692     19689     19688     19691     19693
     19689     19688     19691     19694     19690     19688     19691     19692
     19690     19688     19691     19693     19690     19688     19691     19694
     19691     19694     19697     19698     19691     19694     19697     19699
     19691     19694     19697     19700     19692     19691     19694     19695
     19692     19691     19694     19696     19692     19691     19694     19697
     19693     19691     19694     19695     19693     19691     19694     19696
     19693     19691     19694     19697     19694     19697     19700     19701
     19694     19697     19700     19702     19694     19697     19700     19703
     19695     19694     19697     19698     19695     19694     19697     19699
     19695     19694     19697     19700     19696     19694     19697     19698
     19696     19694     19697     19699     19696     19694     19697     19700
     19698     19697     19700     19701     19698     19697     19700     19702
     19698     19697     19700     19703     19699     19697     19700     19701
     19699     19697     19700     19702     19699     19697     19700     19703
     10403     10416     10419     10420     10403     10416     10419     10421
     10403     10416     10419     10426     10404     10403     10408     10409
     10404     10403     10408     10410     10404     10403     10408     10411
     10404     10403     10412     10413     10404     10403     10412     10414
     10404     10403     10412     10415     10404     10403     10416     10417
     10404     10403     10416     10418     10404     10403     10416     10419
     10405     10404     10403     10408     10405     10404     10403     10412
     10405     10404     10403     10416     10406     10404     10403     10408
     10406     10404     10403     10412     10406     10404     10403     10416
     10407     10404     10403     10408     10407     10404     10403     10412
     10407     10404     10403     10416     10408     10403     10412     10413
     10408     10403     10412     10414     10408     10403     10412     10415
     10408     10403     10416     10417     10408     10403     10416     10418
     10408     10403     10416     10419     10409     10408     10403     10412
     10409     10408     10403     10416     10410     10408     10403     10412
     10410     10408     10403     10416     10411     10408     10403     10412
     10411     10408     10403     10416     10412     10403     10416     10417
     10412     10403     10416     10418     10412     10403     10416     10419
     10413     10412     10403     10416     10414     10412     10403     10416
     10415     10412     10403     10416     10416     10419     10426     10422
     10417     10416     10419     10420     10417     10416     10419     10421
     10417     10416     10419     10426     10418     10416     10419     10420
     10418     10416     10419     10421     10418     10416     10419     10426
     10419     10426     10422     10423     10419     10426     10422     10424
     10419     10426     10422     10425     10420     10419     10426     10422
     10421     10419     10426     10422     10422     10425     10427     10428
     10422     10425     10427     10429     10422     10425     10427     10432
     10423     10422     10425     10427     10424     10422     10425     10427
     10425     10427     10432     10430     10425     10427     10432     10433
     10425     10427     10432     10434     10426     10422     10425     10427
     10427     10432     10430     10431     10427     10432     10430     10482
     10427     10432     10434     10435     10427     10432     10434     10436
     10427     10432     10434     10438     10428     10427     10432     10430
     10428     10427     10432     10433     10428     10427     10432     10434
     10429     10427     10432     10430     10429     10427     10432     10433
     10429     10427     10432     10434     10430     10432     10434     10435
     10430     10432     10434     10436     10430     10432     10434     10438
     10430     10482     10484     10485     10430     10482     10484     10486
     10430     10482     10484     10487     10431     10430     10432     10433
     10431     10430     10432     10434     10431     10430     10482     10483
     10431     10430     10482     10484     10432     10430     10482     10483
     10432     10430     10482     10484     10432     10434     10436     10437
     10432     10434     10438     10439     10432     10434     10438     10440
     10433     10432     10430     10482     10433     10432     10434     10435
     10433     10432     10434     10436     10433     10432     10434     10438
     10434     10432     10430     10482     10434     10438     10440     10441
     10434     10438     10440     10442     10435     10434     10436     10437
     10435     10434     10438     10439     10435     10434     10438     10440
     10436     10434     10438     10439     10436     10434     10438     10440
     10437     10436     10434     10438     10438     10440     10442     10443
     10438     10440     10442     10444     10438     10440     10442     10445
     10439     10438     10440     10441     10439     10438     10440     10442
     10440     10442     10445     10446     10440     10442     10445     10447
     10440     10442     10445     10448     10441     10440     10442     10443
     10441     10440     10442     10444     10441     10440     10442     10445
     10442     10445     10448     10449     10442     10445     10448     10450
     10442     10445     10448     10451     10443     10442     10445     10446
     10443     10442     10445     10447     10443     10442     10445     10448
     10444     10442     10445     10446     10444     10442     10445     10447
     10444     10442     10445     10448     10445     10448     10451     10452
     10445     10448     10451     10453     10445     10448     10451     10454
     10446     10445     10448     10449     10446     10445     10448     10450
     10446     10445     10448     10451     10447     10445     10448     10449
     10447     10445     10448     10450     10447     10445     10448     10451
     10448     10451     10454     10455     10448     10451     10454     10456
     10448     10451     10454     10457     10449     10448     10451     10452
     10449     10448     10451     10453     10449     10448     10451     10454
     10450     10448     10451     10452     10450     10448     10451     10453
     10450     10448     10451     10454     10451     10454     10457     10458
     10451     10454     10457     10459     10451     10454     10457     10460
     10452     10451     10454     10455     10452     10451     10454     10456
     10452     10451     10454     10457     10453     10451     10454     10455
     10453     10451     10454     10456     10453     10451     10454     10457
     10454     10457     10460     10461     10454     10457     10460     10462
     10454     10457     10460     10463     10455     10454     10457     10458
     10455     10454     10457     10459     10455     10454     10457     10460
     10456     10454     10457     10458     10456     10454     10457     10459
     10456     10454     10457     10460     10457     10460     10463     10464
     10457     10460     10463     10465     10457     10460     10463     10466
     10458     10457     10460     10461     10458     10457     10460     10462
     10458     10457     10460     10463     10459     10457     10460     10461
     10459     10457     10460     10462     10459     10457     10460     10463
     10460     10463     10466     10467     10460     10463     10466     10468
     10460     10463     10466     10469     10461     10460     10463     10464
     10461     10460     10463     10465     10461     10460     10463     10466
     10462     10460     10463     10464     10462     10460     10463     10465
     10462     10460     10463     10466     10463     10466     10469     10470
     10463     10466     10469     10471     10463     10466     10469     10472
     10464     10463     10466     10467     10464     10463     10466     10468
     10464     10463     10466     10469     10465     10463     10466     10467
     10465     10463     10466     10468     10465     10463     10466     10469
     10466     10469     10472     10473     10466     10469     10472     10474
     10466     10469     10472     10475     10467     10466     10469     10470
     10467     10466     10469     10471     10467     10466     10469     10472
     10468     10466     10469     10470     10468     10466     10469     10471
     10468     10466     10469     10472     10469     10472     10475     10476
     10469     10472     10475     10477     10469     10472     10475     10478
     10470     10469     10472     10473     10470     10469     10472     10474
     10470     10469     10472     10475     10471     10469     10472     10473
     10471     10469     10472     10474     10471     10469     10472     10475
     10472     10475     10478     10479     10472     10475     10478     10480
     10472     10475     10478     10481     10473     10472     10475     10476
     10473     10472     10475     10477     10473     10472     10475     10478
     10474     10472     10475     10476     10474     10472     10475     10477
     10474     10472     10475     10478     10476     10475     10478     10479
     10476     10475     10478     10480     10476     10475     10478     10481
     10477     10475     10478     10479     10477     10475     10478     10480
     10477     10475     10478     10481     10482     10484     10487     10488
     10482     10484     10487     10489     10482     10484     10487     10490
     10483     10482     10484     10485     10483     10482     10484     10486
     10483     10482     10484     10487     10484     10487     10490     10491
     10484     10487     10490     10492     10484     10487     10490     10493
     10485     10484     10487     10488     10485     10484     10487     10489
     10485     10484     10487     10490     10486     10484     10487     10488
     10486     10484     10487     10489     10486     10484     10487     10490
     10487     10490     10493     10494     10487     10490     10493     10495
     10487     10490     10493     10496     10488     10487     10490     10491
     10488     10487     10490     10492     10488     10487     10490     10493
     10489     10487     10490     10491     10489     10487     10490     10492
     10489     10487     10490     10493     10490     10493     10496     10497
     10490     10493     10496     10498     10490     10493     10496     10499
     10491     10490     10493     10494     10491     10490     10493     10495
     10491     10490     10493     10496     10492     10490     10493     10494
     10492     10490     10493     10495     10492     10490     10493     10496
     10493     10496     10499     10500     10493     10496     10499     10501
     10493     10496     10499     10502     10494     10493     10496     10497
     10494     10493     10496     10498     10494     10493     10496     10499
     10495     10493     10496     10497     10495     10493     10496     10498
     10495     10493     10496     10499     10496     10499     10502     10503
     10496     10499     10502     10504     10496     10499     10502     10505
     10497     10496     10499     10500     10497     10496     10499     10501
     10497     10496     10499     10502     10498     10496     10499     10500
     10498     10496     10499     10501     10498     10496     10499     10502
     10499     10502     10505     10506     10499     10502     10505     10507
     10500     10499     10502     10503     10500     10499     10502     10504
     10500     10499     10502     10505     10501     10499     10502     10503
     10501     10499     10502     10504     10501     10499     10502     10505
     10502     10505     10507     10508     10502     10505     10507     10509
     10503     10502     10505     10506     10503     10502     10505     10507
     10504     10502     10505     10506     10504     10502     10505     10507
     10505     10507     10509     10510     10505     10507     10509     10511
     10505     10507     10509     10512     10506     10505     10507     10508
     10506     10505     10507     10509     10507     10509     10512     10513
     10507     10509     10512     10514     10507     10509     10512     10515
     10508     10507     10509     10510     10508     10507     10509     10511
     10508     10507     10509     10512     10509     10512     10515     10516
     10509     10512     10515     10517     10509     10512     10515     10518
     10510     10509     10512     10513     10510     10509     10512     10514
     10510     10509     10512     10515     10511     10509     10512     10513
     10511     10509     10512     10514     10511     10509     10512     10515
     10512     10515     10518     10519     10512     10515     10518     10520
     10512     10515     10518     10521     10513     10512     10515     10516
     10513     10512     10515     10517     10513     10512     10515     10518
     10514     10512     10515     10516     10514     10512     10515     10517
     10514     10512     10515     10518     10515     10518     10521     10522
     10515     10518     10521     10523     10515     10518     10521     10524
     10516     10515     10518     10519     10516     10515     10518     10520
     10516     10515     10518     10521     10517     10515     10518     10519
     10517     10515     10518     10520     10517     10515     10518     10521
     10518     10521     10524     10525     10518     10521     10524     10526
     10518     10521     10524     10527     10519     10518     10521     10522
     10519     10518     10521     10523     10519     10518     10521     10524
     10520     10518     10521     10522     10520     10518     10521     10523
     10520     10518     10521     10524     10521     10524     10527     10528
     10521     10524     10527     10529     10521     10524     10527     10530
     10522     10521     10524     10525     10522     10521     10524     10526
     10522     10521     10524     10527     10523     10521     10524     10525
     10523     10521     10524     10526     10523     10521     10524     10527
     10524     10527     10530     10531     10524     10527     10530     10532
     10524     10527     10530     10533     10525     10524     10527     10528
     10525     10524     10527     10529     10525     10524     10527     10530
     10526     10524     10527     10528     10526     10524     10527     10529
     10526     10524     10527     10530     10528     10527     10530     10531
     10528     10527     10530     10532     10528     10527     10530     10533
     10529     10527     10530     10531     10529     10527     10530     10532
     10529     10527     10530     10533     10534     10547     10550     10551
     10534     10547     10550     10552     10534     10547     10550     10557
     10535     10534     10539     10540     10535     10534     10539     10541
     10535     10534     10539     10542     10535     10534     10543     10544
     10535     10534     10543     10545     10535     10534     10543     10546
     10535     10534     10547     10548     10535     10534     10547     10549
     10535     10534     10547     10550     10536     10535     10534     10539
     10536     10535     10534     10543     10536     10535     10534     10547
     10537     10535     10534     10539     10537     10535     10534     10543
     10537     10535     10534     10547     10538     10535     10534     10539
     10538     10535     10534     10543     10538     10535     10534     10547
     10539     10534     10543     10544     10539     10534     10543     10545
     10539     10534     10543     10546     10539     10534     10547     10548
     10539     10534     10547     10549     10539     10534     10547     10550
     10540     10539     10534     10543     10540     10539     10534     10547
     10541     10539     10534     10543     10541     10539     10534     10547
     10542     10539     10534     10543     10542     10539     10534     10547
     10543     10534     10547     10548     10543     10534     10547     10549
     10543     10534     10547     10550     10544     10543     10534     10547
     10545     10543     10534     10547     10546     10543     10534     10547
     10547     10550     10557     10553     10548     10547     10550     10551
     10548     10547     10550     10552     10548     10547     10550     10557
     10549     10547     10550     10551     10549     10547     10550     10552
     10549     10547     10550     10557     10550     10557     10553     10554
     10550     10557     10553     10555     10550     10557     10553     10556
     10551     10550     10557     10553     10552     10550     10557     10553
     10553     10556     10558     10559     10553     10556     10558     10560
     10553     10556     10558     10563     10554     10553     10556     10558
     10555     10553     10556     10558     10556     10558     10563     10561
     10556     10558     10563     10564     10556     10558     10563     10565
     10557     10553     10556     10558     10558     10563     10561     10562
     10558     10563     10561     10613     10558     10563     10565     10566
     10558     10563     10565     10567     10558     10563     10565     10569
     10559     10558     10563     10561     10559     10558     10563     10564
     10559     10558     10563     10565     10560     10558     10563     10561
     10560     10558     10563     10564     10560     10558     10563     10565
     10561     10563     10565     10566     10561     10563     10565     10567
     10561     10563     10565     10569     10561     10613     10615     10616
     10561     10613     10615     10617     10561     10613     10615     10618
     10562     10561     10563     10564     10562     10561     10563     10565
     10562     10561     10613     10614     10562     10561     10613     10615
     10563     10561     10613     10614     10563     10561     10613     10615
     10563     10565     10567     10568     10563     10565     10569     10570
     10563     10565     10569     10571     10564     10563     10561     10613
     10564     10563     10565     10566     10564     10563     10565     10567
     10564     10563     10565     10569     10565     10563     10561     10613
     10565     10569     10571     10572     10565     10569     10571     10573
     10566     10565     10567     10568     10566     10565     10569     10570
     10566     10565     10569     10571     10567     10565     10569     10570
     10567     10565     10569     10571     10568     10567     10565     10569
     10569     10571     10573     10574     10569     10571     10573     10575
     10569     10571     10573     10576     10570     10569     10571     10572
     10570     10569     10571     10573     10571     10573     10576     10577
     10571     10573     10576     10578     10571     10573     10576     10579
     10572     10571     10573     10574     10572     10571     10573     10575
     10572     10571     10573     10576     10573     10576     10579     10580
     10573     10576     10579     10581     10573     10576     10579     10582
     10574     10573     10576     10577     10574     10573     10576     10578
     10574     10573     10576     10579     10575     10573     10576     10577
     10575     10573     10576     10578     10575     10573     10576     10579
     10576     10579     10582     10583     10576     10579     10582     10584
     10576     10579     10582     10585     10577     10576     10579     10580
     10577     10576     10579     10581     10577     10576     10579     10582
     10578     10576     10579     10580     10578     10576     10579     10581
     10578     10576     10579     10582     10579     10582     10585     10586
     10579     10582     10585     10587     10579     10582     10585     10588
     10580     10579     10582     10583     10580     10579     10582     10584
     10580     10579     10582     10585     10581     10579     10582     10583
     10581     10579     10582     10584     10581     10579     10582     10585
     10582     10585     10588     10589     10582     10585     10588     10590
     10582     10585     10588     10591     10583     10582     10585     10586
     10583     10582     10585     10587     10583     10582     10585     10588
     10584     10582     10585     10586     10584     10582     10585     10587
     10584     10582     10585     10588     10585     10588     10591     10592
     10585     10588     10591     10593     10585     10588     10591     10594
     10586     10585     10588     10589     10586     10585     10588     10590
     10586     10585     10588     10591     10587     10585     10588     10589
     10587     10585     10588     10590     10587     10585     10588     10591
     10588     10591     10594     10595     10588     10591     10594     10596
     10588     10591     10594     10597     10589     10588     10591     10592
     10589     10588     10591     10593     10589     10588     10591     10594
     10590     10588     10591     10592     10590     10588     10591     10593
     10590     10588     10591     10594     10591     10594     10597     10598
     10591     10594     10597     10599     10591     10594     10597     10600
     10592     10591     10594     10595     10592     10591     10594     10596
     10592     10591     10594     10597     10593     10591     10594     10595
     10593     10591     10594     10596     10593     10591     10594     10597
     10594     10597     10600     10601     10594     10597     10600     10602
     10594     10597     10600     10603     10595     10594     10597     10598
     10595     10594     10597     10599     10595     10594     10597     10600
     10596     10594     10597     10598     10596     10594     10597     10599
     10596     10594     10597     10600     10597     10600     10603     10604
     10597     10600     10603     10605     10597     10600     10603     10606
     10598     10597     10600     10601     10598     10597     10600     10602
     10598     10597     10600     10603     10599     10597     10600     10601
     10599     10597     10600     10602     10599     10597     10600     10603
     10600     10603     10606     10607     10600     10603     10606     10608
     10600     10603     10606     10609     10601     10600     10603     10604
     10601     10600     10603     10605     10601     10600     10603     10606
     10602     10600     10603     10604     10602     10600     10603     10605
     10602     10600     10603     10606     10603     10606     10609     10610
     10603     10606     10609     10611     10603     10606     10609     10612
     10604     10603     10606     10607     10604     10603     10606     10608
     10604     10603     10606     10609     10605     10603     10606     10607
     10605     10603     10606     10608     10605     10603     10606     10609
     10607     10606     10609     10610     10607     10606     10609     10611
     10607     10606     10609     10612     10608     10606     10609     10610
     10608     10606     10609     10611     10608     10606     10609     10612
     10613     10615     10618     10619     10613     10615     10618     10620
     10613     10615     10618     10621     10614     10613     10615     10616
     10614     10613     10615     10617     10614     10613     10615     10618
     10615     10618     10621     10622     10615     10618     10621     10623
     10615     10618     10621     10624     10616     10615     10618     10619
     10616     10615     10618     10620     10616     10615     10618     10621
     10617     10615     10618     10619     10617     10615     10618     10620
     10617     10615     10618     10621     10618     10621     10624     10625
     10618     10621     10624     10626     10618     10621     10624     10627
     10619     10618     10621     10622     10619     10618     10621     10623
     10619     10618     10621     10624     10620     10618     10621     10622
     10620     10618     10621     10623     10620     10618     10621     10624
     10621     10624     10627     10628     10621     10624     10627     10629
     10621     10624     10627     10630     10622     10621     10624     10625
     10622     10621     10624     10626     10622     10621     10624     10627
     10623     10621     10624     10625     10623     10621     10624     10626
     10623     10621     10624     10627     10624     10627     10630     10631
     10624     10627     10630     10632     10624     10627     10630     10633
     10625     10624     10627     10628     10625     10624     10627     10629
     10625     10624     10627     10630     10626     10624     10627     10628
     10626     10624     10627     10629     10626     10624     10627     10630
     10627     10630     10633     10634     10627     10630     10633     10635
     10627     10630     10633     10636     10628     10627     10630     10631
     10628     10627     10630     10632     10628     10627     10630     10633
     10629     10627     10630     10631     10629     10627     10630     10632
     10629     10627     10630     10633     10630     10633     10636     10637
     10630     10633     10636     10638     10631     10630     10633     10634
     10631     10630     10633     10635     10631     10630     10633     10636
     10632     10630     10633     10634     10632     10630     10633     10635
     10632     10630     10633     10636     10633     10636     10638     10639
     10633     10636     10638     10640     10634     10633     10636     10637
     10634     10633     10636     10638     10635     10633     10636     10637
     10635     10633     10636     10638     10636     10638     10640     10641
     10636     10638     10640     10642     10636     10638     10640     10643
     10637     10636     10638     10639     10637     10636     10638     10640
     10638     10640     10643     10644     10638     10640     10643     10645
     10638     10640     10643     10646     10639     10638     10640     10641
     10639     10638     10640     10642     10639     10638     10640     10643
     10640     10643     10646     10647     10640     10643     10646     10648
     10640     10643     10646     10649     10641     10640     10643     10644
     10641     10640     10643     10645     10641     10640     10643     10646
     10642     10640     10643     10644     10642     10640     10643     10645
     10642     10640     10643     10646     10643     10646     10649     10650
     10643     10646     10649     10651     10643     10646     10649     10652
     10644     10643     10646     10647     10644     10643     10646     10648
     10644     10643     10646     10649     10645     10643     10646     10647
     10645     10643     10646     10648     10645     10643     10646     10649
     10646     10649     10652     10653     10646     10649     10652     10654
     10646     10649     10652     10655     10647     10646     10649     10650
     10647     10646     10649     10651     10647     10646     10649     10652
     10648     10646     10649     10650     10648     10646     10649     10651
     10648     10646     10649     10652     10649     10652     10655     10656
     10649     10652     10655     10657     10649     10652     10655     10658
     10650     10649     10652     10653     10650     10649     10652     10654
     10650     10649     10652     10655     10651     10649     10652     10653
     10651     10649     10652     10654     10651     10649     10652     10655
     10652     10655     10658     10659     10652     10655     10658     10660
     10652     10655     10658     10661     10653     10652     10655     10656
     10653     10652     10655     10657     10653     10652     10655     10658
     10654     10652     10655     10656     10654     10652     10655     10657
     10654     10652     10655     10658     10655     10658     10661     10662
     10655     10658     10661     10663     10655     10658     10661     10664
     10656     10655     10658     10659     10656     10655     10658     10660
     10656     10655     10658     10661     10657     10655     10658     10659
     10657     10655     10658     10660     10657     10655     10658     10661
     10659     10658     10661     10662     10659     10658     10661     10663
     10659     10658     10661     10664     10660     10658     10661     10662
     10660     10658     10661     10663     10660     10658     10661     10664
     19704     19708     19711     19712     19704     19708     19711     19713
     19704     19708     19711     19717     19705     19704     19708     19709
     19705     19704     19708     19710     19705     19704     19708     19711
     19706     19704     19708     19709     19706     19704     19708     19710
     19706     19704     19708     19711     19707     19704     19708     19709
     19707     19704     19708     19710     19707     19704     19708     19711
     19708     19711     19717     19714     19709     19708     19711     19712
     19709     19708     19711     19713     19709     19708     19711     19717
     19710     19708     19711     19712     19710     19708     19711     19713
     19710     19708     19711     19717     19711     19717     19714     19715
     19711     19717     19714     19716     19711     19717     19714     19718
     19712     19711     19717     19714     19713     19711     19717     19714
     19714     19718     19719     19720     19714     19718     19719     19721
     19714     19718     19719     19722     19715     19714     19718     19719
     19716     19714     19718     19719     19717     19714     19718     19719
     19718     19719     19722     19723     19718     19719     19722     19724
     19718     19719     19722     19730     19719     19722     19724     19725
     19719     19722     19730     19731     19719     19722     19730     19732
     19719     19722     19730     19733     19720     19719     19722     19723
     19720     19719     19722     19724     19720     19719     19722     19730
     19721     19719     19722     19723     19721     19719     19722     19724
     19721     19719     19722     19730     19722     19724     19725     19726
     19722     19724     19725     19727     19722     19730     19733     19734
     19723     19722     19724     19725     19723     19722     19730     19731
     19723     19722     19730     19732     19723     19722     19730     19733
     19724     19722     19730     19731     19724     19722     19730     19732
     19724     19722     19730     19733     19724     19725     19727     19728
     19724     19725     19727     19729     19724     19725     19727     19739
     19725     19724     19722     19730     19725     19727     19739     19740
     19725     19727     19739     19741     19725     19727     19739     19742
     19726     19725     19727     19728     19726     19725     19727     19729
     19726     19725     19727     19739     19727     19739     19742     19743
     19727     19739     19742     19744     19727     19739     19742     19745
     19728     19727     19739     19740     19728     19727     19739     19741
     19728     19727     19739     19742     19729     19727     19739     19740
     19729     19727     19739     19741     19729     19727     19739     19742
     19730     19733     19734     19735     19730     19733     19734     19736
     19731     19730     19733     19734     19732     19730     19733     19734
     19733     19734     19736     19737     19733     19734     19736     19738
     19733     19734     19736     19786     19734     19736     19786     19787
     19734     19736     19786     19788     19734     19736     19786     19789
     19735     19734     19736     19737     19735     19734     19736     19738
     19735     19734     19736     19786     19736     19786     19789     19790
     19736     19786     19789     19791     19736     19786     19789     19792
     19737     19736     19786     19787     19737     19736     19786     19788
     19737     19736     19786     19789     19738     19736     19786     19787
     19738     19736     19786     19788     19738     19736     19786     19789
     19739     19742     19745     19746     19739     19742     19745     19747
     19739     19742     19745     19748     19740     19739     19742     19743
     19740     19739     19742     19744     19740     19739     19742     19745
     19741     19739     19742     19743     19741     19739     19742     19744
     19741     19739     19742     19745     19742     19745     19748     19749
     19742     19745     19748     19750     19742     19745     19748     19751
     19743     19742     19745     19746     19743     19742     19745     19747
     19743     19742     19745     19748     19744     19742     19745     19746
     19744     19742     19745     19747     19744     19742     19745     19748
     19745     19748     19751     19752     19745     19748     19751     19753
     19745     19748     19751     19754     19746     19745     19748     19749
     19746     19745     19748     19750     19746     19745     19748     19751
     19747     19745     19748     19749     19747     19745     19748     19750
     19747     19745     19748     19751     19748     19751     19754     19755
     19748     19751     19754     19756     19748     19751     19754     19757
     19749     19748     19751     19752     19749     19748     19751     19753
     19749     19748     19751     19754     19750     19748     19751     19752
     19750     19748     19751     19753     19750     19748     19751     19754
     19751     19754     19757     19758     19751     19754     19757     19759
     19752     19751     19754     19755     19752     19751     19754     19756
     19752     19751     19754     19757     19753     19751     19754     19755
     19753     19751     19754     19756     19753     19751     19754     19757
     19754     19757     19759     19760     19754     19757     19759     19761
     19755     19754     19757     19758     19755     19754     19757     19759
     19756     19754     19757     19758     19756     19754     19757     19759
     19757     19759     19761     19762     19757     19759     19761     19763
     19757     19759     19761     19764     19758     19757     19759     19760
     19758     19757     19759     19761     19759     19761     19764     19765
     19759     19761     19764     19766     19759     19761     19764     19767
     19760     19759     19761     19762     19760     19759     19761     19763
     19760     19759     19761     19764     19761     19764     19767     19768
     19761     19764     19767     19769     19761     19764     19767     19770
     19762     19761     19764     19765     19762     19761     19764     19766
     19762     19761     19764     19767     19763     19761     19764     19765
     19763     19761     19764     19766     19763     19761     19764     19767
     19764     19767     19770     19771     19764     19767     19770     19772
     19764     19767     19770     19773     19765     19764     19767     19768
     19765     19764     19767     19769     19765     19764     19767     19770
     19766     19764     19767     19768     19766     19764     19767     19769
     19766     19764     19767     19770     19767     19770     19773     19774
     19767     19770     19773     19775     19767     19770     19773     19776
     19768     19767     19770     19771     19768     19767     19770     19772
     19768     19767     19770     19773     19769     19767     19770     19771
     19769     19767     19770     19772     19769     19767     19770     19773
     19770     19773     19776     19777     19770     19773     19776     19778
     19770     19773     19776     19779     19771     19770     19773     19774
     19771     19770     19773     19775     19771     19770     19773     19776
     19772     19770     19773     19774     19772     19770     19773     19775
     19772     19770     19773     19776     19773     19776     19779     19780
     19773     19776     19779     19781     19773     19776     19779     19782
     19774     19773     19776     19777     19774     19773     19776     19778
     19774     19773     19776     19779     19775     19773     19776     19777
     19775     19773     19776     19778     19775     19773     19776     19779
     19776     19779     19782     19783     19776     19779     19782     19784
     19776     19779     19782     19785     19777     19776     19779     19780
     19777     19776     19779     19781     19777     19776     19779     19782
     19778     19776     19779     19780     19778     19776     19779     19781
     19778     19776     19779     19782     19780     19779     19782     19783
     19780     19779     19782     19784     19780     19779     19782     19785
     19781     19779     19782     19783     19781     19779     19782     19784
     19781     19779     19782     19785     19786     19789     19792     19793
     19786     19789     19792     19794     19786     19789     19792     19795
     19787     19786     19789     19790     19787     19786     19789     19791
     19787     19786     19789     19792     19788     19786     19789     19790
     19788     19786     19789     19791     19788     19786     19789     19792
     19789     19792     19795     19796     19789     19792     19795     19797
     19789     19792     19795     19798     19790     19789     19792     19793
     19790     19789     19792     19794     19790     19789     19792     19795
     19791     19789     19792     19793     19791     19789     19792     19794
     19791     19789     19792     19795     19792     19795     19798     19799
     19792     19795     19798     19800     19792     19795     19798     19801
     19793     19792     19795     19796     19793     19792     19795     19797
     19793     19792     19795     19798     19794     19792     19795     19796
     19794     19792     19795     19797     19794     19792     19795     19798
     19795     19798     19801     19802     19795     19798     19801     19803
     19795     19798     19801     19804     19796     19795     19798     19799
     19796     19795     19798     19800     19796     19795     19798     19801
     19797     19795     19798     19799     19797     19795     19798     19800
     19797     19795     19798     19801     19798     19801     19804     19805
     19798     19801     19804     19806     19798     19801     19804     19807
     19799     19798     19801     19802     19799     19798     19801     19803
     19799     19798     19801     19804     19800     19798     19801     19802
     19800     19798     19801     19803     19800     19798     19801     19804
     19801     19804     19807     19808     19801     19804     19807     19809
     19801     19804     19807     19810     19802     19801     19804     19805
     19802     19801     19804     19806     19802     19801     19804     19807
     19803     19801     19804     19805     19803     19801     19804     19806
     19803     19801     19804     19807     19804     19807     19810     19811
     19804     19807     19810     19812     19804     19807     19810     19813
     19805     19804     19807     19808     19805     19804     19807     19809
     19805     19804     19807     19810     19806     19804     19807     19808
     19806     19804     19807     19809     19806     19804     19807     19810
     19807     19810     19813     19814     19807     19810     19813     19815
     19807     19810     19813     19816     19808     19807     19810     19811
     19808     19807     19810     19812     19808     19807     19810     19813
     19809     19807     19810     19811     19809     19807     19810     19812
     19809     19807     19810     19813     19810     19813     19816     19817
     19810     19813     19816     19818     19810     19813     19816     19819
     19811     19810     19813     19814     19811     19810     19813     19815
     19811     19810     19813     19816     19812     19810     19813     19814
     19812     19810     19813     19815     19812     19810     19813     19816
     19813     19816     19819     19820     19813     19816     19819     19821
     19813     19816     19819     19822     19814     19813     19816     19817
     19814     19813     19816     19818     19814     19813     19816     19819
     19815     19813     19816     19817     19815     19813     19816     19818
     19815     19813     19816     19819     19816     19819     19822     19823
     19816     19819     19822     19824     19816     19819     19822     19825
     19817     19816     19819     19820     19817     19816     19819     19821
     19817     19816     19819     19822     19818     19816     19819     19820
     19818     19816     19819     19821     19818     19816     19819     19822
     19819     19822     19825     19826     19819     19822     19825     19827
     19819     19822     19825     19828     19820     19819     19822     19823
     19820     19819     19822     19824     19820     19819     19822     19825
     19821     19819     19822     19823     19821     19819     19822     19824
     19821     19819     19822     19825     19822     19825     19828     19829
     19822     19825     19828     19830     19822     19825     19828     19831
     19823     19822     19825     19826     19823     19822     19825     19827
     19823     19822     19825     19828     19824     19822     19825     19826
     19824     19822     19825     19827     19824     19822     19825     19828
     19825     19828     19831     19832     19825     19828     19831     19833
     19825     19828     19831     19834     19826     19825     19828     19829
     19826     19825     19828     19830     19826     19825     19828     19831
     19827     19825     19828     19829     19827     19825     19828     19830
     19827     19825     19828     19831     19829     19828     19831     19832
     19829     19828     19831     19833     19829     19828     19831     19834
     19830     19828     19831     19832     19830     19828     19831     19833
     19830     19828     19831     19834      7747      7751      7753      7754
      7747      7751      7753      7755      7747      7751      7756      7757
      7747      7751      7756      7758      7747      7751      7756      7762
      7748      7747      7751      7752      7748      7747      7751      7753
      7748      7747      7751      7756      7749      7747      7751      7752
      7749      7747      7751      7753      7749      7747      7751      7756
      7750      7747      7751      7752      7750      7747      7751      7753
      7750      7747      7751      7756      7751      7756      7762      7759
      7752      7751      7753      7754      7752      7751      7753      7755
      7752      7751      7756      7757      7752      7751      7756      7758
      7752      7751      7756      7762      7753      7751      7756      7757
      7753      7751      7756      7758      7753      7751      7756      7762
      7754      7753      7751      7756      7755      7753      7751      7756
      7756      7762      7759      7760      7756      7762      7759      7761
      7756      7762      7759      7763      7757      7756      7762      7759
      7758      7756      7762      7759      7759      7763      7764      7765
      7759      7763      7764      7766      7759      7763      7764      7767
      7760      7759      7763      7764      7761      7759      7763      7764
      7762      7759      7763      7764      7763      7764      7767      7768
      7763      7764      7767      7769      7763      7764      7767      7775
      7764      7767      7769      7770      7764      7767      7775      7776
      7764      7767      7775      7777      7764      7767      7775      7778
      7765      7764      7767      7768      7765      7764      7767      7769
      7765      7764      7767      7775      7766      7764      7767      7768
      7766      7764      7767      7769      7766      7764      7767      7775
      7767      7769      7770      7771      7767      7769      7770      7772
      7767      7775      7778      7779      7768      7767      7769      7770
      7768      7767      7775      7776      7768      7767      7775      7777
      7768      7767      7775      7778      7769      7767      7775      7776
      7769      7767      7775      7777      7769      7767      7775      7778
      7769      7770      7772      7773      7769      7770      7772      7774
      7769      7770      7772      7784      7770      7769      7767      7775
      7770      7772      7784      7785      7770      7772      7784      7786
      7770      7772      7784      7787      7771      7770      7772      7773
      7771      7770      7772      7774      7771      7770      7772      7784
      7772      7784      7787      7788      7772      7784      7787      7789
      7772      7784      7787      7790      7773      7772      7784      7785
      7773      7772      7784      7786      7773      7772      7784      7787
      7774      7772      7784      7785      7774      7772      7784      7786
      7774      7772      7784      7787      7775      7778      7779      7780
      7775      7778      7779      7781      7776      7775      7778      7779
      7777      7775      7778      7779      7778      7779      7781      7782
      7778      7779      7781      7783      7778      7779      7781      7831
      7779      7781      7831      7832      7779      7781      7831      7833
      7779      7781      7831      7834      7780      7779      7781      7782
      7780      7779      7781      7783      7780      7779      7781      7831
      7781      7831      7834      7835      7781      7831      7834      7836
      7781      7831      7834      7837      7782      7781      7831      7832
      7782      7781      7831      7833      7782      7781      7831      7834
      7783      7781      7831      7832      7783      7781      7831      7833
      7783      7781      7831      7834      7784      7787      7790      7791
      7784      7787      7790      7792      7785      7784      7787      7788
      7785      7784      7787      7789      7785      7784      7787      7790
      7786      7784      7787      7788      7786      7784      7787      7789
      7786      7784      7787      7790      7787      7790      7792      7793
      7787      7790      7792      7794      7788      7787      7790      7791
      7788      7787      7790      7792      7789      7787      7790      7791
      7789      7787      7790      7792      7790      7792      7794      7795
      7790      7792      7794      7796      7790      7792      7794      7797
      7791      7790      7792      7793      7791      7790      7792      7794
      7792      7794      7797      7798      7792      7794      7797      7799
      7793      7792      7794      7795      7793      7792      7794      7796
      7793      7792      7794      7797      7794      7797      7799      7800
      7794      7797      7799      7801      7795      7794      7797      7798
      7795      7794      7797      7799      7796      7794      7797      7798
      7796      7794      7797      7799      7797      7799      7801      7802
      7797      7799      7801      7803      7797      7799      7801      7804
      7798      7797      7799      7800      7798      7797      7799      7801
      7799      7801      7804      7805      7799      7801      7804      7806
      7800      7799      7801      7802      7800      7799      7801      7803
      7800      7799      7801      7804      7801      7804      7806      7807
      7801      7804      7806      7808      7802      7801      7804      7805
      7802      7801      7804      7806      7803      7801      7804      7805
      7803      7801      7804      7806      7804      7806      7808      7809
      7804      7806      7808      7810      7804      7806      7808      7811
      7805      7804      7806      7807      7805      7804      7806      7808
      7806      7808      7811      7812      7806      7808      7811      7813
      7807      7806      7808      7809      7807      7806      7808      7810
      7807      7806      7808      7811      7808      7811      7813      7814
      7808      7811      7813      7815      7809      7808      7811      7812
      7809      7808      7811      7813      7810      7808      7811      7812
      7810      7808      7811      7813      7811      7813      7815      7816
      7811      7813      7815      7817      7811      7813      7815      7818
      7812      7811      7813      7814      7812      7811      7813      7815
      7813      7815      7818      7819      7813      7815      7818      7820
      7813      7815      7818      7821      7814      7813      7815      7816
      7814      7813      7815      7817      7814      7813      7815      7818
      7815      7818      7821      7822      7815      7818      7821      7823
      7815      7818      7821      7824      7816      7815      7818      7819
      7816      7815      7818      7820      7816      7815      7818      7821
      7817      7815      7818      7819      7817      7815      7818      7820
      7817      7815      7818      7821      7818      7821      7824      7825
      7818      7821      7824      7826      7818      7821      7824      7827
      7819      7818      7821      7822      7819      7818      7821      7823
      7819      7818      7821      7824      7820      7818      7821      7822
      7820      7818      7821      7823      7820      7818      7821      7824
      7821      7824      7827      7828      7821      7824      7827      7829
      7821      7824      7827      7830      7822      7821      7824      7825
      7822      7821      7824      7826      7822      7821      7824      7827
      7823      7821      7824      7825      7823      7821      7824      7826
      7823      7821      7824      7827      7825      7824      7827      7828
      7825      7824      7827      7829      7825      7824      7827      7830
      7826      7824      7827      7828      7826      7824      7827      7829
      7826      7824      7827      7830      7831      7834      7837      7838
      7831      7834      7837      7839      7831      7834      7837      7840
      7832      7831      7834      7835      7832      7831      7834      7836
      7832      7831      7834      7837      7833      7831      7834      7835
      7833      7831      7834      7836      7833      7831      7834      7837
      7834      7837      7840      7841      7834      7837      7840      7842
      7834      7837      7840      7843      7835      7834      7837      7838
      7835      7834      7837      7839      7835      7834      7837      7840
      7836      7834      7837      7838      7836      7834      7837      7839
      7836      7834      7837      7840      7837      7840      7843      7844
      7837      7840      7843      7845      7837      7840      7843      7846
      7838      7837      7840      7841      7838      7837      7840      7842
      7838      7837      7840      7843      7839      7837      7840      7841
      7839      7837      7840      7842      7839      7837      7840      7843
      7840      7843      7846      7847      7840      7843      7846      7848
      7840      7843      7846      7849      7841      7840      7843      7844
      7841      7840      7843      7845      7841      7840      7843      7846
      7842      7840      7843      7844      7842      7840      7843      7845
      7842      7840      7843      7846      7843      7846      7849      7850
      7843      7846      7849      7851      7843      7846      7849      7852
      7844      7843      7846      7847      7844      7843      7846      7848
      7844      7843      7846      7849      7845      7843      7846      7847
      7845      7843      7846      7848      7845      7843      7846      7849
      7846      7849      7852      7853      7846      7849      7852      7854
      7846      7849      7852      7855      7847      7846      7849      7850
      7847      7846      7849      7851      7847      7846      7849      7852
      7848      7846      7849      7850      7848      7846      7849      7851
      7848      7846      7849      7852      7849      7852      7855      7856
      7849      7852      7855      7857      7849      7852      7855      7858
      7850      7849      7852      7853      7850      7849      7852      7854
      7850      7849      7852      7855      7851      7849      7852      7853
      7851      7849      7852      7854      7851      7849      7852      7855
      7852      7855      7858      7859      7852      7855      7858      7860
      7852      7855      7858      7861      7853      7852      7855      7856
      7853      7852      7855      7857      7853      7852      7855      7858
      7854      7852      7855      7856      7854      7852      7855      7857
      7854      7852      7855      7858      7855      7858      7861      7862
      7855      7858      7861      7863      7855      7858      7861      7864
      7856      7855      7858      7859      7856      7855      7858      7860
      7856      7855      7858      7861      7857      7855      7858      7859
      7857      7855      7858      7860      7857      7855      7858      7861
      7858      7861      7864      7865      7858      7861      7864      7866
      7858      7861      7864      7867      7859      7858      7861      7862
      7859      7858      7861      7863      7859      7858      7861      7864
      7860      7858      7861      7862      7860      7858      7861      7863
      7860      7858      7861      7864      7861      7864      7867      7868
      7861      7864      7867      7869      7861      7864      7867      7870
      7862      7861      7864      7865      7862      7861      7864      7866
      7862      7861      7864      7867      7863      7861      7864      7865
      7863      7861      7864      7866      7863      7861      7864      7867
      7864      7867      7870      7871      7864      7867      7870      7872
      7864      7867      7870      7873      7865      7864      7867      7868
      7865      7864      7867      7869      7865      7864      7867      7870
      7866      7864      7867      7868      7866      7864      7867      7869
      7866      7864      7867      7870      7867      7870      7873      7874
      7867      7870      7873      7875      7867      7870      7873      7876
      7868      7867      7870      7871      7868      7867      7870      7872
      7868      7867      7870      7873      7869      7867      7870      7871
      7869      7867      7870      7872      7869      7867      7870      7873
      7870      7873      7876      7877      7870      7873      7876      7878
      7870      7873      7876      7879      7871      7870      7873      7874
      7871      7870      7873      7875      7871      7870      7873      7876
      7872      7870      7873      7874      7872      7870      7873      7875
      7872      7870      7873      7876      7874      7873      7876      7877
      7874      7873      7876      7878      7874      7873      7876      7879
      7875      7873      7876      7877      7875      7873      7876      7878
      7875      7873      7876      7879      4285      4286      4301      4302
      4285      4286      4301      4303      4285      4286      4301      4307
      4286      4285      4289      4290      4286      4285      4289      4291
      4286      4285      4289      4292      4286      4285      4293      4294
      4286      4285      4293      4295      4286      4285      4293      4296
      4286      4285      4297      4298      4286      4285      4297      4299
      4286      4285      4297      4300      4286      4301      4307      4304
      4287      4286      4285      4289      4287      4286      4285      4293
      4287      4286      4285      4297      4287      4286      4301      4302
      4287      4286      4301      4303      4287      4286      4301      4307
      4288      4286      4285      4289      4288      4286      4285      4293
      4288      4286      4285      4297      4288      4286      4301      4302
      4288      4286      4301      4303      4288      4286      4301      4307
      4289      4285      4286      4301      4289      4285      4293      4294
      4289      4285      4293      4295      4289      4285      4293      4296
      4289      4285      4297      4298      4289      4285      4297      4299
      4289      4285      4297      4300      4290      4289      4285      4293
      4290      4289      4285      4297      4291      4289      4285      4293
      4291      4289      4285      4297      4292      4289      4285      4293
      4292      4289      4285      4297      4293      4285      4286      4301
      4293      4285      4297      4298      4293      4285      4297      4299
      4293      4285      4297      4300      4294      4293      4285      4297
      4295      4293      4285      4297      4296      4293      4285      4297
      4297      4285      4286      4301      4301      4307      4304      4305
      4301      4307      4304      4306      4301      4307      4304      4308
      4302      4301      4307      4304      4303      4301      4307      4304
      4304      4308      4309      4310      4304      4308      4309      4311
      4304      4308      4309      4312      4305      4304      4308      4309
      4306      4304      4308      4309      4307      4304      4308      4309
      4308      4309      4312      4313      4308      4309      4312      4314
      4308      4309      4312      4320      4309      4312      4314      4315
      4309      4312      4320      4321      4309      4312      4320      4322
      4309      4312      4320      4323      4310      4309      4312      4313
      4310      4309      4312      4314      4310      4309      4312      4320
      4311      4309      4312      4313      4311      4309      4312      4314
      4311      4309      4312      4320      4312      4314      4315      4316
      4312      4314      4315      4317      4312      4320      4323      4324
      4313      4312      4314      4315      4313      4312      4320      4321
      4313      4312      4320      4322      4313      4312      4320      4323
      4314      4312      4320      4321      4314      4312      4320      4322
      4314      4312      4320      4323      4314      4315      4317      4318
      4314      4315      4317      4319      4314      4315      4317      4329
      4315      4314      4312      4320      4315      4317      4329      4330
      4315      4317      4329      4331      4315      4317      4329      4332
      4316      4315      4317      4318      4316      4315      4317      4319
      4316      4315      4317      4329      4317      4329      4332      4333
      4317      4329      4332      4334      4317      4329      4332      4335
      4318      4317      4329      4330      4318      4317      4329      4331
      4318      4317      4329      4332      4319      4317      4329      4330
      4319      4317      4329      4331      4319      4317      4329      4332
      4320      4323      4324      4325      4320      4323      4324      4326
      4321      4320      4323      4324      4322      4320      4323      4324
      4323      4324      4326      4327      4323      4324      4326      4328
      4323      4324      4326      4376      4324      4326      4376      4377
      4324      4326      4376      4378      4324      4326      4376      4379
      4325      4324      4326      4327      4325      4324      4326      4328
      4325      4324      4326      4376      4326      4376      4379      4380
      4326      4376      4379      4381      4326      4376      4379      4382
      4327      4326      4376      4377      4327      4326      4376      4378
      4327      4326      4376      4379      4328      4326      4376      4377
      4328      4326      4376      4378      4328      4326      4376      4379
      4329      4332      4335      4336      4329      4332      4335      4337
      4330      4329      4332      4333      4330      4329      4332      4334
      4330      4329      4332      4335      4331      4329      4332      4333
      4331      4329      4332      4334      4331      4329      4332      4335
      4332      4335      4337      4338      4332      4335      4337      4339
      4333      4332      4335      4336      4333      4332      4335      4337
      4334      4332      4335      4336      4334      4332      4335      4337
      4335      4337      4339      4340      4335      4337      4339      4341
      4335      4337      4339      4342      4336      4335      4337      4338
      4336      4335      4337      4339      4337      4339      4342      4343
      4337      4339      4342      4344      4338      4337      4339      4340
      4338      4337      4339      4341      4338      4337      4339      4342
      4339      4342      4344      4345      4339      4342      4344      4346
      4340      4339      4342      4343      4340      4339      4342      4344
      4341      4339      4342      4343      4341      4339      4342      4344
      4342      4344      4346      4347      4342      4344      4346      4348
      4342      4344      4346      4349      4343      4342      4344      4345
      4343      4342      4344      4346      4344      4346      4349      4350
      4344      4346      4349      4351      4345      4344      4346      4347
      4345      4344      4346      4348      4345      4344      4346      4349
      4346      4349      4351      4352      4346      4349      4351      4353
      4347      4346      4349      4350      4347      4346      4349      4351
      4348      4346      4349      4350      4348      4346      4349      4351
      4349      4351      4353      4354      4349      4351      4353      4355
      4349      4351      4353      4356      4350      4349      4351      4352
      4350      4349      4351      4353      4351      4353      4356      4357
      4351      4353      4356      4358      4352      4351      4353      4354
      4352      4351      4353      4355      4352      4351      4353      4356
      4353      4356      4358      4359      4353      4356      4358      4360
      4354      4353      4356      4357      4354      4353      4356      4358
      4355      4353      4356      4357      4355      4353      4356      4358
      4356      4358      4360      4361      4356      4358      4360      4362
      4356      4358      4360      4363      4357      4356      4358      4359
      4357      4356      4358      4360      4358      4360      4363      4364
      4358      4360      4363      4365      4358      4360      4363      4366
      4359      4358      4360      4361      4359      4358      4360      4362
      4359      4358      4360      4363      4360      4363      4366      4367
      4360      4363      4366      4368      4360      4363      4366      4369
      4361      4360      4363      4364      4361      4360      4363      4365
      4361      4360      4363      4366      4362      4360      4363      4364
      4362      4360      4363      4365      4362      4360      4363      4366
      4363      4366      4369      4370      4363      4366      4369      4371
      4363      4366      4369      4372      4364      4363      4366      4367
      4364      4363      4366      4368      4364      4363      4366      4369
      4365      4363      4366      4367      4365      4363      4366      4368
      4365      4363      4366      4369      4366      4369      4372      4373
      4366      4369      4372      4374      4366      4369      4372      4375
      4367      4366      4369      4370      4367      4366      4369      4371
      4367      4366      4369      4372      4368      4366      4369      4370
      4368      4366      4369      4371      4368      4366      4369      4372
      4370      4369      4372      4373      4370      4369      4372      4374
      4370      4369      4372      4375      4371      4369      4372      4373
      4371      4369      4372      4374      4371      4369      4372      4375
      4376      4379      4382      4383      4376      4379      4382      4384
      4376      4379      4382      4385      4377      4376      4379      4380
      4377      4376      4379      4381      4377      4376      4379      4382
      4378      4376      4379      4380      4378      4376      4379      4381
      4378      4376      4379      4382      4379      4382      4385      4386
      4379      4382      4385      4387      4379      4382      4385      4388
      4380      4379      4382      4383      4380      4379      4382      4384
      4380      4379      4382      4385      4381      4379      4382      4383
      4381      4379      4382      4384      4381      4379      4382      4385
      4382      4385      4388      4389      4382      4385      4388      4390
      4382      4385      4388      4391      4383      4382      4385      4386
      4383      4382      4385      4387      4383      4382      4385      4388
      4384      4382      4385      4386      4384      4382      4385      4387
      4384      4382      4385      4388      4385      4388      4391      4392
      4385      4388      4391      4393      4385      4388      4391      4394
      4386      4385      4388      4389      4386      4385      4388      4390
      4386      4385      4388      4391      4387      4385      4388      4389
      4387      4385      4388      4390      4387      4385      4388      4391
      4388      4391      4394      4395      4388      4391      4394      4396
      4388      4391      4394      4397      4389      4388      4391      4392
      4389      4388      4391      4393      4389      4388      4391      4394
      4390      4388      4391      4392      4390      4388      4391      4393
      4390      4388      4391      4394      4391      4394      4397      4398
      4391      4394      4397      4399      4391      4394      4397      4400
      4392      4391      4394      4395      4392      4391      4394      4396
      4392      4391      4394      4397      4393      4391      4394      4395
      4393      4391      4394      4396      4393      4391      4394      4397
      4394      4397      4400      4401      4394      4397      4400      4402
      4394      4397      4400      4403      4395      4394      4397      4398
      4395      4394      4397      4399      4395      4394      4397      4400
      4396      4394      4397      4398      4396      4394      4397      4399
      4396      4394      4397      4400      4397      4400      4403      4404
      4397      4400      4403      4405      4397      4400      4403      4406
      4398      4397      4400      4401      4398      4397      4400      4402
      4398      4397      4400      4403      4399      4397      4400      4401
      4399      4397      4400      4402      4399      4397      4400      4403
      4400      4403      4406      4407      4400      4403      4406      4408
      4400      4403      4406      4409      4401      4400      4403      4404
      4401      4400      4403      4405      4401      4400      4403      4406
      4402      4400      4403      4404      4402      4400      4403      4405
      4402      4400      4403      4406      4403      4406      4409      4410
      4403      4406      4409      4411      4403      4406      4409      4412
      4404      4403      4406      4407      4404      4403      4406      4408
      4404      4403      4406      4409      4405      4403      4406      4407
      4405      4403      4406      4408      4405      4403      4406      4409
      4406      4409      4412      4413      4406      4409      4412      4414
      4406      4409      4412      4415      4407      4406      4409      4410
      4407      4406      4409      4411      4407      4406      4409      4412
      4408      4406      4409      4410      4408      4406      4409      4411
      4408      4406      4409      4412      4409      4412      4415      4416
      4409      4412      4415      4417      4409      4412      4415      4418
      4410      4409      4412      4413      4410      4409      4412      4414
      4410      4409      4412      4415      4411      4409      4412      4413
      4411      4409      4412      4414      4411      4409      4412      4415
      4412      4415      4418      4419      4412      4415      4418      4420
      4412      4415      4418      4421      4413      4412      4415      4416
      4413      4412      4415      4417      4413      4412      4415      4418
      4414      4412      4415      4416      4414      4412      4415      4417
      4414      4412      4415      4418      4415      4418      4421      4422
      4415      4418      4421      4423      4415      4418      4421      4424
      4416      4415      4418      4419      4416      4415      4418      4420
      4416      4415      4418      4421      4417      4415      4418      4419
      4417      4415      4418      4420      4417      4415      4418      4421
      4419      4418      4421      4422      4419      4418      4421      4423
      4419      4418      4421      4424      4420      4418      4421      4422
      4420      4418      4421      4423      4420      4418      4421      4424
       149       153       156       157       149       153       156       187
       149       195       192       187       149       195       192       193
       149       195       192       194       150       149       151       152
       150       149       153       154       150       149       153       155
       150       149       153       156       150       149       195       192
       150       149       195       196       150       149       195       197
       151       149       153       154       151       149       153       155
       151       149       153       156       151       149       195       192
       151       149       195       196       151       149       195       197
       152       151       149       153       152       151       149       195
       153       149       195       192       153       149       195       196
       153       149       195       197       153       156       157       158
       153       156       157       159       153       156       187       185
       153       156       187       188       153       156       187       192
       154       153       149       195       154       153       156       157
       154       153       156       187       155       153       149       195
       155       153       156       157       155       153       156       187
       156       153       149       195       156       157       159       160
       156       157       159       161       156       157       159       162
       156       187       185       162       156       187       185       182
       156       187       185       186       156       187       188       189
       156       187       188       190       156       187       188       191
       156       187       192       193       156       187       192       194
       156       187       192       195       157       156       187       185
       157       156       187       188       157       156       187       192
       157       159       162       163       157       159       162       164
       157       159       162       185       158       157       156       187
       158       157       159       160       158       157       159       161
       158       157       159       162       159       157       156       187
       159       162       164       165       159       162       164       166
       159       162       164       174       159       162       185       182
       159       162       185       186       159       162       185       187
       160       159       162       163       160       159       162       164
       160       159       162       185       161       159       162       163
       161       159       162       164       161       159       162       185
       162       164       166       167       162       164       166       168
       162       164       166       169       162       164       174       172
       162       164       174       175       162       164       174       179
       162       185       182       179       162       185       182       183
       162       185       182       184       162       185       187       188
       162       185       187       192       163       162       164       165
       163       162       164       166       163       162       164       174
       163       162       185       182       163       162       185       186
       163       162       185       187       164       162       185       182
       164       162       185       186       164       162       185       187
       164       166       169       170       164       166       169       171
       164       166       169       172       164       174       172       169
       164       174       172       173       164       174       172       198
       164       174       175       176       164       174       175       177
       164       174       175       178       164       174       179       180
       164       174       179       181       164       174       179       182
       165       164       162       185       165       164       166       167
       165       164       166       168       165       164       166       169
       165       164       174       172       165       164       174       175
       165       164       174       179       166       164       162       185
       166       164       174       172       166       164       174       175
       166       164       174       179       166       169       172       173
       166       169       172       174       166       169       172       198
       167       166       164       174       167       166       169       170
       167       166       169       171       167       166       169       172
       168       166       164       174       168       166       169       170
       168       166       169       171       168       166       169       172
       169       166       164       174       169       172       174       175
       169       172       174       179       169       172       198       199
       169       172       198       200       169       172       198       204
       170       169       172       173       170       169       172       174
       170       169       172       198       171       169       172       173
       171       169       172       174       171       169       172       198
       172       174       175       176       172       174       175       177
       172       174       175       178       172       174       179       180
       172       174       179       181       172       174       179       182
       172       198       200       201       172       198       200       202
       172       198       200       203       172       198       204       205
       172       198       204       206       172       198       204       207
       173       172       174       175       173       172       174       179
       173       172       198       199       173       172       198       200
       173       172       198       204       174       164       162       185
       174       172       198       199       174       172       198       200
       174       172       198       204       174       179       182       183
       174       179       182       184       174       179       182       185
       175       174       172       198       175       174       179       180
       175       174       179       181       175       174       179       182
       176       175       174       179       177       175       174       179
       178       175       174       179       179       174       172       198
       179       182       185       186       179       182       185       187
       180       179       182       183       180       179       182       184
       180       179       182       185       181       179       182       183
       181       179       182       184       181       179       182       185
       182       185       187       188       182       185       187       192
       183       182       185       186       183       182       185       187
       184       182       185       186       184       182       185       187
       185       187       188       189       185       187       188       190
       185       187       188       191       185       187       192       193
       185       187       192       194       185       187       192       195
       186       185       187       188       186       185       187       192
       187       192       195       196       187       192       195       197
       188       187       192       193       188       187       192       194
       188       187       192       195       189       188       187       192
       190       188       187       192       191       188       187       192
       193       192       195       196       193       192       195       197
       194       192       195       196       194       192       195       197
       198       204       207       208       198       204       207       209
       198       204       207       210       199       198       200       201
       199       198       200       202       199       198       200       203
       199       198       204       205       199       198       204       206
       199       198       204       207       200       198       204       205
       200       198       204       206       200       198       204       207
       201       200       198       204       202       200       198       204
       203       200       198       204       204       207       210       211
       204       207       210       212       204       207       210       213
       205       204       207       208       205       204       207       209
       205       204       207       210       206       204       207       208
       206       204       207       209       206       204       207       210
       207       210       213       214       207       210       213       215
       207       210       213       219       208       207       210       211
       208       207       210       212       208       207       210       213
       209       207       210       211       209       207       210       212
       209       207       210       213       210       213       215       216
       210       213       215       217       210       213       215       218
       210       213       219       220       210       213       219       221
       210       213       219       222       211       210       213       214
       211       210       213       215       211       210       213       219
       212       210       213       214       212       210       213       215
       212       210       213       219       214       213       215       216
       214       213       215       217       214       213       215       218
       214       213       219       220       214       213       219       221
       214       213       219       222       215       213       219       220
       215       213       219       221       215       213       219       222
       216       215       213       219       217       215       213       219
       218       215       213       219     10665     10678     10681     10682
     10665     10678     10681     10683     10665     10678     10681     10688
     10666     10665     10670     10671     10666     10665     10670     10672
     10666     10665     10670     10673     10666     10665     10674     10675
     10666     10665     10674     10676     10666     10665     10674     10677
     10666     10665     10678     10679     10666     10665     10678     10680
     10666     10665     10678     10681     10667     10666     10665     10670
     10667     10666     10665     10674     10667     10666     10665     10678
     10668     10666     10665     10670     10668     10666     10665     10674
     10668     10666     10665     10678     10669     10666     10665     10670
     10669     10666     10665     10674     10669     10666     10665     10678
     10670     10665     10674     10675     10670     10665     10674     10676
     10670     10665     10674     10677     10670     10665     10678     10679
     10670     10665     10678     10680     10670     10665     10678     10681
     10671     10670     10665     10674     10671     10670     10665     10678
     10672     10670     10665     10674     10672     10670     10665     10678
     10673     10670     10665     10674     10673     10670     10665     10678
     10674     10665     10678     10679     10674     10665     10678     10680
     10674     10665     10678     10681     10675     10674     10665     10678
     10676     10674     10665     10678     10677     10674     10665     10678
     10678     10681     10688     10684     10679     10678     10681     10682
     10679     10678     10681     10683     10679     10678     10681     10688
     10680     10678     10681     10682     10680     10678     10681     10683
     10680     10678     10681     10688     10681     10688     10684     10685
     10681     10688     10684     10686     10681     10688     10684     10687
     10682     10681     10688     10684     10683     10681     10688     10684
     10684     10687     10689     10690     10684     10687     10689     10691
     10684     10687     10689     10694     10685     10684     10687     10689
     10686     10684     10687     10689     10687     10689     10694     10692
     10687     10689     10694     10695     10687     10689     10694     10696
     10688     10684     10687     10689     10689     10694     10692     10693
     10689     10694     10692     10744     10689     10694     10696     10697
     10689     10694     10696     10698     10689     10694     10696     10700
     10690     10689     10694     10692     10690     10689     10694     10695
     10690     10689     10694     10696     10691     10689     10694     10692
     10691     10689     10694     10695     10691     10689     10694     10696
     10692     10694     10696     10697     10692     10694     10696     10698
     10692     10694     10696     10700     10692     10744     10746     10747
     10692     10744     10746     10748     10692     10744     10746     10749
     10693     10692     10694     10695     10693     10692     10694     10696
     10693     10692     10744     10745     10693     10692     10744     10746
     10694     10692     10744     10745     10694     10692     10744     10746
     10694     10696     10698     10699     10694     10696     10700     10701
     10694     10696     10700     10702     10695     10694     10692     10744
     10695     10694     10696     10697     10695     10694     10696     10698
     10695     10694     10696     10700     10696     10694     10692     10744
     10696     10700     10702     10703     10696     10700     10702     10704
     10697     10696     10698     10699     10697     10696     10700     10701
     10697     10696     10700     10702     10698     10696     10700     10701
     10698     10696     10700     10702     10699     10698     10696     10700
     10700     10702     10704     10705     10700     10702     10704     10706
     10700     10702     10704     10707     10701     10700     10702     10703
     10701     10700     10702     10704     10702     10704     10707     10708
     10702     10704     10707     10709     10702     10704     10707     10710
     10703     10702     10704     10705     10703     10702     10704     10706
     10703     10702     10704     10707     10704     10707     10710     10711
     10704     10707     10710     10712     10704     10707     10710     10713
     10705     10704     10707     10708     10705     10704     10707     10709
     10705     10704     10707     10710     10706     10704     10707     10708
     10706     10704     10707     10709     10706     10704     10707     10710
     10707     10710     10713     10714     10707     10710     10713     10715
     10707     10710     10713     10716     10708     10707     10710     10711
     10708     10707     10710     10712     10708     10707     10710     10713
     10709     10707     10710     10711     10709     10707     10710     10712
     10709     10707     10710     10713     10710     10713     10716     10717
     10710     10713     10716     10718     10710     10713     10716     10719
     10711     10710     10713     10714     10711     10710     10713     10715
     10711     10710     10713     10716     10712     10710     10713     10714
     10712     10710     10713     10715     10712     10710     10713     10716
     10713     10716     10719     10720     10713     10716     10719     10721
     10713     10716     10719     10722     10714     10713     10716     10717
     10714     10713     10716     10718     10714     10713     10716     10719
     10715     10713     10716     10717     10715     10713     10716     10718
     10715     10713     10716     10719     10716     10719     10722     10723
     10716     10719     10722     10724     10716     10719     10722     10725
     10717     10716     10719     10720     10717     10716     10719     10721
     10717     10716     10719     10722     10718     10716     10719     10720
     10718     10716     10719     10721     10718     10716     10719     10722
     10719     10722     10725     10726     10719     10722     10725     10727
     10719     10722     10725     10728     10720     10719     10722     10723
     10720     10719     10722     10724     10720     10719     10722     10725
     10721     10719     10722     10723     10721     10719     10722     10724
     10721     10719     10722     10725     10722     10725     10728     10729
     10722     10725     10728     10730     10722     10725     10728     10731
     10723     10722     10725     10726     10723     10722     10725     10727
     10723     10722     10725     10728     10724     10722     10725     10726
     10724     10722     10725     10727     10724     10722     10725     10728
     10725     10728     10731     10732     10725     10728     10731     10733
     10725     10728     10731     10734     10726     10725     10728     10729
     10726     10725     10728     10730     10726     10725     10728     10731
     10727     10725     10728     10729     10727     10725     10728     10730
     10727     10725     10728     10731     10728     10731     10734     10735
     10728     10731     10734     10736     10728     10731     10734     10737
     10729     10728     10731     10732     10729     10728     10731     10733
     10729     10728     10731     10734     10730     10728     10731     10732
     10730     10728     10731     10733     10730     10728     10731     10734
     10731     10734     10737     10738     10731     10734     10737     10739
     10731     10734     10737     10740     10732     10731     10734     10735
     10732     10731     10734     10736     10732     10731     10734     10737
     10733     10731     10734     10735     10733     10731     10734     10736
     10733     10731     10734     10737     10734     10737     10740     10741
     10734     10737     10740     10742     10734     10737     10740     10743
     10735     10734     10737     10738     10735     10734     10737     10739
     10735     10734     10737     10740     10736     10734     10737     10738
     10736     10734     10737     10739     10736     10734     10737     10740
     10738     10737     10740     10741     10738     10737     10740     10742
     10738     10737     10740     10743     10739     10737     10740     10741
     10739     10737     10740     10742     10739     10737     10740     10743
     10744     10746     10749     10750     10744     10746     10749     10751
     10744     10746     10749     10752     10745     10744     10746     10747
     10745     10744     10746     10748     10745     10744     10746     10749
     10746     10749     10752     10753     10746     10749     10752     10754
     10746     10749     10752     10755     10747     10746     10749     10750
     10747     10746     10749     10751     10747     10746     10749     10752
     10748     10746     10749     10750     10748     10746     10749     10751
     10748     10746     10749     10752     10749     10752     10755     10756
     10749     10752     10755     10757     10749     10752     10755     10758
     10750     10749     10752     10753     10750     10749     10752     10754
     10750     10749     10752     10755     10751     10749     10752     10753
     10751     10749     10752     10754     10751     10749     10752     10755
     10752     10755     10758     10759     10752     10755     10758     10760
     10752     10755     10758     10761     10753     10752     10755     10756
     10753     10752     10755     10757     10753     10752     10755     10758
     10754     10752     10755     10756     10754     10752     10755     10757
     10754     10752     10755     10758     10755     10758     10761     10762
     10755     10758     10761     10763     10755     10758     10761     10764
     10756     10755     10758     10759     10756     10755     10758     10760
     10756     10755     10758     10761     10757     10755     10758     10759
     10757     10755     10758     10760     10757     10755     10758     10761
     10758     10761     10764     10765     10758     10761     10764     10766
     10758     10761     10764     10767     10759     10758     10761     10762
     10759     10758     10761     10763     10759     10758     10761     10764
     10760     10758     10761     10762     10760     10758     10761     10763
     10760     10758     10761     10764     10761     10764     10767     10768
     10761     10764     10767     10769     10762     10761     10764     10765
     10762     10761     10764     10766     10762     10761     10764     10767
     10763     10761     10764     10765     10763     10761     10764     10766
     10763     10761     10764     10767     10764     10767     10769     10770
     10764     10767     10769     10771     10765     10764     10767     10768
     10765     10764     10767     10769     10766     10764     10767     10768
     10766     10764     10767     10769     10767     10769     10771     10772
     10767     10769     10771     10773     10767     10769     10771     10774
     10768     10767     10769     10770     10768     10767     10769     10771
     10769     10771     10774     10775     10769     10771     10774     10776
     10769     10771     10774     10777     10770     10769     10771     10772
     10770     10769     10771     10773     10770     10769     10771     10774
     10771     10774     10777     10778     10771     10774     10777     10779
     10771     10774     10777     10780     10772     10771     10774     10775
     10772     10771     10774     10776     10772     10771     10774     10777
     10773     10771     10774     10775     10773     10771     10774     10776
     10773     10771     10774     10777     10774     10777     10780     10781
     10774     10777     10780     10782     10774     10777     10780     10783
     10775     10774     10777     10778     10775     10774     10777     10779
     10775     10774     10777     10780     10776     10774     10777     10778
     10776     10774     10777     10779     10776     10774     10777     10780
     10777     10780     10783     10784     10777     10780     10783     10785
     10777     10780     10783     10786     10778     10777     10780     10781
     10778     10777     10780     10782     10778     10777     10780     10783
     10779     10777     10780     10781     10779     10777     10780     10782
     10779     10777     10780     10783     10780     10783     10786     10787
     10780     10783     10786     10788     10780     10783     10786     10789
     10781     10780     10783     10784     10781     10780     10783     10785
     10781     10780     10783     10786     10782     10780     10783     10784
     10782     10780     10783     10785     10782     10780     10783     10786
     10783     10786     10789     10790     10783     10786     10789     10791
     10783     10786     10789     10792     10784     10783     10786     10787
     10784     10783     10786     10788     10784     10783     10786     10789
     10785     10783     10786     10787     10785     10783     10786     10788
     10785     10783     10786     10789     10786     10789     10792     10793
     10786     10789     10792     10794     10786     10789     10792     10795
     10787     10786     10789     10790     10787     10786     10789     10791
     10787     10786     10789     10792     10788     10786     10789     10790
     10788     10786     10789     10791     10788     10786     10789     10792
     10790     10789     10792     10793     10790     10789     10792     10794
     10790     10789     10792     10795     10791     10789     10792     10793
     10791     10789     10792     10794     10791     10789     10792     10795
      6101      6114      6117      6118      6101      6114      6117      6119
      6101      6114      6117      6123      6102      6101      6106      6107
      6102      6101      6106      6108      6102      6101      6106      6109
      6102      6101      6110      6111      6102      6101      6110      6112
      6102      6101      6110      6113      6102      6101      6114      6115
      6102      6101      6114      6116      6102      6101      6114      6117
      6103      6102      6101      6106      6103      6102      6101      6110
      6103      6102      6101      6114      6104      6102      6101      6106
      6104      6102      6101      6110      6104      6102      6101      6114
      6105      6102      6101      6106      6105      6102      6101      6110
      6105      6102      6101      6114      6106      6101      6110      6111
      6106      6101      6110      6112      6106      6101      6110      6113
      6106      6101      6114      6115      6106      6101      6114      6116
      6106      6101      6114      6117      6107      6106      6101      6110
      6107      6106      6101      6114      6108      6106      6101      6110
      6108      6106      6101      6114      6109      6106      6101      6110
      6109      6106      6101      6114      6110      6101      6114      6115
      6110      6101      6114      6116      6110      6101      6114      6117
      6111      6110      6101      6114      6112      6110      6101      6114
      6113      6110      6101      6114      6114      6117      6123      6120
      6115      6114      6117      6118      6115      6114      6117      6119
      6115      6114      6117      6123      6116      6114      6117      6118
      6116      6114      6117      6119      6116      6114      6117      6123
      6117      6123      6120      6121      6117      6123      6120      6122
      6117      6123      6120      6124      6118      6117      6123      6120
      6119      6117      6123      6120      6120      6124      6125      6126
      6120      6124      6125      6127      6120      6124      6125      6128
      6121      6120      6124      6125      6122      6120      6124      6125
      6123      6120      6124      6125      6124      6125      6128      6129
      6124      6125      6128      6130      6124      6125      6128      6136
      6125      6128      6130      6131      6125      6128      6136      6137
      6125      6128      6136      6138      6125      6128      6136      6139
      6126      6125      6128      6129      6126      6125      6128      6130
      6126      6125      6128      6136      6127      6125      6128      6129
      6127      6125      6128      6130      6127      6125      6128      6136
      6128      6130      6131      6132      6128      6130      6131      6133
      6128      6136      6139      6140      6129      6128      6130      6131
      6129      6128      6136      6137      6129      6128      6136      6138
      6129      6128      6136      6139      6130      6128      6136      6137
      6130      6128      6136      6138      6130      6128      6136      6139
      6130      6131      6133      6134      6130      6131      6133      6135
      6130      6131      6133      6145      6131      6130      6128      6136
      6131      6133      6145      6146      6131      6133      6145      6147
      6131      6133      6145      6148      6132      6131      6133      6134
      6132      6131      6133      6135      6132      6131      6133      6145
      6133      6145      6148      6149      6133      6145      6148      6150
      6133      6145      6148      6151      6134      6133      6145      6146
      6134      6133      6145      6147      6134      6133      6145      6148
      6135      6133      6145      6146      6135      6133      6145      6147
      6135      6133      6145      6148      6136      6139      6140      6141
      6136      6139      6140      6142      6137      6136      6139      6140
      6138      6136      6139      6140      6139      6140      6142      6143
      6139      6140      6142      6144      6139      6140      6142      6190
      6140      6142      6190      6191      6140      6142      6190      6192
      6140      6142      6190      6193      6141      6140      6142      6143
      6141      6140      6142      6144      6141      6140      6142      6190
      6142      6190      6193      6194      6142      6190      6193      6195
      6142      6190      6193      6196      6143      6142      6190      6191
      6143      6142      6190      6192      6143      6142      6190      6193
      6144      6142      6190      6191      6144      6142      6190      6192
      6144      6142      6190      6193      6145      6148      6151      6152
      6145      6148      6151      6153      6145      6148      6151      6154
      6146      6145      6148      6149      6146      6145      6148      6150
      6146      6145      6148      6151      6147      6145      6148      6149
      6147      6145      6148      6150      6147      6145      6148      6151
      6148      6151      6154      6155      6148      6151      6154      6156
      6148      6151      6154      6157      6149      6148      6151      6152
      6149      6148      6151      6153      6149      6148      6151      6154
      6150      6148      6151      6152      6150      6148      6151      6153
      6150      6148      6151      6154      6151      6154      6157      6158
      6151      6154      6157      6159      6151      6154      6157      6160
      6152      6151      6154      6155      6152      6151      6154      6156
      6152      6151      6154      6157      6153      6151      6154      6155
      6153      6151      6154      6156      6153      6151      6154      6157
      6154      6157      6160      6161      6154      6157      6160      6162
      6154      6157      6160      6163      6155      6154      6157      6158
      6155      6154      6157      6159      6155      6154      6157      6160
      6156      6154      6157      6158      6156      6154      6157      6159
      6156      6154      6157      6160      6157      6160      6163      6164
      6157      6160      6163      6165      6158      6157      6160      6161
      6158      6157      6160      6162      6158      6157      6160      6163
      6159      6157      6160      6161      6159      6157      6160      6162
      6159      6157      6160      6163      6160      6163      6165      6166
      6160      6163      6165      6167      6161      6160      6163      6164
      6161      6160      6163      6165      6162      6160      6163      6164
      6162      6160      6163      6165      6163      6165      6167      6168
      6163      6165      6167      6169      6163      6165      6167      6170
      6164      6163      6165      6166      6164      6163      6165      6167
      6165      6167      6170      6171      6165      6167      6170      6172
      6166      6165      6167      6168      6166      6165      6167      6169
      6166      6165      6167      6170      6167      6170      6172      6173
      6167      6170      6172      6174      6168      6167      6170      6171
      6168      6167      6170      6172      6169      6167      6170      6171
      6169      6167      6170      6172      6170      6172      6174      6175
      6170      6172      6174      6176      6170      6172      6174      6177
      6171      6170      6172      6173      6171      6170      6172      6174
      6172      6174      6177      6178      6172      6174      6177      6179
      6172      6174      6177      6180      6173      6172      6174      6175
      6173      6172      6174      6176      6173      6172      6174      6177
      6174      6177      6180      6181      6174      6177      6180      6182
      6174      6177      6180      6183      6175      6174      6177      6178
      6175      6174      6177      6179      6175      6174      6177      6180
      6176      6174      6177      6178      6176      6174      6177      6179
      6176      6174      6177      6180      6177      6180      6183      6184
      6177      6180      6183      6185      6177      6180      6183      6186
      6178      6177      6180      6181      6178      6177      6180      6182
      6178      6177      6180      6183      6179      6177      6180      6181
      6179      6177      6180      6182      6179      6177      6180      6183
      6180      6183      6186      6187      6180      6183      6186      6188
      6180      6183      6186      6189      6181      6180      6183      6184
      6181      6180      6183      6185      6181      6180      6183      6186
      6182      6180      6183      6184      6182      6180      6183      6185
      6182      6180      6183      6186      6184      6183      6186      6187
      6184      6183      6186      6188      6184      6183      6186      6189
      6185      6183      6186      6187      6185      6183      6186      6188
      6185      6183      6186      6189      6190      6193      6196      6197
      6190      6193      6196      6198      6190      6193      6196      6199
      6191      6190      6193      6194      6191      6190      6193      6195
      6191      6190      6193      6196      6192      6190      6193      6194
      6192      6190      6193      6195      6192      6190      6193      6196
      6193      6196      6199      6200      6193      6196      6199      6201
      6193      6196      6199      6202      6194      6193      6196      6197
      6194      6193      6196      6198      6194      6193      6196      6199
      6195      6193      6196      6197      6195      6193      6196      6198
      6195      6193      6196      6199      6196      6199      6202      6203
      6196      6199      6202      6204      6196      6199      6202      6205
      6197      6196      6199      6200      6197      6196      6199      6201
      6197      6196      6199      6202      6198      6196      6199      6200
      6198      6196      6199      6201      6198      6196      6199      6202
      6199      6202      6205      6206      6199      6202      6205      6207
      6199      6202      6205      6208      6200      6199      6202      6203
      6200      6199      6202      6204      6200      6199      6202      6205
      6201      6199      6202      6203      6201      6199      6202      6204
      6201      6199      6202      6205      6202      6205      6208      6209
      6202      6205      6208      6210      6202      6205      6208      6211
      6203      6202      6205      6206      6203      6202      6205      6207
      6203      6202      6205      6208      6204      6202      6205      6206
      6204      6202      6205      6207      6204      6202      6205      6208
      6205      6208      6211      6212      6205      6208      6211      6213
      6205      6208      6211      6214      6206      6205      6208      6209
      6206      6205      6208      6210      6206      6205      6208      6211
      6207      6205      6208      6209      6207      6205      6208      6210
      6207      6205      6208      6211      6208      6211      6214      6215
      6208      6211      6214      6216      6208      6211      6214      6217
      6209      6208      6211      6212      6209      6208      6211      6213
      6209      6208      6211      6214      6210      6208      6211      6212
      6210      6208      6211      6213      6210      6208      6211      6214
      6211      6214      6217      6218      6211      6214      6217      6219
      6211      6214      6217      6220      6212      6211      6214      6215
      6212      6211      6214      6216      6212      6211      6214      6217
      6213      6211      6214      6215      6213      6211      6214      6216
      6213      6211      6214      6217      6214      6217      6220      6221
      6214      6217      6220      6222      6214      6217      6220      6223
      6215      6214      6217      6218      6215      6214      6217      6219
      6215      6214      6217      6220      6216      6214      6217      6218
      6216      6214      6217      6219      6216      6214      6217      6220
      6217      6220      6223      6224      6217      6220      6223      6225
      6217      6220      6223      6226      6218      6217      6220      6221
      6218      6217      6220      6222      6218      6217      6220      6223
      6219      6217      6220      6221      6219      6217      6220      6222
      6219      6217      6220      6223      6220      6223      6226      6227
      6220      6223      6226      6228      6220      6223      6226      6229
      6221      6220      6223      6224      6221      6220      6223      6225
      6221      6220      6223      6226      6222      6220      6223      6224
      6222      6220      6223      6225      6222      6220      6223      6226
      6223      6226      6229      6230      6223      6226      6229      6231
      6223      6226      6229      6232      6224      6223      6226      6227
      6224      6223      6226      6228      6224      6223      6226      6229
      6225      6223      6226      6227      6225      6223      6226      6228
      6225      6223      6226      6229      6226      6229      6232      6233
      6226      6229      6232      6234      6226      6229      6232      6235
      6227      6226      6229      6230      6227      6226      6229      6231
      6227      6226      6229      6232      6228      6226      6229      6230
      6228      6226      6229      6231      6228      6226      6229      6232
      6229      6232      6235      6236      6229      6232      6235      6237
      6229      6232      6235      6238      6230      6229      6232      6233
      6230      6229      6232      6234      6230      6229      6232      6235
      6231      6229      6232      6233      6231      6229      6232      6234
      6231      6229      6232      6235      6233      6232      6235      6236
      6233      6232      6235      6237      6233      6232      6235      6238
      6234      6232      6235      6236      6234      6232      6235      6237
      6234      6232      6235      6238       223       227       230       231
       223       227       230       261       223       269       266       261
       223       269       266       267       223       269       266       268
       224       223       225       226       224       223       227       228
       224       223       227       229       224       223       227       230
       224       223       269       266       224       223       269       270
       224       223       269       271       225       223       227       228
       225       223       227       229       225       223       227       230
       225       223       269       266       225       223       269       270
       225       223       269       271       226       225       223       227
       226       225       223       269       227       223       269       266
       227       223       269       270       227       223       269       271
       227       230       231       232       227       230       231       233
       227       230       261       259       227       230       261       262
       227       230       261       266       228       227       223       269
       228       227       230       231       228       227       230       261
       229       227       223       269       229       227       230       231
       229       227       230       261       230       227       223       269
       230       231       233       234       230       231       233       235
       230       231       233       236       230       261       259       236
       230       261       259       256       230       261       259       260
       230       261       262       263       230       261       262       264
       230       261       262       265       230       261       266       267
       230       261       266       268       230       261       266       269
       231       230       261       259       231       230       261       262
       231       230       261       266       231       233       236       237
       231       233       236       238       231       233       236       259
       232       231       230       261       232       231       233       234
       232       231       233       235       232       231       233       236
       233       231       230       261       233       236       238       239
       233       236       238       240       233       236       238       248
       233       236       259       256       233       236       259       260
       233       236       259       261       234       233       236       237
       234       233       236       238       234       233       236       259
       235       233       236       237       235       233       236       238
       235       233       236       259       236       238       240       241
       236       238       240       242       236       238       240       243
       236       238       248       246       236       238       248       249
       236       238       248       253       236       259       256       253
       236       259       256       257       236       259       256       258
       236       259       261       262       236       259       261       266
       237       236       238       239       237       236       238       240
       237       236       238       248       237       236       259       256
       237       236       259       260       237       236       259       261
       238       236       259       256       238       236       259       260
       238       236       259       261       238       240       243       244
       238       240       243       245       238       240       243       246
       238       248       246       243       238       248       246       247
       238       248       246       272       238       248       249       250
       238       248       249       251       238       248       249       252
       238       248       253       254       238       248       253       255
       238       248       253       256       239       238       236       259
       239       238       240       241       239       238       240       242
       239       238       240       243       239       238       248       246
       239       238       248       249       239       238       248       253
       240       238       236       259       240       238       248       246
       240       238       248       249       240       238       248       253
       240       243       246       247       240       243       246       248
       240       243       246       272       241       240       238       248
       241       240       243       244       241       240       243       245
       241       240       243       246       242       240       238       248
       242       240       243       244       242       240       243       245
       242       240       243       246       243       240       238       248
       243       246       248       249       243       246       248       253
       243       246       272       273       243       246       272       274
       243       246       272       278       244       243       246       247
       244       243       246       248       244       243       246       272
       245       243       246       247       245       243       246       248
       245       243       246       272       246       248       249       250
       246       248       249       251       246       248       249       252
       246       248       253       254       246       248       253       255
       246       248       253       256       246       272       274       275
       246       272       274       276       246       272       274       277
       246       272       278       279       246       272       278       280
       246       272       278       281       247       246       248       249
       247       246       248       253       247       246       272       273
       247       246       272       274       247       246       272       278
       248       238       236       259       248       246       272       273
       248       246       272       274       248       246       272       278
       248       253       256       257       248       253       256       258
       248       253       256       259       249       248       246       272
       249       248       253       254       249       248       253       255
       249       248       253       256       250       249       248       253
       251       249       248       253       252       249       248       253
       253       248       246       272       253       256       259       260
       253       256       259       261       254       253       256       257
       254       253       256       258       254       253       256       259
       255       253       256       257       255       253       256       258
       255       253       256       259       256       259       261       262
       256       259       261       266       257       256       259       260
       257       256       259       261       258       256       259       260
       258       256       259       261       259       261       262       263
       259       261       262       264       259       261       262       265
       259       261       266       267       259       261       266       268
       259       261       266       269       260       259       261       262
       260       259       261       266       261       266       269       270
       261       266       269       271       262       261       266       267
       262       261       266       268       262       261       266       269
       263       262       261       266       264       262       261       266
       265       262       261       266       267       266       269       270
       267       266       269       271       268       266       269       270
       268       266       269       271       272       278       281       282
       272       278       281       283       272       278       281       284
       273       272       274       275       273       272       274       276
       273       272       274       277       273       272       278       279
       273       272       278       280       273       272       278       281
       274       272       278       279       274       272       278       280
       274       272       278       281       275       274       272       278
       276       274       272       278       277       274       272       278
       278       281       284       285       278       281       284       286
       278       281       284       287       279       278       281       282
       279       278       281       283       279       278       281       284
       280       278       281       282       280       278       281       283
       280       278       281       284       281       284       287       288
       281       284       287       289       281       284       287       293
       282       281       284       285       282       281       284       286
       282       281       284       287       283       281       284       285
       283       281       284       286       283       281       284       287
       284       287       289       290       284       287       289       291
       284       287       289       292       284       287       293       294
       284       287       293       295       284       287       293       296
       285       284       287       288       285       284       287       289
       285       284       287       293       286       284       287       288
       286       284       287       289       286       284       287       293
       288       287       289       290       288       287       289       291
       288       287       289       292       288       287       293       294
       288       287       293       295       288       287       293       296
       289       287       293       294       289       287       293       295
       289       287       293       296       290       289       287       293
       291       289       287       293       292       289       287       293
       297       301       304       305       297       301       304       335
       297       343       340       335       297       343       340       341
       297       343       340       342       298       297       299       300
       298       297       301       302       298       297       301       303
       298       297       301       304       298       297       343       340
       298       297       343       344       298       297       343       345
       299       297       301       302       299       297       301       303
       299       297       301       304       299       297       343       340
       299       297       343       344       299       297       343       345
       300       299       297       301       300       299       297       343
       301       297       343       340       301       297       343       344
       301       297       343       345       301       304       305       306
       301       304       305       307       301       304       335       333
       301       304       335       336       301       304       335       340
       302       301       297       343       302       301       304       305
       302       301       304       335       303       301       297       343
       303       301       304       305       303       301       304       335
       304       301       297       343       304       305       307       308
       304       305       307       309       304       305       307       310
       304       335       333       310       304       335       333       330
       304       335       333       334       304       335       336       337
       304       335       336       338       304       335       336       339
       304       335       340       341       304       335       340       342
       304       335       340       343       305       304       335       333
       305       304       335       336       305       304       335       340
       305       307       310       311       305       307       310       312
       305       307       310       333       306       305       304       335
       306       305       307       308       306       305       307       309
       306       305       307       310       307       305       304       335
       307       310       312       313       307       310       312       314
       307       310       312       322       307       310       333       330
       307       310       333       334       307       310       333       335
       308       307       310       311       308       307       310       312
       308       307       310       333       309       307       310       311
       309       307       310       312       309       307       310       333
       310       312       314       315       310       312       314       316
       310       312       314       317       310       312       322       320
       310       312       322       323       310       312       322       327
       310       333       330       327       310       333       330       331
       310       333       330       332       310       333       335       336
       310       333       335       340       311       310       312       313
       311       310       312       314       311       310       312       322
       311       310       333       330       311       310       333       334
       311       310       333       335       312       310       333       330
       312       310       333       334       312       310       333       335
       312       314       317       318       312       314       317       319
       312       314       317       320       312       322       320       317
       312       322       320       321       312       322       320       346
       312       322       323       324       312       322       323       325
       312       322       323       326       312       322       327       328
       312       322       327       329       312       322       327       330
       313       312       310       333       313       312       314       315
       313       312       314       316       313       312       314       317
       313       312       322       320       313       312       322       323
       313       312       322       327       314       312       310       333
       314       312       322       320       314       312       322       323
       314       312       322       327       314       317       320       321
       314       317       320       322       314       317       320       346
       315       314       312       322       315       314       317       318
       315       314       317       319       315       314       317       320
       316       314       312       322       316       314       317       318
       316       314       317       319       316       314       317       320
       317       314       312       322       317       320       322       323
       317       320       322       327       317       320       346       347
       317       320       346       348       317       320       346       352
       318       317       320       321       318       317       320       322
       318       317       320       346       319       317       320       321
       319       317       320       322       319       317       320       346
       320       322       323       324       320       322       323       325
       320       322       323       326       320       322       327       328
       320       322       327       329       320       322       327       330
       320       346       348       349       320       346       348       350
       320       346       348       351       320       346       352       353
       320       346       352       354       320       346       352       355
       321       320       322       323       321       320       322       327
       321       320       346       347       321       320       346       348
       321       320       346       352       322       312       310       333
       322       320       346       347       322       320       346       348
       322       320       346       352       322       327       330       331
       322       327       330       332       322       327       330       333
       323       322       320       346       323       322       327       328
       323       322       327       329       323       322       327       330
       324       323       322       327       325       323       322       327
       326       323       322       327       327       322       320       346
       327       330       333       334       327       330       333       335
       328       327       330       331       328       327       330       332
       328       327       330       333       329       327       330       331
       329       327       330       332       329       327       330       333
       330       333       335       336       330       333       335       340
       331       330       333       334       331       330       333       335
       332       330       333       334       332       330       333       335
       333       335       336       337       333       335       336       338
       333       335       336       339       333       335       340       341
       333       335       340       342       333       335       340       343
       334       333       335       336       334       333       335       340
       335       340       343       344       335       340       343       345
       336       335       340       341       336       335       340       342
       336       335       340       343       337       336       335       340
       338       336       335       340       339       336       335       340
       341       340       343       344       341       340       343       345
       342       340       343       344       342       340       343       345
       346       352       355       356       346       352       355       357
       346       352       355       358       347       346       348       349
       347       346       348       350       347       346       348       351
       347       346       352       353       347       346       352       354
       347       346       352       355       348       346       352       353
       348       346       352       354       348       346       352       355
       349       348       346       352       350       348       346       352
       351       348       346       352       352       355       358       359
       352       355       358       360       352       355       358       361
       353       352       355       356       353       352       355       357
       353       352       355       358       354       352       355       356
       354       352       355       357       354       352       355       358
       355       358       361       362       355       358       361       363
       355       358       361       367       356       355       358       359
       356       355       358       360       356       355       358       361
       357       355       358       359       357       355       358       360
       357       355       358       361       358       361       363       364
       358       361       363       365       358       361       363       366
       358       361       367       368       358       361       367       369
       358       361       367       370       359       358       361       362
       359       358       361       363       359       358       361       367
       360       358       361       362       360       358       361       363
       360       358       361       367       362       361       363       364
       362       361       363       365       362       361       363       366
       362       361       367       368       362       361       367       369
       362       361       367       370       363       361       367       368
       363       361       367       369       363       361       367       370
       364       363       361       367       365       363       361       367
       366       363       361       367     16036     16040     16043     16044
     16036     16040     16043     16045     16036     16040     16043     16049
     16037     16036     16040     16041     16037     16036     16040     16042
     16037     16036     16040     16043     16038     16036     16040     16041
     16038     16036     16040     16042     16038     16036     16040     16043
     16039     16036     16040     16041     16039     16036     16040     16042
     16039     16036     16040     16043     16040     16043     16049     16046
     16041     16040     16043     16044     16041     16040     16043     16045
     16041     16040     16043     16049     16042     16040     16043     16044
     16042     16040     16043     16045     16042     16040     16043     16049
     16043     16049     16046     16047     16043     16049     16046     16048
     16043     16049     16046     16050     16044     16043     16049     16046
     16045     16043     16049     16046     16046     16050     16051     16052
     16046     16050     16051     16053     16046     16050     16051     16054
     16047     16046     16050     16051     16048     16046     16050     16051
     16049     16046     16050     16051     16050     16051     16054     16055
     16050     16051     16054     16056     16050     16051     16054     16062
     16051     16054     16056     16057     16051     16054     16062     16063
     16051     16054     16062     16064     16051     16054     16062     16065
     16052     16051     16054     16055     16052     16051     16054     16056
     16052     16051     16054     16062     16053     16051     16054     16055
     16053     16051     16054     16056     16053     16051     16054     16062
     16054     16056     16057     16058     16054     16056     16057     16059
     16054     16062     16065     16066     16055     16054     16056     16057
     16055     16054     16062     16063     16055     16054     16062     16064
     16055     16054     16062     16065     16056     16054     16062     16063
     16056     16054     16062     16064     16056     16054     16062     16065
     16056     16057     16059     16060     16056     16057     16059     16061
     16056     16057     16059     16071     16057     16056     16054     16062
     16057     16059     16071     16072     16057     16059     16071     16073
     16057     16059     16071     16074     16058     16057     16059     16060
     16058     16057     16059     16061     16058     16057     16059     16071
     16059     16071     16074     16075     16059     16071     16074     16076
     16059     16071     16074     16077     16060     16059     16071     16072
     16060     16059     16071     16073     16060     16059     16071     16074
     16061     16059     16071     16072     16061     16059     16071     16073
     16061     16059     16071     16074     16062     16065     16066     16067
     16062     16065     16066     16068     16063     16062     16065     16066
     16064     16062     16065     16066     16065     16066     16068     16069
     16065     16066     16068     16070     16065     16066     16068     16118
     16066     16068     16118     16119     16066     16068     16118     16120
     16066     16068     16118     16121     16067     16066     16068     16069
     16067     16066     16068     16070     16067     16066     16068     16118
     16068     16118     16121     16122     16068     16118     16121     16123
     16068     16118     16121     16124     16069     16068     16118     16119
     16069     16068     16118     16120     16069     16068     16118     16121
     16070     16068     16118     16119     16070     16068     16118     16120
     16070     16068     16118     16121     16071     16074     16077     16078
     16071     16074     16077     16079     16072     16071     16074     16075
     16072     16071     16074     16076     16072     16071     16074     16077
     16073     16071     16074     16075     16073     16071     16074     16076
     16073     16071     16074     16077     16074     16077     16079     16080
     16074     16077     16079     16081     16075     16074     16077     16078
     16075     16074     16077     16079     16076     16074     16077     16078
     16076     16074     16077     16079     16077     16079     16081     16082
     16077     16079     16081     16083     16077     16079     16081     16084
     16078     16077     16079     16080     16078     16077     16079     16081
     16079     16081     16084     16085     16079     16081     16084     16086
     16080     16079     16081     16082     16080     16079     16081     16083
     16080     16079     16081     16084     16081     16084     16086     16087
     16081     16084     16086     16088     16082     16081     16084     16085
     16082     16081     16084     16086     16083     16081     16084     16085
     16083     16081     16084     16086     16084     16086     16088     16089
     16084     16086     16088     16090     16084     16086     16088     16091
     16085     16084     16086     16087     16085     16084     16086     16088
     16086     16088     16091     16092     16086     16088     16091     16093
     16087     16086     16088     16089     16087     16086     16088     16090
     16087     16086     16088     16091     16088     16091     16093     16094
     16088     16091     16093     16095     16089     16088     16091     16092
     16089     16088     16091     16093     16090     16088     16091     16092
     16090     16088     16091     16093     16091     16093     16095     16096
     16091     16093     16095     16097     16091     16093     16095     16098
     16092     16091     16093     16094     16092     16091     16093     16095
     16093     16095     16098     16099     16093     16095     16098     16100
     16094     16093     16095     16096     16094     16093     16095     16097
     16094     16093     16095     16098     16095     16098     16100     16101
     16095     16098     16100     16102     16096     16095     16098     16099
     16096     16095     16098     16100     16097     16095     16098     16099
     16097     16095     16098     16100     16098     16100     16102     16103
     16098     16100     16102     16104     16098     16100     16102     16105
     16099     16098     16100     16101     16099     16098     16100     16102
     16100     16102     16105     16106     16100     16102     16105     16107
     16100     16102     16105     16108     16101     16100     16102     16103
     16101     16100     16102     16104     16101     16100     16102     16105
     16102     16105     16108     16109     16102     16105     16108     16110
     16102     16105     16108     16111     16103     16102     16105     16106
     16103     16102     16105     16107     16103     16102     16105     16108
     16104     16102     16105     16106     16104     16102     16105     16107
     16104     16102     16105     16108     16105     16108     16111     16112
     16105     16108     16111     16113     16105     16108     16111     16114
     16106     16105     16108     16109     16106     16105     16108     16110
     16106     16105     16108     16111     16107     16105     16108     16109
     16107     16105     16108     16110     16107     16105     16108     16111
     16108     16111     16114     16115     16108     16111     16114     16116
     16108     16111     16114     16117     16109     16108     16111     16112
     16109     16108     16111     16113     16109     16108     16111     16114
     16110     16108     16111     16112     16110     16108     16111     16113
     16110     16108     16111     16114     16112     16111     16114     16115
     16112     16111     16114     16116     16112     16111     16114     16117
     16113     16111     16114     16115     16113     16111     16114     16116
     16113     16111     16114     16117     16118     16121     16124     16125
     16118     16121     16124     16126     16118     16121     16124     16127
     16119     16118     16121     16122     16119     16118     16121     16123
     16119     16118     16121     16124     16120     16118     16121     16122
     16120     16118     16121     16123     16120     16118     16121     16124
     16121     16124     16127     16128     16121     16124     16127     16129
     16121     16124     16127     16130     16122     16121     16124     16125
     16122     16121     16124     16126     16122     16121     16124     16127
     16123     16121     16124     16125     16123     16121     16124     16126
     16123     16121     16124     16127     16124     16127     16130     16131
     16124     16127     16130     16132     16124     16127     16130     16133
     16125     16124     16127     16128     16125     16124     16127     16129
     16125     16124     16127     16130     16126     16124     16127     16128
     16126     16124     16127     16129     16126     16124     16127     16130
     16127     16130     16133     16134     16127     16130     16133     16135
     16127     16130     16133     16136     16128     16127     16130     16131
     16128     16127     16130     16132     16128     16127     16130     16133
     16129     16127     16130     16131     16129     16127     16130     16132
     16129     16127     16130     16133     16130     16133     16136     16137
     16130     16133     16136     16138     16130     16133     16136     16139
     16131     16130     16133     16134     16131     16130     16133     16135
     16131     16130     16133     16136     16132     16130     16133     16134
     16132     16130     16133     16135     16132     16130     16133     16136
     16133     16136     16139     16140     16133     16136     16139     16141
     16133     16136     16139     16142     16134     16133     16136     16137
     16134     16133     16136     16138     16134     16133     16136     16139
     16135     16133     16136     16137     16135     16133     16136     16138
     16135     16133     16136     16139     16136     16139     16142     16143
     16136     16139     16142     16144     16136     16139     16142     16145
     16137     16136     16139     16140     16137     16136     16139     16141
     16137     16136     16139     16142     16138     16136     16139     16140
     16138     16136     16139     16141     16138     16136     16139     16142
     16139     16142     16145     16146     16139     16142     16145     16147
     16139     16142     16145     16148     16140     16139     16142     16143
     16140     16139     16142     16144     16140     16139     16142     16145
     16141     16139     16142     16143     16141     16139     16142     16144
     16141     16139     16142     16145     16142     16145     16148     16149
     16142     16145     16148     16150     16142     16145     16148     16151
     16143     16142     16145     16146     16143     16142     16145     16147
     16143     16142     16145     16148     16144     16142     16145     16146
     16144     16142     16145     16147     16144     16142     16145     16148
     16145     16148     16151     16152     16145     16148     16151     16153
     16145     16148     16151     16154     16146     16145     16148     16149
     16146     16145     16148     16150     16146     16145     16148     16151
     16147     16145     16148     16149     16147     16145     16148     16150
     16147     16145     16148     16151     16148     16151     16154     16155
     16148     16151     16154     16156     16148     16151     16154     16157
     16149     16148     16151     16152     16149     16148     16151     16153
     16149     16148     16151     16154     16150     16148     16151     16152
     16150     16148     16151     16153     16150     16148     16151     16154
     16151     16154     16157     16158     16151     16154     16157     16159
     16151     16154     16157     16160     16152     16151     16154     16155
     16152     16151     16154     16156     16152     16151     16154     16157
     16153     16151     16154     16155     16153     16151     16154     16156
     16153     16151     16154     16157     16154     16157     16160     16161
     16154     16157     16160     16162     16154     16157     16160     16163
     16155     16154     16157     16158     16155     16154     16157     16159
     16155     16154     16157     16160     16156     16154     16157     16158
     16156     16154     16157     16159     16156     16154     16157     16160
     16157     16160     16163     16164     16157     16160     16163     16165
     16157     16160     16163     16166     16158     16157     16160     16161
     16158     16157     16160     16162     16158     16157     16160     16163
     16159     16157     16160     16161     16159     16157     16160     16162
     16159     16157     16160     16163     16161     16160     16163     16164
     16161     16160     16163     16165     16161     16160     16163     16166
     16162     16160     16163     16164     16162     16160     16163     16165
     16162     16160     16163     16166     10796     10809     10812     10813
     10796     10809     10812     10814     10796     10809     10812     10819
     10797     10796     10801     10802     10797     10796     10801     10803
     10797     10796     10801     10804     10797     10796     10805     10806
     10797     10796     10805     10807     10797     10796     10805     10808
     10797     10796     10809     10810     10797     10796     10809     10811
     10797     10796     10809     10812     10798     10797     10796     10801
     10798     10797     10796     10805     10798     10797     10796     10809
     10799     10797     10796     10801     10799     10797     10796     10805
     10799     10797     10796     10809     10800     10797     10796     10801
     10800     10797     10796     10805     10800     10797     10796     10809
     10801     10796     10805     10806     10801     10796     10805     10807
     10801     10796     10805     10808     10801     10796     10809     10810
     10801     10796     10809     10811     10801     10796     10809     10812
     10802     10801     10796     10805     10802     10801     10796     10809
     10803     10801     10796     10805     10803     10801     10796     10809
     10804     10801     10796     10805     10804     10801     10796     10809
     10805     10796     10809     10810     10805     10796     10809     10811
     10805     10796     10809     10812     10806     10805     10796     10809
     10807     10805     10796     10809     10808     10805     10796     10809
     10809     10812     10819     10815     10810     10809     10812     10813
     10810     10809     10812     10814     10810     10809     10812     10819
     10811     10809     10812     10813     10811     10809     10812     10814
     10811     10809     10812     10819     10812     10819     10815     10816
     10812     10819     10815     10817     10812     10819     10815     10818
     10813     10812     10819     10815     10814     10812     10819     10815
     10815     10818     10820     10821     10815     10818     10820     10822
     10815     10818     10820     10825     10816     10815     10818     10820
     10817     10815     10818     10820     10818     10820     10825     10823
     10818     10820     10825     10826     10818     10820     10825     10827
     10819     10815     10818     10820     10820     10825     10823     10824
     10820     10825     10823     10875     10820     10825     10827     10828
     10820     10825     10827     10829     10820     10825     10827     10831
     10821     10820     10825     10823     10821     10820     10825     10826
     10821     10820     10825     10827     10822     10820     10825     10823
     10822     10820     10825     10826     10822     10820     10825     10827
     10823     10825     10827     10828     10823     10825     10827     10829
     10823     10825     10827     10831     10823     10875     10877     10878
     10823     10875     10877     10879     10823     10875     10877     10880
     10824     10823     10825     10826     10824     10823     10825     10827
     10824     10823     10875     10876     10824     10823     10875     10877
     10825     10823     10875     10876     10825     10823     10875     10877
     10825     10827     10829     10830     10825     10827     10831     10832
     10825     10827     10831     10833     10826     10825     10823     10875
     10826     10825     10827     10828     10826     10825     10827     10829
     10826     10825     10827     10831     10827     10825     10823     10875
     10827     10831     10833     10834     10827     10831     10833     10835
     10828     10827     10829     10830     10828     10827     10831     10832
     10828     10827     10831     10833     10829     10827     10831     10832
     10829     10827     10831     10833     10830     10829     10827     10831
     10831     10833     10835     10836     10831     10833     10835     10837
     10831     10833     10835     10838     10832     10831     10833     10834
     10832     10831     10833     10835     10833     10835     10838     10839
     10833     10835     10838     10840     10833     10835     10838     10841
     10834     10833     10835     10836     10834     10833     10835     10837
     10834     10833     10835     10838     10835     10838     10841     10842
     10835     10838     10841     10843     10835     10838     10841     10844
     10836     10835     10838     10839     10836     10835     10838     10840
     10836     10835     10838     10841     10837     10835     10838     10839
     10837     10835     10838     10840     10837     10835     10838     10841
     10838     10841     10844     10845     10838     10841     10844     10846
     10838     10841     10844     10847     10839     10838     10841     10842
     10839     10838     10841     10843     10839     10838     10841     10844
     10840     10838     10841     10842     10840     10838     10841     10843
     10840     10838     10841     10844     10841     10844     10847     10848
     10841     10844     10847     10849     10841     10844     10847     10850
     10842     10841     10844     10845     10842     10841     10844     10846
     10842     10841     10844     10847     10843     10841     10844     10845
     10843     10841     10844     10846     10843     10841     10844     10847
     10844     10847     10850     10851     10844     10847     10850     10852
     10844     10847     10850     10853     10845     10844     10847     10848
     10845     10844     10847     10849     10845     10844     10847     10850
     10846     10844     10847     10848     10846     10844     10847     10849
     10846     10844     10847     10850     10847     10850     10853     10854
     10847     10850     10853     10855     10847     10850     10853     10856
     10848     10847     10850     10851     10848     10847     10850     10852
     10848     10847     10850     10853     10849     10847     10850     10851
     10849     10847     10850     10852     10849     10847     10850     10853
     10850     10853     10856     10857     10850     10853     10856     10858
     10850     10853     10856     10859     10851     10850     10853     10854
     10851     10850     10853     10855     10851     10850     10853     10856
     10852     10850     10853     10854     10852     10850     10853     10855
     10852     10850     10853     10856     10853     10856     10859     10860
     10853     10856     10859     10861     10853     10856     10859     10862
     10854     10853     10856     10857     10854     10853     10856     10858
     10854     10853     10856     10859     10855     10853     10856     10857
     10855     10853     10856     10858     10855     10853     10856     10859
     10856     10859     10862     10863     10856     10859     10862     10864
     10856     10859     10862     10865     10857     10856     10859     10860
     10857     10856     10859     10861     10857     10856     10859     10862
     10858     10856     10859     10860     10858     10856     10859     10861
     10858     10856     10859     10862     10859     10862     10865     10866
     10859     10862     10865     10867     10859     10862     10865     10868
     10860     10859     10862     10863     10860     10859     10862     10864
     10860     10859     10862     10865     10861     10859     10862     10863
     10861     10859     10862     10864     10861     10859     10862     10865
     10862     10865     10868     10869     10862     10865     10868     10870
     10862     10865     10868     10871     10863     10862     10865     10866
     10863     10862     10865     10867     10863     10862     10865     10868
     10864     10862     10865     10866     10864     10862     10865     10867
     10864     10862     10865     10868     10865     10868     10871     10872
     10865     10868     10871     10873     10865     10868     10871     10874
     10866     10865     10868     10869     10866     10865     10868     10870
     10866     10865     10868     10871     10867     10865     10868     10869
     10867     10865     10868     10870     10867     10865     10868     10871
     10869     10868     10871     10872     10869     10868     10871     10873
     10869     10868     10871     10874     10870     10868     10871     10872
     10870     10868     10871     10873     10870     10868     10871     10874
     10875     10877     10880     10881     10875     10877     10880     10882
     10875     10877     10880     10883     10876     10875     10877     10878
     10876     10875     10877     10879     10876     10875     10877     10880
     10877     10880     10883     10884     10877     10880     10883     10885
     10877     10880     10883     10886     10878     10877     10880     10881
     10878     10877     10880     10882     10878     10877     10880     10883
     10879     10877     10880     10881     10879     10877     10880     10882
     10879     10877     10880     10883     10880     10883     10886     10887
     10880     10883     10886     10888     10880     10883     10886     10889
     10881     10880     10883     10884     10881     10880     10883     10885
     10881     10880     10883     10886     10882     10880     10883     10884
     10882     10880     10883     10885     10882     10880     10883     10886
     10883     10886     10889     10890     10883     10886     10889     10891
     10883     10886     10889     10892     10884     10883     10886     10887
     10884     10883     10886     10888     10884     10883     10886     10889
     10885     10883     10886     10887     10885     10883     10886     10888
     10885     10883     10886     10889     10886     10889     10892     10893
     10886     10889     10892     10894     10886     10889     10892     10895
     10887     10886     10889     10890     10887     10886     10889     10891
     10887     10886     10889     10892     10888     10886     10889     10890
     10888     10886     10889     10891     10888     10886     10889     10892
     10889     10892     10895     10896     10889     10892     10895     10897
     10889     10892     10895     10898     10890     10889     10892     10893
     10890     10889     10892     10894     10890     10889     10892     10895
     10891     10889     10892     10893     10891     10889     10892     10894
     10891     10889     10892     10895     10892     10895     10898     10899
     10892     10895     10898     10900     10893     10892     10895     10896
     10893     10892     10895     10897     10893     10892     10895     10898
     10894     10892     10895     10896     10894     10892     10895     10897
     10894     10892     10895     10898     10895     10898     10900     10901
     10895     10898     10900     10902     10896     10895     10898     10899
     10896     10895     10898     10900     10897     10895     10898     10899
     10897     10895     10898     10900     10898     10900     10902     10903
     10898     10900     10902     10904     10898     10900     10902     10905
     10899     10898     10900     10901     10899     10898     10900     10902
     10900     10902     10905     10906     10900     10902     10905     10907
     10900     10902     10905     10908     10901     10900     10902     10903
     10901     10900     10902     10904     10901     10900     10902     10905
     10902     10905     10908     10909     10902     10905     10908     10910
     10902     10905     10908     10911     10903     10902     10905     10906
     10903     10902     10905     10907     10903     10902     10905     10908
     10904     10902     10905     10906     10904     10902     10905     10907
     10904     10902     10905     10908     10905     10908     10911     10912
     10905     10908     10911     10913     10905     10908     10911     10914
     10906     10905     10908     10909     10906     10905     10908     10910
     10906     10905     10908     10911     10907     10905     10908     10909
     10907     10905     10908     10910     10907     10905     10908     10911
     10908     10911     10914     10915     10908     10911     10914     10916
     10908     10911     10914     10917     10909     10908     10911     10912
     10909     10908     10911     10913     10909     10908     10911     10914
     10910     10908     10911     10912     10910     10908     10911     10913
     10910     10908     10911     10914     10911     10914     10917     10918
     10911     10914     10917     10919     10911     10914     10917     10920
     10912     10911     10914     10915     10912     10911     10914     10916
     10912     10911     10914     10917     10913     10911     10914     10915
     10913     10911     10914     10916     10913     10911     10914     10917
     10914     10917     10920     10921     10914     10917     10920     10922
     10914     10917     10920     10923     10915     10914     10917     10918
     10915     10914     10917     10919     10915     10914     10917     10920
     10916     10914     10917     10918     10916     10914     10917     10919
     10916     10914     10917     10920     10917     10920     10923     10924
     10917     10920     10923     10925     10917     10920     10923     10926
     10918     10917     10920     10921     10918     10917     10920     10922
     10918     10917     10920     10923     10919     10917     10920     10921
     10919     10917     10920     10922     10919     10917     10920     10923
     10921     10920     10923     10924     10921     10920     10923     10925
     10921     10920     10923     10926     10922     10920     10923     10924
     10922     10920     10923     10925     10922     10920     10923     10926
       371       375       378       379       371       375       378       409
       371       417       414       409       371       417       414       415
       371       417       414       416       372       371       373       374
       372       371       375       376       372       371       375       377
       372       371       375       378       372       371       417       414
       372       371       417       418       372       371       417       419
       373       371       375       376       373       371       375       377
       373       371       375       378       373       371       417       414
       373       371       417       418       373       371       417       419
       374       373       371       375       374       373       371       417
       375       371       417       414       375       371       417       418
       375       371       417       419       375       378       379       380
       375       378       379       381       375       378       409       407
       375       378       409       410       375       378       409       414
       376       375       371       417       376       375       378       379
       376       375       378       409       377       375       371       417
       377       375       378       379       377       375       378       409
       378       375       371       417       378       379       381       382
       378       379       381       383       378       379       381       384
       378       409       407       384       378       409       407       404
       378       409       407       408       378       409       410       411
       378       409       410       412       378       409       410       413
       378       409       414       415       378       409       414       416
       378       409       414       417       379       378       409       407
       379       378       409       410       379       378       409       414
       379       381       384       385       379       381       384       386
       379       381       384       407       380       379       378       409
       380       379       381       382       380       379       381       383
       380       379       381       384       381       379       378       409
       381       384       386       387       381       384       386       388
       381       384       386       396       381       384       407       404
       381       384       407       408       381       384       407       409
       382       381       384       385       382       381       384       386
       382       381       384       407       383       381       384       385
       383       381       384       386       383       381       384       407
       384       386       388       389       384       386       388       390
       384       386       388       391       384       386       396       394
       384       386       396       397       384       386       396       401
       384       407       404       401       384       407       404       405
       384       407       404       406       384       407       409       410
       384       407       409       414       385       384       386       387
       385       384       386       388       385       384       386       396
       385       384       407       404       385       384       407       408
       385       384       407       409       386       384       407       404
       386       384       407       408       386       384       407       409
       386       388       391       392       386       388       391       393
       386       388       391       394       386       396       394       391
       386       396       394       395       386       396       394       420
       386       396       397       398       386       396       397       399
       386       396       397       400       386       396       401       402
       386       396       401       403       386       396       401       404
       387       386       384       407       387       386       388       389
       387       386       388       390       387       386       388       391
       387       386       396       394       387       386       396       397
       387       386       396       401       388       386       384       407
       388       386       396       394       388       386       396       397
       388       386       396       401       388       391       394       395
       388       391       394       396       388       391       394       420
       389       388       386       396       389       388       391       392
       389       388       391       393       389       388       391       394
       390       388       386       396       390       388       391       392
       390       388       391       393       390       388       391       394
       391       388       386       396       391       394       396       397
       391       394       396       401       391       394       420       421
       391       394       420       422       391       394       420       426
       392       391       394       395       392       391       394       396
       392       391       394       420       393       391       394       395
       393       391       394       396       393       391       394       420
       394       396       397       398       394       396       397       399
       394       396       397       400       394       396       401       402
       394       396       401       403       394       396       401       404
       394       420       422       423       394       420       422       424
       394       420       422       425       394       420       426       427
       394       420       426       428       394       420       426       429
       395       394       396       397       395       394       396       401
       395       394       420       421       395       394       420       422
       395       394       420       426       396       386       384       407
       396       394       420       421       396       394       420       422
       396       394       420       426       396       401       404       405
       396       401       404       406       396       401       404       407
       397       396       394       420       397       396       401       402
       397       396       401       403       397       396       401       404
       398       397       396       401       399       397       396       401
       400       397       396       401       401       396       394       420
       401       404       407       408       401       404       407       409
       402       401       404       405       402       401       404       406
       402       401       404       407       403       401       404       405
       403       401       404       406       403       401       404       407
       404       407       409       410       404       407       409       414
       405       404       407       408       405       404       407       409
       406       404       407       408       406       404       407       409
       407       409       410       411       407       409       410       412
       407       409       410       413       407       409       414       415
       407       409       414       416       407       409       414       417
       408       407       409       410       408       407       409       414
       409       414       417       418       409       414       417       419
       410       409       414       415       410       409       414       416
       410       409       414       417       411       410       409       414
       412       410       409       414       413       410       409       414
       415       414       417       418       415       414       417       419
       416       414       417       418       416       414       417       419
       420       426       429       430       420       426       429       431
       420       426       429       432       421       420       422       423
       421       420       422       424       421       420       422       425
       421       420       426       427       421       420       426       428
       421       420       426       429       422       420       426       427
       422       420       426       428       422       420       426       429
       423       422       420       426       424       422       420       426
       425       422       420       426       426       429       432       433
       426       429       432       434       426       429       432       435
       427       426       429       430       427       426       429       431
       427       426       429       432       428       426       429       430
       428       426       429       431       428       426       429       432
       429       432       435       436       429       432       435       437
       429       432       435       441       430       429       432       433
       430       429       432       434       430       429       432       435
       431       429       432       433       431       429       432       434
       431       429       432       435       432       435       437       438
       432       435       437       439       432       435       437       440
       432       435       441       442       432       435       441       443
       432       435       441       444       433       432       435       436
       433       432       435       437       433       432       435       441
       434       432       435       436       434       432       435       437
       434       432       435       441       436       435       437       438
       436       435       437       439       436       435       437       440
       436       435       441       442       436       435       441       443
       436       435       441       444       437       435       441       442
       437       435       441       443       437       435       441       444
       438       437       435       441       439       437       435       441
       440       437       435       441     10927     10940     10943     10944
     10927     10940     10943     10945     10927     10940     10943     10950
     10928     10927     10932     10933     10928     10927     10932     10934
     10928     10927     10932     10935     10928     10927     10936     10937
     10928     10927     10936     10938     10928     10927     10936     10939
     10928     10927     10940     10941     10928     10927     10940     10942
     10928     10927     10940     10943     10929     10928     10927     10932
     10929     10928     10927     10936     10929     10928     10927     10940
     10930     10928     10927     10932     10930     10928     10927     10936
     10930     10928     10927     10940     10931     10928     10927     10932
     10931     10928     10927     10936     10931     10928     10927     10940
     10932     10927     10936     10937     10932     10927     10936     10938
     10932     10927     10936     10939     10932     10927     10940     10941
     10932     10927     10940     10942     10932     10927     10940     10943
     10933     10932     10927     10936     10933     10932     10927     10940
     10934     10932     10927     10936     10934     10932     10927     10940
     10935     10932     10927     10936     10935     10932     10927     10940
     10936     10927     10940     10941     10936     10927     10940     10942
     10936     10927     10940     10943     10937     10936     10927     10940
     10938     10936     10927     10940     10939     10936     10927     10940
     10940     10943     10950     10946     10941     10940     10943     10944
     10941     10940     10943     10945     10941     10940     10943     10950
     10942     10940     10943     10944     10942     10940     10943     10945
     10942     10940     10943     10950     10943     10950     10946     10947
     10943     10950     10946     10948     10943     10950     10946     10949
     10944     10943     10950     10946     10945     10943     10950     10946
     10946     10949     10951     10952     10946     10949     10951     10953
     10946     10949     10951     10956     10947     10946     10949     10951
     10948     10946     10949     10951     10949     10951     10956     10954
     10949     10951     10956     10957     10949     10951     10956     10958
     10950     10946     10949     10951     10951     10956     10954     10955
     10951     10956     10954     11006     10951     10956     10958     10959
     10951     10956     10958     10960     10951     10956     10958     10962
     10952     10951     10956     10954     10952     10951     10956     10957
     10952     10951     10956     10958     10953     10951     10956     10954
     10953     10951     10956     10957     10953     10951     10956     10958
     10954     10956     10958     10959     10954     10956     10958     10960
     10954     10956     10958     10962     10954     11006     11008     11009
     10954     11006     11008     11010     10954     11006     11008     11011
     10955     10954     10956     10957     10955     10954     10956     10958
     10955     10954     11006     11007     10955     10954     11006     11008
     10956     10954     11006     11007     10956     10954     11006     11008
     10956     10958     10960     10961     10956     10958     10962     10963
     10956     10958     10962     10964     10957     10956     10954     11006
     10957     10956     10958     10959     10957     10956     10958     10960
     10957     10956     10958     10962     10958     10956     10954     11006
     10958     10962     10964     10965     10958     10962     10964     10966
     10959     10958     10960     10961     10959     10958     10962     10963
     10959     10958     10962     10964     10960     10958     10962     10963
     10960     10958     10962     10964     10961     10960     10958     10962
     10962     10964     10966     10967     10962     10964     10966     10968
     10962     10964     10966     10969     10963     10962     10964     10965
     10963     10962     10964     10966     10964     10966     10969     10970
     10964     10966     10969     10971     10964     10966     10969     10972
     10965     10964     10966     10967     10965     10964     10966     10968
     10965     10964     10966     10969     10966     10969     10972     10973
     10966     10969     10972     10974     10966     10969     10972     10975
     10967     10966     10969     10970     10967     10966     10969     10971
     10967     10966     10969     10972     10968     10966     10969     10970
     10968     10966     10969     10971     10968     10966     10969     10972
     10969     10972     10975     10976     10969     10972     10975     10977
     10969     10972     10975     10978     10970     10969     10972     10973
     10970     10969     10972     10974     10970     10969     10972     10975
     10971     10969     10972     10973     10971     10969     10972     10974
     10971     10969     10972     10975     10972     10975     10978     10979
     10972     10975     10978     10980     10972     10975     10978     10981
     10973     10972     10975     10976     10973     10972     10975     10977
     10973     10972     10975     10978     10974     10972     10975     10976
     10974     10972     10975     10977     10974     10972     10975     10978
     10975     10978     10981     10982     10975     10978     10981     10983
     10975     10978     10981     10984     10976     10975     10978     10979
     10976     10975     10978     10980     10976     10975     10978     10981
     10977     10975     10978     10979     10977     10975     10978     10980
     10977     10975     10978     10981     10978     10981     10984     10985
     10978     10981     10984     10986     10978     10981     10984     10987
     10979     10978     10981     10982     10979     10978     10981     10983
     10979     10978     10981     10984     10980     10978     10981     10982
     10980     10978     10981     10983     10980     10978     10981     10984
     10981     10984     10987     10988     10981     10984     10987     10989
     10981     10984     10987     10990     10982     10981     10984     10985
     10982     10981     10984     10986     10982     10981     10984     10987
     10983     10981     10984     10985     10983     10981     10984     10986
     10983     10981     10984     10987     10984     10987     10990     10991
     10984     10987     10990     10992     10984     10987     10990     10993
     10985     10984     10987     10988     10985     10984     10987     10989
     10985     10984     10987     10990     10986     10984     10987     10988
     10986     10984     10987     10989     10986     10984     10987     10990
     10987     10990     10993     10994     10987     10990     10993     10995
     10987     10990     10993     10996     10988     10987     10990     10991
     10988     10987     10990     10992     10988     10987     10990     10993
     10989     10987     10990     10991     10989     10987     10990     10992
     10989     10987     10990     10993     10990     10993     10996     10997
     10990     10993     10996     10998     10990     10993     10996     10999
     10991     10990     10993     10994     10991     10990     10993     10995
     10991     10990     10993     10996     10992     10990     10993     10994
     10992     10990     10993     10995     10992     10990     10993     10996
     10993     10996     10999     11000     10993     10996     10999     11001
     10993     10996     10999     11002     10994     10993     10996     10997
     10994     10993     10996     10998     10994     10993     10996     10999
     10995     10993     10996     10997     10995     10993     10996     10998
     10995     10993     10996     10999     10996     10999     11002     11003
     10996     10999     11002     11004     10996     10999     11002     11005
     10997     10996     10999     11000     10997     10996     10999     11001
     10997     10996     10999     11002     10998     10996     10999     11000
     10998     10996     10999     11001     10998     10996     10999     11002
     11000     10999     11002     11003     11000     10999     11002     11004
     11000     10999     11002     11005     11001     10999     11002     11003
     11001     10999     11002     11004     11001     10999     11002     11005
     11006     11008     11011     11012     11006     11008     11011     11013
     11006     11008     11011     11014     11007     11006     11008     11009
     11007     11006     11008     11010     11007     11006     11008     11011
     11008     11011     11014     11015     11008     11011     11014     11016
     11008     11011     11014     11017     11009     11008     11011     11012
     11009     11008     11011     11013     11009     11008     11011     11014
     11010     11008     11011     11012     11010     11008     11011     11013
     11010     11008     11011     11014     11011     11014     11017     11018
     11011     11014     11017     11019     11011     11014     11017     11020
     11012     11011     11014     11015     11012     11011     11014     11016
     11012     11011     11014     11017     11013     11011     11014     11015
     11013     11011     11014     11016     11013     11011     11014     11017
     11014     11017     11020     11021     11014     11017     11020     11022
     11014     11017     11020     11023     11015     11014     11017     11018
     11015     11014     11017     11019     11015     11014     11017     11020
     11016     11014     11017     11018     11016     11014     11017     11019
     11016     11014     11017     11020     11017     11020     11023     11024
     11017     11020     11023     11025     11017     11020     11023     11026
     11018     11017     11020     11021     11018     11017     11020     11022
     11018     11017     11020     11023     11019     11017     11020     11021
     11019     11017     11020     11022     11019     11017     11020     11023
     11020     11023     11026     11027     11020     11023     11026     11028
     11020     11023     11026     11029     11021     11020     11023     11024
     11021     11020     11023     11025     11021     11020     11023     11026
     11022     11020     11023     11024     11022     11020     11023     11025
     11022     11020     11023     11026     11023     11026     11029     11030
     11023     11026     11029     11031     11024     11023     11026     11027
     11024     11023     11026     11028     11024     11023     11026     11029
     11025     11023     11026     11027     11025     11023     11026     11028
     11025     11023     11026     11029     11026     11029     11031     11032
     11026     11029     11031     11033     11027     11026     11029     11030
     11027     11026     11029     11031     11028     11026     11029     11030
     11028     11026     11029     11031     11029     11031     11033     11034
     11029     11031     11033     11035     11029     11031     11033     11036
     11030     11029     11031     11032     11030     11029     11031     11033
     11031     11033     11036     11037     11031     11033     11036     11038
     11031     11033     11036     11039     11032     11031     11033     11034
     11032     11031     11033     11035     11032     11031     11033     11036
     11033     11036     11039     11040     11033     11036     11039     11041
     11033     11036     11039     11042     11034     11033     11036     11037
     11034     11033     11036     11038     11034     11033     11036     11039
     11035     11033     11036     11037     11035     11033     11036     11038
     11035     11033     11036     11039     11036     11039     11042     11043
     11036     11039     11042     11044     11036     11039     11042     11045
     11037     11036     11039     11040     11037     11036     11039     11041
     11037     11036     11039     11042     11038     11036     11039     11040
     11038     11036     11039     11041     11038     11036     11039     11042
     11039     11042     11045     11046     11039     11042     11045     11047
     11039     11042     11045     11048     11040     11039     11042     11043
     11040     11039     11042     11044     11040     11039     11042     11045
     11041     11039     11042     11043     11041     11039     11042     11044
     11041     11039     11042     11045     11042     11045     11048     11049
     11042     11045     11048     11050     11042     11045     11048     11051
     11043     11042     11045     11046     11043     11042     11045     11047
     11043     11042     11045     11048     11044     11042     11045     11046
     11044     11042     11045     11047     11044     11042     11045     11048
     11045     11048     11051     11052     11045     11048     11051     11053
     11045     11048     11051     11054     11046     11045     11048     11049
     11046     11045     11048     11050     11046     11045     11048     11051
     11047     11045     11048     11049     11047     11045     11048     11050
     11047     11045     11048     11051     11048     11051     11054     11055
     11048     11051     11054     11056     11048     11051     11054     11057
     11049     11048     11051     11052     11049     11048     11051     11053
     11049     11048     11051     11054     11050     11048     11051     11052
     11050     11048     11051     11053     11050     11048     11051     11054
     11052     11051     11054     11055     11052     11051     11054     11056
     11052     11051     11054     11057     11053     11051     11054     11055
     11053     11051     11054     11056     11053     11051     11054     11057
     11058     11071     11074     11075     11058     11071     11074     11076
     11058     11071     11074     11081     11059     11058     11063     11064
     11059     11058     11063     11065     11059     11058     11063     11066
     11059     11058     11067     11068     11059     11058     11067     11069
     11059     11058     11067     11070     11059     11058     11071     11072
     11059     11058     11071     11073     11059     11058     11071     11074
     11060     11059     11058     11063     11060     11059     11058     11067
     11060     11059     11058     11071     11061     11059     11058     11063
     11061     11059     11058     11067     11061     11059     11058     11071
     11062     11059     11058     11063     11062     11059     11058     11067
     11062     11059     11058     11071     11063     11058     11067     11068
     11063     11058     11067     11069     11063     11058     11067     11070
     11063     11058     11071     11072     11063     11058     11071     11073
     11063     11058     11071     11074     11064     11063     11058     11067
     11064     11063     11058     11071     11065     11063     11058     11067
     11065     11063     11058     11071     11066     11063     11058     11067
     11066     11063     11058     11071     11067     11058     11071     11072
     11067     11058     11071     11073     11067     11058     11071     11074
     11068     11067     11058     11071     11069     11067     11058     11071
     11070     11067     11058     11071     11071     11074     11081     11077
     11072     11071     11074     11075     11072     11071     11074     11076
     11072     11071     11074     11081     11073     11071     11074     11075
     11073     11071     11074     11076     11073     11071     11074     11081
     11074     11081     11077     11078     11074     11081     11077     11079
     11074     11081     11077     11080     11075     11074     11081     11077
     11076     11074     11081     11077     11077     11080     11082     11083
     11077     11080     11082     11084     11077     11080     11082     11087
     11078     11077     11080     11082     11079     11077     11080     11082
     11080     11082     11087     11085     11080     11082     11087     11088
     11080     11082     11087     11089     11081     11077     11080     11082
     11082     11087     11085     11086     11082     11087     11085     11137
     11082     11087     11089     11090     11082     11087     11089     11091
     11082     11087     11089     11093     11083     11082     11087     11085
     11083     11082     11087     11088     11083     11082     11087     11089
     11084     11082     11087     11085     11084     11082     11087     11088
     11084     11082     11087     11089     11085     11087     11089     11090
     11085     11087     11089     11091     11085     11087     11089     11093
     11085     11137     11139     11140     11085     11137     11139     11141
     11085     11137     11139     11142     11086     11085     11087     11088
     11086     11085     11087     11089     11086     11085     11137     11138
     11086     11085     11137     11139     11087     11085     11137     11138
     11087     11085     11137     11139     11087     11089     11091     11092
     11087     11089     11093     11094     11087     11089     11093     11095
     11088     11087     11085     11137     11088     11087     11089     11090
     11088     11087     11089     11091     11088     11087     11089     11093
     11089     11087     11085     11137     11089     11093     11095     11096
     11089     11093     11095     11097     11090     11089     11091     11092
     11090     11089     11093     11094     11090     11089     11093     11095
     11091     11089     11093     11094     11091     11089     11093     11095
     11092     11091     11089     11093     11093     11095     11097     11098
     11093     11095     11097     11099     11093     11095     11097     11100
     11094     11093     11095     11096     11094     11093     11095     11097
     11095     11097     11100     11101     11095     11097     11100     11102
     11095     11097     11100     11103     11096     11095     11097     11098
     11096     11095     11097     11099     11096     11095     11097     11100
     11097     11100     11103     11104     11097     11100     11103     11105
     11097     11100     11103     11106     11098     11097     11100     11101
     11098     11097     11100     11102     11098     11097     11100     11103
     11099     11097     11100     11101     11099     11097     11100     11102
     11099     11097     11100     11103     11100     11103     11106     11107
     11100     11103     11106     11108     11100     11103     11106     11109
     11101     11100     11103     11104     11101     11100     11103     11105
     11101     11100     11103     11106     11102     11100     11103     11104
     11102     11100     11103     11105     11102     11100     11103     11106
     11103     11106     11109     11110     11103     11106     11109     11111
     11103     11106     11109     11112     11104     11103     11106     11107
     11104     11103     11106     11108     11104     11103     11106     11109
     11105     11103     11106     11107     11105     11103     11106     11108
     11105     11103     11106     11109     11106     11109     11112     11113
     11106     11109     11112     11114     11106     11109     11112     11115
     11107     11106     11109     11110     11107     11106     11109     11111
     11107     11106     11109     11112     11108     11106     11109     11110
     11108     11106     11109     11111     11108     11106     11109     11112
     11109     11112     11115     11116     11109     11112     11115     11117
     11109     11112     11115     11118     11110     11109     11112     11113
     11110     11109     11112     11114     11110     11109     11112     11115
     11111     11109     11112     11113     11111     11109     11112     11114
     11111     11109     11112     11115     11112     11115     11118     11119
     11112     11115     11118     11120     11112     11115     11118     11121
     11113     11112     11115     11116     11113     11112     11115     11117
     11113     11112     11115     11118     11114     11112     11115     11116
     11114     11112     11115     11117     11114     11112     11115     11118
     11115     11118     11121     11122     11115     11118     11121     11123
     11115     11118     11121     11124     11116     11115     11118     11119
     11116     11115     11118     11120     11116     11115     11118     11121
     11117     11115     11118     11119     11117     11115     11118     11120
     11117     11115     11118     11121     11118     11121     11124     11125
     11118     11121     11124     11126     11118     11121     11124     11127
     11119     11118     11121     11122     11119     11118     11121     11123
     11119     11118     11121     11124     11120     11118     11121     11122
     11120     11118     11121     11123     11120     11118     11121     11124
     11121     11124     11127     11128     11121     11124     11127     11129
     11121     11124     11127     11130     11122     11121     11124     11125
     11122     11121     11124     11126     11122     11121     11124     11127
     11123     11121     11124     11125     11123     11121     11124     11126
     11123     11121     11124     11127     11124     11127     11130     11131
     11124     11127     11130     11132     11124     11127     11130     11133
     11125     11124     11127     11128     11125     11124     11127     11129
     11125     11124     11127     11130     11126     11124     11127     11128
     11126     11124     11127     11129     11126     11124     11127     11130
     11127     11130     11133     11134     11127     11130     11133     11135
     11127     11130     11133     11136     11128     11127     11130     11131
     11128     11127     11130     11132     11128     11127     11130     11133
     11129     11127     11130     11131     11129     11127     11130     11132
     11129     11127     11130     11133     11131     11130     11133     11134
     11131     11130     11133     11135     11131     11130     11133     11136
     11132     11130     11133     11134     11132     11130     11133     11135
     11132     11130     11133     11136     11137     11139     11142     11143
     11137     11139     11142     11144     11137     11139     11142     11145
     11138     11137     11139     11140     11138     11137     11139     11141
     11138     11137     11139     11142     11139     11142     11145     11146
     11139     11142     11145     11147     11139     11142     11145     11148
     11140     11139     11142     11143     11140     11139     11142     11144
     11140     11139     11142     11145     11141     11139     11142     11143
     11141     11139     11142     11144     11141     11139     11142     11145
     11142     11145     11148     11149     11142     11145     11148     11150
     11142     11145     11148     11151     11143     11142     11145     11146
     11143     11142     11145     11147     11143     11142     11145     11148
     11144     11142     11145     11146     11144     11142     11145     11147
     11144     11142     11145     11148     11145     11148     11151     11152
     11145     11148     11151     11153     11145     11148     11151     11154
     11146     11145     11148     11149     11146     11145     11148     11150
     11146     11145     11148     11151     11147     11145     11148     11149
     11147     11145     11148     11150     11147     11145     11148     11151
     11148     11151     11154     11155     11148     11151     11154     11156
     11148     11151     11154     11157     11149     11148     11151     11152
     11149     11148     11151     11153     11149     11148     11151     11154
     11150     11148     11151     11152     11150     11148     11151     11153
     11150     11148     11151     11154     11151     11154     11157     11158
     11151     11154     11157     11159     11151     11154     11157     11160
     11152     11151     11154     11155     11152     11151     11154     11156
     11152     11151     11154     11157     11153     11151     11154     11155
     11153     11151     11154     11156     11153     11151     11154     11157
     11154     11157     11160     11161     11154     11157     11160     11162
     11155     11154     11157     11158     11155     11154     11157     11159
     11155     11154     11157     11160     11156     11154     11157     11158
     11156     11154     11157     11159     11156     11154     11157     11160
     11157     11160     11162     11163     11157     11160     11162     11164
     11158     11157     11160     11161     11158     11157     11160     11162
     11159     11157     11160     11161     11159     11157     11160     11162
     11160     11162     11164     11165     11160     11162     11164     11166
     11160     11162     11164     11167     11161     11160     11162     11163
     11161     11160     11162     11164     11162     11164     11167     11168
     11162     11164     11167     11169     11162     11164     11167     11170
     11163     11162     11164     11165     11163     11162     11164     11166
     11163     11162     11164     11167     11164     11167     11170     11171
     11164     11167     11170     11172     11164     11167     11170     11173
     11165     11164     11167     11168     11165     11164     11167     11169
     11165     11164     11167     11170     11166     11164     11167     11168
     11166     11164     11167     11169     11166     11164     11167     11170
     11167     11170     11173     11174     11167     11170     11173     11175
     11167     11170     11173     11176     11168     11167     11170     11171
     11168     11167     11170     11172     11168     11167     11170     11173
     11169     11167     11170     11171     11169     11167     11170     11172
     11169     11167     11170     11173     11170     11173     11176     11177
     11170     11173     11176     11178     11170     11173     11176     11179
     11171     11170     11173     11174     11171     11170     11173     11175
     11171     11170     11173     11176     11172     11170     11173     11174
     11172     11170     11173     11175     11172     11170     11173     11176
     11173     11176     11179     11180     11173     11176     11179     11181
     11173     11176     11179     11182     11174     11173     11176     11177
     11174     11173     11176     11178     11174     11173     11176     11179
     11175     11173     11176     11177     11175     11173     11176     11178
     11175     11173     11176     11179     11176     11179     11182     11183
     11176     11179     11182     11184     11176     11179     11182     11185
     11177     11176     11179     11180     11177     11176     11179     11181
     11177     11176     11179     11182     11178     11176     11179     11180
     11178     11176     11179     11181     11178     11176     11179     11182
     11179     11182     11185     11186     11179     11182     11185     11187
     11179     11182     11185     11188     11180     11179     11182     11183
     11180     11179     11182     11184     11180     11179     11182     11185
     11181     11179     11182     11183     11181     11179     11182     11184
     11181     11179     11182     11185     11183     11182     11185     11186
     11183     11182     11185     11187     11183     11182     11185     11188
     11184     11182     11185     11186     11184     11182     11185     11187
     11184     11182     11185     11188     19835     19839     19842     19843
     19835     19839     19842     19844     19835     19839     19842     19848
     19836     19835     19839     19840     19836     19835     19839     19841
     19836     19835     19839     19842     19837     19835     19839     19840
     19837     19835     19839     19841     19837     19835     19839     19842
     19838     19835     19839     19840     19838     19835     19839     19841
     19838     19835     19839     19842     19839     19842     19848     19845
     19840     19839     19842     19843     19840     19839     19842     19844
     19840     19839     19842     19848     19841     19839     19842     19843
     19841     19839     19842     19844     19841     19839     19842     19848
     19842     19848     19845     19846     19842     19848     19845     19847
     19842     19848     19845     19849     19843     19842     19848     19845
     19844     19842     19848     19845     19845     19849     19850     19851
     19845     19849     19850     19852     19845     19849     19850     19853
     19846     19845     19849     19850     19847     19845     19849     19850
     19848     19845     19849     19850     19849     19850     19853     19854
     19849     19850     19853     19855     19849     19850     19853     19861
     19850     19853     19855     19856     19850     19853     19861     19862
     19850     19853     19861     19863     19850     19853     19861     19864
     19851     19850     19853     19854     19851     19850     19853     19855
     19851     19850     19853     19861     19852     19850     19853     19854
     19852     19850     19853     19855     19852     19850     19853     19861
     19853     19855     19856     19857     19853     19855     19856     19858
     19853     19861     19864     19865     19854     19853     19855     19856
     19854     19853     19861     19862     19854     19853     19861     19863
     19854     19853     19861     19864     19855     19853     19861     19862
     19855     19853     19861     19863     19855     19853     19861     19864
     19855     19856     19858     19859     19855     19856     19858     19860
     19855     19856     19858     19870     19856     19855     19853     19861
     19856     19858     19870     19871     19856     19858     19870     19872
     19856     19858     19870     19873     19857     19856     19858     19859
     19857     19856     19858     19860     19857     19856     19858     19870
     19858     19870     19873     19874     19858     19870     19873     19875
     19858     19870     19873     19876     19859     19858     19870     19871
     19859     19858     19870     19872     19859     19858     19870     19873
     19860     19858     19870     19871     19860     19858     19870     19872
     19860     19858     19870     19873     19861     19864     19865     19866
     19861     19864     19865     19867     19862     19861     19864     19865
     19863     19861     19864     19865     19864     19865     19867     19868
     19864     19865     19867     19869     19864     19865     19867     19917
     19865     19867     19917     19918     19865     19867     19917     19919
     19865     19867     19917     19920     19866     19865     19867     19868
     19866     19865     19867     19869     19866     19865     19867     19917
     19867     19917     19920     19921     19867     19917     19920     19922
     19867     19917     19920     19923     19868     19867     19917     19918
     19868     19867     19917     19919     19868     19867     19917     19920
     19869     19867     19917     19918     19869     19867     19917     19919
     19869     19867     19917     19920     19870     19873     19876     19877
     19870     19873     19876     19878     19870     19873     19876     19879
     19871     19870     19873     19874     19871     19870     19873     19875
     19871     19870     19873     19876     19872     19870     19873     19874
     19872     19870     19873     19875     19872     19870     19873     19876
     19873     19876     19879     19880     19873     19876     19879     19881
     19873     19876     19879     19882     19874     19873     19876     19877
     19874     19873     19876     19878     19874     19873     19876     19879
     19875     19873     19876     19877     19875     19873     19876     19878
     19875     19873     19876     19879     19876     19879     19882     19883
     19876     19879     19882     19884     19876     19879     19882     19885
     19877     19876     19879     19880     19877     19876     19879     19881
     19877     19876     19879     19882     19878     19876     19879     19880
     19878     19876     19879     19881     19878     19876     19879     19882
     19879     19882     19885     19886     19879     19882     19885     19887
     19879     19882     19885     19888     19880     19879     19882     19883
     19880     19879     19882     19884     19880     19879     19882     19885
     19881     19879     19882     19883     19881     19879     19882     19884
     19881     19879     19882     19885     19882     19885     19888     19889
     19882     19885     19888     19890     19883     19882     19885     19886
     19883     19882     19885     19887     19883     19882     19885     19888
     19884     19882     19885     19886     19884     19882     19885     19887
     19884     19882     19885     19888     19885     19888     19890     19891
     19885     19888     19890     19892     19886     19885     19888     19889
     19886     19885     19888     19890     19887     19885     19888     19889
     19887     19885     19888     19890     19888     19890     19892     19893
     19888     19890     19892     19894     19888     19890     19892     19895
     19889     19888     19890     19891     19889     19888     19890     19892
     19890     19892     19895     19896     19890     19892     19895     19897
     19890     19892     19895     19898     19891     19890     19892     19893
     19891     19890     19892     19894     19891     19890     19892     19895
     19892     19895     19898     19899     19892     19895     19898     19900
     19892     19895     19898     19901     19893     19892     19895     19896
     19893     19892     19895     19897     19893     19892     19895     19898
     19894     19892     19895     19896     19894     19892     19895     19897
     19894     19892     19895     19898     19895     19898     19901     19902
     19895     19898     19901     19903     19895     19898     19901     19904
     19896     19895     19898     19899     19896     19895     19898     19900
     19896     19895     19898     19901     19897     19895     19898     19899
     19897     19895     19898     19900     19897     19895     19898     19901
     19898     19901     19904     19905     19898     19901     19904     19906
     19898     19901     19904     19907     19899     19898     19901     19902
     19899     19898     19901     19903     19899     19898     19901     19904
     19900     19898     19901     19902     19900     19898     19901     19903
     19900     19898     19901     19904     19901     19904     19907     19908
     19901     19904     19907     19909     19901     19904     19907     19910
     19902     19901     19904     19905     19902     19901     19904     19906
     19902     19901     19904     19907     19903     19901     19904     19905
     19903     19901     19904     19906     19903     19901     19904     19907
     19904     19907     19910     19911     19904     19907     19910     19912
     19904     19907     19910     19913     19905     19904     19907     19908
     19905     19904     19907     19909     19905     19904     19907     19910
     19906     19904     19907     19908     19906     19904     19907     19909
     19906     19904     19907     19910     19907     19910     19913     19914
     19907     19910     19913     19915     19907     19910     19913     19916
     19908     19907     19910     19911     19908     19907     19910     19912
     19908     19907     19910     19913     19909     19907     19910     19911
     19909     19907     19910     19912     19909     19907     19910     19913
     19911     19910     19913     19914     19911     19910     19913     19915
     19911     19910     19913     19916     19912     19910     19913     19914
     19912     19910     19913     19915     19912     19910     19913     19916
     19917     19920     19923     19924     19917     19920     19923     19925
     19917     19920     19923     19926     19918     19917     19920     19921
     19918     19917     19920     19922     19918     19917     19920     19923
     19919     19917     19920     19921     19919     19917     19920     19922
     19919     19917     19920     19923     19920     19923     19926     19927
     19920     19923     19926     19928     19920     19923     19926     19929
     19921     19920     19923     19924     19921     19920     19923     19925
     19921     19920     19923     19926     19922     19920     19923     19924
     19922     19920     19923     19925     19922     19920     19923     19926
     19923     19926     19929     19930     19923     19926     19929     19931
     19923     19926     19929     19932     19924     19923     19926     19927
     19924     19923     19926     19928     19924     19923     19926     19929
     19925     19923     19926     19927     19925     19923     19926     19928
     19925     19923     19926     19929     19926     19929     19932     19933
     19926     19929     19932     19934     19926     19929     19932     19935
     19927     19926     19929     19930     19927     19926     19929     19931
     19927     19926     19929     19932     19928     19926     19929     19930
     19928     19926     19929     19931     19928     19926     19929     19932
     19929     19932     19935     19936     19929     19932     19935     19937
     19929     19932     19935     19938     19930     19929     19932     19933
     19930     19929     19932     19934     19930     19929     19932     19935
     19931     19929     19932     19933     19931     19929     19932     19934
     19931     19929     19932     19935     19932     19935     19938     19939
     19932     19935     19938     19940     19932     19935     19938     19941
     19933     19932     19935     19936     19933     19932     19935     19937
     19933     19932     19935     19938     19934     19932     19935     19936
     19934     19932     19935     19937     19934     19932     19935     19938
     19935     19938     19941     19942     19935     19938     19941     19943
     19935     19938     19941     19944     19936     19935     19938     19939
     19936     19935     19938     19940     19936     19935     19938     19941
     19937     19935     19938     19939     19937     19935     19938     19940
     19937     19935     19938     19941     19938     19941     19944     19945
     19938     19941     19944     19946     19938     19941     19944     19947
     19939     19938     19941     19942     19939     19938     19941     19943
     19939     19938     19941     19944     19940     19938     19941     19942
     19940     19938     19941     19943     19940     19938     19941     19944
     19941     19944     19947     19948     19941     19944     19947     19949
     19941     19944     19947     19950     19942     19941     19944     19945
     19942     19941     19944     19946     19942     19941     19944     19947
     19943     19941     19944     19945     19943     19941     19944     19946
     19943     19941     19944     19947     19944     19947     19950     19951
     19944     19947     19950     19952     19944     19947     19950     19953
     19945     19944     19947     19948     19945     19944     19947     19949
     19945     19944     19947     19950     19946     19944     19947     19948
     19946     19944     19947     19949     19946     19944     19947     19950
     19947     19950     19953     19954     19947     19950     19953     19955
     19947     19950     19953     19956     19948     19947     19950     19951
     19948     19947     19950     19952     19948     19947     19950     19953
     19949     19947     19950     19951     19949     19947     19950     19952
     19949     19947     19950     19953     19950     19953     19956     19957
     19950     19953     19956     19958     19950     19953     19956     19959
     19951     19950     19953     19954     19951     19950     19953     19955
     19951     19950     19953     19956     19952     19950     19953     19954
     19952     19950     19953     19955     19952     19950     19953     19956
     19953     19956     19959     19960     19953     19956     19959     19961
     19953     19956     19959     19962     19954     19953     19956     19957
     19954     19953     19956     19958     19954     19953     19956     19959
     19955     19953     19956     19957     19955     19953     19956     19958
     19955     19953     19956     19959     19956     19959     19962     19963
     19956     19959     19962     19964     19956     19959     19962     19965
     19957     19956     19959     19960     19957     19956     19959     19961
     19957     19956     19959     19962     19958     19956     19959     19960
     19958     19956     19959     19961     19958     19956     19959     19962
     19960     19959     19962     19963     19960     19959     19962     19964
     19960     19959     19962     19965     19961     19959     19962     19963
     19961     19959     19962     19964     19961     19959     19962     19965
     11189     11202     11205     11206     11189     11202     11205     11207
     11189     11202     11205     11212     11190     11189     11194     11195
     11190     11189     11194     11196     11190     11189     11194     11197
     11190     11189     11198     11199     11190     11189     11198     11200
     11190     11189     11198     11201     11190     11189     11202     11203
     11190     11189     11202     11204     11190     11189     11202     11205
     11191     11190     11189     11194     11191     11190     11189     11198
     11191     11190     11189     11202     11192     11190     11189     11194
     11192     11190     11189     11198     11192     11190     11189     11202
     11193     11190     11189     11194     11193     11190     11189     11198
     11193     11190     11189     11202     11194     11189     11198     11199
     11194     11189     11198     11200     11194     11189     11198     11201
     11194     11189     11202     11203     11194     11189     11202     11204
     11194     11189     11202     11205     11195     11194     11189     11198
     11195     11194     11189     11202     11196     11194     11189     11198
     11196     11194     11189     11202     11197     11194     11189     11198
     11197     11194     11189     11202     11198     11189     11202     11203
     11198     11189     11202     11204     11198     11189     11202     11205
     11199     11198     11189     11202     11200     11198     11189     11202
     11201     11198     11189     11202     11202     11205     11212     11208
     11203     11202     11205     11206     11203     11202     11205     11207
     11203     11202     11205     11212     11204     11202     11205     11206
     11204     11202     11205     11207     11204     11202     11205     11212
     11205     11212     11208     11209     11205     11212     11208     11210
     11205     11212     11208     11211     11206     11205     11212     11208
     11207     11205     11212     11208     11208     11211     11213     11214
     11208     11211     11213     11215     11208     11211     11213     11218
     11209     11208     11211     11213     11210     11208     11211     11213
     11211     11213     11218     11216     11211     11213     11218     11219
     11211     11213     11218     11220     11212     11208     11211     11213
     11213     11218     11216     11217     11213     11218     11216     11268
     11213     11218     11220     11221     11213     11218     11220     11222
     11213     11218     11220     11224     11214     11213     11218     11216
     11214     11213     11218     11219     11214     11213     11218     11220
     11215     11213     11218     11216     11215     11213     11218     11219
     11215     11213     11218     11220     11216     11218     11220     11221
     11216     11218     11220     11222     11216     11218     11220     11224
     11216     11268     11270     11271     11216     11268     11270     11272
     11216     11268     11270     11273     11217     11216     11218     11219
     11217     11216     11218     11220     11217     11216     11268     11269
     11217     11216     11268     11270     11218     11216     11268     11269
     11218     11216     11268     11270     11218     11220     11222     11223
     11218     11220     11224     11225     11218     11220     11224     11226
     11219     11218     11216     11268     11219     11218     11220     11221
     11219     11218     11220     11222     11219     11218     11220     11224
     11220     11218     11216     11268     11220     11224     11226     11227
     11220     11224     11226     11228     11221     11220     11222     11223
     11221     11220     11224     11225     11221     11220     11224     11226
     11222     11220     11224     11225     11222     11220     11224     11226
     11223     11222     11220     11224     11224     11226     11228     11229
     11224     11226     11228     11230     11224     11226     11228     11231
     11225     11224     11226     11227     11225     11224     11226     11228
     11226     11228     11231     11232     11226     11228     11231     11233
     11226     11228     11231     11234     11227     11226     11228     11229
     11227     11226     11228     11230     11227     11226     11228     11231
     11228     11231     11234     11235     11228     11231     11234     11236
     11228     11231     11234     11237     11229     11228     11231     11232
     11229     11228     11231     11233     11229     11228     11231     11234
     11230     11228     11231     11232     11230     11228     11231     11233
     11230     11228     11231     11234     11231     11234     11237     11238
     11231     11234     11237     11239     11231     11234     11237     11240
     11232     11231     11234     11235     11232     11231     11234     11236
     11232     11231     11234     11237     11233     11231     11234     11235
     11233     11231     11234     11236     11233     11231     11234     11237
     11234     11237     11240     11241     11234     11237     11240     11242
     11234     11237     11240     11243     11235     11234     11237     11238
     11235     11234     11237     11239     11235     11234     11237     11240
     11236     11234     11237     11238     11236     11234     11237     11239
     11236     11234     11237     11240     11237     11240     11243     11244
     11237     11240     11243     11245     11237     11240     11243     11246
     11238     11237     11240     11241     11238     11237     11240     11242
     11238     11237     11240     11243     11239     11237     11240     11241
     11239     11237     11240     11242     11239     11237     11240     11243
     11240     11243     11246     11247     11240     11243     11246     11248
     11240     11243     11246     11249     11241     11240     11243     11244
     11241     11240     11243     11245     11241     11240     11243     11246
     11242     11240     11243     11244     11242     11240     11243     11245
     11242     11240     11243     11246     11243     11246     11249     11250
     11243     11246     11249     11251     11243     11246     11249     11252
     11244     11243     11246     11247     11244     11243     11246     11248
     11244     11243     11246     11249     11245     11243     11246     11247
     11245     11243     11246     11248     11245     11243     11246     11249
     11246     11249     11252     11253     11246     11249     11252     11254
     11246     11249     11252     11255     11247     11246     11249     11250
     11247     11246     11249     11251     11247     11246     11249     11252
     11248     11246     11249     11250     11248     11246     11249     11251
     11248     11246     11249     11252     11249     11252     11255     11256
     11249     11252     11255     11257     11249     11252     11255     11258
     11250     11249     11252     11253     11250     11249     11252     11254
     11250     11249     11252     11255     11251     11249     11252     11253
     11251     11249     11252     11254     11251     11249     11252     11255
     11252     11255     11258     11259     11252     11255     11258     11260
     11252     11255     11258     11261     11253     11252     11255     11256
     11253     11252     11255     11257     11253     11252     11255     11258
     11254     11252     11255     11256     11254     11252     11255     11257
     11254     11252     11255     11258     11255     11258     11261     11262
     11255     11258     11261     11263     11255     11258     11261     11264
     11256     11255     11258     11259     11256     11255     11258     11260
     11256     11255     11258     11261     11257     11255     11258     11259
     11257     11255     11258     11260     11257     11255     11258     11261
     11258     11261     11264     11265     11258     11261     11264     11266
     11258     11261     11264     11267     11259     11258     11261     11262
     11259     11258     11261     11263     11259     11258     11261     11264
     11260     11258     11261     11262     11260     11258     11261     11263
     11260     11258     11261     11264     11262     11261     11264     11265
     11262     11261     11264     11266     11262     11261     11264     11267
     11263     11261     11264     11265     11263     11261     11264     11266
     11263     11261     11264     11267     11268     11270     11273     11274
     11268     11270     11273     11275     11268     11270     11273     11276
     11269     11268     11270     11271     11269     11268     11270     11272
     11269     11268     11270     11273     11270     11273     11276     11277
     11270     11273     11276     11278     11270     11273     11276     11279
     11271     11270     11273     11274     11271     11270     11273     11275
     11271     11270     11273     11276     11272     11270     11273     11274
     11272     11270     11273     11275     11272     11270     11273     11276
     11273     11276     11279     11280     11273     11276     11279     11281
     11273     11276     11279     11282     11274     11273     11276     11277
     11274     11273     11276     11278     11274     11273     11276     11279
     11275     11273     11276     11277     11275     11273     11276     11278
     11275     11273     11276     11279     11276     11279     11282     11283
     11276     11279     11282     11284     11276     11279     11282     11285
     11277     11276     11279     11280     11277     11276     11279     11281
     11277     11276     11279     11282     11278     11276     11279     11280
     11278     11276     11279     11281     11278     11276     11279     11282
     11279     11282     11285     11286     11279     11282     11285     11287
     11279     11282     11285     11288     11280     11279     11282     11283
     11280     11279     11282     11284     11280     11279     11282     11285
     11281     11279     11282     11283     11281     11279     11282     11284
     11281     11279     11282     11285     11282     11285     11288     11289
     11282     11285     11288     11290     11282     11285     11288     11291
     11283     11282     11285     11286     11283     11282     11285     11287
     11283     11282     11285     11288     11284     11282     11285     11286
     11284     11282     11285     11287     11284     11282     11285     11288
     11285     11288     11291     11292     11285     11288     11291     11293
     11286     11285     11288     11289     11286     11285     11288     11290
     11286     11285     11288     11291     11287     11285     11288     11289
     11287     11285     11288     11290     11287     11285     11288     11291
     11288     11291     11293     11294     11288     11291     11293     11295
     11289     11288     11291     11292     11289     11288     11291     11293
     11290     11288     11291     11292     11290     11288     11291     11293
     11291     11293     11295     11296     11291     11293     11295     11297
     11291     11293     11295     11298     11292     11291     11293     11294
     11292     11291     11293     11295     11293     11295     11298     11299
     11293     11295     11298     11300     11293     11295     11298     11301
     11294     11293     11295     11296     11294     11293     11295     11297
     11294     11293     11295     11298     11295     11298     11301     11302
     11295     11298     11301     11303     11295     11298     11301     11304
     11296     11295     11298     11299     11296     11295     11298     11300
     11296     11295     11298     11301     11297     11295     11298     11299
     11297     11295     11298     11300     11297     11295     11298     11301
     11298     11301     11304     11305     11298     11301     11304     11306
     11298     11301     11304     11307     11299     11298     11301     11302
     11299     11298     11301     11303     11299     11298     11301     11304
     11300     11298     11301     11302     11300     11298     11301     11303
     11300     11298     11301     11304     11301     11304     11307     11308
     11301     11304     11307     11309     11301     11304     11307     11310
     11302     11301     11304     11305     11302     11301     11304     11306
     11302     11301     11304     11307     11303     11301     11304     11305
     11303     11301     11304     11306     11303     11301     11304     11307
     11304     11307     11310     11311     11304     11307     11310     11312
     11304     11307     11310     11313     11305     11304     11307     11308
     11305     11304     11307     11309     11305     11304     11307     11310
     11306     11304     11307     11308     11306     11304     11307     11309
     11306     11304     11307     11310     11307     11310     11313     11314
     11307     11310     11313     11315     11307     11310     11313     11316
     11308     11307     11310     11311     11308     11307     11310     11312
     11308     11307     11310     11313     11309     11307     11310     11311
     11309     11307     11310     11312     11309     11307     11310     11313
     11310     11313     11316     11317     11310     11313     11316     11318
     11310     11313     11316     11319     11311     11310     11313     11314
     11311     11310     11313     11315     11311     11310     11313     11316
     11312     11310     11313     11314     11312     11310     11313     11315
     11312     11310     11313     11316     11314     11313     11316     11317
     11314     11313     11316     11318     11314     11313     11316     11319
     11315     11313     11316     11317     11315     11313     11316     11318
     11315     11313     11316     11319     11320     11333     11336     11337
     11320     11333     11336     11338     11320     11333     11336     11343
     11321     11320     11325     11326     11321     11320     11325     11327
     11321     11320     11325     11328     11321     11320     11329     11330
     11321     11320     11329     11331     11321     11320     11329     11332
     11321     11320     11333     11334     11321     11320     11333     11335
     11321     11320     11333     11336     11322     11321     11320     11325
     11322     11321     11320     11329     11322     11321     11320     11333
     11323     11321     11320     11325     11323     11321     11320     11329
     11323     11321     11320     11333     11324     11321     11320     11325
     11324     11321     11320     11329     11324     11321     11320     11333
     11325     11320     11329     11330     11325     11320     11329     11331
     11325     11320     11329     11332     11325     11320     11333     11334
     11325     11320     11333     11335     11325     11320     11333     11336
     11326     11325     11320     11329     11326     11325     11320     11333
     11327     11325     11320     11329     11327     11325     11320     11333
     11328     11325     11320     11329     11328     11325     11320     11333
     11329     11320     11333     11334     11329     11320     11333     11335
     11329     11320     11333     11336     11330     11329     11320     11333
     11331     11329     11320     11333     11332     11329     11320     11333
     11333     11336     11343     11339     11334     11333     11336     11337
     11334     11333     11336     11338     11334     11333     11336     11343
     11335     11333     11336     11337     11335     11333     11336     11338
     11335     11333     11336     11343     11336     11343     11339     11340
     11336     11343     11339     11341     11336     11343     11339     11342
     11337     11336     11343     11339     11338     11336     11343     11339
     11339     11342     11344     11345     11339     11342     11344     11346
     11339     11342     11344     11349     11340     11339     11342     11344
     11341     11339     11342     11344     11342     11344     11349     11347
     11342     11344     11349     11350     11342     11344     11349     11351
     11343     11339     11342     11344     11344     11349     11347     11348
     11344     11349     11347     11399     11344     11349     11351     11352
     11344     11349     11351     11353     11344     11349     11351     11355
     11345     11344     11349     11347     11345     11344     11349     11350
     11345     11344     11349     11351     11346     11344     11349     11347
     11346     11344     11349     11350     11346     11344     11349     11351
     11347     11349     11351     11352     11347     11349     11351     11353
     11347     11349     11351     11355     11347     11399     11401     11402
     11347     11399     11401     11403     11347     11399     11401     11404
     11348     11347     11349     11350     11348     11347     11349     11351
     11348     11347     11399     11400     11348     11347     11399     11401
     11349     11347     11399     11400     11349     11347     11399     11401
     11349     11351     11353     11354     11349     11351     11355     11356
     11349     11351     11355     11357     11350     11349     11347     11399
     11350     11349     11351     11352     11350     11349     11351     11353
     11350     11349     11351     11355     11351     11349     11347     11399
     11351     11355     11357     11358     11351     11355     11357     11359
     11352     11351     11353     11354     11352     11351     11355     11356
     11352     11351     11355     11357     11353     11351     11355     11356
     11353     11351     11355     11357     11354     11353     11351     11355
     11355     11357     11359     11360     11355     11357     11359     11361
     11355     11357     11359     11362     11356     11355     11357     11358
     11356     11355     11357     11359     11357     11359     11362     11363
     11357     11359     11362     11364     11357     11359     11362     11365
     11358     11357     11359     11360     11358     11357     11359     11361
     11358     11357     11359     11362     11359     11362     11365     11366
     11359     11362     11365     11367     11359     11362     11365     11368
     11360     11359     11362     11363     11360     11359     11362     11364
     11360     11359     11362     11365     11361     11359     11362     11363
     11361     11359     11362     11364     11361     11359     11362     11365
     11362     11365     11368     11369     11362     11365     11368     11370
     11362     11365     11368     11371     11363     11362     11365     11366
     11363     11362     11365     11367     11363     11362     11365     11368
     11364     11362     11365     11366     11364     11362     11365     11367
     11364     11362     11365     11368     11365     11368     11371     11372
     11365     11368     11371     11373     11365     11368     11371     11374
     11366     11365     11368     11369     11366     11365     11368     11370
     11366     11365     11368     11371     11367     11365     11368     11369
     11367     11365     11368     11370     11367     11365     11368     11371
     11368     11371     11374     11375     11368     11371     11374     11376
     11368     11371     11374     11377     11369     11368     11371     11372
     11369     11368     11371     11373     11369     11368     11371     11374
     11370     11368     11371     11372     11370     11368     11371     11373
     11370     11368     11371     11374     11371     11374     11377     11378
     11371     11374     11377     11379     11371     11374     11377     11380
     11372     11371     11374     11375     11372     11371     11374     11376
     11372     11371     11374     11377     11373     11371     11374     11375
     11373     11371     11374     11376     11373     11371     11374     11377
     11374     11377     11380     11381     11374     11377     11380     11382
     11374     11377     11380     11383     11375     11374     11377     11378
     11375     11374     11377     11379     11375     11374     11377     11380
     11376     11374     11377     11378     11376     11374     11377     11379
     11376     11374     11377     11380     11377     11380     11383     11384
     11377     11380     11383     11385     11377     11380     11383     11386
     11378     11377     11380     11381     11378     11377     11380     11382
     11378     11377     11380     11383     11379     11377     11380     11381
     11379     11377     11380     11382     11379     11377     11380     11383
     11380     11383     11386     11387     11380     11383     11386     11388
     11380     11383     11386     11389     11381     11380     11383     11384
     11381     11380     11383     11385     11381     11380     11383     11386
     11382     11380     11383     11384     11382     11380     11383     11385
     11382     11380     11383     11386     11383     11386     11389     11390
     11383     11386     11389     11391     11383     11386     11389     11392
     11384     11383     11386     11387     11384     11383     11386     11388
     11384     11383     11386     11389     11385     11383     11386     11387
     11385     11383     11386     11388     11385     11383     11386     11389
     11386     11389     11392     11393     11386     11389     11392     11394
     11386     11389     11392     11395     11387     11386     11389     11390
     11387     11386     11389     11391     11387     11386     11389     11392
     11388     11386     11389     11390     11388     11386     11389     11391
     11388     11386     11389     11392     11389     11392     11395     11396
     11389     11392     11395     11397     11389     11392     11395     11398
     11390     11389     11392     11393     11390     11389     11392     11394
     11390     11389     11392     11395     11391     11389     11392     11393
     11391     11389     11392     11394     11391     11389     11392     11395
     11393     11392     11395     11396     11393     11392     11395     11397
     11393     11392     11395     11398     11394     11392     11395     11396
     11394     11392     11395     11397     11394     11392     11395     11398
     11399     11401     11404     11405     11399     11401     11404     11406
     11399     11401     11404     11407     11400     11399     11401     11402
     11400     11399     11401     11403     11400     11399     11401     11404
     11401     11404     11407     11408     11401     11404     11407     11409
     11401     11404     11407     11410     11402     11401     11404     11405
     11402     11401     11404     11406     11402     11401     11404     11407
     11403     11401     11404     11405     11403     11401     11404     11406
     11403     11401     11404     11407     11404     11407     11410     11411
     11404     11407     11410     11412     11404     11407     11410     11413
     11405     11404     11407     11408     11405     11404     11407     11409
     11405     11404     11407     11410     11406     11404     11407     11408
     11406     11404     11407     11409     11406     11404     11407     11410
     11407     11410     11413     11414     11407     11410     11413     11415
     11407     11410     11413     11416     11408     11407     11410     11411
     11408     11407     11410     11412     11408     11407     11410     11413
     11409     11407     11410     11411     11409     11407     11410     11412
     11409     11407     11410     11413     11410     11413     11416     11417
     11410     11413     11416     11418     11410     11413     11416     11419
     11411     11410     11413     11414     11411     11410     11413     11415
     11411     11410     11413     11416     11412     11410     11413     11414
     11412     11410     11413     11415     11412     11410     11413     11416
     11413     11416     11419     11420     11413     11416     11419     11421
     11413     11416     11419     11422     11414     11413     11416     11417
     11414     11413     11416     11418     11414     11413     11416     11419
     11415     11413     11416     11417     11415     11413     11416     11418
     11415     11413     11416     11419     11416     11419     11422     11423
     11416     11419     11422     11424     11417     11416     11419     11420
     11417     11416     11419     11421     11417     11416     11419     11422
     11418     11416     11419     11420     11418     11416     11419     11421
     11418     11416     11419     11422     11419     11422     11424     11425
     11419     11422     11424     11426     11420     11419     11422     11423
     11420     11419     11422     11424     11421     11419     11422     11423
     11421     11419     11422     11424     11422     11424     11426     11427
     11422     11424     11426     11428     11422     11424     11426     11429
     11423     11422     11424     11425     11423     11422     11424     11426
     11424     11426     11429     11430     11424     11426     11429     11431
     11424     11426     11429     11432     11425     11424     11426     11427
     11425     11424     11426     11428     11425     11424     11426     11429
     11426     11429     11432     11433     11426     11429     11432     11434
     11426     11429     11432     11435     11427     11426     11429     11430
     11427     11426     11429     11431     11427     11426     11429     11432
     11428     11426     11429     11430     11428     11426     11429     11431
     11428     11426     11429     11432     11429     11432     11435     11436
     11429     11432     11435     11437     11429     11432     11435     11438
     11430     11429     11432     11433     11430     11429     11432     11434
     11430     11429     11432     11435     11431     11429     11432     11433
     11431     11429     11432     11434     11431     11429     11432     11435
     11432     11435     11438     11439     11432     11435     11438     11440
     11432     11435     11438     11441     11433     11432     11435     11436
     11433     11432     11435     11437     11433     11432     11435     11438
     11434     11432     11435     11436     11434     11432     11435     11437
     11434     11432     11435     11438     11435     11438     11441     11442
     11435     11438     11441     11443     11435     11438     11441     11444
     11436     11435     11438     11439     11436     11435     11438     11440
     11436     11435     11438     11441     11437     11435     11438     11439
     11437     11435     11438     11440     11437     11435     11438     11441
     11438     11441     11444     11445     11438     11441     11444     11446
     11438     11441     11444     11447     11439     11438     11441     11442
     11439     11438     11441     11443     11439     11438     11441     11444
     11440     11438     11441     11442     11440     11438     11441     11443
     11440     11438     11441     11444     11441     11444     11447     11448
     11441     11444     11447     11449     11441     11444     11447     11450
     11442     11441     11444     11445     11442     11441     11444     11446
     11442     11441     11444     11447     11443     11441     11444     11445
     11443     11441     11444     11446     11443     11441     11444     11447
     11445     11444     11447     11448     11445     11444     11447     11449
     11445     11444     11447     11450     11446     11444     11447     11448
     11446     11444     11447     11449     11446     11444     11447     11450
     19966     19970     19973     19974     19966     19970     19973     19975
     19966     19970     19973     19979     19967     19966     19970     19971
     19967     19966     19970     19972     19967     19966     19970     19973
     19968     19966     19970     19971     19968     19966     19970     19972
     19968     19966     19970     19973     19969     19966     19970     19971
     19969     19966     19970     19972     19969     19966     19970     19973
     19970     19973     19979     19976     19971     19970     19973     19974
     19971     19970     19973     19975     19971     19970     19973     19979
     19972     19970     19973     19974     19972     19970     19973     19975
     19972     19970     19973     19979     19973     19979     19976     19977
     19973     19979     19976     19978     19973     19979     19976     19980
     19974     19973     19979     19976     19975     19973     19979     19976
     19976     19980     19981     19982     19976     19980     19981     19983
     19976     19980     19981     19984     19977     19976     19980     19981
     19978     19976     19980     19981     19979     19976     19980     19981
     19980     19981     19984     19985     19980     19981     19984     19986
     19980     19981     19984     19992     19981     19984     19986     19987
     19981     19984     19992     19993     19981     19984     19992     19994
     19981     19984     19992     19995     19982     19981     19984     19985
     19982     19981     19984     19986     19982     19981     19984     19992
     19983     19981     19984     19985     19983     19981     19984     19986
     19983     19981     19984     19992     19984     19986     19987     19988
     19984     19986     19987     19989     19984     19992     19995     19996
     19985     19984     19986     19987     19985     19984     19992     19993
     19985     19984     19992     19994     19985     19984     19992     19995
     19986     19984     19992     19993     19986     19984     19992     19994
     19986     19984     19992     19995     19986     19987     19989     19990
     19986     19987     19989     19991     19986     19987     19989     20001
     19987     19986     19984     19992     19987     19989     20001     20002
     19987     19989     20001     20003     19987     19989     20001     20004
     19988     19987     19989     19990     19988     19987     19989     19991
     19988     19987     19989     20001     19989     20001     20004     20005
     19989     20001     20004     20006     19989     20001     20004     20007
     19990     19989     20001     20002     19990     19989     20001     20003
     19990     19989     20001     20004     19991     19989     20001     20002
     19991     19989     20001     20003     19991     19989     20001     20004
     19992     19995     19996     19997     19992     19995     19996     19998
     19993     19992     19995     19996     19994     19992     19995     19996
     19995     19996     19998     19999     19995     19996     19998     20000
     19995     19996     19998     20048     19996     19998     20048     20049
     19996     19998     20048     20050     19996     19998     20048     20051
     19997     19996     19998     19999     19997     19996     19998     20000
     19997     19996     19998     20048     19998     20048     20051     20052
     19998     20048     20051     20053     19998     20048     20051     20054
     19999     19998     20048     20049     19999     19998     20048     20050
     19999     19998     20048     20051     20000     19998     20048     20049
     20000     19998     20048     20050     20000     19998     20048     20051
     20001     20004     20007     20008     20001     20004     20007     20009
     20001     20004     20007     20010     20002     20001     20004     20005
     20002     20001     20004     20006     20002     20001     20004     20007
     20003     20001     20004     20005     20003     20001     20004     20006
     20003     20001     20004     20007     20004     20007     20010     20011
     20004     20007     20010     20012     20004     20007     20010     20013
     20005     20004     20007     20008     20005     20004     20007     20009
     20005     20004     20007     20010     20006     20004     20007     20008
     20006     20004     20007     20009     20006     20004     20007     20010
     20007     20010     20013     20014     20007     20010     20013     20015
     20007     20010     20013     20016     20008     20007     20010     20011
     20008     20007     20010     20012     20008     20007     20010     20013
     20009     20007     20010     20011     20009     20007     20010     20012
     20009     20007     20010     20013     20010     20013     20016     20017
     20010     20013     20016     20018     20010     20013     20016     20019
     20011     20010     20013     20014     20011     20010     20013     20015
     20011     20010     20013     20016     20012     20010     20013     20014
     20012     20010     20013     20015     20012     20010     20013     20016
     20013     20016     20019     20020     20013     20016     20019     20021
     20014     20013     20016     20017     20014     20013     20016     20018
     20014     20013     20016     20019     20015     20013     20016     20017
     20015     20013     20016     20018     20015     20013     20016     20019
     20016     20019     20021     20022     20016     20019     20021     20023
     20017     20016     20019     20020     20017     20016     20019     20021
     20018     20016     20019     20020     20018     20016     20019     20021
     20019     20021     20023     20024     20019     20021     20023     20025
     20019     20021     20023     20026     20020     20019     20021     20022
     20020     20019     20021     20023     20021     20023     20026     20027
     20021     20023     20026     20028     20021     20023     20026     20029
     20022     20021     20023     20024     20022     20021     20023     20025
     20022     20021     20023     20026     20023     20026     20029     20030
     20023     20026     20029     20031     20023     20026     20029     20032
     20024     20023     20026     20027     20024     20023     20026     20028
     20024     20023     20026     20029     20025     20023     20026     20027
     20025     20023     20026     20028     20025     20023     20026     20029
     20026     20029     20032     20033     20026     20029     20032     20034
     20026     20029     20032     20035     20027     20026     20029     20030
     20027     20026     20029     20031     20027     20026     20029     20032
     20028     20026     20029     20030     20028     20026     20029     20031
     20028     20026     20029     20032     20029     20032     20035     20036
     20029     20032     20035     20037     20029     20032     20035     20038
     20030     20029     20032     20033     20030     20029     20032     20034
     20030     20029     20032     20035     20031     20029     20032     20033
     20031     20029     20032     20034     20031     20029     20032     20035
     20032     20035     20038     20039     20032     20035     20038     20040
     20032     20035     20038     20041     20033     20032     20035     20036
     20033     20032     20035     20037     20033     20032     20035     20038
     20034     20032     20035     20036     20034     20032     20035     20037
     20034     20032     20035     20038     20035     20038     20041     20042
     20035     20038     20041     20043     20035     20038     20041     20044
     20036     20035     20038     20039     20036     20035     20038     20040
     20036     20035     20038     20041     20037     20035     20038     20039
     20037     20035     20038     20040     20037     20035     20038     20041
     20038     20041     20044     20045     20038     20041     20044     20046
     20038     20041     20044     20047     20039     20038     20041     20042
     20039     20038     20041     20043     20039     20038     20041     20044
     20040     20038     20041     20042     20040     20038     20041     20043
     20040     20038     20041     20044     20042     20041     20044     20045
     20042     20041     20044     20046     20042     20041     20044     20047
     20043     20041     20044     20045     20043     20041     20044     20046
     20043     20041     20044     20047     20048     20051     20054     20055
     20048     20051     20054     20056     20048     20051     20054     20057
     20049     20048     20051     20052     20049     20048     20051     20053
     20049     20048     20051     20054     20050     20048     20051     20052
     20050     20048     20051     20053     20050     20048     20051     20054
     20051     20054     20057     20058     20051     20054     20057     20059
     20051     20054     20057     20060     20052     20051     20054     20055
     20052     20051     20054     20056     20052     20051     20054     20057
     20053     20051     20054     20055     20053     20051     20054     20056
     20053     20051     20054     20057     20054     20057     20060     20061
     20054     20057     20060     20062     20054     20057     20060     20063
     20055     20054     20057     20058     20055     20054     20057     20059
     20055     20054     20057     20060     20056     20054     20057     20058
     20056     20054     20057     20059     20056     20054     20057     20060
     20057     20060     20063     20064     20057     20060     20063     20065
     20057     20060     20063     20066     20058     20057     20060     20061
     20058     20057     20060     20062     20058     20057     20060     20063
     20059     20057     20060     20061     20059     20057     20060     20062
     20059     20057     20060     20063     20060     20063     20066     20067
     20060     20063     20066     20068     20060     20063     20066     20069
     20061     20060     20063     20064     20061     20060     20063     20065
     20061     20060     20063     20066     20062     20060     20063     20064
     20062     20060     20063     20065     20062     20060     20063     20066
     20063     20066     20069     20070     20063     20066     20069     20071
     20063     20066     20069     20072     20064     20063     20066     20067
     20064     20063     20066     20068     20064     20063     20066     20069
     20065     20063     20066     20067     20065     20063     20066     20068
     20065     20063     20066     20069     20066     20069     20072     20073
     20066     20069     20072     20074     20066     20069     20072     20075
     20067     20066     20069     20070     20067     20066     20069     20071
     20067     20066     20069     20072     20068     20066     20069     20070
     20068     20066     20069     20071     20068     20066     20069     20072
     20069     20072     20075     20076     20069     20072     20075     20077
     20069     20072     20075     20078     20070     20069     20072     20073
     20070     20069     20072     20074     20070     20069     20072     20075
     20071     20069     20072     20073     20071     20069     20072     20074
     20071     20069     20072     20075     20072     20075     20078     20079
     20072     20075     20078     20080     20072     20075     20078     20081
     20073     20072     20075     20076     20073     20072     20075     20077
     20073     20072     20075     20078     20074     20072     20075     20076
     20074     20072     20075     20077     20074     20072     20075     20078
     20075     20078     20081     20082     20075     20078     20081     20083
     20075     20078     20081     20084     20076     20075     20078     20079
     20076     20075     20078     20080     20076     20075     20078     20081
     20077     20075     20078     20079     20077     20075     20078     20080
     20077     20075     20078     20081     20078     20081     20084     20085
     20078     20081     20084     20086     20078     20081     20084     20087
     20079     20078     20081     20082     20079     20078     20081     20083
     20079     20078     20081     20084     20080     20078     20081     20082
     20080     20078     20081     20083     20080     20078     20081     20084
     20081     20084     20087     20088     20081     20084     20087     20089
     20081     20084     20087     20090     20082     20081     20084     20085
     20082     20081     20084     20086     20082     20081     20084     20087
     20083     20081     20084     20085     20083     20081     20084     20086
     20083     20081     20084     20087     20084     20087     20090     20091
     20084     20087     20090     20092     20084     20087     20090     20093
     20085     20084     20087     20088     20085     20084     20087     20089
     20085     20084     20087     20090     20086     20084     20087     20088
     20086     20084     20087     20089     20086     20084     20087     20090
     20087     20090     20093     20094     20087     20090     20093     20095
     20087     20090     20093     20096     20088     20087     20090     20091
     20088     20087     20090     20092     20088     20087     20090     20093
     20089     20087     20090     20091     20089     20087     20090     20092
     20089     20087     20090     20093     20091     20090     20093     20094
     20091     20090     20093     20095     20091     20090     20093     20096
     20092     20090     20093     20094     20092     20090     20093     20095
     20092     20090     20093     20096     11451     11464     11467     11468
     11451     11464     11467     11469     11451     11464     11467     11474
     11452     11451     11456     11457     11452     11451     11456     11458
     11452     11451     11456     11459     11452     11451     11460     11461
     11452     11451     11460     11462     11452     11451     11460     11463
     11452     11451     11464     11465     11452     11451     11464     11466
     11452     11451     11464     11467     11453     11452     11451     11456
     11453     11452     11451     11460     11453     11452     11451     11464
     11454     11452     11451     11456     11454     11452     11451     11460
     11454     11452     11451     11464     11455     11452     11451     11456
     11455     11452     11451     11460     11455     11452     11451     11464
     11456     11451     11460     11461     11456     11451     11460     11462
     11456     11451     11460     11463     11456     11451     11464     11465
     11456     11451     11464     11466     11456     11451     11464     11467
     11457     11456     11451     11460     11457     11456     11451     11464
     11458     11456     11451     11460     11458     11456     11451     11464
     11459     11456     11451     11460     11459     11456     11451     11464
     11460     11451     11464     11465     11460     11451     11464     11466
     11460     11451     11464     11467     11461     11460     11451     11464
     11462     11460     11451     11464     11463     11460     11451     11464
     11464     11467     11474     11470     11465     11464     11467     11468
     11465     11464     11467     11469     11465     11464     11467     11474
     11466     11464     11467     11468     11466     11464     11467     11469
     11466     11464     11467     11474     11467     11474     11470     11471
     11467     11474     11470     11472     11467     11474     11470     11473
     11468     11467     11474     11470     11469     11467     11474     11470
     11470     11473     11475     11476     11470     11473     11475     11477
     11470     11473     11475     11480     11471     11470     11473     11475
     11472     11470     11473     11475     11473     11475     11480     11478
     11473     11475     11480     11481     11473     11475     11480     11482
     11474     11470     11473     11475     11475     11480     11478     11479
     11475     11480     11478     11530     11475     11480     11482     11483
     11475     11480     11482     11484     11475     11480     11482     11486
     11476     11475     11480     11478     11476     11475     11480     11481
     11476     11475     11480     11482     11477     11475     11480     11478
     11477     11475     11480     11481     11477     11475     11480     11482
     11478     11480     11482     11483     11478     11480     11482     11484
     11478     11480     11482     11486     11478     11530     11532     11533
     11478     11530     11532     11534     11478     11530     11532     11535
     11479     11478     11480     11481     11479     11478     11480     11482
     11479     11478     11530     11531     11479     11478     11530     11532
     11480     11478     11530     11531     11480     11478     11530     11532
     11480     11482     11484     11485     11480     11482     11486     11487
     11480     11482     11486     11488     11481     11480     11478     11530
     11481     11480     11482     11483     11481     11480     11482     11484
     11481     11480     11482     11486     11482     11480     11478     11530
     11482     11486     11488     11489     11482     11486     11488     11490
     11483     11482     11484     11485     11483     11482     11486     11487
     11483     11482     11486     11488     11484     11482     11486     11487
     11484     11482     11486     11488     11485     11484     11482     11486
     11486     11488     11490     11491     11486     11488     11490     11492
     11486     11488     11490     11493     11487     11486     11488     11489
     11487     11486     11488     11490     11488     11490     11493     11494
     11488     11490     11493     11495     11488     11490     11493     11496
     11489     11488     11490     11491     11489     11488     11490     11492
     11489     11488     11490     11493     11490     11493     11496     11497
     11490     11493     11496     11498     11490     11493     11496     11499
     11491     11490     11493     11494     11491     11490     11493     11495
     11491     11490     11493     11496     11492     11490     11493     11494
     11492     11490     11493     11495     11492     11490     11493     11496
     11493     11496     11499     11500     11493     11496     11499     11501
     11493     11496     11499     11502     11494     11493     11496     11497
     11494     11493     11496     11498     11494     11493     11496     11499
     11495     11493     11496     11497     11495     11493     11496     11498
     11495     11493     11496     11499     11496     11499     11502     11503
     11496     11499     11502     11504     11496     11499     11502     11505
     11497     11496     11499     11500     11497     11496     11499     11501
     11497     11496     11499     11502     11498     11496     11499     11500
     11498     11496     11499     11501     11498     11496     11499     11502
     11499     11502     11505     11506     11499     11502     11505     11507
     11499     11502     11505     11508     11500     11499     11502     11503
     11500     11499     11502     11504     11500     11499     11502     11505
     11501     11499     11502     11503     11501     11499     11502     11504
     11501     11499     11502     11505     11502     11505     11508     11509
     11502     11505     11508     11510     11502     11505     11508     11511
     11503     11502     11505     11506     11503     11502     11505     11507
     11503     11502     11505     11508     11504     11502     11505     11506
     11504     11502     11505     11507     11504     11502     11505     11508
     11505     11508     11511     11512     11505     11508     11511     11513
     11505     11508     11511     11514     11506     11505     11508     11509
     11506     11505     11508     11510     11506     11505     11508     11511
     11507     11505     11508     11509     11507     11505     11508     11510
     11507     11505     11508     11511     11508     11511     11514     11515
     11508     11511     11514     11516     11508     11511     11514     11517
     11509     11508     11511     11512     11509     11508     11511     11513
     11509     11508     11511     11514     11510     11508     11511     11512
     11510     11508     11511     11513     11510     11508     11511     11514
     11511     11514     11517     11518     11511     11514     11517     11519
     11511     11514     11517     11520     11512     11511     11514     11515
     11512     11511     11514     11516     11512     11511     11514     11517
     11513     11511     11514     11515     11513     11511     11514     11516
     11513     11511     11514     11517     11514     11517     11520     11521
     11514     11517     11520     11522     11514     11517     11520     11523
     11515     11514     11517     11518     11515     11514     11517     11519
     11515     11514     11517     11520     11516     11514     11517     11518
     11516     11514     11517     11519     11516     11514     11517     11520
     11517     11520     11523     11524     11517     11520     11523     11525
     11517     11520     11523     11526     11518     11517     11520     11521
     11518     11517     11520     11522     11518     11517     11520     11523
     11519     11517     11520     11521     11519     11517     11520     11522
     11519     11517     11520     11523     11520     11523     11526     11527
     11520     11523     11526     11528     11520     11523     11526     11529
     11521     11520     11523     11524     11521     11520     11523     11525
     11521     11520     11523     11526     11522     11520     11523     11524
     11522     11520     11523     11525     11522     11520     11523     11526
     11524     11523     11526     11527     11524     11523     11526     11528
     11524     11523     11526     11529     11525     11523     11526     11527
     11525     11523     11526     11528     11525     11523     11526     11529
     11530     11532     11535     11536     11530     11532     11535     11537
     11530     11532     11535     11538     11531     11530     11532     11533
     11531     11530     11532     11534     11531     11530     11532     11535
     11532     11535     11538     11539     11532     11535     11538     11540
     11532     11535     11538     11541     11533     11532     11535     11536
     11533     11532     11535     11537     11533     11532     11535     11538
     11534     11532     11535     11536     11534     11532     11535     11537
     11534     11532     11535     11538     11535     11538     11541     11542
     11535     11538     11541     11543     11535     11538     11541     11544
     11536     11535     11538     11539     11536     11535     11538     11540
     11536     11535     11538     11541     11537     11535     11538     11539
     11537     11535     11538     11540     11537     11535     11538     11541
     11538     11541     11544     11545     11538     11541     11544     11546
     11538     11541     11544     11547     11539     11538     11541     11542
     11539     11538     11541     11543     11539     11538     11541     11544
     11540     11538     11541     11542     11540     11538     11541     11543
     11540     11538     11541     11544     11541     11544     11547     11548
     11541     11544     11547     11549     11541     11544     11547     11550
     11542     11541     11544     11545     11542     11541     11544     11546
     11542     11541     11544     11547     11543     11541     11544     11545
     11543     11541     11544     11546     11543     11541     11544     11547
     11544     11547     11550     11551     11544     11547     11550     11552
     11544     11547     11550     11553     11545     11544     11547     11548
     11545     11544     11547     11549     11545     11544     11547     11550
     11546     11544     11547     11548     11546     11544     11547     11549
     11546     11544     11547     11550     11547     11550     11553     11554
     11547     11550     11553     11555     11548     11547     11550     11551
     11548     11547     11550     11552     11548     11547     11550     11553
     11549     11547     11550     11551     11549     11547     11550     11552
     11549     11547     11550     11553     11550     11553     11555     11556
     11550     11553     11555     11557     11551     11550     11553     11554
     11551     11550     11553     11555     11552     11550     11553     11554
     11552     11550     11553     11555     11553     11555     11557     11558
     11553     11555     11557     11559     11553     11555     11557     11560
     11554     11553     11555     11556     11554     11553     11555     11557
     11555     11557     11560     11561     11555     11557     11560     11562
     11555     11557     11560     11563     11556     11555     11557     11558
     11556     11555     11557     11559     11556     11555     11557     11560
     11557     11560     11563     11564     11557     11560     11563     11565
     11557     11560     11563     11566     11558     11557     11560     11561
     11558     11557     11560     11562     11558     11557     11560     11563
     11559     11557     11560     11561     11559     11557     11560     11562
     11559     11557     11560     11563     11560     11563     11566     11567
     11560     11563     11566     11568     11560     11563     11566     11569
     11561     11560     11563     11564     11561     11560     11563     11565
     11561     11560     11563     11566     11562     11560     11563     11564
     11562     11560     11563     11565     11562     11560     11563     11566
     11563     11566     11569     11570     11563     11566     11569     11571
     11563     11566     11569     11572     11564     11563     11566     11567
     11564     11563     11566     11568     11564     11563     11566     11569
     11565     11563     11566     11567     11565     11563     11566     11568
     11565     11563     11566     11569     11566     11569     11572     11573
     11566     11569     11572     11574     11566     11569     11572     11575
     11567     11566     11569     11570     11567     11566     11569     11571
     11567     11566     11569     11572     11568     11566     11569     11570
     11568     11566     11569     11571     11568     11566     11569     11572
     11569     11572     11575     11576     11569     11572     11575     11577
     11569     11572     11575     11578     11570     11569     11572     11573
     11570     11569     11572     11574     11570     11569     11572     11575
     11571     11569     11572     11573     11571     11569     11572     11574
     11571     11569     11572     11575     11572     11575     11578     11579
     11572     11575     11578     11580     11572     11575     11578     11581
     11573     11572     11575     11576     11573     11572     11575     11577
     11573     11572     11575     11578     11574     11572     11575     11576
     11574     11572     11575     11577     11574     11572     11575     11578
     11576     11575     11578     11579     11576     11575     11578     11580
     11576     11575     11578     11581     11577     11575     11578     11579
     11577     11575     11578     11580     11577     11575     11578     11581
     11582     11595     11598     11599     11582     11595     11598     11600
     11582     11595     11598     11605     11583     11582     11587     11588
     11583     11582     11587     11589     11583     11582     11587     11590
     11583     11582     11591     11592     11583     11582     11591     11593
     11583     11582     11591     11594     11583     11582     11595     11596
     11583     11582     11595     11597     11583     11582     11595     11598
     11584     11583     11582     11587     11584     11583     11582     11591
     11584     11583     11582     11595     11585     11583     11582     11587
     11585     11583     11582     11591     11585     11583     11582     11595
     11586     11583     11582     11587     11586     11583     11582     11591
     11586     11583     11582     11595     11587     11582     11591     11592
     11587     11582     11591     11593     11587     11582     11591     11594
     11587     11582     11595     11596     11587     11582     11595     11597
     11587     11582     11595     11598     11588     11587     11582     11591
     11588     11587     11582     11595     11589     11587     11582     11591
     11589     11587     11582     11595     11590     11587     11582     11591
     11590     11587     11582     11595     11591     11582     11595     11596
     11591     11582     11595     11597     11591     11582     11595     11598
     11592     11591     11582     11595     11593     11591     11582     11595
     11594     11591     11582     11595     11595     11598     11605     11601
     11596     11595     11598     11599     11596     11595     11598     11600
     11596     11595     11598     11605     11597     11595     11598     11599
     11597     11595     11598     11600     11597     11595     11598     11605
     11598     11605     11601     11602     11598     11605     11601     11603
     11598     11605     11601     11604     11599     11598     11605     11601
     11600     11598     11605     11601     11601     11604     11606     11607
     11601     11604     11606     11608     11601     11604     11606     11611
     11602     11601     11604     11606     11603     11601     11604     11606
     11604     11606     11611     11609     11604     11606     11611     11612
     11604     11606     11611     11613     11605     11601     11604     11606
     11606     11611     11609     11610     11606     11611     11609     11661
     11606     11611     11613     11614     11606     11611     11613     11615
     11606     11611     11613     11617     11607     11606     11611     11609
     11607     11606     11611     11612     11607     11606     11611     11613
     11608     11606     11611     11609     11608     11606     11611     11612
     11608     11606     11611     11613     11609     11611     11613     11614
     11609     11611     11613     11615     11609     11611     11613     11617
     11609     11661     11663     11664     11609     11661     11663     11665
     11609     11661     11663     11666     11610     11609     11611     11612
     11610     11609     11611     11613     11610     11609     11661     11662
     11610     11609     11661     11663     11611     11609     11661     11662
     11611     11609     11661     11663     11611     11613     11615     11616
     11611     11613     11617     11618     11611     11613     11617     11619
     11612     11611     11609     11661     11612     11611     11613     11614
     11612     11611     11613     11615     11612     11611     11613     11617
     11613     11611     11609     11661     11613     11617     11619     11620
     11613     11617     11619     11621     11614     11613     11615     11616
     11614     11613     11617     11618     11614     11613     11617     11619
     11615     11613     11617     11618     11615     11613     11617     11619
     11616     11615     11613     11617     11617     11619     11621     11622
     11617     11619     11621     11623     11617     11619     11621     11624
     11618     11617     11619     11620     11618     11617     11619     11621
     11619     11621     11624     11625     11619     11621     11624     11626
     11619     11621     11624     11627     11620     11619     11621     11622
     11620     11619     11621     11623     11620     11619     11621     11624
     11621     11624     11627     11628     11621     11624     11627     11629
     11621     11624     11627     11630     11622     11621     11624     11625
     11622     11621     11624     11626     11622     11621     11624     11627
     11623     11621     11624     11625     11623     11621     11624     11626
     11623     11621     11624     11627     11624     11627     11630     11631
     11624     11627     11630     11632     11624     11627     11630     11633
     11625     11624     11627     11628     11625     11624     11627     11629
     11625     11624     11627     11630     11626     11624     11627     11628
     11626     11624     11627     11629     11626     11624     11627     11630
     11627     11630     11633     11634     11627     11630     11633     11635
     11627     11630     11633     11636     11628     11627     11630     11631
     11628     11627     11630     11632     11628     11627     11630     11633
     11629     11627     11630     11631     11629     11627     11630     11632
     11629     11627     11630     11633     11630     11633     11636     11637
     11630     11633     11636     11638     11630     11633     11636     11639
     11631     11630     11633     11634     11631     11630     11633     11635
     11631     11630     11633     11636     11632     11630     11633     11634
     11632     11630     11633     11635     11632     11630     11633     11636
     11633     11636     11639     11640     11633     11636     11639     11641
     11633     11636     11639     11642     11634     11633     11636     11637
     11634     11633     11636     11638     11634     11633     11636     11639
     11635     11633     11636     11637     11635     11633     11636     11638
     11635     11633     11636     11639     11636     11639     11642     11643
     11636     11639     11642     11644     11636     11639     11642     11645
     11637     11636     11639     11640     11637     11636     11639     11641
     11637     11636     11639     11642     11638     11636     11639     11640
     11638     11636     11639     11641     11638     11636     11639     11642
     11639     11642     11645     11646     11639     11642     11645     11647
     11639     11642     11645     11648     11640     11639     11642     11643
     11640     11639     11642     11644     11640     11639     11642     11645
     11641     11639     11642     11643     11641     11639     11642     11644
     11641     11639     11642     11645     11642     11645     11648     11649
     11642     11645     11648     11650     11642     11645     11648     11651
     11643     11642     11645     11646     11643     11642     11645     11647
     11643     11642     11645     11648     11644     11642     11645     11646
     11644     11642     11645     11647     11644     11642     11645     11648
     11645     11648     11651     11652     11645     11648     11651     11653
     11645     11648     11651     11654     11646     11645     11648     11649
     11646     11645     11648     11650     11646     11645     11648     11651
     11647     11645     11648     11649     11647     11645     11648     11650
     11647     11645     11648     11651     11648     11651     11654     11655
     11648     11651     11654     11656     11648     11651     11654     11657
     11649     11648     11651     11652     11649     11648     11651     11653
     11649     11648     11651     11654     11650     11648     11651     11652
     11650     11648     11651     11653     11650     11648     11651     11654
     11651     11654     11657     11658     11651     11654     11657     11659
     11651     11654     11657     11660     11652     11651     11654     11655
     11652     11651     11654     11656     11652     11651     11654     11657
     11653     11651     11654     11655     11653     11651     11654     11656
     11653     11651     11654     11657     11655     11654     11657     11658
     11655     11654     11657     11659     11655     11654     11657     11660
     11656     11654     11657     11658     11656     11654     11657     11659
     11656     11654     11657     11660     11661     11663     11666     11667
     11661     11663     11666     11668     11661     11663     11666     11669
     11662     11661     11663     11664     11662     11661     11663     11665
     11662     11661     11663     11666     11663     11666     11669     11670
     11663     11666     11669     11671     11663     11666     11669     11672
     11664     11663     11666     11667     11664     11663     11666     11668
     11664     11663     11666     11669     11665     11663     11666     11667
     11665     11663     11666     11668     11665     11663     11666     11669
     11666     11669     11672     11673     11666     11669     11672     11674
     11666     11669     11672     11675     11667     11666     11669     11670
     11667     11666     11669     11671     11667     11666     11669     11672
     11668     11666     11669     11670     11668     11666     11669     11671
     11668     11666     11669     11672     11669     11672     11675     11676
     11669     11672     11675     11677     11669     11672     11675     11678
     11670     11669     11672     11673     11670     11669     11672     11674
     11670     11669     11672     11675     11671     11669     11672     11673
     11671     11669     11672     11674     11671     11669     11672     11675
     11672     11675     11678     11679     11672     11675     11678     11680
     11672     11675     11678     11681     11673     11672     11675     11676
     11673     11672     11675     11677     11673     11672     11675     11678
     11674     11672     11675     11676     11674     11672     11675     11677
     11674     11672     11675     11678     11675     11678     11681     11682
     11675     11678     11681     11683     11675     11678     11681     11684
     11676     11675     11678     11679     11676     11675     11678     11680
     11676     11675     11678     11681     11677     11675     11678     11679
     11677     11675     11678     11680     11677     11675     11678     11681
     11678     11681     11684     11685     11678     11681     11684     11686
     11679     11678     11681     11682     11679     11678     11681     11683
     11679     11678     11681     11684     11680     11678     11681     11682
     11680     11678     11681     11683     11680     11678     11681     11684
     11681     11684     11686     11687     11681     11684     11686     11688
     11682     11681     11684     11685     11682     11681     11684     11686
     11683     11681     11684     11685     11683     11681     11684     11686
     11684     11686     11688     11689     11684     11686     11688     11690
     11684     11686     11688     11691     11685     11684     11686     11687
     11685     11684     11686     11688     11686     11688     11691     11692
     11686     11688     11691     11693     11686     11688     11691     11694
     11687     11686     11688     11689     11687     11686     11688     11690
     11687     11686     11688     11691     11688     11691     11694     11695
     11688     11691     11694     11696     11688     11691     11694     11697
     11689     11688     11691     11692     11689     11688     11691     11693
     11689     11688     11691     11694     11690     11688     11691     11692
     11690     11688     11691     11693     11690     11688     11691     11694
     11691     11694     11697     11698     11691     11694     11697     11699
     11691     11694     11697     11700     11692     11691     11694     11695
     11692     11691     11694     11696     11692     11691     11694     11697
     11693     11691     11694     11695     11693     11691     11694     11696
     11693     11691     11694     11697     11694     11697     11700     11701
     11694     11697     11700     11702     11694     11697     11700     11703
     11695     11694     11697     11698     11695     11694     11697     11699
     11695     11694     11697     11700     11696     11694     11697     11698
     11696     11694     11697     11699     11696     11694     11697     11700
     11697     11700     11703     11704     11697     11700     11703     11705
     11697     11700     11703     11706     11698     11697     11700     11701
     11698     11697     11700     11702     11698     11697     11700     11703
     11699     11697     11700     11701     11699     11697     11700     11702
     11699     11697     11700     11703     11700     11703     11706     11707
     11700     11703     11706     11708     11700     11703     11706     11709
     11701     11700     11703     11704     11701     11700     11703     11705
     11701     11700     11703     11706     11702     11700     11703     11704
     11702     11700     11703     11705     11702     11700     11703     11706
     11703     11706     11709     11710     11703     11706     11709     11711
     11703     11706     11709     11712     11704     11703     11706     11707
     11704     11703     11706     11708     11704     11703     11706     11709
     11705     11703     11706     11707     11705     11703     11706     11708
     11705     11703     11706     11709     11707     11706     11709     11710
     11707     11706     11709     11711     11707     11706     11709     11712
     11708     11706     11709     11710     11708     11706     11709     11711
     11708     11706     11709     11712      7880      7884      7886      7887
      7880      7884      7886      7888      7880      7884      7889      7890
      7880      7884      7889      7891      7880      7884      7889      7895
      7881      7880      7884      7885      7881      7880      7884      7886
      7881      7880      7884      7889      7882      7880      7884      7885
      7882      7880      7884      7886      7882      7880      7884      7889
      7883      7880      7884      7885      7883      7880      7884      7886
      7883      7880      7884      7889      7884      7889      7895      7892
      7885      7884      7886      7887      7885      7884      7886      7888
      7885      7884      7889      7890      7885      7884      7889      7891
      7885      7884      7889      7895      7886      7884      7889      7890
      7886      7884      7889      7891      7886      7884      7889      7895
      7887      7886      7884      7889      7888      7886      7884      7889
      7889      7895      7892      7893      7889      7895      7892      7894
      7889      7895      7892      7896      7890      7889      7895      7892
      7891      7889      7895      7892      7892      7896      7897      7898
      7892      7896      7897      7899      7892      7896      7897      7900
      7893      7892      7896      7897      7894      7892      7896      7897
      7895      7892      7896      7897      7896      7897      7900      7901
      7896      7897      7900      7902      7896      7897      7900      7908
      7897      7900      7902      7903      7897      7900      7908      7909
      7897      7900      7908      7910      7897      7900      7908      7911
      7898      7897      7900      7901      7898      7897      7900      7902
      7898      7897      7900      7908      7899      7897      7900      7901
      7899      7897      7900      7902      7899      7897      7900      7908
      7900      7902      7903      7904      7900      7902      7903      7905
      7900      7908      7911      7912      7901      7900      7902      7903
      7901      7900      7908      7909      7901      7900      7908      7910
      7901      7900      7908      7911      7902      7900      7908      7909
      7902      7900      7908      7910      7902      7900      7908      7911
      7902      7903      7905      7906      7902      7903      7905      7907
      7902      7903      7905      7917      7903      7902      7900      7908
      7903      7905      7917      7918      7903      7905      7917      7919
      7903      7905      7917      7920      7904      7903      7905      7906
      7904      7903      7905      7907      7904      7903      7905      7917
      7905      7917      7920      7921      7905      7917      7920      7922
      7905      7917      7920      7923      7906      7905      7917      7918
      7906      7905      7917      7919      7906      7905      7917      7920
      7907      7905      7917      7918      7907      7905      7917      7919
      7907      7905      7917      7920      7908      7911      7912      7913
      7908      7911      7912      7914      7909      7908      7911      7912
      7910      7908      7911      7912      7911      7912      7914      7915
      7911      7912      7914      7916      7911      7912      7914      7964
      7912      7914      7964      7965      7912      7914      7964      7966
      7912      7914      7964      7967      7913      7912      7914      7915
      7913      7912      7914      7916      7913      7912      7914      7964
      7914      7964      7967      7968      7914      7964      7967      7969
      7914      7964      7967      7970      7915      7914      7964      7965
      7915      7914      7964      7966      7915      7914      7964      7967
      7916      7914      7964      7965      7916      7914      7964      7966
      7916      7914      7964      7967      7917      7920      7923      7924
      7917      7920      7923      7925      7918      7917      7920      7921
      7918      7917      7920      7922      7918      7917      7920      7923
      7919      7917      7920      7921      7919      7917      7920      7922
      7919      7917      7920      7923      7920      7923      7925      7926
      7920      7923      7925      7927      7921      7920      7923      7924
      7921      7920      7923      7925      7922      7920      7923      7924
      7922      7920      7923      7925      7923      7925      7927      7928
      7923      7925      7927      7929      7923      7925      7927      7930
      7924      7923      7925      7926      7924      7923      7925      7927
      7925      7927      7930      7931      7925      7927      7930      7932
      7926      7925      7927      7928      7926      7925      7927      7929
      7926      7925      7927      7930      7927      7930      7932      7933
      7927      7930      7932      7934      7928      7927      7930      7931
      7928      7927      7930      7932      7929      7927      7930      7931
      7929      7927      7930      7932      7930      7932      7934      7935
      7930      7932      7934      7936      7930      7932      7934      7937
      7931      7930      7932      7933      7931      7930      7932      7934
      7932      7934      7937      7938      7932      7934      7937      7939
      7933      7932      7934      7935      7933      7932      7934      7936
      7933      7932      7934      7937      7934      7937      7939      7940
      7934      7937      7939      7941      7935      7934      7937      7938
      7935      7934      7937      7939      7936      7934      7937      7938
      7936      7934      7937      7939      7937      7939      7941      7942
      7937      7939      7941      7943      7937      7939      7941      7944
      7938      7937      7939      7940      7938      7937      7939      7941
      7939      7941      7944      7945      7939      7941      7944      7946
      7940      7939      7941      7942      7940      7939      7941      7943
      7940      7939      7941      7944      7941      7944      7946      7947
      7941      7944      7946      7948      7942      7941      7944      7945
      7942      7941      7944      7946      7943      7941      7944      7945
      7943      7941      7944      7946      7944      7946      7948      7949
      7944      7946      7948      7950      7944      7946      7948      7951
      7945      7944      7946      7947      7945      7944      7946      7948
      7946      7948      7951      7952      7946      7948      7951      7953
      7946      7948      7951      7954      7947      7946      7948      7949
      7947      7946      7948      7950      7947      7946      7948      7951
      7948      7951      7954      7955      7948      7951      7954      7956
      7948      7951      7954      7957      7949      7948      7951      7952
      7949      7948      7951      7953      7949      7948      7951      7954
      7950      7948      7951      7952      7950      7948      7951      7953
      7950      7948      7951      7954      7951      7954      7957      7958
      7951      7954      7957      7959      7951      7954      7957      7960
      7952      7951      7954      7955      7952      7951      7954      7956
      7952      7951      7954      7957      7953      7951      7954      7955
      7953      7951      7954      7956      7953      7951      7954      7957
      7954      7957      7960      7961      7954      7957      7960      7962
      7954      7957      7960      7963      7955      7954      7957      7958
      7955      7954      7957      7959      7955      7954      7957      7960
      7956      7954      7957      7958      7956      7954      7957      7959
      7956      7954      7957      7960      7958      7957      7960      7961
      7958      7957      7960      7962      7958      7957      7960      7963
      7959      7957      7960      7961      7959      7957      7960      7962
      7959      7957      7960      7963      7964      7967      7970      7971
      7964      7967      7970      7972      7964      7967      7970      7973
      7965      7964      7967      7968      7965      7964      7967      7969
      7965      7964      7967      7970      7966      7964      7967      7968
      7966      7964      7967      7969      7966      7964      7967      7970
      7967      7970      7973      7974      7967      7970      7973      7975
      7967      7970      7973      7976      7968      7967      7970      7971
      7968      7967      7970      7972      7968      7967      7970      7973
      7969      7967      7970      7971      7969      7967      7970      7972
      7969      7967      7970      7973      7970      7973      7976      7977
      7970      7973      7976      7978      7970      7973      7976      7979
      7971      7970      7973      7974      7971      7970      7973      7975
      7971      7970      7973      7976      7972      7970      7973      7974
      7972      7970      7973      7975      7972      7970      7973      7976
      7973      7976      7979      7980      7973      7976      7979      7981
      7973      7976      7979      7982      7974      7973      7976      7977
      7974      7973      7976      7978      7974      7973      7976      7979
      7975      7973      7976      7977      7975      7973      7976      7978
      7975      7973      7976      7979      7976      7979      7982      7983
      7976      7979      7982      7984      7976      7979      7982      7985
      7977      7976      7979      7980      7977      7976      7979      7981
      7977      7976      7979      7982      7978      7976      7979      7980
      7978      7976      7979      7981      7978      7976      7979      7982
      7979      7982      7985      7986      7979      7982      7985      7987
      7979      7982      7985      7988      7980      7979      7982      7983
      7980      7979      7982      7984      7980      7979      7982      7985
      7981      7979      7982      7983      7981      7979      7982      7984
      7981      7979      7982      7985      7982      7985      7988      7989
      7982      7985      7988      7990      7982      7985      7988      7991
      7983      7982      7985      7986      7983      7982      7985      7987
      7983      7982      7985      7988      7984      7982      7985      7986
      7984      7982      7985      7987      7984      7982      7985      7988
      7985      7988      7991      7992      7985      7988      7991      7993
      7985      7988      7991      7994      7986      7985      7988      7989
      7986      7985      7988      7990      7986      7985      7988      7991
      7987      7985      7988      7989      7987      7985      7988      7990
      7987      7985      7988      7991      7988      7991      7994      7995
      7988      7991      7994      7996      7988      7991      7994      7997
      7989      7988      7991      7992      7989      7988      7991      7993
      7989      7988      7991      7994      7990      7988      7991      7992
      7990      7988      7991      7993      7990      7988      7991      7994
      7991      7994      7997      7998      7991      7994      7997      7999
      7991      7994      7997      8000      7992      7991      7994      7995
      7992      7991      7994      7996      7992      7991      7994      7997
      7993      7991      7994      7995      7993      7991      7994      7996
      7993      7991      7994      7997      7994      7997      8000      8001
      7994      7997      8000      8002      7994      7997      8000      8003
      7995      7994      7997      7998      7995      7994      7997      7999
      7995      7994      7997      8000      7996      7994      7997      7998
      7996      7994      7997      7999      7996      7994      7997      8000
      7997      8000      8003      8004      7997      8000      8003      8005
      7997      8000      8003      8006      7998      7997      8000      8001
      7998      7997      8000      8002      7998      7997      8000      8003
      7999      7997      8000      8001      7999      7997      8000      8002
      7999      7997      8000      8003      8000      8003      8006      8007
      8000      8003      8006      8008      8000      8003      8006      8009
      8001      8000      8003      8004      8001      8000      8003      8005
      8001      8000      8003      8006      8002      8000      8003      8004
      8002      8000      8003      8005      8002      8000      8003      8006
      8003      8006      8009      8010      8003      8006      8009      8011
      8003      8006      8009      8012      8004      8003      8006      8007
      8004      8003      8006      8008      8004      8003      8006      8009
      8005      8003      8006      8007      8005      8003      8006      8008
      8005      8003      8006      8009      8007      8006      8009      8010
      8007      8006      8009      8011      8007      8006      8009      8012
      8008      8006      8009      8010      8008      8006      8009      8011
      8008      8006      8009      8012       445       449       452       453
       445       449       452       483       445       491       488       483
       445       491       488       489       445       491       488       490
       446       445       447       448       446       445       449       450
       446       445       449       451       446       445       449       452
       446       445       491       488       446       445       491       492
       446       445       491       493       447       445       449       450
       447       445       449       451       447       445       449       452
       447       445       491       488       447       445       491       492
       447       445       491       493       448       447       445       449
       448       447       445       491       449       445       491       488
       449       445       491       492       449       445       491       493
       449       452       453       454       449       452       453       455
       449       452       483       481       449       452       483       484
       449       452       483       488       450       449       445       491
       450       449       452       453       450       449       452       483
       451       449       445       491       451       449       452       453
       451       449       452       483       452       449       445       491
       452       453       455       456       452       453       455       457
       452       453       455       458       452       483       481       458
       452       483       481       478       452       483       481       482
       452       483       484       485       452       483       484       486
       452       483       484       487       452       483       488       489
       452       483       488       490       452       483       488       491
       453       452       483       481       453       452       483       484
       453       452       483       488       453       455       458       459
       453       455       458       460       453       455       458       481
       454       453       452       483       454       453       455       456
       454       453       455       457       454       453       455       458
       455       453       452       483       455       458       460       461
       455       458       460       462       455       458       460       470
       455       458       481       478       455       458       481       482
       455       458       481       483       456       455       458       459
       456       455       458       460       456       455       458       481
       457       455       458       459       457       455       458       460
       457       455       458       481       458       460       462       463
       458       460       462       464       458       460       462       465
       458       460       470       468       458       460       470       471
       458       460       470       475       458       481       478       475
       458       481       478       479       458       481       478       480
       458       481       483       484       458       481       483       488
       459       458       460       461       459       458       460       462
       459       458       460       470       459       458       481       478
       459       458       481       482       459       458       481       483
       460       458       481       478       460       458       481       482
       460       458       481       483       460       462       465       466
       460       462       465       467       460       462       465       468
       460       470       468       465       460       470       468       469
       460       470       468       494       460       470       471       472
       460       470       471       473       460       470       471       474
       460       470       475       476       460       470       475       477
       460       470       475       478       461       460       458       481
       461       460       462       463       461       460       462       464
       461       460       462       465       461       460       470       468
       461       460       470       471       461       460       470       475
       462       460       458       481       462       460       470       468
       462       460       470       471       462       460       470       475
       462       465       468       469       462       465       468       470
       462       465       468       494       463       462       460       470
       463       462       465       466       463       462       465       467
       463       462       465       468       464       462       460       470
       464       462       465       466       464       462       465       467
       464       462       465       468       465       462       460       470
       465       468       470       471       465       468       470       475
       465       468       494       495       465       468       494       496
       465       468       494       500       466       465       468       469
       466       465       468       470       466       465       468       494
       467       465       468       469       467       465       468       470
       467       465       468       494       468       470       471       472
       468       470       471       473       468       470       471       474
       468       470       475       476       468       470       475       477
       468       470       475       478       468       494       496       497
       468       494       496       498       468       494       496       499
       468       494       500       501       468       494       500       502
       468       494       500       503       469       468       470       471
       469       468       470       475       469       468       494       495
       469       468       494       496       469       468       494       500
       470       460       458       481       470       468       494       495
       470       468       494       496       470       468       494       500
       470       475       478       479       470       475       478       480
       470       475       478       481       471       470       468       494
       471       470       475       476       471       470       475       477
       471       470       475       478       472       471       470       475
       473       471       470       475       474       471       470       475
       475       470       468       494       475       478       481       482
       475       478       481       483       476       475       478       479
       476       475       478       480       476       475       478       481
       477       475       478       479       477       475       478       480
       477       475       478       481       478       481       483       484
       478       481       483       488       479       478       481       482
       479       478       481       483       480       478       481       482
       480       478       481       483       481       483       484       485
       481       483       484       486       481       483       484       487
       481       483       488       489       481       483       488       490
       481       483       488       491       482       481       483       484
       482       481       483       488       483       488       491       492
       483       488       491       493       484       483       488       489
       484       483       488       490       484       483       488       491
       485       484       483       488       486       484       483       488
       487       484       483       488       489       488       491       492
       489       488       491       493       490       488       491       492
       490       488       491       493       494       500       503       504
       494       500       503       505       494       500       503       506
       495       494       496       497       495       494       496       498
       495       494       496       499       495       494       500       501
       495       494       500       502       495       494       500       503
       496       494       500       501       496       494       500       502
       496       494       500       503       497       496       494       500
       498       496       494       500       499       496       494       500
       500       503       506       507       500       503       506       508
       500       503       506       509       501       500       503       504
       501       500       503       505       501       500       503       506
       502       500       503       504       502       500       503       505
       502       500       503       506       503       506       509       510
       503       506       509       511       503       506       509       515
       504       503       506       507       504       503       506       508
       504       503       506       509       505       503       506       507
       505       503       506       508       505       503       506       509
       506       509       511       512       506       509       511       513
       506       509       511       514       506       509       515       516
       506       509       515       517       506       509       515       518
       507       506       509       510       507       506       509       511
       507       506       509       515       508       506       509       510
       508       506       509       511       508       506       509       515
       510       509       511       512       510       509       511       513
       510       509       511       514       510       509       515       516
       510       509       515       517       510       509       515       518
       511       509       515       516       511       509       515       517
       511       509       515       518       512       511       509       515
       513       511       509       515       514       511       509       515
     16167     16171     16174     16175     16167     16171     16174     16176
     16167     16171     16174     16180     16168     16167     16171     16172
     16168     16167     16171     16173     16168     16167     16171     16174
     16169     16167     16171     16172     16169     16167     16171     16173
     16169     16167     16171     16174     16170     16167     16171     16172
     16170     16167     16171     16173     16170     16167     16171     16174
     16171     16174     16180     16177     16172     16171     16174     16175
     16172     16171     16174     16176     16172     16171     16174     16180
     16173     16171     16174     16175     16173     16171     16174     16176
     16173     16171     16174     16180     16174     16180     16177     16178
     16174     16180     16177     16179     16174     16180     16177     16181
     16175     16174     16180     16177     16176     16174     16180     16177
     16177     16181     16182     16183     16177     16181     16182     16184
     16177     16181     16182     16185     16178     16177     16181     16182
     16179     16177     16181     16182     16180     16177     16181     16182
     16181     16182     16185     16186     16181     16182     16185     16187
     16181     16182     16185     16193     16182     16185     16187     16188
     16182     16185     16193     16194     16182     16185     16193     16195
     16182     16185     16193     16196     16183     16182     16185     16186
     16183     16182     16185     16187     16183     16182     16185     16193
     16184     16182     16185     16186     16184     16182     16185     16187
     16184     16182     16185     16193     16185     16187     16188     16189
     16185     16187     16188     16190     16185     16193     16196     16197
     16186     16185     16187     16188     16186     16185     16193     16194
     16186     16185     16193     16195     16186     16185     16193     16196
     16187     16185     16193     16194     16187     16185     16193     16195
     16187     16185     16193     16196     16187     16188     16190     16191
     16187     16188     16190     16192     16187     16188     16190     16202
     16188     16187     16185     16193     16188     16190     16202     16203
     16188     16190     16202     16204     16188     16190     16202     16205
     16189     16188     16190     16191     16189     16188     16190     16192
     16189     16188     16190     16202     16190     16202     16205     16206
     16190     16202     16205     16207     16190     16202     16205     16208
     16191     16190     16202     16203     16191     16190     16202     16204
     16191     16190     16202     16205     16192     16190     16202     16203
     16192     16190     16202     16204     16192     16190     16202     16205
     16193     16196     16197     16198     16193     16196     16197     16199
     16194     16193     16196     16197     16195     16193     16196     16197
     16196     16197     16199     16200     16196     16197     16199     16201
     16196     16197     16199     16249     16197     16199     16249     16250
     16197     16199     16249     16251     16197     16199     16249     16252
     16198     16197     16199     16200     16198     16197     16199     16201
     16198     16197     16199     16249     16199     16249     16252     16253
     16199     16249     16252     16254     16199     16249     16252     16255
     16200     16199     16249     16250     16200     16199     16249     16251
     16200     16199     16249     16252     16201     16199     16249     16250
     16201     16199     16249     16251     16201     16199     16249     16252
     16202     16205     16208     16209     16202     16205     16208     16210
     16203     16202     16205     16206     16203     16202     16205     16207
     16203     16202     16205     16208     16204     16202     16205     16206
     16204     16202     16205     16207     16204     16202     16205     16208
     16205     16208     16210     16211     16205     16208     16210     16212
     16206     16205     16208     16209     16206     16205     16208     16210
     16207     16205     16208     16209     16207     16205     16208     16210
     16208     16210     16212     16213     16208     16210     16212     16214
     16208     16210     16212     16215     16209     16208     16210     16211
     16209     16208     16210     16212     16210     16212     16215     16216
     16210     16212     16215     16217     16211     16210     16212     16213
     16211     16210     16212     16214     16211     16210     16212     16215
     16212     16215     16217     16218     16212     16215     16217     16219
     16213     16212     16215     16216     16213     16212     16215     16217
     16214     16212     16215     16216     16214     16212     16215     16217
     16215     16217     16219     16220     16215     16217     16219     16221
     16215     16217     16219     16222     16216     16215     16217     16218
     16216     16215     16217     16219     16217     16219     16222     16223
     16217     16219     16222     16224     16218     16217     16219     16220
     16218     16217     16219     16221     16218     16217     16219     16222
     16219     16222     16224     16225     16219     16222     16224     16226
     16220     16219     16222     16223     16220     16219     16222     16224
     16221     16219     16222     16223     16221     16219     16222     16224
     16222     16224     16226     16227     16222     16224     16226     16228
     16222     16224     16226     16229     16223     16222     16224     16225
     16223     16222     16224     16226     16224     16226     16229     16230
     16224     16226     16229     16231     16225     16224     16226     16227
     16225     16224     16226     16228     16225     16224     16226     16229
     16226     16229     16231     16232     16226     16229     16231     16233
     16227     16226     16229     16230     16227     16226     16229     16231
     16228     16226     16229     16230     16228     16226     16229     16231
     16229     16231     16233     16234     16229     16231     16233     16235
     16229     16231     16233     16236     16230     16229     16231     16232
     16230     16229     16231     16233     16231     16233     16236     16237
     16231     16233     16236     16238     16231     16233     16236     16239
     16232     16231     16233     16234     16232     16231     16233     16235
     16232     16231     16233     16236     16233     16236     16239     16240
     16233     16236     16239     16241     16233     16236     16239     16242
     16234     16233     16236     16237     16234     16233     16236     16238
     16234     16233     16236     16239     16235     16233     16236     16237
     16235     16233     16236     16238     16235     16233     16236     16239
     16236     16239     16242     16243     16236     16239     16242     16244
     16236     16239     16242     16245     16237     16236     16239     16240
     16237     16236     16239     16241     16237     16236     16239     16242
     16238     16236     16239     16240     16238     16236     16239     16241
     16238     16236     16239     16242     16239     16242     16245     16246
     16239     16242     16245     16247     16239     16242     16245     16248
     16240     16239     16242     16243     16240     16239     16242     16244
     16240     16239     16242     16245     16241     16239     16242     16243
     16241     16239     16242     16244     16241     16239     16242     16245
     16243     16242     16245     16246     16243     16242     16245     16247
     16243     16242     16245     16248     16244     16242     16245     16246
     16244     16242     16245     16247     16244     16242     16245     16248
     16249     16252     16255     16256     16249     16252     16255     16257
     16249     16252     16255     16258     16250     16249     16252     16253
     16250     16249     16252     16254     16250     16249     16252     16255
     16251     16249     16252     16253     16251     16249     16252     16254
     16251     16249     16252     16255     16252     16255     16258     16259
     16252     16255     16258     16260     16252     16255     16258     16261
     16253     16252     16255     16256     16253     16252     16255     16257
     16253     16252     16255     16258     16254     16252     16255     16256
     16254     16252     16255     16257     16254     16252     16255     16258
     16255     16258     16261     16262     16255     16258     16261     16263
     16255     16258     16261     16264     16256     16255     16258     16259
     16256     16255     16258     16260     16256     16255     16258     16261
     16257     16255     16258     16259     16257     16255     16258     16260
     16257     16255     16258     16261     16258     16261     16264     16265
     16258     16261     16264     16266     16258     16261     16264     16267
     16259     16258     16261     16262     16259     16258     16261     16263
     16259     16258     16261     16264     16260     16258     16261     16262
     16260     16258     16261     16263     16260     16258     16261     16264
     16261     16264     16267     16268     16261     16264     16267     16269
     16261     16264     16267     16270     16262     16261     16264     16265
     16262     16261     16264     16266     16262     16261     16264     16267
     16263     16261     16264     16265     16263     16261     16264     16266
     16263     16261     16264     16267     16264     16267     16270     16271
     16264     16267     16270     16272     16264     16267     16270     16273
     16265     16264     16267     16268     16265     16264     16267     16269
     16265     16264     16267     16270     16266     16264     16267     16268
     16266     16264     16267     16269     16266     16264     16267     16270
     16267     16270     16273     16274     16267     16270     16273     16275
     16267     16270     16273     16276     16268     16267     16270     16271
     16268     16267     16270     16272     16268     16267     16270     16273
     16269     16267     16270     16271     16269     16267     16270     16272
     16269     16267     16270     16273     16270     16273     16276     16277
     16270     16273     16276     16278     16270     16273     16276     16279
     16271     16270     16273     16274     16271     16270     16273     16275
     16271     16270     16273     16276     16272     16270     16273     16274
     16272     16270     16273     16275     16272     16270     16273     16276
     16273     16276     16279     16280     16273     16276     16279     16281
     16273     16276     16279     16282     16274     16273     16276     16277
     16274     16273     16276     16278     16274     16273     16276     16279
     16275     16273     16276     16277     16275     16273     16276     16278
     16275     16273     16276     16279     16276     16279     16282     16283
     16276     16279     16282     16284     16276     16279     16282     16285
     16277     16276     16279     16280     16277     16276     16279     16281
     16277     16276     16279     16282     16278     16276     16279     16280
     16278     16276     16279     16281     16278     16276     16279     16282
     16279     16282     16285     16286     16279     16282     16285     16287
     16279     16282     16285     16288     16280     16279     16282     16283
     16280     16279     16282     16284     16280     16279     16282     16285
     16281     16279     16282     16283     16281     16279     16282     16284
     16281     16279     16282     16285     16282     16285     16288     16289
     16282     16285     16288     16290     16282     16285     16288     16291
     16283     16282     16285     16286     16283     16282     16285     16287
     16283     16282     16285     16288     16284     16282     16285     16286
     16284     16282     16285     16287     16284     16282     16285     16288
     16285     16288     16291     16292     16285     16288     16291     16293
     16285     16288     16291     16294     16286     16285     16288     16289
     16286     16285     16288     16290     16286     16285     16288     16291
     16287     16285     16288     16289     16287     16285     16288     16290
     16287     16285     16288     16291     16288     16291     16294     16295
     16288     16291     16294     16296     16288     16291     16294     16297
     16289     16288     16291     16292     16289     16288     16291     16293
     16289     16288     16291     16294     16290     16288     16291     16292
     16290     16288     16291     16293     16290     16288     16291     16294
     16292     16291     16294     16295     16292     16291     16294     16296
     16292     16291     16294     16297     16293     16291     16294     16295
     16293     16291     16294     16296     16293     16291     16294     16297
     21145     21149     21151     21152     21145     21149     21153     21154
     21145     21149     21153     21155     21145     21149     21153     21157
     21145     21165     21161     21157     21145     21165     21161     21162
     21145     21165     21161     21163     21145     21165     21170     21167
     21146     21145     21147     21148     21146     21145     21149     21150
     21146     21145     21149     21151     21146     21145     21149     21153
     21146     21145     21165     21161     21146     21145     21165     21166
     21146     21145     21165     21170     21147     21145     21149     21150
     21147     21145     21149     21151     21147     21145     21149     21153
     21147     21145     21165     21161     21147     21145     21165     21166
     21147     21145     21165     21170     21148     21147     21145     21149
     21148     21147     21145     21165     21149     21145     21165     21161
     21149     21145     21165     21166     21149     21145     21165     21170
     21149     21153     21155     21156     21149     21153     21157     21158
     21149     21153     21157     21159     21149     21153     21157     21161
     21150     21149     21145     21165     21150     21149     21151     21152
     21150     21149     21153     21154     21150     21149     21153     21155
     21150     21149     21153     21157     21151     21149     21145     21165
     21151     21149     21153     21154     21151     21149     21153     21155
     21151     21149     21153     21157     21152     21151     21149     21153
     21153     21149     21145     21165     21153     21157     21159     21160
     21153     21157     21161     21162     21153     21157     21161     21163
     21153     21157     21161     21165     21154     21153     21155     21156
     21154     21153     21157     21158     21154     21153     21157     21159
     21154     21153     21157     21161     21155     21153     21157     21158
     21155     21153     21157     21159     21155     21153     21157     21161
     21156     21155     21153     21157     21157     21161     21163     21164
     21157     21161     21165     21166     21157     21161     21165     21170
     21158     21157     21159     21160     21158     21157     21161     21162
     21158     21157     21161     21163     21158     21157     21161     21165
     21159     21157     21161     21162     21159     21157     21161     21163
     21159     21157     21161     21165     21160     21159     21157     21161
     21161     21165     21170     21167     21162     21161     21163     21164
     21162     21161     21165     21166     21162     21161     21165     21170
     21163     21161     21165     21166     21163     21161     21165     21170
     21164     21163     21161     21165     21165     21170     21167     21168
     21165     21170     21167     21169     21165     21170     21167     21171
     21166     21165     21170     21167     21167     21171     21172     21173
     21167     21171     21172     21174     21167     21171     21172     21175
     21168     21167     21171     21172     21169     21167     21171     21172
     21170     21167     21171     21172     21171     21172     21175     21176
     21171     21172     21175     21177     21171     21172     21175     21183
     21172     21175     21177     21178     21172     21175     21183     21184
     21172     21175     21183     21185     21172     21175     21183     21186
     21173     21172     21175     21176     21173     21172     21175     21177
     21173     21172     21175     21183     21174     21172     21175     21176
     21174     21172     21175     21177     21174     21172     21175     21183
     21175     21177     21178     21179     21175     21177     21178     21180
     21175     21183     21186     21187     21176     21175     21177     21178
     21176     21175     21183     21184     21176     21175     21183     21185
     21176     21175     21183     21186     21177     21175     21183     21184
     21177     21175     21183     21185     21177     21175     21183     21186
     21177     21178     21180     21181     21177     21178     21180     21182
     21177     21178     21180     21192     21178     21177     21175     21183
     21178     21180     21192     21193     21178     21180     21192     21194
     21178     21180     21192     21195     21179     21178     21180     21181
     21179     21178     21180     21182     21179     21178     21180     21192
     21180     21192     21195     21196     21180     21192     21195     21197
     21180     21192     21195     21198     21181     21180     21192     21193
     21181     21180     21192     21194     21181     21180     21192     21195
     21182     21180     21192     21193     21182     21180     21192     21194
     21182     21180     21192     21195     21183     21186     21187     21188
     21183     21186     21187     21189     21184     21183     21186     21187
     21185     21183     21186     21187     21186     21187     21189     21190
     21186     21187     21189     21191     21186     21187     21189     21239
     21187     21189     21239     21240     21187     21189     21239     21241
     21187     21189     21239     21242     21188     21187     21189     21190
     21188     21187     21189     21191     21188     21187     21189     21239
     21189     21239     21242     21243     21189     21239     21242     21244
     21189     21239     21242     21245     21190     21189     21239     21240
     21190     21189     21239     21241     21190     21189     21239     21242
     21191     21189     21239     21240     21191     21189     21239     21241
     21191     21189     21239     21242     21192     21195     21198     21199
     21192     21195     21198     21200     21193     21192     21195     21196
     21193     21192     21195     21197     21193     21192     21195     21198
     21194     21192     21195     21196     21194     21192     21195     21197
     21194     21192     21195     21198     21195     21198     21200     21201
     21195     21198     21200     21202     21196     21195     21198     21199
     21196     21195     21198     21200     21197     21195     21198     21199
     21197     21195     21198     21200     21198     21200     21202     21203
     21198     21200     21202     21204     21198     21200     21202     21205
     21199     21198     21200     21201     21199     21198     21200     21202
     21200     21202     21205     21206     21200     21202     21205     21207
     21201     21200     21202     21203     21201     21200     21202     21204
     21201     21200     21202     21205     21202     21205     21207     21208
     21202     21205     21207     21209     21203     21202     21205     21206
     21203     21202     21205     21207     21204     21202     21205     21206
     21204     21202     21205     21207     21205     21207     21209     21210
     21205     21207     21209     21211     21205     21207     21209     21212
     21206     21205     21207     21208     21206     21205     21207     21209
     21207     21209     21212     21213     21207     21209     21212     21214
     21208     21207     21209     21210     21208     21207     21209     21211
     21208     21207     21209     21212     21209     21212     21214     21215
     21209     21212     21214     21216     21210     21209     21212     21213
     21210     21209     21212     21214     21211     21209     21212     21213
     21211     21209     21212     21214     21212     21214     21216     21217
     21212     21214     21216     21218     21212     21214     21216     21219
     21213     21212     21214     21215     21213     21212     21214     21216
     21214     21216     21219     21220     21214     21216     21219     21221
     21215     21214     21216     21217     21215     21214     21216     21218
     21215     21214     21216     21219     21216     21219     21221     21222
     21216     21219     21221     21223     21217     21216     21219     21220
     21217     21216     21219     21221     21218     21216     21219     21220
     21218     21216     21219     21221     21219     21221     21223     21224
     21219     21221     21223     21225     21219     21221     21223     21226
     21220     21219     21221     21222     21220     21219     21221     21223
     21221     21223     21226     21227     21221     21223     21226     21228
     21221     21223     21226     21229     21222     21221     21223     21224
     21222     21221     21223     21225     21222     21221     21223     21226
     21223     21226     21229     21230     21223     21226     21229     21231
     21223     21226     21229     21232     21224     21223     21226     21227
     21224     21223     21226     21228     21224     21223     21226     21229
     21225     21223     21226     21227     21225     21223     21226     21228
     21225     21223     21226     21229     21226     21229     21232     21233
     21226     21229     21232     21234     21226     21229     21232     21235
     21227     21226     21229     21230     21227     21226     21229     21231
     21227     21226     21229     21232     21228     21226     21229     21230
     21228     21226     21229     21231     21228     21226     21229     21232
     21229     21232     21235     21236     21229     21232     21235     21237
     21229     21232     21235     21238     21230     21229     21232     21233
     21230     21229     21232     21234     21230     21229     21232     21235
     21231     21229     21232     21233     21231     21229     21232     21234
     21231     21229     21232     21235     21233     21232     21235     21236
     21233     21232     21235     21237     21233     21232     21235     21238
     21234     21232     21235     21236     21234     21232     21235     21237
     21234     21232     21235     21238     21239     21242     21245     21246
     21239     21242     21245     21247     21239     21242     21245     21248
     21240     21239     21242     21243     21240     21239     21242     21244
     21240     21239     21242     21245     21241     21239     21242     21243
     21241     21239     21242     21244     21241     21239     21242     21245
     21242     21245     21248     21249     21242     21245     21248     21250
     21242     21245     21248     21251     21243     21242     21245     21246
     21243     21242     21245     21247     21243     21242     21245     21248
     21244     21242     21245     21246     21244     21242     21245     21247
     21244     21242     21245     21248     21245     21248     21251     21252
     21245     21248     21251     21253     21245     21248     21251     21254
     21246     21245     21248     21249     21246     21245     21248     21250
     21246     21245     21248     21251     21247     21245     21248     21249
     21247     21245     21248     21250     21247     21245     21248     21251
     21248     21251     21254     21255     21248     21251     21254     21256
     21248     21251     21254     21257     21249     21248     21251     21252
     21249     21248     21251     21253     21249     21248     21251     21254
     21250     21248     21251     21252     21250     21248     21251     21253
     21250     21248     21251     21254     21251     21254     21257     21258
     21251     21254     21257     21259     21251     21254     21257     21260
     21252     21251     21254     21255     21252     21251     21254     21256
     21252     21251     21254     21257     21253     21251     21254     21255
     21253     21251     21254     21256     21253     21251     21254     21257
     21254     21257     21260     21261     21254     21257     21260     21262
     21254     21257     21260     21263     21255     21254     21257     21258
     21255     21254     21257     21259     21255     21254     21257     21260
     21256     21254     21257     21258     21256     21254     21257     21259
     21256     21254     21257     21260     21257     21260     21263     21264
     21257     21260     21263     21265     21257     21260     21263     21266
     21258     21257     21260     21261     21258     21257     21260     21262
     21258     21257     21260     21263     21259     21257     21260     21261
     21259     21257     21260     21262     21259     21257     21260     21263
     21260     21263     21266     21267     21260     21263     21266     21268
     21260     21263     21266     21269     21261     21260     21263     21264
     21261     21260     21263     21265     21261     21260     21263     21266
     21262     21260     21263     21264     21262     21260     21263     21265
     21262     21260     21263     21266     21263     21266     21269     21270
     21263     21266     21269     21271     21263     21266     21269     21272
     21264     21263     21266     21267     21264     21263     21266     21268
     21264     21263     21266     21269     21265     21263     21266     21267
     21265     21263     21266     21268     21265     21263     21266     21269
     21266     21269     21272     21273     21266     21269     21272     21274
     21266     21269     21272     21275     21267     21266     21269     21270
     21267     21266     21269     21271     21267     21266     21269     21272
     21268     21266     21269     21270     21268     21266     21269     21271
     21268     21266     21269     21272     21269     21272     21275     21276
     21269     21272     21275     21277     21269     21272     21275     21278
     21270     21269     21272     21273     21270     21269     21272     21274
     21270     21269     21272     21275     21271     21269     21272     21273
     21271     21269     21272     21274     21271     21269     21272     21275
     21272     21275     21278     21279     21272     21275     21278     21280
     21272     21275     21278     21281     21273     21272     21275     21276
     21273     21272     21275     21277     21273     21272     21275     21278
     21274     21272     21275     21276     21274     21272     21275     21277
     21274     21272     21275     21278     21275     21278     21281     21282
     21275     21278     21281     21283     21275     21278     21281     21284
     21276     21275     21278     21279     21276     21275     21278     21280
     21276     21275     21278     21281     21277     21275     21278     21279
     21277     21275     21278     21280     21277     21275     21278     21281
     21278     21281     21284     21285     21278     21281     21284     21286
     21278     21281     21284     21287     21279     21278     21281     21282
     21279     21278     21281     21283     21279     21278     21281     21284
     21280     21278     21281     21282     21280     21278     21281     21283
     21280     21278     21281     21284     21282     21281     21284     21285
     21282     21281     21284     21286     21282     21281     21284     21287
     21283     21281     21284     21285     21283     21281     21284     21286
     21283     21281     21284     21287     16298     16302     16305     16306
     16298     16302     16305     16307     16298     16302     16305     16311
     16299     16298     16302     16303     16299     16298     16302     16304
     16299     16298     16302     16305     16300     16298     16302     16303
     16300     16298     16302     16304     16300     16298     16302     16305
     16301     16298     16302     16303     16301     16298     16302     16304
     16301     16298     16302     16305     16302     16305     16311     16308
     16303     16302     16305     16306     16303     16302     16305     16307
     16303     16302     16305     16311     16304     16302     16305     16306
     16304     16302     16305     16307     16304     16302     16305     16311
     16305     16311     16308     16309     16305     16311     16308     16310
     16305     16311     16308     16312     16306     16305     16311     16308
     16307     16305     16311     16308     16308     16312     16313     16314
     16308     16312     16313     16315     16308     16312     16313     16316
     16309     16308     16312     16313     16310     16308     16312     16313
     16311     16308     16312     16313     16312     16313     16316     16317
     16312     16313     16316     16318     16312     16313     16316     16324
     16313     16316     16318     16319     16313     16316     16324     16325
     16313     16316     16324     16326     16313     16316     16324     16327
     16314     16313     16316     16317     16314     16313     16316     16318
     16314     16313     16316     16324     16315     16313     16316     16317
     16315     16313     16316     16318     16315     16313     16316     16324
     16316     16318     16319     16320     16316     16318     16319     16321
     16316     16324     16327     16328     16317     16316     16318     16319
     16317     16316     16324     16325     16317     16316     16324     16326
     16317     16316     16324     16327     16318     16316     16324     16325
     16318     16316     16324     16326     16318     16316     16324     16327
     16318     16319     16321     16322     16318     16319     16321     16323
     16318     16319     16321     16333     16319     16318     16316     16324
     16319     16321     16333     16334     16319     16321     16333     16335
     16319     16321     16333     16336     16320     16319     16321     16322
     16320     16319     16321     16323     16320     16319     16321     16333
     16321     16333     16336     16337     16321     16333     16336     16338
     16321     16333     16336     16339     16322     16321     16333     16334
     16322     16321     16333     16335     16322     16321     16333     16336
     16323     16321     16333     16334     16323     16321     16333     16335
     16323     16321     16333     16336     16324     16327     16328     16329
     16324     16327     16328     16330     16325     16324     16327     16328
     16326     16324     16327     16328     16327     16328     16330     16331
     16327     16328     16330     16332     16327     16328     16330     16380
     16328     16330     16380     16381     16328     16330     16380     16382
     16328     16330     16380     16383     16329     16328     16330     16331
     16329     16328     16330     16332     16329     16328     16330     16380
     16330     16380     16383     16384     16330     16380     16383     16385
     16330     16380     16383     16386     16331     16330     16380     16381
     16331     16330     16380     16382     16331     16330     16380     16383
     16332     16330     16380     16381     16332     16330     16380     16382
     16332     16330     16380     16383     16333     16336     16339     16340
     16333     16336     16339     16341     16334     16333     16336     16337
     16334     16333     16336     16338     16334     16333     16336     16339
     16335     16333     16336     16337     16335     16333     16336     16338
     16335     16333     16336     16339     16336     16339     16341     16342
     16336     16339     16341     16343     16337     16336     16339     16340
     16337     16336     16339     16341     16338     16336     16339     16340
     16338     16336     16339     16341     16339     16341     16343     16344
     16339     16341     16343     16345     16339     16341     16343     16346
     16340     16339     16341     16342     16340     16339     16341     16343
     16341     16343     16346     16347     16341     16343     16346     16348
     16342     16341     16343     16344     16342     16341     16343     16345
     16342     16341     16343     16346     16343     16346     16348     16349
     16343     16346     16348     16350     16344     16343     16346     16347
     16344     16343     16346     16348     16345     16343     16346     16347
     16345     16343     16346     16348     16346     16348     16350     16351
     16346     16348     16350     16352     16346     16348     16350     16353
     16347     16346     16348     16349     16347     16346     16348     16350
     16348     16350     16353     16354     16348     16350     16353     16355
     16349     16348     16350     16351     16349     16348     16350     16352
     16349     16348     16350     16353     16350     16353     16355     16356
     16350     16353     16355     16357     16351     16350     16353     16354
     16351     16350     16353     16355     16352     16350     16353     16354
     16352     16350     16353     16355     16353     16355     16357     16358
     16353     16355     16357     16359     16353     16355     16357     16360
     16354     16353     16355     16356     16354     16353     16355     16357
     16355     16357     16360     16361     16355     16357     16360     16362
     16356     16355     16357     16358     16356     16355     16357     16359
     16356     16355     16357     16360     16357     16360     16362     16363
     16357     16360     16362     16364     16358     16357     16360     16361
     16358     16357     16360     16362     16359     16357     16360     16361
     16359     16357     16360     16362     16360     16362     16364     16365
     16360     16362     16364     16366     16360     16362     16364     16367
     16361     16360     16362     16363     16361     16360     16362     16364
     16362     16364     16367     16368     16362     16364     16367     16369
     16362     16364     16367     16370     16363     16362     16364     16365
     16363     16362     16364     16366     16363     16362     16364     16367
     16364     16367     16370     16371     16364     16367     16370     16372
     16364     16367     16370     16373     16365     16364     16367     16368
     16365     16364     16367     16369     16365     16364     16367     16370
     16366     16364     16367     16368     16366     16364     16367     16369
     16366     16364     16367     16370     16367     16370     16373     16374
     16367     16370     16373     16375     16367     16370     16373     16376
     16368     16367     16370     16371     16368     16367     16370     16372
     16368     16367     16370     16373     16369     16367     16370     16371
     16369     16367     16370     16372     16369     16367     16370     16373
     16370     16373     16376     16377     16370     16373     16376     16378
     16370     16373     16376     16379     16371     16370     16373     16374
     16371     16370     16373     16375     16371     16370     16373     16376
     16372     16370     16373     16374     16372     16370     16373     16375
     16372     16370     16373     16376     16374     16373     16376     16377
     16374     16373     16376     16378     16374     16373     16376     16379
     16375     16373     16376     16377     16375     16373     16376     16378
     16375     16373     16376     16379     16380     16383     16386     16387
     16380     16383     16386     16388     16380     16383     16386     16389
     16381     16380     16383     16384     16381     16380     16383     16385
     16381     16380     16383     16386     16382     16380     16383     16384
     16382     16380     16383     16385     16382     16380     16383     16386
     16383     16386     16389     16390     16383     16386     16389     16391
     16383     16386     16389     16392     16384     16383     16386     16387
     16384     16383     16386     16388     16384     16383     16386     16389
     16385     16383     16386     16387     16385     16383     16386     16388
     16385     16383     16386     16389     16386     16389     16392     16393
     16386     16389     16392     16394     16386     16389     16392     16395
     16387     16386     16389     16390     16387     16386     16389     16391
     16387     16386     16389     16392     16388     16386     16389     16390
     16388     16386     16389     16391     16388     16386     16389     16392
     16389     16392     16395     16396     16389     16392     16395     16397
     16389     16392     16395     16398     16390     16389     16392     16393
     16390     16389     16392     16394     16390     16389     16392     16395
     16391     16389     16392     16393     16391     16389     16392     16394
     16391     16389     16392     16395     16392     16395     16398     16399
     16392     16395     16398     16400     16392     16395     16398     16401
     16393     16392     16395     16396     16393     16392     16395     16397
     16393     16392     16395     16398     16394     16392     16395     16396
     16394     16392     16395     16397     16394     16392     16395     16398
     16395     16398     16401     16402     16395     16398     16401     16403
     16395     16398     16401     16404     16396     16395     16398     16399
     16396     16395     16398     16400     16396     16395     16398     16401
     16397     16395     16398     16399     16397     16395     16398     16400
     16397     16395     16398     16401     16398     16401     16404     16405
     16398     16401     16404     16406     16398     16401     16404     16407
     16399     16398     16401     16402     16399     16398     16401     16403
     16399     16398     16401     16404     16400     16398     16401     16402
     16400     16398     16401     16403     16400     16398     16401     16404
     16401     16404     16407     16408     16401     16404     16407     16409
     16401     16404     16407     16410     16402     16401     16404     16405
     16402     16401     16404     16406     16402     16401     16404     16407
     16403     16401     16404     16405     16403     16401     16404     16406
     16403     16401     16404     16407     16404     16407     16410     16411
     16404     16407     16410     16412     16404     16407     16410     16413
     16405     16404     16407     16408     16405     16404     16407     16409
     16405     16404     16407     16410     16406     16404     16407     16408
     16406     16404     16407     16409     16406     16404     16407     16410
     16407     16410     16413     16414     16407     16410     16413     16415
     16407     16410     16413     16416     16408     16407     16410     16411
     16408     16407     16410     16412     16408     16407     16410     16413
     16409     16407     16410     16411     16409     16407     16410     16412
     16409     16407     16410     16413     16410     16413     16416     16417
     16410     16413     16416     16418     16410     16413     16416     16419
     16411     16410     16413     16414     16411     16410     16413     16415
     16411     16410     16413     16416     16412     16410     16413     16414
     16412     16410     16413     16415     16412     16410     16413     16416
     16413     16416     16419     16420     16413     16416     16419     16421
     16413     16416     16419     16422     16414     16413     16416     16417
     16414     16413     16416     16418     16414     16413     16416     16419
     16415     16413     16416     16417     16415     16413     16416     16418
     16415     16413     16416     16419     16416     16419     16422     16423
     16416     16419     16422     16424     16416     16419     16422     16425
     16417     16416     16419     16420     16417     16416     16419     16421
     16417     16416     16419     16422     16418     16416     16419     16420
     16418     16416     16419     16421     16418     16416     16419     16422
     16419     16422     16425     16426     16419     16422     16425     16427
     16419     16422     16425     16428     16420     16419     16422     16423
     16420     16419     16422     16424     16420     16419     16422     16425
     16421     16419     16422     16423     16421     16419     16422     16424
     16421     16419     16422     16425     16423     16422     16425     16426
     16423     16422     16425     16427     16423     16422     16425     16428
     16424     16422     16425     16426     16424     16422     16425     16427
     16424     16422     16425     16428     16429     16433     16436     16437
     16429     16433     16436     16438     16429     16433     16436     16442
     16430     16429     16433     16434     16430     16429     16433     16435
     16430     16429     16433     16436     16431     16429     16433     16434
     16431     16429     16433     16435     16431     16429     16433     16436
     16432     16429     16433     16434     16432     16429     16433     16435
     16432     16429     16433     16436     16433     16436     16442     16439
     16434     16433     16436     16437     16434     16433     16436     16438
     16434     16433     16436     16442     16435     16433     16436     16437
     16435     16433     16436     16438     16435     16433     16436     16442
     16436     16442     16439     16440     16436     16442     16439     16441
     16436     16442     16439     16443     16437     16436     16442     16439
     16438     16436     16442     16439     16439     16443     16444     16445
     16439     16443     16444     16446     16439     16443     16444     16447
     16440     16439     16443     16444     16441     16439     16443     16444
     16442     16439     16443     16444     16443     16444     16447     16448
     16443     16444     16447     16449     16443     16444     16447     16455
     16444     16447     16449     16450     16444     16447     16455     16456
     16444     16447     16455     16457     16444     16447     16455     16458
     16445     16444     16447     16448     16445     16444     16447     16449
     16445     16444     16447     16455     16446     16444     16447     16448
     16446     16444     16447     16449     16446     16444     16447     16455
     16447     16449     16450     16451     16447     16449     16450     16452
     16447     16455     16458     16459     16448     16447     16449     16450
     16448     16447     16455     16456     16448     16447     16455     16457
     16448     16447     16455     16458     16449     16447     16455     16456
     16449     16447     16455     16457     16449     16447     16455     16458
     16449     16450     16452     16453     16449     16450     16452     16454
     16449     16450     16452     16464     16450     16449     16447     16455
     16450     16452     16464     16465     16450     16452     16464     16466
     16450     16452     16464     16467     16451     16450     16452     16453
     16451     16450     16452     16454     16451     16450     16452     16464
     16452     16464     16467     16468     16452     16464     16467     16469
     16452     16464     16467     16470     16453     16452     16464     16465
     16453     16452     16464     16466     16453     16452     16464     16467
     16454     16452     16464     16465     16454     16452     16464     16466
     16454     16452     16464     16467     16455     16458     16459     16460
     16455     16458     16459     16461     16456     16455     16458     16459
     16457     16455     16458     16459     16458     16459     16461     16462
     16458     16459     16461     16463     16458     16459     16461     16511
     16459     16461     16511     16512     16459     16461     16511     16513
     16459     16461     16511     16514     16460     16459     16461     16462
     16460     16459     16461     16463     16460     16459     16461     16511
     16461     16511     16514     16515     16461     16511     16514     16516
     16461     16511     16514     16517     16462     16461     16511     16512
     16462     16461     16511     16513     16462     16461     16511     16514
     16463     16461     16511     16512     16463     16461     16511     16513
     16463     16461     16511     16514     16464     16467     16470     16471
     16464     16467     16470     16472     16465     16464     16467     16468
     16465     16464     16467     16469     16465     16464     16467     16470
     16466     16464     16467     16468     16466     16464     16467     16469
     16466     16464     16467     16470     16467     16470     16472     16473
     16467     16470     16472     16474     16468     16467     16470     16471
     16468     16467     16470     16472     16469     16467     16470     16471
     16469     16467     16470     16472     16470     16472     16474     16475
     16470     16472     16474     16476     16470     16472     16474     16477
     16471     16470     16472     16473     16471     16470     16472     16474
     16472     16474     16477     16478     16472     16474     16477     16479
     16473     16472     16474     16475     16473     16472     16474     16476
     16473     16472     16474     16477     16474     16477     16479     16480
     16474     16477     16479     16481     16475     16474     16477     16478
     16475     16474     16477     16479     16476     16474     16477     16478
     16476     16474     16477     16479     16477     16479     16481     16482
     16477     16479     16481     16483     16477     16479     16481     16484
     16478     16477     16479     16480     16478     16477     16479     16481
     16479     16481     16484     16485     16479     16481     16484     16486
     16480     16479     16481     16482     16480     16479     16481     16483
     16480     16479     16481     16484     16481     16484     16486     16487
     16481     16484     16486     16488     16482     16481     16484     16485
     16482     16481     16484     16486     16483     16481     16484     16485
     16483     16481     16484     16486     16484     16486     16488     16489
     16484     16486     16488     16490     16484     16486     16488     16491
     16485     16484     16486     16487     16485     16484     16486     16488
     16486     16488     16491     16492     16486     16488     16491     16493
     16487     16486     16488     16489     16487     16486     16488     16490
     16487     16486     16488     16491     16488     16491     16493     16494
     16488     16491     16493     16495     16489     16488     16491     16492
     16489     16488     16491     16493     16490     16488     16491     16492
     16490     16488     16491     16493     16491     16493     16495     16496
     16491     16493     16495     16497     16491     16493     16495     16498
     16492     16491     16493     16494     16492     16491     16493     16495
     16493     16495     16498     16499     16493     16495     16498     16500
     16493     16495     16498     16501     16494     16493     16495     16496
     16494     16493     16495     16497     16494     16493     16495     16498
     16495     16498     16501     16502     16495     16498     16501     16503
     16495     16498     16501     16504     16496     16495     16498     16499
     16496     16495     16498     16500     16496     16495     16498     16501
     16497     16495     16498     16499     16497     16495     16498     16500
     16497     16495     16498     16501     16498     16501     16504     16505
     16498     16501     16504     16506     16498     16501     16504     16507
     16499     16498     16501     16502     16499     16498     16501     16503
     16499     16498     16501     16504     16500     16498     16501     16502
     16500     16498     16501     16503     16500     16498     16501     16504
     16501     16504     16507     16508     16501     16504     16507     16509
     16501     16504     16507     16510     16502     16501     16504     16505
     16502     16501     16504     16506     16502     16501     16504     16507
     16503     16501     16504     16505     16503     16501     16504     16506
     16503     16501     16504     16507     16505     16504     16507     16508
     16505     16504     16507     16509     16505     16504     16507     16510
     16506     16504     16507     16508     16506     16504     16507     16509
     16506     16504     16507     16510     16511     16514     16517     16518
     16511     16514     16517     16519     16511     16514     16517     16520
     16512     16511     16514     16515     16512     16511     16514     16516
     16512     16511     16514     16517     16513     16511     16514     16515
     16513     16511     16514     16516     16513     16511     16514     16517
     16514     16517     16520     16521     16514     16517     16520     16522
     16514     16517     16520     16523     16515     16514     16517     16518
     16515     16514     16517     16519     16515     16514     16517     16520
     16516     16514     16517     16518     16516     16514     16517     16519
     16516     16514     16517     16520     16517     16520     16523     16524
     16517     16520     16523     16525     16517     16520     16523     16526
     16518     16517     16520     16521     16518     16517     16520     16522
     16518     16517     16520     16523     16519     16517     16520     16521
     16519     16517     16520     16522     16519     16517     16520     16523
     16520     16523     16526     16527     16520     16523     16526     16528
     16520     16523     16526     16529     16521     16520     16523     16524
     16521     16520     16523     16525     16521     16520     16523     16526
     16522     16520     16523     16524     16522     16520     16523     16525
     16522     16520     16523     16526     16523     16526     16529     16530
     16523     16526     16529     16531     16523     16526     16529     16532
     16524     16523     16526     16527     16524     16523     16526     16528
     16524     16523     16526     16529     16525     16523     16526     16527
     16525     16523     16526     16528     16525     16523     16526     16529
     16526     16529     16532     16533     16526     16529     16532     16534
     16526     16529     16532     16535     16527     16526     16529     16530
     16527     16526     16529     16531     16527     16526     16529     16532
     16528     16526     16529     16530     16528     16526     16529     16531
     16528     16526     16529     16532     16529     16532     16535     16536
     16529     16532     16535     16537     16529     16532     16535     16538
     16530     16529     16532     16533     16530     16529     16532     16534
     16530     16529     16532     16535     16531     16529     16532     16533
     16531     16529     16532     16534     16531     16529     16532     16535
     16532     16535     16538     16539     16532     16535     16538     16540
     16532     16535     16538     16541     16533     16532     16535     16536
     16533     16532     16535     16537     16533     16532     16535     16538
     16534     16532     16535     16536     16534     16532     16535     16537
     16534     16532     16535     16538     16535     16538     16541     16542
     16535     16538     16541     16543     16535     16538     16541     16544
     16536     16535     16538     16539     16536     16535     16538     16540
     16536     16535     16538     16541     16537     16535     16538     16539
     16537     16535     16538     16540     16537     16535     16538     16541
     16538     16541     16544     16545     16538     16541     16544     16546
     16538     16541     16544     16547     16539     16538     16541     16542
     16539     16538     16541     16543     16539     16538     16541     16544
     16540     16538     16541     16542     16540     16538     16541     16543
     16540     16538     16541     16544     16541     16544     16547     16548
     16541     16544     16547     16549     16541     16544     16547     16550
     16542     16541     16544     16545     16542     16541     16544     16546
     16542     16541     16544     16547     16543     16541     16544     16545
     16543     16541     16544     16546     16543     16541     16544     16547
     16544     16547     16550     16551     16544     16547     16550     16552
     16544     16547     16550     16553     16545     16544     16547     16548
     16545     16544     16547     16549     16545     16544     16547     16550
     16546     16544     16547     16548     16546     16544     16547     16549
     16546     16544     16547     16550     16547     16550     16553     16554
     16547     16550     16553     16555     16547     16550     16553     16556
     16548     16547     16550     16551     16548     16547     16550     16552
     16548     16547     16550     16553     16549     16547     16550     16551
     16549     16547     16550     16552     16549     16547     16550     16553
     16550     16553     16556     16557     16550     16553     16556     16558
     16550     16553     16556     16559     16551     16550     16553     16554
     16551     16550     16553     16555     16551     16550     16553     16556
     16552     16550     16553     16554     16552     16550     16553     16555
     16552     16550     16553     16556     16554     16553     16556     16557
     16554     16553     16556     16558     16554     16553     16556     16559
     16555     16553     16556     16557     16555     16553     16556     16558
     16555     16553     16556     16559       519       523       526       527
       519       523       526       557       519       565       562       557
       519       565       562       563       519       565       562       564
       520       519       521       522       520       519       523       524
       520       519       523       525       520       519       523       526
       520       519       565       562       520       519       565       566
       520       519       565       567       521       519       523       524
       521       519       523       525       521       519       523       526
       521       519       565       562       521       519       565       566
       521       519       565       567       522       521       519       523
       522       521       519       565       523       519       565       562
       523       519       565       566       523       519       565       567
       523       526       527       528       523       526       527       529
       523       526       557       555       523       526       557       558
       523       526       557       562       524       523       519       565
       524       523       526       527       524       523       526       557
       525       523       519       565       525       523       526       527
       525       523       526       557       526       523       519       565
       526       527       529       530       526       527       529       531
       526       527       529       532       526       557       555       532
       526       557       555       552       526       557       555       556
       526       557       558       559       526       557       558       560
       526       557       558       561       526       557       562       563
       526       557       562       564       526       557       562       565
       527       526       557       555       527       526       557       558
       527       526       557       562       527       529       532       533
       527       529       532       534       527       529       532       555
       528       527       526       557       528       527       529       530
       528       527       529       531       528       527       529       532
       529       527       526       557       529       532       534       535
       529       532       534       536       529       532       534       544
       529       532       555       552       529       532       555       556
       529       532       555       557       530       529       532       533
       530       529       532       534       530       529       532       555
       531       529       532       533       531       529       532       534
       531       529       532       555       532       534       536       537
       532       534       536       538       532       534       536       539
       532       534       544       542       532       534       544       545
       532       534       544       549       532       555       552       549
       532       555       552       553       532       555       552       554
       532       555       557       558       532       555       557       562
       533       532       534       535       533       532       534       536
       533       532       534       544       533       532       555       552
       533       532       555       556       533       532       555       557
       534       532       555       552       534       532       555       556
       534       532       555       557       534       536       539       540
       534       536       539       541       534       536       539       542
       534       544       542       539       534       544       542       543
       534       544       542       568       534       544       545       546
       534       544       545       547       534       544       545       548
       534       544       549       550       534       544       549       551
       534       544       549       552       535       534       532       555
       535       534       536       537       535       534       536       538
       535       534       536       539       535       534       544       542
       535       534       544       545       535       534       544       549
       536       534       532       555       536       534       544       542
       536       534       544       545       536       534       544       549
       536       539       542       543       536       539       542       544
       536       539       542       568       537       536       534       544
       537       536       539       540       537       536       539       541
       537       536       539       542       538       536       534       544
       538       536       539       540       538       536       539       541
       538       536       539       542       539       536       534       544
       539       542       544       545       539       542       544       549
       539       542       568       569       539       542       568       570
       539       542       568       574       540       539       542       543
       540       539       542       544       540       539       542       568
       541       539       542       543       541       539       542       544
       541       539       542       568       542       544       545       546
       542       544       545       547       542       544       545       548
       542       544       549       550       542       544       549       551
       542       544       549       552       542       568       570       571
       542       568       570       572       542       568       570       573
       542       568       574       575       542       568       574       576
       542       568       574       577       543       542       544       545
       543       542       544       549       543       542       568       569
       543       542       568       570       543       542       568       574
       544       534       532       555       544       542       568       569
       544       542       568       570       544       542       568       574
       544       549       552       553       544       549       552       554
       544       549       552       555       545       544       542       568
       545       544       549       550       545       544       549       551
       545       544       549       552       546       545       544       549
       547       545       544       549       548       545       544       549
       549       544       542       568       549       552       555       556
       549       552       555       557       550       549       552       553
       550       549       552       554       550       549       552       555
       551       549       552       553       551       549       552       554
       551       549       552       555       552       555       557       558
       552       555       557       562       553       552       555       556
       553       552       555       557       554       552       555       556
       554       552       555       557       555       557       558       559
       555       557       558       560       555       557       558       561
       555       557       562       563       555       557       562       564
       555       557       562       565       556       555       557       558
       556       555       557       562       557       562       565       566
       557       562       565       567       558       557       562       563
       558       557       562       564       558       557       562       565
       559       558       557       562       560       558       557       562
       561       558       557       562       563       562       565       566
       563       562       565       567       564       562       565       566
       564       562       565       567       568       574       577       578
       568       574       577       579       568       574       577       580
       569       568       570       571       569       568       570       572
       569       568       570       573       569       568       574       575
       569       568       574       576       569       568       574       577
       570       568       574       575       570       568       574       576
       570       568       574       577       571       570       568       574
       572       570       568       574       573       570       568       574
       574       577       580       581       574       577       580       582
       574       577       580       583       575       574       577       578
       575       574       577       579       575       574       577       580
       576       574       577       578       576       574       577       579
       576       574       577       580       577       580       583       584
       577       580       583       585       577       580       583       589
       578       577       580       581       578       577       580       582
       578       577       580       583       579       577       580       581
       579       577       580       582       579       577       580       583
       580       583       585       586       580       583       585       587
       580       583       585       588       580       583       589       590
       580       583       589       591       580       583       589       592
       581       580       583       584       581       580       583       585
       581       580       583       589       582       580       583       584
       582       580       583       585       582       580       583       589
       584       583       585       586       584       583       585       587
       584       583       585       588       584       583       589       590
       584       583       589       591       584       583       589       592
       585       583       589       590       585       583       589       591
       585       583       589       592       586       585       583       589
       587       585       583       589       588       585       583       589
     16560     16564     16567     16568     16560     16564     16567     16569
     16560     16564     16567     16573     16561     16560     16564     16565
     16561     16560     16564     16566     16561     16560     16564     16567
     16562     16560     16564     16565     16562     16560     16564     16566
     16562     16560     16564     16567     16563     16560     16564     16565
     16563     16560     16564     16566     16563     16560     16564     16567
     16564     16567     16573     16570     16565     16564     16567     16568
     16565     16564     16567     16569     16565     16564     16567     16573
     16566     16564     16567     16568     16566     16564     16567     16569
     16566     16564     16567     16573     16567     16573     16570     16571
     16567     16573     16570     16572     16567     16573     16570     16574
     16568     16567     16573     16570     16569     16567     16573     16570
     16570     16574     16575     16576     16570     16574     16575     16577
     16570     16574     16575     16578     16571     16570     16574     16575
     16572     16570     16574     16575     16573     16570     16574     16575
     16574     16575     16578     16579     16574     16575     16578     16580
     16574     16575     16578     16586     16575     16578     16580     16581
     16575     16578     16586     16587     16575     16578     16586     16588
     16575     16578     16586     16589     16576     16575     16578     16579
     16576     16575     16578     16580     16576     16575     16578     16586
     16577     16575     16578     16579     16577     16575     16578     16580
     16577     16575     16578     16586     16578     16580     16581     16582
     16578     16580     16581     16583     16578     16586     16589     16590
     16579     16578     16580     16581     16579     16578     16586     16587
     16579     16578     16586     16588     16579     16578     16586     16589
     16580     16578     16586     16587     16580     16578     16586     16588
     16580     16578     16586     16589     16580     16581     16583     16584
     16580     16581     16583     16585     16580     16581     16583     16595
     16581     16580     16578     16586     16581     16583     16595     16596
     16581     16583     16595     16597     16581     16583     16595     16598
     16582     16581     16583     16584     16582     16581     16583     16585
     16582     16581     16583     16595     16583     16595     16598     16599
     16583     16595     16598     16600     16583     16595     16598     16601
     16584     16583     16595     16596     16584     16583     16595     16597
     16584     16583     16595     16598     16585     16583     16595     16596
     16585     16583     16595     16597     16585     16583     16595     16598
     16586     16589     16590     16591     16586     16589     16590     16592
     16587     16586     16589     16590     16588     16586     16589     16590
     16589     16590     16592     16593     16589     16590     16592     16594
     16589     16590     16592     16642     16590     16592     16642     16643
     16590     16592     16642     16644     16590     16592     16642     16645
     16591     16590     16592     16593     16591     16590     16592     16594
     16591     16590     16592     16642     16592     16642     16645     16646
     16592     16642     16645     16647     16592     16642     16645     16648
     16593     16592     16642     16643     16593     16592     16642     16644
     16593     16592     16642     16645     16594     16592     16642     16643
     16594     16592     16642     16644     16594     16592     16642     16645
     16595     16598     16601     16602     16595     16598     16601     16603
     16596     16595     16598     16599     16596     16595     16598     16600
     16596     16595     16598     16601     16597     16595     16598     16599
     16597     16595     16598     16600     16597     16595     16598     16601
     16598     16601     16603     16604     16598     16601     16603     16605
     16599     16598     16601     16602     16599     16598     16601     16603
     16600     16598     16601     16602     16600     16598     16601     16603
     16601     16603     16605     16606     16601     16603     16605     16607
     16601     16603     16605     16608     16602     16601     16603     16604
     16602     16601     16603     16605     16603     16605     16608     16609
     16603     16605     16608     16610     16604     16603     16605     16606
     16604     16603     16605     16607     16604     16603     16605     16608
     16605     16608     16610     16611     16605     16608     16610     16612
     16606     16605     16608     16609     16606     16605     16608     16610
     16607     16605     16608     16609     16607     16605     16608     16610
     16608     16610     16612     16613     16608     16610     16612     16614
     16608     16610     16612     16615     16609     16608     16610     16611
     16609     16608     16610     16612     16610     16612     16615     16616
     16610     16612     16615     16617     16611     16610     16612     16613
     16611     16610     16612     16614     16611     16610     16612     16615
     16612     16615     16617     16618     16612     16615     16617     16619
     16613     16612     16615     16616     16613     16612     16615     16617
     16614     16612     16615     16616     16614     16612     16615     16617
     16615     16617     16619     16620     16615     16617     16619     16621
     16615     16617     16619     16622     16616     16615     16617     16618
     16616     16615     16617     16619     16617     16619     16622     16623
     16617     16619     16622     16624     16618     16617     16619     16620
     16618     16617     16619     16621     16618     16617     16619     16622
     16619     16622     16624     16625     16619     16622     16624     16626
     16620     16619     16622     16623     16620     16619     16622     16624
     16621     16619     16622     16623     16621     16619     16622     16624
     16622     16624     16626     16627     16622     16624     16626     16628
     16622     16624     16626     16629     16623     16622     16624     16625
     16623     16622     16624     16626     16624     16626     16629     16630
     16624     16626     16629     16631     16624     16626     16629     16632
     16625     16624     16626     16627     16625     16624     16626     16628
     16625     16624     16626     16629     16626     16629     16632     16633
     16626     16629     16632     16634     16626     16629     16632     16635
     16627     16626     16629     16630     16627     16626     16629     16631
     16627     16626     16629     16632     16628     16626     16629     16630
     16628     16626     16629     16631     16628     16626     16629     16632
     16629     16632     16635     16636     16629     16632     16635     16637
     16629     16632     16635     16638     16630     16629     16632     16633
     16630     16629     16632     16634     16630     16629     16632     16635
     16631     16629     16632     16633     16631     16629     16632     16634
     16631     16629     16632     16635     16632     16635     16638     16639
     16632     16635     16638     16640     16632     16635     16638     16641
     16633     16632     16635     16636     16633     16632     16635     16637
     16633     16632     16635     16638     16634     16632     16635     16636
     16634     16632     16635     16637     16634     16632     16635     16638
     16636     16635     16638     16639     16636     16635     16638     16640
     16636     16635     16638     16641     16637     16635     16638     16639
     16637     16635     16638     16640     16637     16635     16638     16641
     16642     16645     16648     16649     16642     16645     16648     16650
     16642     16645     16648     16651     16643     16642     16645     16646
     16643     16642     16645     16647     16643     16642     16645     16648
     16644     16642     16645     16646     16644     16642     16645     16647
     16644     16642     16645     16648     16645     16648     16651     16652
     16645     16648     16651     16653     16645     16648     16651     16654
     16646     16645     16648     16649     16646     16645     16648     16650
     16646     16645     16648     16651     16647     16645     16648     16649
     16647     16645     16648     16650     16647     16645     16648     16651
     16648     16651     16654     16655     16648     16651     16654     16656
     16648     16651     16654     16657     16649     16648     16651     16652
     16649     16648     16651     16653     16649     16648     16651     16654
     16650     16648     16651     16652     16650     16648     16651     16653
     16650     16648     16651     16654     16651     16654     16657     16658
     16651     16654     16657     16659     16651     16654     16657     16660
     16652     16651     16654     16655     16652     16651     16654     16656
     16652     16651     16654     16657     16653     16651     16654     16655
     16653     16651     16654     16656     16653     16651     16654     16657
     16654     16657     16660     16661     16654     16657     16660     16662
     16654     16657     16660     16663     16655     16654     16657     16658
     16655     16654     16657     16659     16655     16654     16657     16660
     16656     16654     16657     16658     16656     16654     16657     16659
     16656     16654     16657     16660     16657     16660     16663     16664
     16657     16660     16663     16665     16657     16660     16663     16666
     16658     16657     16660     16661     16658     16657     16660     16662
     16658     16657     16660     16663     16659     16657     16660     16661
     16659     16657     16660     16662     16659     16657     16660     16663
     16660     16663     16666     16667     16660     16663     16666     16668
     16660     16663     16666     16669     16661     16660     16663     16664
     16661     16660     16663     16665     16661     16660     16663     16666
     16662     16660     16663     16664     16662     16660     16663     16665
     16662     16660     16663     16666     16663     16666     16669     16670
     16663     16666     16669     16671     16663     16666     16669     16672
     16664     16663     16666     16667     16664     16663     16666     16668
     16664     16663     16666     16669     16665     16663     16666     16667
     16665     16663     16666     16668     16665     16663     16666     16669
     16666     16669     16672     16673     16666     16669     16672     16674
     16666     16669     16672     16675     16667     16666     16669     16670
     16667     16666     16669     16671     16667     16666     16669     16672
     16668     16666     16669     16670     16668     16666     16669     16671
     16668     16666     16669     16672     16669     16672     16675     16676
     16669     16672     16675     16677     16669     16672     16675     16678
     16670     16669     16672     16673     16670     16669     16672     16674
     16670     16669     16672     16675     16671     16669     16672     16673
     16671     16669     16672     16674     16671     16669     16672     16675
     16672     16675     16678     16679     16672     16675     16678     16680
     16672     16675     16678     16681     16673     16672     16675     16676
     16673     16672     16675     16677     16673     16672     16675     16678
     16674     16672     16675     16676     16674     16672     16675     16677
     16674     16672     16675     16678     16675     16678     16681     16682
     16675     16678     16681     16683     16675     16678     16681     16684
     16676     16675     16678     16679     16676     16675     16678     16680
     16676     16675     16678     16681     16677     16675     16678     16679
     16677     16675     16678     16680     16677     16675     16678     16681
     16678     16681     16684     16685     16678     16681     16684     16686
     16678     16681     16684     16687     16679     16678     16681     16682
     16679     16678     16681     16683     16679     16678     16681     16684
     16680     16678     16681     16682     16680     16678     16681     16683
     16680     16678     16681     16684     16681     16684     16687     16688
     16681     16684     16687     16689     16681     16684     16687     16690
     16682     16681     16684     16685     16682     16681     16684     16686
     16682     16681     16684     16687     16683     16681     16684     16685
     16683     16681     16684     16686     16683     16681     16684     16687
     16685     16684     16687     16688     16685     16684     16687     16689
     16685     16684     16687     16690     16686     16684     16687     16688
     16686     16684     16687     16689     16686     16684     16687     16690
     11713     11726     11729     11730     11713     11726     11729     11731
     11713     11726     11729     11736     11714     11713     11718     11719
     11714     11713     11718     11720     11714     11713     11718     11721
     11714     11713     11722     11723     11714     11713     11722     11724
     11714     11713     11722     11725     11714     11713     11726     11727
     11714     11713     11726     11728     11714     11713     11726     11729
     11715     11714     11713     11718     11715     11714     11713     11722
     11715     11714     11713     11726     11716     11714     11713     11718
     11716     11714     11713     11722     11716     11714     11713     11726
     11717     11714     11713     11718     11717     11714     11713     11722
     11717     11714     11713     11726     11718     11713     11722     11723
     11718     11713     11722     11724     11718     11713     11722     11725
     11718     11713     11726     11727     11718     11713     11726     11728
     11718     11713     11726     11729     11719     11718     11713     11722
     11719     11718     11713     11726     11720     11718     11713     11722
     11720     11718     11713     11726     11721     11718     11713     11722
     11721     11718     11713     11726     11722     11713     11726     11727
     11722     11713     11726     11728     11722     11713     11726     11729
     11723     11722     11713     11726     11724     11722     11713     11726
     11725     11722     11713     11726     11726     11729     11736     11732
     11727     11726     11729     11730     11727     11726     11729     11731
     11727     11726     11729     11736     11728     11726     11729     11730
     11728     11726     11729     11731     11728     11726     11729     11736
     11729     11736     11732     11733     11729     11736     11732     11734
     11729     11736     11732     11735     11730     11729     11736     11732
     11731     11729     11736     11732     11732     11735     11737     11738
     11732     11735     11737     11739     11732     11735     11737     11742
     11733     11732     11735     11737     11734     11732     11735     11737
     11735     11737     11742     11740     11735     11737     11742     11743
     11735     11737     11742     11744     11736     11732     11735     11737
     11737     11742     11740     11741     11737     11742     11740     11792
     11737     11742     11744     11745     11737     11742     11744     11746
     11737     11742     11744     11748     11738     11737     11742     11740
     11738     11737     11742     11743     11738     11737     11742     11744
     11739     11737     11742     11740     11739     11737     11742     11743
     11739     11737     11742     11744     11740     11742     11744     11745
     11740     11742     11744     11746     11740     11742     11744     11748
     11740     11792     11794     11795     11740     11792     11794     11796
     11740     11792     11794     11797     11741     11740     11742     11743
     11741     11740     11742     11744     11741     11740     11792     11793
     11741     11740     11792     11794     11742     11740     11792     11793
     11742     11740     11792     11794     11742     11744     11746     11747
     11742     11744     11748     11749     11742     11744     11748     11750
     11743     11742     11740     11792     11743     11742     11744     11745
     11743     11742     11744     11746     11743     11742     11744     11748
     11744     11742     11740     11792     11744     11748     11750     11751
     11744     11748     11750     11752     11745     11744     11746     11747
     11745     11744     11748     11749     11745     11744     11748     11750
     11746     11744     11748     11749     11746     11744     11748     11750
     11747     11746     11744     11748     11748     11750     11752     11753
     11748     11750     11752     11754     11748     11750     11752     11755
     11749     11748     11750     11751     11749     11748     11750     11752
     11750     11752     11755     11756     11750     11752     11755     11757
     11750     11752     11755     11758     11751     11750     11752     11753
     11751     11750     11752     11754     11751     11750     11752     11755
     11752     11755     11758     11759     11752     11755     11758     11760
     11752     11755     11758     11761     11753     11752     11755     11756
     11753     11752     11755     11757     11753     11752     11755     11758
     11754     11752     11755     11756     11754     11752     11755     11757
     11754     11752     11755     11758     11755     11758     11761     11762
     11755     11758     11761     11763     11755     11758     11761     11764
     11756     11755     11758     11759     11756     11755     11758     11760
     11756     11755     11758     11761     11757     11755     11758     11759
     11757     11755     11758     11760     11757     11755     11758     11761
     11758     11761     11764     11765     11758     11761     11764     11766
     11758     11761     11764     11767     11759     11758     11761     11762
     11759     11758     11761     11763     11759     11758     11761     11764
     11760     11758     11761     11762     11760     11758     11761     11763
     11760     11758     11761     11764     11761     11764     11767     11768
     11761     11764     11767     11769     11761     11764     11767     11770
     11762     11761     11764     11765     11762     11761     11764     11766
     11762     11761     11764     11767     11763     11761     11764     11765
     11763     11761     11764     11766     11763     11761     11764     11767
     11764     11767     11770     11771     11764     11767     11770     11772
     11764     11767     11770     11773     11765     11764     11767     11768
     11765     11764     11767     11769     11765     11764     11767     11770
     11766     11764     11767     11768     11766     11764     11767     11769
     11766     11764     11767     11770     11767     11770     11773     11774
     11767     11770     11773     11775     11767     11770     11773     11776
     11768     11767     11770     11771     11768     11767     11770     11772
     11768     11767     11770     11773     11769     11767     11770     11771
     11769     11767     11770     11772     11769     11767     11770     11773
     11770     11773     11776     11777     11770     11773     11776     11778
     11770     11773     11776     11779     11771     11770     11773     11774
     11771     11770     11773     11775     11771     11770     11773     11776
     11772     11770     11773     11774     11772     11770     11773     11775
     11772     11770     11773     11776     11773     11776     11779     11780
     11773     11776     11779     11781     11773     11776     11779     11782
     11774     11773     11776     11777     11774     11773     11776     11778
     11774     11773     11776     11779     11775     11773     11776     11777
     11775     11773     11776     11778     11775     11773     11776     11779
     11776     11779     11782     11783     11776     11779     11782     11784
     11776     11779     11782     11785     11777     11776     11779     11780
     11777     11776     11779     11781     11777     11776     11779     11782
     11778     11776     11779     11780     11778     11776     11779     11781
     11778     11776     11779     11782     11779     11782     11785     11786
     11779     11782     11785     11787     11779     11782     11785     11788
     11780     11779     11782     11783     11780     11779     11782     11784
     11780     11779     11782     11785     11781     11779     11782     11783
     11781     11779     11782     11784     11781     11779     11782     11785
     11782     11785     11788     11789     11782     11785     11788     11790
     11782     11785     11788     11791     11783     11782     11785     11786
     11783     11782     11785     11787     11783     11782     11785     11788
     11784     11782     11785     11786     11784     11782     11785     11787
     11784     11782     11785     11788     11786     11785     11788     11789
     11786     11785     11788     11790     11786     11785     11788     11791
     11787     11785     11788     11789     11787     11785     11788     11790
     11787     11785     11788     11791     11792     11794     11797     11798
     11792     11794     11797     11799     11792     11794     11797     11800
     11793     11792     11794     11795     11793     11792     11794     11796
     11793     11792     11794     11797     11794     11797     11800     11801
     11794     11797     11800     11802     11794     11797     11800     11803
     11795     11794     11797     11798     11795     11794     11797     11799
     11795     11794     11797     11800     11796     11794     11797     11798
     11796     11794     11797     11799     11796     11794     11797     11800
     11797     11800     11803     11804     11797     11800     11803     11805
     11797     11800     11803     11806     11798     11797     11800     11801
     11798     11797     11800     11802     11798     11797     11800     11803
     11799     11797     11800     11801     11799     11797     11800     11802
     11799     11797     11800     11803     11800     11803     11806     11807
     11800     11803     11806     11808     11800     11803     11806     11809
     11801     11800     11803     11804     11801     11800     11803     11805
     11801     11800     11803     11806     11802     11800     11803     11804
     11802     11800     11803     11805     11802     11800     11803     11806
     11803     11806     11809     11810     11803     11806     11809     11811
     11803     11806     11809     11812     11804     11803     11806     11807
     11804     11803     11806     11808     11804     11803     11806     11809
     11805     11803     11806     11807     11805     11803     11806     11808
     11805     11803     11806     11809     11806     11809     11812     11813
     11806     11809     11812     11814     11806     11809     11812     11815
     11807     11806     11809     11810     11807     11806     11809     11811
     11807     11806     11809     11812     11808     11806     11809     11810
     11808     11806     11809     11811     11808     11806     11809     11812
     11809     11812     11815     11816     11809     11812     11815     11817
     11810     11809     11812     11813     11810     11809     11812     11814
     11810     11809     11812     11815     11811     11809     11812     11813
     11811     11809     11812     11814     11811     11809     11812     11815
     11812     11815     11817     11818     11812     11815     11817     11819
     11813     11812     11815     11816     11813     11812     11815     11817
     11814     11812     11815     11816     11814     11812     11815     11817
     11815     11817     11819     11820     11815     11817     11819     11821
     11815     11817     11819     11822     11816     11815     11817     11818
     11816     11815     11817     11819     11817     11819     11822     11823
     11817     11819     11822     11824     11817     11819     11822     11825
     11818     11817     11819     11820     11818     11817     11819     11821
     11818     11817     11819     11822     11819     11822     11825     11826
     11819     11822     11825     11827     11819     11822     11825     11828
     11820     11819     11822     11823     11820     11819     11822     11824
     11820     11819     11822     11825     11821     11819     11822     11823
     11821     11819     11822     11824     11821     11819     11822     11825
     11822     11825     11828     11829     11822     11825     11828     11830
     11822     11825     11828     11831     11823     11822     11825     11826
     11823     11822     11825     11827     11823     11822     11825     11828
     11824     11822     11825     11826     11824     11822     11825     11827
     11824     11822     11825     11828     11825     11828     11831     11832
     11825     11828     11831     11833     11825     11828     11831     11834
     11826     11825     11828     11829     11826     11825     11828     11830
     11826     11825     11828     11831     11827     11825     11828     11829
     11827     11825     11828     11830     11827     11825     11828     11831
     11828     11831     11834     11835     11828     11831     11834     11836
     11828     11831     11834     11837     11829     11828     11831     11832
     11829     11828     11831     11833     11829     11828     11831     11834
     11830     11828     11831     11832     11830     11828     11831     11833
     11830     11828     11831     11834     11831     11834     11837     11838
     11831     11834     11837     11839     11831     11834     11837     11840
     11832     11831     11834     11835     11832     11831     11834     11836
     11832     11831     11834     11837     11833     11831     11834     11835
     11833     11831     11834     11836     11833     11831     11834     11837
     11834     11837     11840     11841     11834     11837     11840     11842
     11834     11837     11840     11843     11835     11834     11837     11838
     11835     11834     11837     11839     11835     11834     11837     11840
     11836     11834     11837     11838     11836     11834     11837     11839
     11836     11834     11837     11840     11838     11837     11840     11841
     11838     11837     11840     11842     11838     11837     11840     11843
     11839     11837     11840     11841     11839     11837     11840     11842
     11839     11837     11840     11843     20097     20101     20104     20105
     20097     20101     20104     20106     20097     20101     20104     20110
     20098     20097     20101     20102     20098     20097     20101     20103
     20098     20097     20101     20104     20099     20097     20101     20102
     20099     20097     20101     20103     20099     20097     20101     20104
     20100     20097     20101     20102     20100     20097     20101     20103
     20100     20097     20101     20104     20101     20104     20110     20107
     20102     20101     20104     20105     20102     20101     20104     20106
     20102     20101     20104     20110     20103     20101     20104     20105
     20103     20101     20104     20106     20103     20101     20104     20110
     20104     20110     20107     20108     20104     20110     20107     20109
     20104     20110     20107     20111     20105     20104     20110     20107
     20106     20104     20110     20107     20107     20111     20112     20113
     20107     20111     20112     20114     20107     20111     20112     20115
     20108     20107     20111     20112     20109     20107     20111     20112
     20110     20107     20111     20112     20111     20112     20115     20116
     20111     20112     20115     20117     20111     20112     20115     20123
     20112     20115     20117     20118     20112     20115     20123     20124
     20112     20115     20123     20125     20112     20115     20123     20126
     20113     20112     20115     20116     20113     20112     20115     20117
     20113     20112     20115     20123     20114     20112     20115     20116
     20114     20112     20115     20117     20114     20112     20115     20123
     20115     20117     20118     20119     20115     20117     20118     20120
     20115     20123     20126     20127     20116     20115     20117     20118
     20116     20115     20123     20124     20116     20115     20123     20125
     20116     20115     20123     20126     20117     20115     20123     20124
     20117     20115     20123     20125     20117     20115     20123     20126
     20117     20118     20120     20121     20117     20118     20120     20122
     20117     20118     20120     20132     20118     20117     20115     20123
     20118     20120     20132     20133     20118     20120     20132     20134
     20118     20120     20132     20135     20119     20118     20120     20121
     20119     20118     20120     20122     20119     20118     20120     20132
     20120     20132     20135     20136     20120     20132     20135     20137
     20120     20132     20135     20138     20121     20120     20132     20133
     20121     20120     20132     20134     20121     20120     20132     20135
     20122     20120     20132     20133     20122     20120     20132     20134
     20122     20120     20132     20135     20123     20126     20127     20128
     20123     20126     20127     20129     20124     20123     20126     20127
     20125     20123     20126     20127     20126     20127     20129     20130
     20126     20127     20129     20131     20126     20127     20129     20179
     20127     20129     20179     20180     20127     20129     20179     20181
     20127     20129     20179     20182     20128     20127     20129     20130
     20128     20127     20129     20131     20128     20127     20129     20179
     20129     20179     20182     20183     20129     20179     20182     20184
     20129     20179     20182     20185     20130     20129     20179     20180
     20130     20129     20179     20181     20130     20129     20179     20182
     20131     20129     20179     20180     20131     20129     20179     20181
     20131     20129     20179     20182     20132     20135     20138     20139
     20132     20135     20138     20140     20132     20135     20138     20141
     20133     20132     20135     20136     20133     20132     20135     20137
     20133     20132     20135     20138     20134     20132     20135     20136
     20134     20132     20135     20137     20134     20132     20135     20138
     20135     20138     20141     20142     20135     20138     20141     20143
     20135     20138     20141     20144     20136     20135     20138     20139
     20136     20135     20138     20140     20136     20135     20138     20141
     20137     20135     20138     20139     20137     20135     20138     20140
     20137     20135     20138     20141     20138     20141     20144     20145
     20138     20141     20144     20146     20138     20141     20144     20147
     20139     20138     20141     20142     20139     20138     20141     20143
     20139     20138     20141     20144     20140     20138     20141     20142
     20140     20138     20141     20143     20140     20138     20141     20144
     20141     20144     20147     20148     20141     20144     20147     20149
     20141     20144     20147     20150     20142     20141     20144     20145
     20142     20141     20144     20146     20142     20141     20144     20147
     20143     20141     20144     20145     20143     20141     20144     20146
     20143     20141     20144     20147     20144     20147     20150     20151
     20144     20147     20150     20152     20145     20144     20147     20148
     20145     20144     20147     20149     20145     20144     20147     20150
     20146     20144     20147     20148     20146     20144     20147     20149
     20146     20144     20147     20150     20147     20150     20152     20153
     20147     20150     20152     20154     20148     20147     20150     20151
     20148     20147     20150     20152     20149     20147     20150     20151
     20149     20147     20150     20152     20150     20152     20154     20155
     20150     20152     20154     20156     20150     20152     20154     20157
     20151     20150     20152     20153     20151     20150     20152     20154
     20152     20154     20157     20158     20152     20154     20157     20159
     20152     20154     20157     20160     20153     20152     20154     20155
     20153     20152     20154     20156     20153     20152     20154     20157
     20154     20157     20160     20161     20154     20157     20160     20162
     20154     20157     20160     20163     20155     20154     20157     20158
     20155     20154     20157     20159     20155     20154     20157     20160
     20156     20154     20157     20158     20156     20154     20157     20159
     20156     20154     20157     20160     20157     20160     20163     20164
     20157     20160     20163     20165     20157     20160     20163     20166
     20158     20157     20160     20161     20158     20157     20160     20162
     20158     20157     20160     20163     20159     20157     20160     20161
     20159     20157     20160     20162     20159     20157     20160     20163
     20160     20163     20166     20167     20160     20163     20166     20168
     20160     20163     20166     20169     20161     20160     20163     20164
     20161     20160     20163     20165     20161     20160     20163     20166
     20162     20160     20163     20164     20162     20160     20163     20165
     20162     20160     20163     20166     20163     20166     20169     20170
     20163     20166     20169     20171     20163     20166     20169     20172
     20164     20163     20166     20167     20164     20163     20166     20168
     20164     20163     20166     20169     20165     20163     20166     20167
     20165     20163     20166     20168     20165     20163     20166     20169
     20166     20169     20172     20173     20166     20169     20172     20174
     20166     20169     20172     20175     20167     20166     20169     20170
     20167     20166     20169     20171     20167     20166     20169     20172
     20168     20166     20169     20170     20168     20166     20169     20171
     20168     20166     20169     20172     20169     20172     20175     20176
     20169     20172     20175     20177     20169     20172     20175     20178
     20170     20169     20172     20173     20170     20169     20172     20174
     20170     20169     20172     20175     20171     20169     20172     20173
     20171     20169     20172     20174     20171     20169     20172     20175
     20173     20172     20175     20176     20173     20172     20175     20177
     20173     20172     20175     20178     20174     20172     20175     20176
     20174     20172     20175     20177     20174     20172     20175     20178
     20179     20182     20185     20186     20179     20182     20185     20187
     20179     20182     20185     20188     20180     20179     20182     20183
     20180     20179     20182     20184     20180     20179     20182     20185
     20181     20179     20182     20183     20181     20179     20182     20184
     20181     20179     20182     20185     20182     20185     20188     20189
     20182     20185     20188     20190     20182     20185     20188     20191
     20183     20182     20185     20186     20183     20182     20185     20187
     20183     20182     20185     20188     20184     20182     20185     20186
     20184     20182     20185     20187     20184     20182     20185     20188
     20185     20188     20191     20192     20185     20188     20191     20193
     20185     20188     20191     20194     20186     20185     20188     20189
     20186     20185     20188     20190     20186     20185     20188     20191
     20187     20185     20188     20189     20187     20185     20188     20190
     20187     20185     20188     20191     20188     20191     20194     20195
     20188     20191     20194     20196     20188     20191     20194     20197
     20189     20188     20191     20192     20189     20188     20191     20193
     20189     20188     20191     20194     20190     20188     20191     20192
     20190     20188     20191     20193     20190     20188     20191     20194
     20191     20194     20197     20198     20191     20194     20197     20199
     20191     20194     20197     20200     20192     20191     20194     20195
     20192     20191     20194     20196     20192     20191     20194     20197
     20193     20191     20194     20195     20193     20191     20194     20196
     20193     20191     20194     20197     20194     20197     20200     20201
     20194     20197     20200     20202     20194     20197     20200     20203
     20195     20194     20197     20198     20195     20194     20197     20199
     20195     20194     20197     20200     20196     20194     20197     20198
     20196     20194     20197     20199     20196     20194     20197     20200
     20197     20200     20203     20204     20197     20200     20203     20205
     20197     20200     20203     20206     20198     20197     20200     20201
     20198     20197     20200     20202     20198     20197     20200     20203
     20199     20197     20200     20201     20199     20197     20200     20202
     20199     20197     20200     20203     20200     20203     20206     20207
     20200     20203     20206     20208     20200     20203     20206     20209
     20201     20200     20203     20204     20201     20200     20203     20205
     20201     20200     20203     20206     20202     20200     20203     20204
     20202     20200     20203     20205     20202     20200     20203     20206
     20203     20206     20209     20210     20203     20206     20209     20211
     20203     20206     20209     20212     20204     20203     20206     20207
     20204     20203     20206     20208     20204     20203     20206     20209
     20205     20203     20206     20207     20205     20203     20206     20208
     20205     20203     20206     20209     20206     20209     20212     20213
     20206     20209     20212     20214     20206     20209     20212     20215
     20207     20206     20209     20210     20207     20206     20209     20211
     20207     20206     20209     20212     20208     20206     20209     20210
     20208     20206     20209     20211     20208     20206     20209     20212
     20209     20212     20215     20216     20209     20212     20215     20217
     20209     20212     20215     20218     20210     20209     20212     20213
     20210     20209     20212     20214     20210     20209     20212     20215
     20211     20209     20212     20213     20211     20209     20212     20214
     20211     20209     20212     20215     20212     20215     20218     20219
     20212     20215     20218     20220     20212     20215     20218     20221
     20213     20212     20215     20216     20213     20212     20215     20217
     20213     20212     20215     20218     20214     20212     20215     20216
     20214     20212     20215     20217     20214     20212     20215     20218
     20215     20218     20221     20222     20215     20218     20221     20223
     20215     20218     20221     20224     20216     20215     20218     20219
     20216     20215     20218     20220     20216     20215     20218     20221
     20217     20215     20218     20219     20217     20215     20218     20220
     20217     20215     20218     20221     20218     20221     20224     20225
     20218     20221     20224     20226     20218     20221     20224     20227
     20219     20218     20221     20222     20219     20218     20221     20223
     20219     20218     20221     20224     20220     20218     20221     20222
     20220     20218     20221     20223     20220     20218     20221     20224
     20222     20221     20224     20225     20222     20221     20224     20226
     20222     20221     20224     20227     20223     20221     20224     20225
     20223     20221     20224     20226     20223     20221     20224     20227
       593       597       600       601       593       597       600       631
       593       639       636       631       593       639       636       637
       593       639       636       638       594       593       595       596
       594       593       597       598       594       593       597       599
       594       593       597       600       594       593       639       636
       594       593       639       640       594       593       639       641
       595       593       597       598       595       593       597       599
       595       593       597       600       595       593       639       636
       595       593       639       640       595       593       639       641
       596       595       593       597       596       595       593       639
       597       593       639       636       597       593       639       640
       597       593       639       641       597       600       601       602
       597       600       601       603       597       600       631       629
       597       600       631       632       597       600       631       636
       598       597       593       639       598       597       600       601
       598       597       600       631       599       597       593       639
       599       597       600       601       599       597       600       631
       600       597       593       639       600       601       603       604
       600       601       603       605       600       601       603       606
       600       631       629       606       600       631       629       626
       600       631       629       630       600       631       632       633
       600       631       632       634       600       631       632       635
       600       631       636       637       600       631       636       638
       600       631       636       639       601       600       631       629
       601       600       631       632       601       600       631       636
       601       603       606       607       601       603       606       608
       601       603       606       629       602       601       600       631
       602       601       603       604       602       601       603       605
       602       601       603       606       603       601       600       631
       603       606       608       609       603       606       608       610
       603       606       608       618       603       606       629       626
       603       606       629       630       603       606       629       631
       604       603       606       607       604       603       606       608
       604       603       606       629       605       603       606       607
       605       603       606       608       605       603       606       629
       606       608       610       611       606       608       610       612
       606       608       610       613       606       608       618       616
       606       608       618       619       606       608       618       623
       606       629       626       623       606       629       626       627
       606       629       626       628       606       629       631       632
       606       629       631       636       607       606       608       609
       607       606       608       610       607       606       608       618
       607       606       629       626       607       606       629       630
       607       606       629       631       608       606       629       626
       608       606       629       630       608       606       629       631
       608       610       613       614       608       610       613       615
       608       610       613       616       608       618       616       613
       608       618       616       617       608       618       616       642
       608       618       619       620       608       618       619       621
       608       618       619       622       608       618       623       624
       608       618       623       625       608       618       623       626
       609       608       606       629       609       608       610       611
       609       608       610       612       609       608       610       613
       609       608       618       616       609       608       618       619
       609       608       618       623       610       608       606       629
       610       608       618       616       610       608       618       619
       610       608       618       623       610       613       616       617
       610       613       616       618       610       613       616       642
       611       610       608       618       611       610       613       614
       611       610       613       615       611       610       613       616
       612       610       608       618       612       610       613       614
       612       610       613       615       612       610       613       616
       613       610       608       618       613       616       618       619
       613       616       618       623       613       616       642       643
       613       616       642       644       613       616       642       648
       614       613       616       617       614       613       616       618
       614       613       616       642       615       613       616       617
       615       613       616       618       615       613       616       642
       616       618       619       620       616       618       619       621
       616       618       619       622       616       618       623       624
       616       618       623       625       616       618       623       626
       616       642       644       645       616       642       644       646
       616       642       644       647       616       642       648       649
       616       642       648       650       616       642       648       651
       617       616       618       619       617       616       618       623
       617       616       642       643       617       616       642       644
       617       616       642       648       618       608       606       629
       618       616       642       643       618       616       642       644
       618       616       642       648       618       623       626       627
       618       623       626       628       618       623       626       629
       619       618       616       642       619       618       623       624
       619       618       623       625       619       618       623       626
       620       619       618       623       621       619       618       623
       622       619       618       623       623       618       616       642
       623       626       629       630       623       626       629       631
       624       623       626       627       624       623       626       628
       624       623       626       629       625       623       626       627
       625       623       626       628       625       623       626       629
       626       629       631       632       626       629       631       636
       627       626       629       630       627       626       629       631
       628       626       629       630       628       626       629       631
       629       631       632       633       629       631       632       634
       629       631       632       635       629       631       636       637
       629       631       636       638       629       631       636       639
       630       629       631       632       630       629       631       636
       631       636       639       640       631       636       639       641
       632       631       636       637       632       631       636       638
       632       631       636       639       633       632       631       636
       634       632       631       636       635       632       631       636
       637       636       639       640       637       636       639       641
       638       636       639       640       638       636       639       641
       642       648       651       652       642       648       651       653
       642       648       651       654       643       642       644       645
       643       642       644       646       643       642       644       647
       643       642       648       649       643       642       648       650
       643       642       648       651       644       642       648       649
       644       642       648       650       644       642       648       651
       645       644       642       648       646       644       642       648
       647       644       642       648       648       651       654       655
       648       651       654       656       648       651       654       657
       649       648       651       652       649       648       651       653
       649       648       651       654       650       648       651       652
       650       648       651       653       650       648       651       654
       651       654       657       658       651       654       657       659
       651       654       657       663       652       651       654       655
       652       651       654       656       652       651       654       657
       653       651       654       655       653       651       654       656
       653       651       654       657       654       657       659       660
       654       657       659       661       654       657       659       662
       654       657       663       664       654       657       663       665
       654       657       663       666       655       654       657       658
       655       654       657       659       655       654       657       663
       656       654       657       658       656       654       657       659
       656       654       657       663       658       657       659       660
       658       657       659       661       658       657       659       662
       658       657       663       664       658       657       663       665
       658       657       663       666       659       657       663       664
       659       657       663       665       659       657       663       666
       660       659       657       663       661       659       657       663
       662       659       657       663       667       671       674       675
       667       671       674       705       667       713       710       705
       667       713       710       711       667       713       710       712
       668       667       669       670       668       667       671       672
       668       667       671       673       668       667       671       674
       668       667       713       710       668       667       713       714
       668       667       713       715       669       667       671       672
       669       667       671       673       669       667       671       674
       669       667       713       710       669       667       713       714
       669       667       713       715       670       669       667       671
       670       669       667       713       671       667       713       710
       671       667       713       714       671       667       713       715
       671       674       675       676       671       674       675       677
       671       674       705       703       671       674       705       706
       671       674       705       710       672       671       667       713
       672       671       674       675       672       671       674       705
       673       671       667       713       673       671       674       675
       673       671       674       705       674       671       667       713
       674       675       677       678       674       675       677       679
       674       675       677       680       674       705       703       680
       674       705       703       700       674       705       703       704
       674       705       706       707       674       705       706       708
       674       705       706       709       674       705       710       711
       674       705       710       712       674       705       710       713
       675       674       705       703       675       674       705       706
       675       674       705       710       675       677       680       681
       675       677       680       682       675       677       680       703
       676       675       674       705       676       675       677       678
       676       675       677       679       676       675       677       680
       677       675       674       705       677       680       682       683
       677       680       682       684       677       680       682       692
       677       680       703       700       677       680       703       704
       677       680       703       705       678       677       680       681
       678       677       680       682       678       677       680       703
       679       677       680       681       679       677       680       682
       679       677       680       703       680       682       684       685
       680       682       684       686       680       682       684       687
       680       682       692       690       680       682       692       693
       680       682       692       697       680       703       700       697
       680       703       700       701       680       703       700       702
       680       703       705       706       680       703       705       710
       681       680       682       683       681       680       682       684
       681       680       682       692       681       680       703       700
       681       680       703       704       681       680       703       705
       682       680       703       700       682       680       703       704
       682       680       703       705       682       684       687       688
       682       684       687       689       682       684       687       690
       682       692       690       687       682       692       690       691
       682       692       690       716       682       692       693       694
       682       692       693       695       682       692       693       696
       682       692       697       698       682       692       697       699
       682       692       697       700       683       682       680       703
       683       682       684       685       683       682       684       686
       683       682       684       687       683       682       692       690
       683       682       692       693       683       682       692       697
       684       682       680       703       684       682       692       690
       684       682       692       693       684       682       692       697
       684       687       690       691       684       687       690       692
       684       687       690       716       685       684       682       692
       685       684       687       688       685       684       687       689
       685       684       687       690       686       684       682       692
       686       684       687       688       686       684       687       689
       686       684       687       690       687       684       682       692
       687       690       692       693       687       690       692       697
       687       690       716       717       687       690       716       718
       687       690       716       722       688       687       690       691
       688       687       690       692       688       687       690       716
       689       687       690       691       689       687       690       692
       689       687       690       716       690       692       693       694
       690       692       693       695       690       692       693       696
       690       692       697       698       690       692       697       699
       690       692       697       700       690       716       718       719
       690       716       718       720       690       716       718       721
       690       716       722       723       690       716       722       724
       690       716       722       725       691       690       692       693
       691       690       692       697       691       690       716       717
       691       690       716       718       691       690       716       722
       692       682       680       703       692       690       716       717
       692       690       716       718       692       690       716       722
       692       697       700       701       692       697       700       702
       692       697       700       703       693       692       690       716
       693       692       697       698       693       692       697       699
       693       692       697       700       694       693       692       697
       695       693       692       697       696       693       692       697
       697       692       690       716       697       700       703       704
       697       700       703       705       698       697       700       701
       698       697       700       702       698       697       700       703
       699       697       700       701       699       697       700       702
       699       697       700       703       700       703       705       706
       700       703       705       710       701       700       703       704
       701       700       703       705       702       700       703       704
       702       700       703       705       703       705       706       707
       703       705       706       708       703       705       706       709
       703       705       710       711       703       705       710       712
       703       705       710       713       704       703       705       706
       704       703       705       710       705       710       713       714
       705       710       713       715       706       705       710       711
       706       705       710       712       706       705       710       713
       707       706       705       710       708       706       705       710
       709       706       705       710       711       710       713       714
       711       710       713       715       712       710       713       714
       712       710       713       715       716       722       725       726
       716       722       725       727       716       722       725       728
       717       716       718       719       717       716       718       720
       717       716       718       721       717       716       722       723
       717       716       722       724       717       716       722       725
       718       716       722       723       718       716       722       724
       718       716       722       725       719       718       716       722
       720       718       716       722       721       718       716       722
       722       725       728       729       722       725       728       730
       722       725       728       731       723       722       725       726
       723       722       725       727       723       722       725       728
       724       722       725       726       724       722       725       727
       724       722       725       728       725       728       731       732
       725       728       731       733       725       728       731       737
       726       725       728       729       726       725       728       730
       726       725       728       731       727       725       728       729
       727       725       728       730       727       725       728       731
       728       731       733       734       728       731       733       735
       728       731       733       736       728       731       737       738
       728       731       737       739       728       731       737       740
       729       728       731       732       729       728       731       733
       729       728       731       737       730       728       731       732
       730       728       731       733       730       728       731       737
       732       731       733       734       732       731       733       735
       732       731       733       736       732       731       737       738
       732       731       737       739       732       731       737       740
       733       731       737       738       733       731       737       739
       733       731       737       740       734       733       731       737
       735       733       731       737       736       733       731       737
     16691     16695     16698     16699     16691     16695     16698     16700
     16691     16695     16698     16704     16692     16691     16695     16696
     16692     16691     16695     16697     16692     16691     16695     16698
     16693     16691     16695     16696     16693     16691     16695     16697
     16693     16691     16695     16698     16694     16691     16695     16696
     16694     16691     16695     16697     16694     16691     16695     16698
     16695     16698     16704     16701     16696     16695     16698     16699
     16696     16695     16698     16700     16696     16695     16698     16704
     16697     16695     16698     16699     16697     16695     16698     16700
     16697     16695     16698     16704     16698     16704     16701     16702
     16698     16704     16701     16703     16698     16704     16701     16705
     16699     16698     16704     16701     16700     16698     16704     16701
     16701     16705     16706     16707     16701     16705     16706     16708
     16701     16705     16706     16709     16702     16701     16705     16706
     16703     16701     16705     16706     16704     16701     16705     16706
     16705     16706     16709     16710     16705     16706     16709     16711
     16705     16706     16709     16717     16706     16709     16711     16712
     16706     16709     16717     16718     16706     16709     16717     16719
     16706     16709     16717     16720     16707     16706     16709     16710
     16707     16706     16709     16711     16707     16706     16709     16717
     16708     16706     16709     16710     16708     16706     16709     16711
     16708     16706     16709     16717     16709     16711     16712     16713
     16709     16711     16712     16714     16709     16717     16720     16721
     16710     16709     16711     16712     16710     16709     16717     16718
     16710     16709     16717     16719     16710     16709     16717     16720
     16711     16709     16717     16718     16711     16709     16717     16719
     16711     16709     16717     16720     16711     16712     16714     16715
     16711     16712     16714     16716     16711     16712     16714     16726
     16712     16711     16709     16717     16712     16714     16726     16727
     16712     16714     16726     16728     16712     16714     16726     16729
     16713     16712     16714     16715     16713     16712     16714     16716
     16713     16712     16714     16726     16714     16726     16729     16730
     16714     16726     16729     16731     16714     16726     16729     16732
     16715     16714     16726     16727     16715     16714     16726     16728
     16715     16714     16726     16729     16716     16714     16726     16727
     16716     16714     16726     16728     16716     16714     16726     16729
     16717     16720     16721     16722     16717     16720     16721     16723
     16718     16717     16720     16721     16719     16717     16720     16721
     16720     16721     16723     16724     16720     16721     16723     16725
     16720     16721     16723     16773     16721     16723     16773     16774
     16721     16723     16773     16775     16721     16723     16773     16776
     16722     16721     16723     16724     16722     16721     16723     16725
     16722     16721     16723     16773     16723     16773     16776     16777
     16723     16773     16776     16778     16723     16773     16776     16779
     16724     16723     16773     16774     16724     16723     16773     16775
     16724     16723     16773     16776     16725     16723     16773     16774
     16725     16723     16773     16775     16725     16723     16773     16776
     16726     16729     16732     16733     16726     16729     16732     16734
     16727     16726     16729     16730     16727     16726     16729     16731
     16727     16726     16729     16732     16728     16726     16729     16730
     16728     16726     16729     16731     16728     16726     16729     16732
     16729     16732     16734     16735     16729     16732     16734     16736
     16730     16729     16732     16733     16730     16729     16732     16734
     16731     16729     16732     16733     16731     16729     16732     16734
     16732     16734     16736     16737     16732     16734     16736     16738
     16732     16734     16736     16739     16733     16732     16734     16735
     16733     16732     16734     16736     16734     16736     16739     16740
     16734     16736     16739     16741     16735     16734     16736     16737
     16735     16734     16736     16738     16735     16734     16736     16739
     16736     16739     16741     16742     16736     16739     16741     16743
     16737     16736     16739     16740     16737     16736     16739     16741
     16738     16736     16739     16740     16738     16736     16739     16741
     16739     16741     16743     16744     16739     16741     16743     16745
     16739     16741     16743     16746     16740     16739     16741     16742
     16740     16739     16741     16743     16741     16743     16746     16747
     16741     16743     16746     16748     16742     16741     16743     16744
     16742     16741     16743     16745     16742     16741     16743     16746
     16743     16746     16748     16749     16743     16746     16748     16750
     16744     16743     16746     16747     16744     16743     16746     16748
     16745     16743     16746     16747     16745     16743     16746     16748
     16746     16748     16750     16751     16746     16748     16750     16752
     16746     16748     16750     16753     16747     16746     16748     16749
     16747     16746     16748     16750     16748     16750     16753     16754
     16748     16750     16753     16755     16749     16748     16750     16751
     16749     16748     16750     16752     16749     16748     16750     16753
     16750     16753     16755     16756     16750     16753     16755     16757
     16751     16750     16753     16754     16751     16750     16753     16755
     16752     16750     16753     16754     16752     16750     16753     16755
     16753     16755     16757     16758     16753     16755     16757     16759
     16753     16755     16757     16760     16754     16753     16755     16756
     16754     16753     16755     16757     16755     16757     16760     16761
     16755     16757     16760     16762     16755     16757     16760     16763
     16756     16755     16757     16758     16756     16755     16757     16759
     16756     16755     16757     16760     16757     16760     16763     16764
     16757     16760     16763     16765     16757     16760     16763     16766
     16758     16757     16760     16761     16758     16757     16760     16762
     16758     16757     16760     16763     16759     16757     16760     16761
     16759     16757     16760     16762     16759     16757     16760     16763
     16760     16763     16766     16767     16760     16763     16766     16768
     16760     16763     16766     16769     16761     16760     16763     16764
     16761     16760     16763     16765     16761     16760     16763     16766
     16762     16760     16763     16764     16762     16760     16763     16765
     16762     16760     16763     16766     16763     16766     16769     16770
     16763     16766     16769     16771     16763     16766     16769     16772
     16764     16763     16766     16767     16764     16763     16766     16768
     16764     16763     16766     16769     16765     16763     16766     16767
     16765     16763     16766     16768     16765     16763     16766     16769
     16767     16766     16769     16770     16767     16766     16769     16771
     16767     16766     16769     16772     16768     16766     16769     16770
     16768     16766     16769     16771     16768     16766     16769     16772
     16773     16776     16779     16780     16773     16776     16779     16781
     16773     16776     16779     16782     16774     16773     16776     16777
     16774     16773     16776     16778     16774     16773     16776     16779
     16775     16773     16776     16777     16775     16773     16776     16778
     16775     16773     16776     16779     16776     16779     16782     16783
     16776     16779     16782     16784     16776     16779     16782     16785
     16777     16776     16779     16780     16777     16776     16779     16781
     16777     16776     16779     16782     16778     16776     16779     16780
     16778     16776     16779     16781     16778     16776     16779     16782
     16779     16782     16785     16786     16779     16782     16785     16787
     16779     16782     16785     16788     16780     16779     16782     16783
     16780     16779     16782     16784     16780     16779     16782     16785
     16781     16779     16782     16783     16781     16779     16782     16784
     16781     16779     16782     16785     16782     16785     16788     16789
     16782     16785     16788     16790     16782     16785     16788     16791
     16783     16782     16785     16786     16783     16782     16785     16787
     16783     16782     16785     16788     16784     16782     16785     16786
     16784     16782     16785     16787     16784     16782     16785     16788
     16785     16788     16791     16792     16785     16788     16791     16793
     16785     16788     16791     16794     16786     16785     16788     16789
     16786     16785     16788     16790     16786     16785     16788     16791
     16787     16785     16788     16789     16787     16785     16788     16790
     16787     16785     16788     16791     16788     16791     16794     16795
     16788     16791     16794     16796     16788     16791     16794     16797
     16789     16788     16791     16792     16789     16788     16791     16793
     16789     16788     16791     16794     16790     16788     16791     16792
     16790     16788     16791     16793     16790     16788     16791     16794
     16791     16794     16797     16798     16791     16794     16797     16799
     16791     16794     16797     16800     16792     16791     16794     16795
     16792     16791     16794     16796     16792     16791     16794     16797
     16793     16791     16794     16795     16793     16791     16794     16796
     16793     16791     16794     16797     16794     16797     16800     16801
     16794     16797     16800     16802     16794     16797     16800     16803
     16795     16794     16797     16798     16795     16794     16797     16799
     16795     16794     16797     16800     16796     16794     16797     16798
     16796     16794     16797     16799     16796     16794     16797     16800
     16797     16800     16803     16804     16797     16800     16803     16805
     16797     16800     16803     16806     16798     16797     16800     16801
     16798     16797     16800     16802     16798     16797     16800     16803
     16799     16797     16800     16801     16799     16797     16800     16802
     16799     16797     16800     16803     16800     16803     16806     16807
     16800     16803     16806     16808     16800     16803     16806     16809
     16801     16800     16803     16804     16801     16800     16803     16805
     16801     16800     16803     16806     16802     16800     16803     16804
     16802     16800     16803     16805     16802     16800     16803     16806
     16803     16806     16809     16810     16803     16806     16809     16811
     16803     16806     16809     16812     16804     16803     16806     16807
     16804     16803     16806     16808     16804     16803     16806     16809
     16805     16803     16806     16807     16805     16803     16806     16808
     16805     16803     16806     16809     16806     16809     16812     16813
     16806     16809     16812     16814     16806     16809     16812     16815
     16807     16806     16809     16810     16807     16806     16809     16811
     16807     16806     16809     16812     16808     16806     16809     16810
     16808     16806     16809     16811     16808     16806     16809     16812
     16809     16812     16815     16816     16809     16812     16815     16817
     16809     16812     16815     16818     16810     16809     16812     16813
     16810     16809     16812     16814     16810     16809     16812     16815
     16811     16809     16812     16813     16811     16809     16812     16814
     16811     16809     16812     16815     16812     16815     16818     16819
     16812     16815     16818     16820     16812     16815     16818     16821
     16813     16812     16815     16816     16813     16812     16815     16817
     16813     16812     16815     16818     16814     16812     16815     16816
     16814     16812     16815     16817     16814     16812     16815     16818
     16816     16815     16818     16819     16816     16815     16818     16820
     16816     16815     16818     16821     16817     16815     16818     16819
     16817     16815     16818     16820     16817     16815     16818     16821
       741       745       748       749       741       745       748       779
       741       787       784       779       741       787       784       785
       741       787       784       786       742       741       743       744
       742       741       745       746       742       741       745       747
       742       741       745       748       742       741       787       784
       742       741       787       788       742       741       787       789
       743       741       745       746       743       741       745       747
       743       741       745       748       743       741       787       784
       743       741       787       788       743       741       787       789
       744       743       741       745       744       743       741       787
       745       741       787       784       745       741       787       788
       745       741       787       789       745       748       749       750
       745       748       749       751       745       748       779       777
       745       748       779       780       745       748       779       784
       746       745       741       787       746       745       748       749
       746       745       748       779       747       745       741       787
       747       745       748       749       747       745       748       779
       748       745       741       787       748       749       751       752
       748       749       751       753       748       749       751       754
       748       779       777       754       748       779       777       774
       748       779       777       778       748       779       780       781
       748       779       780       782       748       779       780       783
       748       779       784       785       748       779       784       786
       748       779       784       787       749       748       779       777
       749       748       779       780       749       748       779       784
       749       751       754       755       749       751       754       756
       749       751       754       777       750       749       748       779
       750       749       751       752       750       749       751       753
       750       749       751       754       751       749       748       779
       751       754       756       757       751       754       756       758
       751       754       756       766       751       754       777       774
       751       754       777       778       751       754       777       779
       752       751       754       755       752       751       754       756
       752       751       754       777       753       751       754       755
       753       751       754       756       753       751       754       777
       754       756       758       759       754       756       758       760
       754       756       758       761       754       756       766       764
       754       756       766       767       754       756       766       771
       754       777       774       771       754       777       774       775
       754       777       774       776       754       777       779       780
       754       777       779       784       755       754       756       757
       755       754       756       758       755       754       756       766
       755       754       777       774       755       754       777       778
       755       754       777       779       756       754       777       774
       756       754       777       778       756       754       777       779
       756       758       761       762       756       758       761       763
       756       758       761       764       756       766       764       761
       756       766       764       765       756       766       764       790
       756       766       767       768       756       766       767       769
       756       766       767       770       756       766       771       772
       756       766       771       773       756       766       771       774
       757       756       754       777       757       756       758       759
       757       756       758       760       757       756       758       761
       757       756       766       764       757       756       766       767
       757       756       766       771       758       756       754       777
       758       756       766       764       758       756       766       767
       758       756       766       771       758       761       764       765
       758       761       764       766       758       761       764       790
       759       758       756       766       759       758       761       762
       759       758       761       763       759       758       761       764
       760       758       756       766       760       758       761       762
       760       758       761       763       760       758       761       764
       761       758       756       766       761       764       766       767
       761       764       766       771       761       764       790       791
       761       764       790       792       761       764       790       796
       762       761       764       765       762       761       764       766
       762       761       764       790       763       761       764       765
       763       761       764       766       763       761       764       790
       764       766       767       768       764       766       767       769
       764       766       767       770       764       766       771       772
       764       766       771       773       764       766       771       774
       764       790       792       793       764       790       792       794
       764       790       792       795       764       790       796       797
       764       790       796       798       764       790       796       799
       765       764       766       767       765       764       766       771
       765       764       790       791       765       764       790       792
       765       764       790       796       766       756       754       777
       766       764       790       791       766       764       790       792
       766       764       790       796       766       771       774       775
       766       771       774       776       766       771       774       777
       767       766       764       790       767       766       771       772
       767       766       771       773       767       766       771       774
       768       767       766       771       769       767       766       771
       770       767       766       771       771       766       764       790
       771       774       777       778       771       774       777       779
       772       771       774       775       772       771       774       776
       772       771       774       777       773       771       774       775
       773       771       774       776       773       771       774       777
       774       777       779       780       774       777       779       784
       775       774       777       778       775       774       777       779
       776       774       777       778       776       774       777       779
       777       779       780       781       777       779       780       782
       777       779       780       783       777       779       784       785
       777       779       784       786       777       779       784       787
       778       777       779       780       778       777       779       784
       779       784       787       788       779       784       787       789
       780       779       784       785       780       779       784       786
       780       779       784       787       781       780       779       784
       782       780       779       784       783       780       779       784
       785       784       787       788       785       784       787       789
       786       784       787       788       786       784       787       789
       790       796       799       800       790       796       799       801
       790       796       799       802       791       790       792       793
       791       790       792       794       791       790       792       795
       791       790       796       797       791       790       796       798
       791       790       796       799       792       790       796       797
       792       790       796       798       792       790       796       799
       793       792       790       796       794       792       790       796
       795       792       790       796       796       799       802       803
       796       799       802       804       796       799       802       805
       797       796       799       800       797       796       799       801
       797       796       799       802       798       796       799       800
       798       796       799       801       798       796       799       802
       799       802       805       806       799       802       805       807
       799       802       805       811       800       799       802       803
       800       799       802       804       800       799       802       805
       801       799       802       803       801       799       802       804
       801       799       802       805       802       805       807       808
       802       805       807       809       802       805       807       810
       802       805       811       812       802       805       811       813
       802       805       811       814       803       802       805       806
       803       802       805       807       803       802       805       811
       804       802       805       806       804       802       805       807
       804       802       805       811       806       805       807       808
       806       805       807       809       806       805       807       810
       806       805       811       812       806       805       811       813
       806       805       811       814       807       805       811       812
       807       805       811       813       807       805       811       814
       808       807       805       811       809       807       805       811
       810       807       805       811      8013      8017      8019      8020
      8013      8017      8019      8021      8013      8017      8022      8023
      8013      8017      8022      8024      8013      8017      8022      8028
      8014      8013      8017      8018      8014      8013      8017      8019
      8014      8013      8017      8022      8015      8013      8017      8018
      8015      8013      8017      8019      8015      8013      8017      8022
      8016      8013      8017      8018      8016      8013      8017      8019
      8016      8013      8017      8022      8017      8022      8028      8025
      8018      8017      8019      8020      8018      8017      8019      8021
      8018      8017      8022      8023      8018      8017      8022      8024
      8018      8017      8022      8028      8019      8017      8022      8023
      8019      8017      8022      8024      8019      8017      8022      8028
      8020      8019      8017      8022      8021      8019      8017      8022
      8022      8028      8025      8026      8022      8028      8025      8027
      8022      8028      8025      8029      8023      8022      8028      8025
      8024      8022      8028      8025      8025      8029      8030      8031
      8025      8029      8030      8032      8025      8029      8030      8033
      8026      8025      8029      8030      8027      8025      8029      8030
      8028      8025      8029      8030      8029      8030      8033      8034
      8029      8030      8033      8035      8029      8030      8033      8041
      8030      8033      8035      8036      8030      8033      8041      8042
      8030      8033      8041      8043      8030      8033      8041      8044
      8031      8030      8033      8034      8031      8030      8033      8035
      8031      8030      8033      8041      8032      8030      8033      8034
      8032      8030      8033      8035      8032      8030      8033      8041
      8033      8035      8036      8037      8033      8035      8036      8038
      8033      8041      8044      8045      8034      8033      8035      8036
      8034      8033      8041      8042      8034      8033      8041      8043
      8034      8033      8041      8044      8035      8033      8041      8042
      8035      8033      8041      8043      8035      8033      8041      8044
      8035      8036      8038      8039      8035      8036      8038      8040
      8035      8036      8038      8050      8036      8035      8033      8041
      8036      8038      8050      8051      8036      8038      8050      8052
      8036      8038      8050      8053      8037      8036      8038      8039
      8037      8036      8038      8040      8037      8036      8038      8050
      8038      8050      8053      8054      8038      8050      8053      8055
      8038      8050      8053      8056      8039      8038      8050      8051
      8039      8038      8050      8052      8039      8038      8050      8053
      8040      8038      8050      8051      8040      8038      8050      8052
      8040      8038      8050      8053      8041      8044      8045      8046
      8041      8044      8045      8047      8042      8041      8044      8045
      8043      8041      8044      8045      8044      8045      8047      8048
      8044      8045      8047      8049      8044      8045      8047      8097
      8045      8047      8097      8098      8045      8047      8097      8099
      8045      8047      8097      8100      8046      8045      8047      8048
      8046      8045      8047      8049      8046      8045      8047      8097
      8047      8097      8100      8101      8047      8097      8100      8102
      8047      8097      8100      8103      8048      8047      8097      8098
      8048      8047      8097      8099      8048      8047      8097      8100
      8049      8047      8097      8098      8049      8047      8097      8099
      8049      8047      8097      8100      8050      8053      8056      8057
      8050      8053      8056      8058      8051      8050      8053      8054
      8051      8050      8053      8055      8051      8050      8053      8056
      8052      8050      8053      8054      8052      8050      8053      8055
      8052      8050      8053      8056      8053      8056      8058      8059
      8053      8056      8058      8060      8054      8053      8056      8057
      8054      8053      8056      8058      8055      8053      8056      8057
      8055      8053      8056      8058      8056      8058      8060      8061
      8056      8058      8060      8062      8056      8058      8060      8063
      8057      8056      8058      8059      8057      8056      8058      8060
      8058      8060      8063      8064      8058      8060      8063      8065
      8059      8058      8060      8061      8059      8058      8060      8062
      8059      8058      8060      8063      8060      8063      8065      8066
      8060      8063      8065      8067      8061      8060      8063      8064
      8061      8060      8063      8065      8062      8060      8063      8064
      8062      8060      8063      8065      8063      8065      8067      8068
      8063      8065      8067      8069      8063      8065      8067      8070
      8064      8063      8065      8066      8064      8063      8065      8067
      8065      8067      8070      8071      8065      8067      8070      8072
      8066      8065      8067      8068      8066      8065      8067      8069
      8066      8065      8067      8070      8067      8070      8072      8073
      8067      8070      8072      8074      8068      8067      8070      8071
      8068      8067      8070      8072      8069      8067      8070      8071
      8069      8067      8070      8072      8070      8072      8074      8075
      8070      8072      8074      8076      8070      8072      8074      8077
      8071      8070      8072      8073      8071      8070      8072      8074
      8072      8074      8077      8078      8072      8074      8077      8079
      8073      8072      8074      8075      8073      8072      8074      8076
      8073      8072      8074      8077      8074      8077      8079      8080
      8074      8077      8079      8081      8075      8074      8077      8078
      8075      8074      8077      8079      8076      8074      8077      8078
      8076      8074      8077      8079      8077      8079      8081      8082
      8077      8079      8081      8083      8077      8079      8081      8084
      8078      8077      8079      8080      8078      8077      8079      8081
      8079      8081      8084      8085      8079      8081      8084      8086
      8079      8081      8084      8087      8080      8079      8081      8082
      8080      8079      8081      8083      8080      8079      8081      8084
      8081      8084      8087      8088      8081      8084      8087      8089
      8081      8084      8087      8090      8082      8081      8084      8085
      8082      8081      8084      8086      8082      8081      8084      8087
      8083      8081      8084      8085      8083      8081      8084      8086
      8083      8081      8084      8087      8084      8087      8090      8091
      8084      8087      8090      8092      8084      8087      8090      8093
      8085      8084      8087      8088      8085      8084      8087      8089
      8085      8084      8087      8090      8086      8084      8087      8088
      8086      8084      8087      8089      8086      8084      8087      8090
      8087      8090      8093      8094      8087      8090      8093      8095
      8087      8090      8093      8096      8088      8087      8090      8091
      8088      8087      8090      8092      8088      8087      8090      8093
      8089      8087      8090      8091      8089      8087      8090      8092
      8089      8087      8090      8093      8091      8090      8093      8094
      8091      8090      8093      8095      8091      8090      8093      8096
      8092      8090      8093      8094      8092      8090      8093      8095
      8092      8090      8093      8096      8097      8100      8103      8104
      8097      8100      8103      8105      8097      8100      8103      8106
      8098      8097      8100      8101      8098      8097      8100      8102
      8098      8097      8100      8103      8099      8097      8100      8101
      8099      8097      8100      8102      8099      8097      8100      8103
      8100      8103      8106      8107      8100      8103      8106      8108
      8100      8103      8106      8109      8101      8100      8103      8104
      8101      8100      8103      8105      8101      8100      8103      8106
      8102      8100      8103      8104      8102      8100      8103      8105
      8102      8100      8103      8106      8103      8106      8109      8110
      8103      8106      8109      8111      8103      8106      8109      8112
      8104      8103      8106      8107      8104      8103      8106      8108
      8104      8103      8106      8109      8105      8103      8106      8107
      8105      8103      8106      8108      8105      8103      8106      8109
      8106      8109      8112      8113      8106      8109      8112      8114
      8106      8109      8112      8115      8107      8106      8109      8110
      8107      8106      8109      8111      8107      8106      8109      8112
      8108      8106      8109      8110      8108      8106      8109      8111
      8108      8106      8109      8112      8109      8112      8115      8116
      8109      8112      8115      8117      8109      8112      8115      8118
      8110      8109      8112      8113      8110      8109      8112      8114
      8110      8109      8112      8115      8111      8109      8112      8113
      8111      8109      8112      8114      8111      8109      8112      8115
      8112      8115      8118      8119      8112      8115      8118      8120
      8112      8115      8118      8121      8113      8112      8115      8116
      8113      8112      8115      8117      8113      8112      8115      8118
      8114      8112      8115      8116      8114      8112      8115      8117
      8114      8112      8115      8118      8115      8118      8121      8122
      8115      8118      8121      8123      8115      8118      8121      8124
      8116      8115      8118      8119      8116      8115      8118      8120
      8116      8115      8118      8121      8117      8115      8118      8119
      8117      8115      8118      8120      8117      8115      8118      8121
      8118      8121      8124      8125      8118      8121      8124      8126
      8118      8121      8124      8127      8119      8118      8121      8122
      8119      8118      8121      8123      8119      8118      8121      8124
      8120      8118      8121      8122      8120      8118      8121      8123
      8120      8118      8121      8124      8121      8124      8127      8128
      8121      8124      8127      8129      8121      8124      8127      8130
      8122      8121      8124      8125      8122      8121      8124      8126
      8122      8121      8124      8127      8123      8121      8124      8125
      8123      8121      8124      8126      8123      8121      8124      8127
      8124      8127      8130      8131      8124      8127      8130      8132
      8124      8127      8130      8133      8125      8124      8127      8128
      8125      8124      8127      8129      8125      8124      8127      8130
      8126      8124      8127      8128      8126      8124      8127      8129
      8126      8124      8127      8130      8127      8130      8133      8134
      8127      8130      8133      8135      8127      8130      8133      8136
      8128      8127      8130      8131      8128      8127      8130      8132
      8128      8127      8130      8133      8129      8127      8130      8131
      8129      8127      8130      8132      8129      8127      8130      8133
      8130      8133      8136      8137      8130      8133      8136      8138
      8130      8133      8136      8139      8131      8130      8133      8134
      8131      8130      8133      8135      8131      8130      8133      8136
      8132      8130      8133      8134      8132      8130      8133      8135
      8132      8130      8133      8136      8133      8136      8139      8140
      8133      8136      8139      8141      8133      8136      8139      8142
      8134      8133      8136      8137      8134      8133      8136      8138
      8134      8133      8136      8139      8135      8133      8136      8137
      8135      8133      8136      8138      8135      8133      8136      8139
      8136      8139      8142      8143      8136      8139      8142      8144
      8136      8139      8142      8145      8137      8136      8139      8140
      8137      8136      8139      8141      8137      8136      8139      8142
      8138      8136      8139      8140      8138      8136      8139      8141
      8138      8136      8139      8142      8140      8139      8142      8143
      8140      8139      8142      8144      8140      8139      8142      8145
      8141      8139      8142      8143      8141      8139      8142      8144
      8141      8139      8142      8145     21717     21718     21733     21734
     21717     21718     21733     21735     21717     21718     21733     21739
     21718     21717     21721     21722     21718     21717     21721     21723
     21718     21717     21721     21724     21718     21717     21725     21726
     21718     21717     21725     21727     21718     21717     21725     21728
     21718     21717     21729     21730     21718     21717     21729     21731
     21718     21717     21729     21732     21718     21733     21739     21736
     21719     21718     21717     21721     21719     21718     21717     21725
     21719     21718     21717     21729     21719     21718     21733     21734
     21719     21718     21733     21735     21719     21718     21733     21739
     21720     21718     21717     21721     21720     21718     21717     21725
     21720     21718     21717     21729     21720     21718     21733     21734
     21720     21718     21733     21735     21720     21718     21733     21739
     21721     21717     21718     21733     21721     21717     21725     21726
     21721     21717     21725     21727     21721     21717     21725     21728
     21721     21717     21729     21730     21721     21717     21729     21731
     21721     21717     21729     21732     21722     21721     21717     21725
     21722     21721     21717     21729     21723     21721     21717     21725
     21723     21721     21717     21729     21724     21721     21717     21725
     21724     21721     21717     21729     21725     21717     21718     21733
     21725     21717     21729     21730     21725     21717     21729     21731
     21725     21717     21729     21732     21726     21725     21717     21729
     21727     21725     21717     21729     21728     21725     21717     21729
     21729     21717     21718     21733     21733     21739     21736     21737
     21733     21739     21736     21738     21733     21739     21736     21740
     21734     21733     21739     21736     21735     21733     21739     21736
     21736     21740     21741     21742     21736     21740     21741     21743
     21736     21740     21741     21744     21737     21736     21740     21741
     21738     21736     21740     21741     21739     21736     21740     21741
     21740     21741     21744     21745     21740     21741     21744     21746
     21740     21741     21744     21752     21741     21744     21746     21747
     21741     21744     21752     21753     21741     21744     21752     21754
     21741     21744     21752     21755     21742     21741     21744     21745
     21742     21741     21744     21746     21742     21741     21744     21752
     21743     21741     21744     21745     21743     21741     21744     21746
     21743     21741     21744     21752     21744     21746     21747     21748
     21744     21746     21747     21749     21744     21752     21755     21756
     21745     21744     21746     21747     21745     21744     21752     21753
     21745     21744     21752     21754     21745     21744     21752     21755
     21746     21744     21752     21753     21746     21744     21752     21754
     21746     21744     21752     21755     21746     21747     21749     21750
     21746     21747     21749     21751     21746     21747     21749     21761
     21747     21746     21744     21752     21747     21749     21761     21762
     21747     21749     21761     21763     21747     21749     21761     21764
     21748     21747     21749     21750     21748     21747     21749     21751
     21748     21747     21749     21761     21749     21761     21764     21765
     21749     21761     21764     21766     21749     21761     21764     21767
     21750     21749     21761     21762     21750     21749     21761     21763
     21750     21749     21761     21764     21751     21749     21761     21762
     21751     21749     21761     21763     21751     21749     21761     21764
     21752     21755     21756     21757     21752     21755     21756     21758
     21753     21752     21755     21756     21754     21752     21755     21756
     21755     21756     21758     21759     21755     21756     21758     21760
     21755     21756     21758     21808     21756     21758     21808     21809
     21756     21758     21808     21810     21756     21758     21808     21811
     21757     21756     21758     21759     21757     21756     21758     21760
     21757     21756     21758     21808     21758     21808     21811     21812
     21758     21808     21811     21813     21758     21808     21811     21814
     21759     21758     21808     21809     21759     21758     21808     21810
     21759     21758     21808     21811     21760     21758     21808     21809
     21760     21758     21808     21810     21760     21758     21808     21811
     21761     21764     21767     21768     21761     21764     21767     21769
     21761     21764     21767     21770     21762     21761     21764     21765
     21762     21761     21764     21766     21762     21761     21764     21767
     21763     21761     21764     21765     21763     21761     21764     21766
     21763     21761     21764     21767     21764     21767     21770     21771
     21764     21767     21770     21772     21764     21767     21770     21773
     21765     21764     21767     21768     21765     21764     21767     21769
     21765     21764     21767     21770     21766     21764     21767     21768
     21766     21764     21767     21769     21766     21764     21767     21770
     21767     21770     21773     21774     21767     21770     21773     21775
     21767     21770     21773     21776     21768     21767     21770     21771
     21768     21767     21770     21772     21768     21767     21770     21773
     21769     21767     21770     21771     21769     21767     21770     21772
     21769     21767     21770     21773     21770     21773     21776     21777
     21770     21773     21776     21778     21770     21773     21776     21779
     21771     21770     21773     21774     21771     21770     21773     21775
     21771     21770     21773     21776     21772     21770     21773     21774
     21772     21770     21773     21775     21772     21770     21773     21776
     21773     21776     21779     21780     21773     21776     21779     21781
     21774     21773     21776     21777     21774     21773     21776     21778
     21774     21773     21776     21779     21775     21773     21776     21777
     21775     21773     21776     21778     21775     21773     21776     21779
     21776     21779     21781     21782     21776     21779     21781     21783
     21777     21776     21779     21780     21777     21776     21779     21781
     21778     21776     21779     21780     21778     21776     21779     21781
     21779     21781     21783     21784     21779     21781     21783     21785
     21779     21781     21783     21786     21780     21779     21781     21782
     21780     21779     21781     21783     21781     21783     21786     21787
     21781     21783     21786     21788     21781     21783     21786     21789
     21782     21781     21783     21784     21782     21781     21783     21785
     21782     21781     21783     21786     21783     21786     21789     21790
     21783     21786     21789     21791     21783     21786     21789     21792
     21784     21783     21786     21787     21784     21783     21786     21788
     21784     21783     21786     21789     21785     21783     21786     21787
     21785     21783     21786     21788     21785     21783     21786     21789
     21786     21789     21792     21793     21786     21789     21792     21794
     21786     21789     21792     21795     21787     21786     21789     21790
     21787     21786     21789     21791     21787     21786     21789     21792
     21788     21786     21789     21790     21788     21786     21789     21791
     21788     21786     21789     21792     21789     21792     21795     21796
     21789     21792     21795     21797     21789     21792     21795     21798
     21790     21789     21792     21793     21790     21789     21792     21794
     21790     21789     21792     21795     21791     21789     21792     21793
     21791     21789     21792     21794     21791     21789     21792     21795
     21792     21795     21798     21799     21792     21795     21798     21800
     21792     21795     21798     21801     21793     21792     21795     21796
     21793     21792     21795     21797     21793     21792     21795     21798
     21794     21792     21795     21796     21794     21792     21795     21797
     21794     21792     21795     21798     21795     21798     21801     21802
     21795     21798     21801     21803     21795     21798     21801     21804
     21796     21795     21798     21799     21796     21795     21798     21800
     21796     21795     21798     21801     21797     21795     21798     21799
     21797     21795     21798     21800     21797     21795     21798     21801
     21798     21801     21804     21805     21798     21801     21804     21806
     21798     21801     21804     21807     21799     21798     21801     21802
     21799     21798     21801     21803     21799     21798     21801     21804
     21800     21798     21801     21802     21800     21798     21801     21803
     21800     21798     21801     21804     21802     21801     21804     21805
     21802     21801     21804     21806     21802     21801     21804     21807
     21803     21801     21804     21805     21803     21801     21804     21806
     21803     21801     21804     21807     21808     21811     21814     21815
     21808     21811     21814     21816     21808     21811     21814     21817
     21809     21808     21811     21812     21809     21808     21811     21813
     21809     21808     21811     21814     21810     21808     21811     21812
     21810     21808     21811     21813     21810     21808     21811     21814
     21811     21814     21817     21818     21811     21814     21817     21819
     21811     21814     21817     21820     21812     21811     21814     21815
     21812     21811     21814     21816     21812     21811     21814     21817
     21813     21811     21814     21815     21813     21811     21814     21816
     21813     21811     21814     21817     21814     21817     21820     21821
     21814     21817     21820     21822     21814     21817     21820     21823
     21815     21814     21817     21818     21815     21814     21817     21819
     21815     21814     21817     21820     21816     21814     21817     21818
     21816     21814     21817     21819     21816     21814     21817     21820
     21817     21820     21823     21824     21817     21820     21823     21825
     21817     21820     21823     21826     21818     21817     21820     21821
     21818     21817     21820     21822     21818     21817     21820     21823
     21819     21817     21820     21821     21819     21817     21820     21822
     21819     21817     21820     21823     21820     21823     21826     21827
     21820     21823     21826     21828     21820     21823     21826     21829
     21821     21820     21823     21824     21821     21820     21823     21825
     21821     21820     21823     21826     21822     21820     21823     21824
     21822     21820     21823     21825     21822     21820     21823     21826
     21823     21826     21829     21830     21823     21826     21829     21831
     21823     21826     21829     21832     21824     21823     21826     21827
     21824     21823     21826     21828     21824     21823     21826     21829
     21825     21823     21826     21827     21825     21823     21826     21828
     21825     21823     21826     21829     21826     21829     21832     21833
     21826     21829     21832     21834     21826     21829     21832     21835
     21827     21826     21829     21830     21827     21826     21829     21831
     21827     21826     21829     21832     21828     21826     21829     21830
     21828     21826     21829     21831     21828     21826     21829     21832
     21829     21832     21835     21836     21829     21832     21835     21837
     21829     21832     21835     21838     21830     21829     21832     21833
     21830     21829     21832     21834     21830     21829     21832     21835
     21831     21829     21832     21833     21831     21829     21832     21834
     21831     21829     21832     21835     21832     21835     21838     21839
     21832     21835     21838     21840     21832     21835     21838     21841
     21833     21832     21835     21836     21833     21832     21835     21837
     21833     21832     21835     21838     21834     21832     21835     21836
     21834     21832     21835     21837     21834     21832     21835     21838
     21835     21838     21841     21842     21835     21838     21841     21843
     21835     21838     21841     21844     21836     21835     21838     21839
     21836     21835     21838     21840     21836     21835     21838     21841
     21837     21835     21838     21839     21837     21835     21838     21840
     21837     21835     21838     21841     21838     21841     21844     21845
     21838     21841     21844     21846     21838     21841     21844     21847
     21839     21838     21841     21842     21839     21838     21841     21843
     21839     21838     21841     21844     21840     21838     21841     21842
     21840     21838     21841     21843     21840     21838     21841     21844
     21841     21844     21847     21848     21841     21844     21847     21849
     21841     21844     21847     21850     21842     21841     21844     21845
     21842     21841     21844     21846     21842     21841     21844     21847
     21843     21841     21844     21845     21843     21841     21844     21846
     21843     21841     21844     21847     21845     21844     21847     21848
     21845     21844     21847     21849     21845     21844     21847     21850
     21846     21844     21847     21848     21846     21844     21847     21849
     21846     21844     21847     21850      8146      8150      8152      8153
      8146      8150      8152      8154      8146      8150      8155      8156
      8146      8150      8155      8157      8146      8150      8155      8161
      8147      8146      8150      8151      8147      8146      8150      8152
      8147      8146      8150      8155      8148      8146      8150      8151
      8148      8146      8150      8152      8148      8146      8150      8155
      8149      8146      8150      8151      8149      8146      8150      8152
      8149      8146      8150      8155      8150      8155      8161      8158
      8151      8150      8152      8153      8151      8150      8152      8154
      8151      8150      8155      8156      8151      8150      8155      8157
      8151      8150      8155      8161      8152      8150      8155      8156
      8152      8150      8155      8157      8152      8150      8155      8161
      8153      8152      8150      8155      8154      8152      8150      8155
      8155      8161      8158      8159      8155      8161      8158      8160
      8155      8161      8158      8162      8156      8155      8161      8158
      8157      8155      8161      8158      8158      8162      8163      8164
      8158      8162      8163      8165      8158      8162      8163      8166
      8159      8158      8162      8163      8160      8158      8162      8163
      8161      8158      8162      8163      8162      8163      8166      8167
      8162      8163      8166      8168      8162      8163      8166      8174
      8163      8166      8168      8169      8163      8166      8174      8175
      8163      8166      8174      8176      8163      8166      8174      8177
      8164      8163      8166      8167      8164      8163      8166      8168
      8164      8163      8166      8174      8165      8163      8166      8167
      8165      8163      8166      8168      8165      8163      8166      8174
      8166      8168      8169      8170      8166      8168      8169      8171
      8166      8174      8177      8178      8167      8166      8168      8169
      8167      8166      8174      8175      8167      8166      8174      8176
      8167      8166      8174      8177      8168      8166      8174      8175
      8168      8166      8174      8176      8168      8166      8174      8177
      8168      8169      8171      8172      8168      8169      8171      8173
      8168      8169      8171      8183      8169      8168      8166      8174
      8169      8171      8183      8184      8169      8171      8183      8185
      8169      8171      8183      8186      8170      8169      8171      8172
      8170      8169      8171      8173      8170      8169      8171      8183
      8171      8183      8186      8187      8171      8183      8186      8188
      8171      8183      8186      8189      8172      8171      8183      8184
      8172      8171      8183      8185      8172      8171      8183      8186
      8173      8171      8183      8184      8173      8171      8183      8185
      8173      8171      8183      8186      8174      8177      8178      8179
      8174      8177      8178      8180      8175      8174      8177      8178
      8176      8174      8177      8178      8177      8178      8180      8181
      8177      8178      8180      8182      8177      8178      8180      8230
      8178      8180      8230      8231      8178      8180      8230      8232
      8178      8180      8230      8233      8179      8178      8180      8181
      8179      8178      8180      8182      8179      8178      8180      8230
      8180      8230      8233      8234      8180      8230      8233      8235
      8180      8230      8233      8236      8181      8180      8230      8231
      8181      8180      8230      8232      8181      8180      8230      8233
      8182      8180      8230      8231      8182      8180      8230      8232
      8182      8180      8230      8233      8183      8186      8189      8190
      8183      8186      8189      8191      8184      8183      8186      8187
      8184      8183      8186      8188      8184      8183      8186      8189
      8185      8183      8186      8187      8185      8183      8186      8188
      8185      8183      8186      8189      8186      8189      8191      8192
      8186      8189      8191      8193      8187      8186      8189      8190
      8187      8186      8189      8191      8188      8186      8189      8190
      8188      8186      8189      8191      8189      8191      8193      8194
      8189      8191      8193      8195      8189      8191      8193      8196
      8190      8189      8191      8192      8190      8189      8191      8193
      8191      8193      8196      8197      8191      8193      8196      8198
      8192      8191      8193      8194      8192      8191      8193      8195
      8192      8191      8193      8196      8193      8196      8198      8199
      8193      8196      8198      8200      8194      8193      8196      8197
      8194      8193      8196      8198      8195      8193      8196      8197
      8195      8193      8196      8198      8196      8198      8200      8201
      8196      8198      8200      8202      8196      8198      8200      8203
      8197      8196      8198      8199      8197      8196      8198      8200
      8198      8200      8203      8204      8198      8200      8203      8205
      8199      8198      8200      8201      8199      8198      8200      8202
      8199      8198      8200      8203      8200      8203      8205      8206
      8200      8203      8205      8207      8201      8200      8203      8204
      8201      8200      8203      8205      8202      8200      8203      8204
      8202      8200      8203      8205      8203      8205      8207      8208
      8203      8205      8207      8209      8203      8205      8207      8210
      8204      8203      8205      8206      8204      8203      8205      8207
      8205      8207      8210      8211      8205      8207      8210      8212
      8206      8205      8207      8208      8206      8205      8207      8209
      8206      8205      8207      8210      8207      8210      8212      8213
      8207      8210      8212      8214      8208      8207      8210      8211
      8208      8207      8210      8212      8209      8207      8210      8211
      8209      8207      8210      8212      8210      8212      8214      8215
      8210      8212      8214      8216      8210      8212      8214      8217
      8211      8210      8212      8213      8211      8210      8212      8214
      8212      8214      8217      8218      8212      8214      8217      8219
      8212      8214      8217      8220      8213      8212      8214      8215
      8213      8212      8214      8216      8213      8212      8214      8217
      8214      8217      8220      8221      8214      8217      8220      8222
      8214      8217      8220      8223      8215      8214      8217      8218
      8215      8214      8217      8219      8215      8214      8217      8220
      8216      8214      8217      8218      8216      8214      8217      8219
      8216      8214      8217      8220      8217      8220      8223      8224
      8217      8220      8223      8225      8217      8220      8223      8226
      8218      8217      8220      8221      8218      8217      8220      8222
      8218      8217      8220      8223      8219      8217      8220      8221
      8219      8217      8220      8222      8219      8217      8220      8223
      8220      8223      8226      8227      8220      8223      8226      8228
      8220      8223      8226      8229      8221      8220      8223      8224
      8221      8220      8223      8225      8221      8220      8223      8226
      8222      8220      8223      8224      8222      8220      8223      8225
      8222      8220      8223      8226      8224      8223      8226      8227
      8224      8223      8226      8228      8224      8223      8226      8229
      8225      8223      8226      8227      8225      8223      8226      8228
      8225      8223      8226      8229      8230      8233      8236      8237
      8230      8233      8236      8238      8230      8233      8236      8239
      8231      8230      8233      8234      8231      8230      8233      8235
      8231      8230      8233      8236      8232      8230      8233      8234
      8232      8230      8233      8235      8232      8230      8233      8236
      8233      8236      8239      8240      8233      8236      8239      8241
      8233      8236      8239      8242      8234      8233      8236      8237
      8234      8233      8236      8238      8234      8233      8236      8239
      8235      8233      8236      8237      8235      8233      8236      8238
      8235      8233      8236      8239      8236      8239      8242      8243
      8236      8239      8242      8244      8236      8239      8242      8245
      8237      8236      8239      8240      8237      8236      8239      8241
      8237      8236      8239      8242      8238      8236      8239      8240
      8238      8236      8239      8241      8238      8236      8239      8242
      8239      8242      8245      8246      8239      8242      8245      8247
      8239      8242      8245      8248      8240      8239      8242      8243
      8240      8239      8242      8244      8240      8239      8242      8245
      8241      8239      8242      8243      8241      8239      8242      8244
      8241      8239      8242      8245      8242      8245      8248      8249
      8242      8245      8248      8250      8242      8245      8248      8251
      8243      8242      8245      8246      8243      8242      8245      8247
      8243      8242      8245      8248      8244      8242      8245      8246
      8244      8242      8245      8247      8244      8242      8245      8248
      8245      8248      8251      8252      8245      8248      8251      8253
      8245      8248      8251      8254      8246      8245      8248      8249
      8246      8245      8248      8250      8246      8245      8248      8251
      8247      8245      8248      8249      8247      8245      8248      8250
      8247      8245      8248      8251      8248      8251      8254      8255
      8248      8251      8254      8256      8248      8251      8254      8257
      8249      8248      8251      8252      8249      8248      8251      8253
      8249      8248      8251      8254      8250      8248      8251      8252
      8250      8248      8251      8253      8250      8248      8251      8254
      8251      8254      8257      8258      8251      8254      8257      8259
      8251      8254      8257      8260      8252      8251      8254      8255
      8252      8251      8254      8256      8252      8251      8254      8257
      8253      8251      8254      8255      8253      8251      8254      8256
      8253      8251      8254      8257      8254      8257      8260      8261
      8254      8257      8260      8262      8254      8257      8260      8263
      8255      8254      8257      8258      8255      8254      8257      8259
      8255      8254      8257      8260      8256      8254      8257      8258
      8256      8254      8257      8259      8256      8254      8257      8260
      8257      8260      8263      8264      8257      8260      8263      8265
      8257      8260      8263      8266      8258      8257      8260      8261
      8258      8257      8260      8262      8258      8257      8260      8263
      8259      8257      8260      8261      8259      8257      8260      8262
      8259      8257      8260      8263      8260      8263      8266      8267
      8260      8263      8266      8268      8260      8263      8266      8269
      8261      8260      8263      8264      8261      8260      8263      8265
      8261      8260      8263      8266      8262      8260      8263      8264
      8262      8260      8263      8265      8262      8260      8263      8266
      8263      8266      8269      8270      8263      8266      8269      8271
      8263      8266      8269      8272      8264      8263      8266      8267
      8264      8263      8266      8268      8264      8263      8266      8269
      8265      8263      8266      8267      8265      8263      8266      8268
      8265      8263      8266      8269      8266      8269      8272      8273
      8266      8269      8272      8274      8266      8269      8272      8275
      8267      8266      8269      8270      8267      8266      8269      8271
      8267      8266      8269      8272      8268      8266      8269      8270
      8268      8266      8269      8271      8268      8266      8269      8272
      8269      8272      8275      8276      8269      8272      8275      8277
      8269      8272      8275      8278      8270      8269      8272      8273
      8270      8269      8272      8274      8270      8269      8272      8275
      8271      8269      8272      8273      8271      8269      8272      8274
      8271      8269      8272      8275      8273      8272      8275      8276
      8273      8272      8275      8277      8273      8272      8275      8278
      8274      8272      8275      8276      8274      8272      8275      8277
      8274      8272      8275      8278     11844     11857     11860     11861
     11844     11857     11860     11862     11844     11857     11860     11867
     11845     11844     11849     11850     11845     11844     11849     11851
     11845     11844     11849     11852     11845     11844     11853     11854
     11845     11844     11853     11855     11845     11844     11853     11856
     11845     11844     11857     11858     11845     11844     11857     11859
     11845     11844     11857     11860     11846     11845     11844     11849
     11846     11845     11844     11853     11846     11845     11844     11857
     11847     11845     11844     11849     11847     11845     11844     11853
     11847     11845     11844     11857     11848     11845     11844     11849
     11848     11845     11844     11853     11848     11845     11844     11857
     11849     11844     11853     11854     11849     11844     11853     11855
     11849     11844     11853     11856     11849     11844     11857     11858
     11849     11844     11857     11859     11849     11844     11857     11860
     11850     11849     11844     11853     11850     11849     11844     11857
     11851     11849     11844     11853     11851     11849     11844     11857
     11852     11849     11844     11853     11852     11849     11844     11857
     11853     11844     11857     11858     11853     11844     11857     11859
     11853     11844     11857     11860     11854     11853     11844     11857
     11855     11853     11844     11857     11856     11853     11844     11857
     11857     11860     11867     11863     11858     11857     11860     11861
     11858     11857     11860     11862     11858     11857     11860     11867
     11859     11857     11860     11861     11859     11857     11860     11862
     11859     11857     11860     11867     11860     11867     11863     11864
     11860     11867     11863     11865     11860     11867     11863     11866
     11861     11860     11867     11863     11862     11860     11867     11863
     11863     11866     11868     11869     11863     11866     11868     11870
     11863     11866     11868     11873     11864     11863     11866     11868
     11865     11863     11866     11868     11866     11868     11873     11871
     11866     11868     11873     11874     11866     11868     11873     11875
     11867     11863     11866     11868     11868     11873     11871     11872
     11868     11873     11871     11923     11868     11873     11875     11876
     11868     11873     11875     11877     11868     11873     11875     11879
     11869     11868     11873     11871     11869     11868     11873     11874
     11869     11868     11873     11875     11870     11868     11873     11871
     11870     11868     11873     11874     11870     11868     11873     11875
     11871     11873     11875     11876     11871     11873     11875     11877
     11871     11873     11875     11879     11871     11923     11925     11926
     11871     11923     11925     11927     11871     11923     11925     11928
     11872     11871     11873     11874     11872     11871     11873     11875
     11872     11871     11923     11924     11872     11871     11923     11925
     11873     11871     11923     11924     11873     11871     11923     11925
     11873     11875     11877     11878     11873     11875     11879     11880
     11873     11875     11879     11881     11874     11873     11871     11923
     11874     11873     11875     11876     11874     11873     11875     11877
     11874     11873     11875     11879     11875     11873     11871     11923
     11875     11879     11881     11882     11875     11879     11881     11883
     11876     11875     11877     11878     11876     11875     11879     11880
     11876     11875     11879     11881     11877     11875     11879     11880
     11877     11875     11879     11881     11878     11877     11875     11879
     11879     11881     11883     11884     11879     11881     11883     11885
     11879     11881     11883     11886     11880     11879     11881     11882
     11880     11879     11881     11883     11881     11883     11886     11887
     11881     11883     11886     11888     11881     11883     11886     11889
     11882     11881     11883     11884     11882     11881     11883     11885
     11882     11881     11883     11886     11883     11886     11889     11890
     11883     11886     11889     11891     11883     11886     11889     11892
     11884     11883     11886     11887     11884     11883     11886     11888
     11884     11883     11886     11889     11885     11883     11886     11887
     11885     11883     11886     11888     11885     11883     11886     11889
     11886     11889     11892     11893     11886     11889     11892     11894
     11886     11889     11892     11895     11887     11886     11889     11890
     11887     11886     11889     11891     11887     11886     11889     11892
     11888     11886     11889     11890     11888     11886     11889     11891
     11888     11886     11889     11892     11889     11892     11895     11896
     11889     11892     11895     11897     11889     11892     11895     11898
     11890     11889     11892     11893     11890     11889     11892     11894
     11890     11889     11892     11895     11891     11889     11892     11893
     11891     11889     11892     11894     11891     11889     11892     11895
     11892     11895     11898     11899     11892     11895     11898     11900
     11892     11895     11898     11901     11893     11892     11895     11896
     11893     11892     11895     11897     11893     11892     11895     11898
     11894     11892     11895     11896     11894     11892     11895     11897
     11894     11892     11895     11898     11895     11898     11901     11902
     11895     11898     11901     11903     11895     11898     11901     11904
     11896     11895     11898     11899     11896     11895     11898     11900
     11896     11895     11898     11901     11897     11895     11898     11899
     11897     11895     11898     11900     11897     11895     11898     11901
     11898     11901     11904     11905     11898     11901     11904     11906
     11898     11901     11904     11907     11899     11898     11901     11902
     11899     11898     11901     11903     11899     11898     11901     11904
     11900     11898     11901     11902     11900     11898     11901     11903
     11900     11898     11901     11904     11901     11904     11907     11908
     11901     11904     11907     11909     11901     11904     11907     11910
     11902     11901     11904     11905     11902     11901     11904     11906
     11902     11901     11904     11907     11903     11901     11904     11905
     11903     11901     11904     11906     11903     11901     11904     11907
     11904     11907     11910     11911     11904     11907     11910     11912
     11904     11907     11910     11913     11905     11904     11907     11908
     11905     11904     11907     11909     11905     11904     11907     11910
     11906     11904     11907     11908     11906     11904     11907     11909
     11906     11904     11907     11910     11907     11910     11913     11914
     11907     11910     11913     11915     11907     11910     11913     11916
     11908     11907     11910     11911     11908     11907     11910     11912
     11908     11907     11910     11913     11909     11907     11910     11911
     11909     11907     11910     11912     11909     11907     11910     11913
     11910     11913     11916     11917     11910     11913     11916     11918
     11910     11913     11916     11919     11911     11910     11913     11914
     11911     11910     11913     11915     11911     11910     11913     11916
     11912     11910     11913     11914     11912     11910     11913     11915
     11912     11910     11913     11916     11913     11916     11919     11920
     11913     11916     11919     11921     11913     11916     11919     11922
     11914     11913     11916     11917     11914     11913     11916     11918
     11914     11913     11916     11919     11915     11913     11916     11917
     11915     11913     11916     11918     11915     11913     11916     11919
     11917     11916     11919     11920     11917     11916     11919     11921
     11917     11916     11919     11922     11918     11916     11919     11920
     11918     11916     11919     11921     11918     11916     11919     11922
     11923     11925     11928     11929     11923     11925     11928     11930
     11923     11925     11928     11931     11924     11923     11925     11926
     11924     11923     11925     11927     11924     11923     11925     11928
     11925     11928     11931     11932     11925     11928     11931     11933
     11925     11928     11931     11934     11926     11925     11928     11929
     11926     11925     11928     11930     11926     11925     11928     11931
     11927     11925     11928     11929     11927     11925     11928     11930
     11927     11925     11928     11931     11928     11931     11934     11935
     11928     11931     11934     11936     11928     11931     11934     11937
     11929     11928     11931     11932     11929     11928     11931     11933
     11929     11928     11931     11934     11930     11928     11931     11932
     11930     11928     11931     11933     11930     11928     11931     11934
     11931     11934     11937     11938     11931     11934     11937     11939
     11931     11934     11937     11940     11932     11931     11934     11935
     11932     11931     11934     11936     11932     11931     11934     11937
     11933     11931     11934     11935     11933     11931     11934     11936
     11933     11931     11934     11937     11934     11937     11940     11941
     11934     11937     11940     11942     11934     11937     11940     11943
     11935     11934     11937     11938     11935     11934     11937     11939
     11935     11934     11937     11940     11936     11934     11937     11938
     11936     11934     11937     11939     11936     11934     11937     11940
     11937     11940     11943     11944     11937     11940     11943     11945
     11937     11940     11943     11946     11938     11937     11940     11941
     11938     11937     11940     11942     11938     11937     11940     11943
     11939     11937     11940     11941     11939     11937     11940     11942
     11939     11937     11940     11943     11940     11943     11946     11947
     11940     11943     11946     11948     11941     11940     11943     11944
     11941     11940     11943     11945     11941     11940     11943     11946
     11942     11940     11943     11944     11942     11940     11943     11945
     11942     11940     11943     11946     11943     11946     11948     11949
     11943     11946     11948     11950     11944     11943     11946     11947
     11944     11943     11946     11948     11945     11943     11946     11947
     11945     11943     11946     11948     11946     11948     11950     11951
     11946     11948     11950     11952     11946     11948     11950     11953
     11947     11946     11948     11949     11947     11946     11948     11950
     11948     11950     11953     11954     11948     11950     11953     11955
     11948     11950     11953     11956     11949     11948     11950     11951
     11949     11948     11950     11952     11949     11948     11950     11953
     11950     11953     11956     11957     11950     11953     11956     11958
     11950     11953     11956     11959     11951     11950     11953     11954
     11951     11950     11953     11955     11951     11950     11953     11956
     11952     11950     11953     11954     11952     11950     11953     11955
     11952     11950     11953     11956     11953     11956     11959     11960
     11953     11956     11959     11961     11953     11956     11959     11962
     11954     11953     11956     11957     11954     11953     11956     11958
     11954     11953     11956     11959     11955     11953     11956     11957
     11955     11953     11956     11958     11955     11953     11956     11959
     11956     11959     11962     11963     11956     11959     11962     11964
     11956     11959     11962     11965     11957     11956     11959     11960
     11957     11956     11959     11961     11957     11956     11959     11962
     11958     11956     11959     11960     11958     11956     11959     11961
     11958     11956     11959     11962     11959     11962     11965     11966
     11959     11962     11965     11967     11959     11962     11965     11968
     11960     11959     11962     11963     11960     11959     11962     11964
     11960     11959     11962     11965     11961     11959     11962     11963
     11961     11959     11962     11964     11961     11959     11962     11965
     11962     11965     11968     11969     11962     11965     11968     11970
     11962     11965     11968     11971     11963     11962     11965     11966
     11963     11962     11965     11967     11963     11962     11965     11968
     11964     11962     11965     11966     11964     11962     11965     11967
     11964     11962     11965     11968     11965     11968     11971     11972
     11965     11968     11971     11973     11965     11968     11971     11974
     11966     11965     11968     11969     11966     11965     11968     11970
     11966     11965     11968     11971     11967     11965     11968     11969
     11967     11965     11968     11970     11967     11965     11968     11971
     11969     11968     11971     11972     11969     11968     11971     11973
     11969     11968     11971     11974     11970     11968     11971     11972
     11970     11968     11971     11973     11970     11968     11971     11974
       815       819       822       823       815       819       822       853
       815       861       858       853       815       861       858       859
       815       861       858       860       816       815       817       818
       816       815       819       820       816       815       819       821
       816       815       819       822       816       815       861       858
       816       815       861       862       816       815       861       863
       817       815       819       820       817       815       819       821
       817       815       819       822       817       815       861       858
       817       815       861       862       817       815       861       863
       818       817       815       819       818       817       815       861
       819       815       861       858       819       815       861       862
       819       815       861       863       819       822       823       824
       819       822       823       825       819       822       853       851
       819       822       853       854       819       822       853       858
       820       819       815       861       820       819       822       823
       820       819       822       853       821       819       815       861
       821       819       822       823       821       819       822       853
       822       819       815       861       822       823       825       826
       822       823       825       827       822       823       825       828
       822       853       851       828       822       853       851       848
       822       853       851       852       822       853       854       855
       822       853       854       856       822       853       854       857
       822       853       858       859       822       853       858       860
       822       853       858       861       823       822       853       851
       823       822       853       854       823       822       853       858
       823       825       828       829       823       825       828       830
       823       825       828       851       824       823       822       853
       824       823       825       826       824       823       825       827
       824       823       825       828       825       823       822       853
       825       828       830       831       825       828       830       832
       825       828       830       840       825       828       851       848
       825       828       851       852       825       828       851       853
       826       825       828       829       826       825       828       830
       826       825       828       851       827       825       828       829
       827       825       828       830       827       825       828       851
       828       830       832       833       828       830       832       834
       828       830       832       835       828       830       840       838
       828       830       840       841       828       830       840       845
       828       851       848       845       828       851       848       849
       828       851       848       850       828       851       853       854
       828       851       853       858       829       828       830       831
       829       828       830       832       829       828       830       840
       829       828       851       848       829       828       851       852
       829       828       851       853       830       828       851       848
       830       828       851       852       830       828       851       853
       830       832       835       836       830       832       835       837
       830       832       835       838       830       840       838       835
       830       840       838       839       830       840       838       864
       830       840       841       842       830       840       841       843
       830       840       841       844       830       840       845       846
       830       840       845       847       830       840       845       848
       831       830       828       851       831       830       832       833
       831       830       832       834       831       830       832       835
       831       830       840       838       831       830       840       841
       831       830       840       845       832       830       828       851
       832       830       840       838       832       830       840       841
       832       830       840       845       832       835       838       839
       832       835       838       840       832       835       838       864
       833       832       830       840       833       832       835       836
       833       832       835       837       833       832       835       838
       834       832       830       840       834       832       835       836
       834       832       835       837       834       832       835       838
       835       832       830       840       835       838       840       841
       835       838       840       845       835       838       864       865
       835       838       864       866       835       838       864       870
       836       835       838       839       836       835       838       840
       836       835       838       864       837       835       838       839
       837       835       838       840       837       835       838       864
       838       840       841       842       838       840       841       843
       838       840       841       844       838       840       845       846
       838       840       845       847       838       840       845       848
       838       864       866       867       838       864       866       868
       838       864       866       869       838       864       870       871
       838       864       870       872       838       864       870       873
       839       838       840       841       839       838       840       845
       839       838       864       865       839       838       864       866
       839       838       864       870       840       830       828       851
       840       838       864       865       840       838       864       866
       840       838       864       870       840       845       848       849
       840       845       848       850       840       845       848       851
       841       840       838       864       841       840       845       846
       841       840       845       847       841       840       845       848
       842       841       840       845       843       841       840       845
       844       841       840       845       845       840       838       864
       845       848       851       852       845       848       851       853
       846       845       848       849       846       845       848       850
       846       845       848       851       847       845       848       849
       847       845       848       850       847       845       848       851
       848       851       853       854       848       851       853       858
       849       848       851       852       849       848       851       853
       850       848       851       852       850       848       851       853
       851       853       854       855       851       853       854       856
       851       853       854       857       851       853       858       859
       851       853       858       860       851       853       858       861
       852       851       853       854       852       851       853       858
       853       858       861       862       853       858       861       863
       854       853       858       859       854       853       858       860
       854       853       858       861       855       854       853       858
       856       854       853       858       857       854       853       858
       859       858       861       862       859       858       861       863
       860       858       861       862       860       858       861       863
       864       870       873       874       864       870       873       875
       864       870       873       876       865       864       866       867
       865       864       866       868       865       864       866       869
       865       864       870       871       865       864       870       872
       865       864       870       873       866       864       870       871
       866       864       870       872       866       864       870       873
       867       866       864       870       868       866       864       870
       869       866       864       870       870       873       876       877
       870       873       876       878       870       873       876       879
       871       870       873       874       871       870       873       875
       871       870       873       876       872       870       873       874
       872       870       873       875       872       870       873       876
       873       876       879       880       873       876       879       881
       873       876       879       885       874       873       876       877
       874       873       876       878       874       873       876       879
       875       873       876       877       875       873       876       878
       875       873       876       879       876       879       881       882
       876       879       881       883       876       879       881       884
       876       879       885       886       876       879       885       887
       876       879       885       888       877       876       879       880
       877       876       879       881       877       876       879       885
       878       876       879       880       878       876       879       881
       878       876       879       885       880       879       881       882
       880       879       881       883       880       879       881       884
       880       879       885       886       880       879       885       887
       880       879       885       888       881       879       885       886
       881       879       885       887       881       879       885       888
       882       881       879       885       883       881       879       885
       884       881       879       885       889       893       896       897
       889       893       896       927       889       935       932       927
       889       935       932       933       889       935       932       934
       890       889       891       892       890       889       893       894
       890       889       893       895       890       889       893       896
       890       889       935       932       890       889       935       936
       890       889       935       937       891       889       893       894
       891       889       893       895       891       889       893       896
       891       889       935       932       891       889       935       936
       891       889       935       937       892       891       889       893
       892       891       889       935       893       889       935       932
       893       889       935       936       893       889       935       937
       893       896       897       898       893       896       897       899
       893       896       927       925       893       896       927       928
       893       896       927       932       894       893       889       935
       894       893       896       897       894       893       896       927
       895       893       889       935       895       893       896       897
       895       893       896       927       896       893       889       935
       896       897       899       900       896       897       899       901
       896       897       899       902       896       927       925       902
       896       927       925       922       896       927       925       926
       896       927       928       929       896       927       928       930
       896       927       928       931       896       927       932       933
       896       927       932       934       896       927       932       935
       897       896       927       925       897       896       927       928
       897       896       927       932       897       899       902       903
       897       899       902       904       897       899       902       925
       898       897       896       927       898       897       899       900
       898       897       899       901       898       897       899       902
       899       897       896       927       899       902       904       905
       899       902       904       906       899       902       904       914
       899       902       925       922       899       902       925       926
       899       902       925       927       900       899       902       903
       900       899       902       904       900       899       902       925
       901       899       902       903       901       899       902       904
       901       899       902       925       902       904       906       907
       902       904       906       908       902       904       906       909
       902       904       914       912       902       904       914       915
       902       904       914       919       902       925       922       919
       902       925       922       923       902       925       922       924
       902       925       927       928       902       925       927       932
       903       902       904       905       903       902       904       906
       903       902       904       914       903       902       925       922
       903       902       925       926       903       902       925       927
       904       902       925       922       904       902       925       926
       904       902       925       927       904       906       909       910
       904       906       909       911       904       906       909       912
       904       914       912       909       904       914       912       913
       904       914       912       938       904       914       915       916
       904       914       915       917       904       914       915       918
       904       914       919       920       904       914       919       921
       904       914       919       922       905       904       902       925
       905       904       906       907       905       904       906       908
       905       904       906       909       905       904       914       912
       905       904       914       915       905       904       914       919
       906       904       902       925       906       904       914       912
       906       904       914       915       906       904       914       919
       906       909       912       913       906       909       912       914
       906       909       912       938       907       906       904       914
       907       906       909       910       907       906       909       911
       907       906       909       912       908       906       904       914
       908       906       909       910       908       906       909       911
       908       906       909       912       909       906       904       914
       909       912       914       915       909       912       914       919
       909       912       938       939       909       912       938       940
       909       912       938       944       910       909       912       913
       910       909       912       914       910       909       912       938
       911       909       912       913       911       909       912       914
       911       909       912       938       912       914       915       916
       912       914       915       917       912       914       915       918
       912       914       919       920       912       914       919       921
       912       914       919       922       912       938       940       941
       912       938       940       942       912       938       940       943
       912       938       944       945       912       938       944       946
       912       938       944       947       913       912       914       915
       913       912       914       919       913       912       938       939
       913       912       938       940       913       912       938       944
       914       904       902       925       914       912       938       939
       914       912       938       940       914       912       938       944
       914       919       922       923       914       919       922       924
       914       919       922       925       915       914       912       938
       915       914       919       920       915       914       919       921
       915       914       919       922       916       915       914       919
       917       915       914       919       918       915       914       919
       919       914       912       938       919       922       925       926
       919       922       925       927       920       919       922       923
       920       919       922       924       920       919       922       925
       921       919       922       923       921       919       922       924
       921       919       922       925       922       925       927       928
       922       925       927       932       923       922       925       926
       923       922       925       927       924       922       925       926
       924       922       925       927       925       927       928       929
       925       927       928       930       925       927       928       931
       925       927       932       933       925       927       932       934
       925       927       932       935       926       925       927       928
       926       925       927       932       927       932       935       936
       927       932       935       937       928       927       932       933
       928       927       932       934       928       927       932       935
       929       928       927       932       930       928       927       932
       931       928       927       932       933       932       935       936
       933       932       935       937       934       932       935       936
       934       932       935       937       938       944       947       948
       938       944       947       949       938       944       947       950
       939       938       940       941       939       938       940       942
       939       938       940       943       939       938       944       945
       939       938       944       946       939       938       944       947
       940       938       944       945       940       938       944       946
       940       938       944       947       941       940       938       944
       942       940       938       944       943       940       938       944
       944       947       950       951       944       947       950       952
       944       947       950       953       945       944       947       948
       945       944       947       949       945       944       947       950
       946       944       947       948       946       944       947       949
       946       944       947       950       947       950       953       954
       947       950       953       955       947       950       953       959
       948       947       950       951       948       947       950       952
       948       947       950       953       949       947       950       951
       949       947       950       952       949       947       950       953
       950       953       955       956       950       953       955       957
       950       953       955       958       950       953       959       960
       950       953       959       961       950       953       959       962
       951       950       953       954       951       950       953       955
       951       950       953       959       952       950       953       954
       952       950       953       955       952       950       953       959
       954       953       955       956       954       953       955       957
       954       953       955       958       954       953       959       960
       954       953       959       961       954       953       959       962
       955       953       959       960       955       953       959       961
       955       953       959       962       956       955       953       959
       957       955       953       959       958       955       953       959
       963       967       970       971       963       967       970      1001
       963      1009      1006      1001       963      1009      1006      1007
       963      1009      1006      1008       964       963       965       966
       964       963       967       968       964       963       967       969
       964       963       967       970       964       963      1009      1006
       964       963      1009      1010       964       963      1009      1011
       965       963       967       968       965       963       967       969
       965       963       967       970       965       963      1009      1006
       965       963      1009      1010       965       963      1009      1011
       966       965       963       967       966       965       963      1009
       967       963      1009      1006       967       963      1009      1010
       967       963      1009      1011       967       970       971       972
       967       970       971       973       967       970      1001       999
       967       970      1001      1002       967       970      1001      1006
       968       967       963      1009       968       967       970       971
       968       967       970      1001       969       967       963      1009
       969       967       970       971       969       967       970      1001
       970       967       963      1009       970       971       973       974
       970       971       973       975       970       971       973       976
       970      1001       999       976       970      1001       999       996
       970      1001       999      1000       970      1001      1002      1003
       970      1001      1002      1004       970      1001      1002      1005
       970      1001      1006      1007       970      1001      1006      1008
       970      1001      1006      1009       971       970      1001       999
       971       970      1001      1002       971       970      1001      1006
       971       973       976       977       971       973       976       978
       971       973       976       999       972       971       970      1001
       972       971       973       974       972       971       973       975
       972       971       973       976       973       971       970      1001
       973       976       978       979       973       976       978       980
       973       976       978       988       973       976       999       996
       973       976       999      1000       973       976       999      1001
       974       973       976       977       974       973       976       978
       974       973       976       999       975       973       976       977
       975       973       976       978       975       973       976       999
       976       978       980       981       976       978       980       982
       976       978       980       983       976       978       988       986
       976       978       988       989       976       978       988       993
       976       999       996       993       976       999       996       997
       976       999       996       998       976       999      1001      1002
       976       999      1001      1006       977       976       978       979
       977       976       978       980       977       976       978       988
       977       976       999       996       977       976       999      1000
       977       976       999      1001       978       976       999       996
       978       976       999      1000       978       976       999      1001
       978       980       983       984       978       980       983       985
       978       980       983       986       978       988       986       983
       978       988       986       987       978       988       986      1012
       978       988       989       990       978       988       989       991
       978       988       989       992       978       988       993       994
       978       988       993       995       978       988       993       996
       979       978       976       999       979       978       980       981
       979       978       980       982       979       978       980       983
       979       978       988       986       979       978       988       989
       979       978       988       993       980       978       976       999
       980       978       988       986       980       978       988       989
       980       978       988       993       980       983       986       987
       980       983       986       988       980       983       986      1012
       981       980       978       988       981       980       983       984
       981       980       983       985       981       980       983       986
       982       980       978       988       982       980       983       984
       982       980       983       985       982       980       983       986
       983       980       978       988       983       986       988       989
       983       986       988       993       983       986      1012      1013
       983       986      1012      1014       983       986      1012      1018
       984       983       986       987       984       983       986       988
       984       983       986      1012       985       983       986       987
       985       983       986       988       985       983       986      1012
       986       988       989       990       986       988       989       991
       986       988       989       992       986       988       993       994
       986       988       993       995       986       988       993       996
       986      1012      1014      1015       986      1012      1014      1016
       986      1012      1014      1017       986      1012      1018      1019
       986      1012      1018      1020       986      1012      1018      1021
       987       986       988       989       987       986       988       993
       987       986      1012      1013       987       986      1012      1014
       987       986      1012      1018       988       978       976       999
       988       986      1012      1013       988       986      1012      1014
       988       986      1012      1018       988       993       996       997
       988       993       996       998       988       993       996       999
       989       988       986      1012       989       988       993       994
       989       988       993       995       989       988       993       996
       990       989       988       993       991       989       988       993
       992       989       988       993       993       988       986      1012
       993       996       999      1000       993       996       999      1001
       994       993       996       997       994       993       996       998
       994       993       996       999       995       993       996       997
       995       993       996       998       995       993       996       999
       996       999      1001      1002       996       999      1001      1006
       997       996       999      1000       997       996       999      1001
       998       996       999      1000       998       996       999      1001
       999      1001      1002      1003       999      1001      1002      1004
       999      1001      1002      1005       999      1001      1006      1007
       999      1001      1006      1008       999      1001      1006      1009
      1000       999      1001      1002      1000       999      1001      1006
      1001      1006      1009      1010      1001      1006      1009      1011
      1002      1001      1006      1007      1002      1001      1006      1008
      1002      1001      1006      1009      1003      1002      1001      1006
      1004      1002      1001      1006      1005      1002      1001      1006
      1007      1006      1009      1010      1007      1006      1009      1011
      1008      1006      1009      1010      1008      1006      1009      1011
      1012      1018      1021      1022      1012      1018      1021      1023
      1012      1018      1021      1024      1013      1012      1014      1015
      1013      1012      1014      1016      1013      1012      1014      1017
      1013      1012      1018      1019      1013      1012      1018      1020
      1013      1012      1018      1021      1014      1012      1018      1019
      1014      1012      1018      1020      1014      1012      1018      1021
      1015      1014      1012      1018      1016      1014      1012      1018
      1017      1014      1012      1018      1018      1021      1024      1025
      1018      1021      1024      1026      1018      1021      1024      1027
      1019      1018      1021      1022      1019      1018      1021      1023
      1019      1018      1021      1024      1020      1018      1021      1022
      1020      1018      1021      1023      1020      1018      1021      1024
      1021      1024      1027      1028      1021      1024      1027      1029
      1021      1024      1027      1033      1022      1021      1024      1025
      1022      1021      1024      1026      1022      1021      1024      1027
      1023      1021      1024      1025      1023      1021      1024      1026
      1023      1021      1024      1027      1024      1027      1029      1030
      1024      1027      1029      1031      1024      1027      1029      1032
      1024      1027      1033      1034      1024      1027      1033      1035
      1024      1027      1033      1036      1025      1024      1027      1028
      1025      1024      1027      1029      1025      1024      1027      1033
      1026      1024      1027      1028      1026      1024      1027      1029
      1026      1024      1027      1033      1028      1027      1029      1030
      1028      1027      1029      1031      1028      1027      1029      1032
      1028      1027      1033      1034      1028      1027      1033      1035
      1028      1027      1033      1036      1029      1027      1033      1034
      1029      1027      1033      1035      1029      1027      1033      1036
      1030      1029      1027      1033      1031      1029      1027      1033
      1032      1029      1027      1033     21851     21852     21867     21868
     21851     21852     21867     21869     21851     21852     21867     21873
     21852     21851     21855     21856     21852     21851     21855     21857
     21852     21851     21855     21858     21852     21851     21859     21860
     21852     21851     21859     21861     21852     21851     21859     21862
     21852     21851     21863     21864     21852     21851     21863     21865
     21852     21851     21863     21866     21852     21867     21873     21870
     21853     21852     21851     21855     21853     21852     21851     21859
     21853     21852     21851     21863     21853     21852     21867     21868
     21853     21852     21867     21869     21853     21852     21867     21873
     21854     21852     21851     21855     21854     21852     21851     21859
     21854     21852     21851     21863     21854     21852     21867     21868
     21854     21852     21867     21869     21854     21852     21867     21873
     21855     21851     21852     21867     21855     21851     21859     21860
     21855     21851     21859     21861     21855     21851     21859     21862
     21855     21851     21863     21864     21855     21851     21863     21865
     21855     21851     21863     21866     21856     21855     21851     21859
     21856     21855     21851     21863     21857     21855     21851     21859
     21857     21855     21851     21863     21858     21855     21851     21859
     21858     21855     21851     21863     21859     21851     21852     21867
     21859     21851     21863     21864     21859     21851     21863     21865
     21859     21851     21863     21866     21860     21859     21851     21863
     21861     21859     21851     21863     21862     21859     21851     21863
     21863     21851     21852     21867     21867     21873     21870     21871
     21867     21873     21870     21872     21867     21873     21870     21874
     21868     21867     21873     21870     21869     21867     21873     21870
     21870     21874     21875     21876     21870     21874     21875     21877
     21870     21874     21875     21878     21871     21870     21874     21875
     21872     21870     21874     21875     21873     21870     21874     21875
     21874     21875     21878     21879     21874     21875     21878     21880
     21874     21875     21878     21886     21875     21878     21880     21881
     21875     21878     21886     21887     21875     21878     21886     21888
     21875     21878     21886     21889     21876     21875     21878     21879
     21876     21875     21878     21880     21876     21875     21878     21886
     21877     21875     21878     21879     21877     21875     21878     21880
     21877     21875     21878     21886     21878     21880     21881     21882
     21878     21880     21881     21883     21878     21886     21889     21890
     21879     21878     21880     21881     21879     21878     21886     21887
     21879     21878     21886     21888     21879     21878     21886     21889
     21880     21878     21886     21887     21880     21878     21886     21888
     21880     21878     21886     21889     21880     21881     21883     21884
     21880     21881     21883     21885     21880     21881     21883     21895
     21881     21880     21878     21886     21881     21883     21895     21896
     21881     21883     21895     21897     21881     21883     21895     21898
     21882     21881     21883     21884     21882     21881     21883     21885
     21882     21881     21883     21895     21883     21895     21898     21899
     21883     21895     21898     21900     21883     21895     21898     21901
     21884     21883     21895     21896     21884     21883     21895     21897
     21884     21883     21895     21898     21885     21883     21895     21896
     21885     21883     21895     21897     21885     21883     21895     21898
     21886     21889     21890     21891     21886     21889     21890     21892
     21887     21886     21889     21890     21888     21886     21889     21890
     21889     21890     21892     21893     21889     21890     21892     21894
     21889     21890     21892     21942     21890     21892     21942     21943
     21890     21892     21942     21944     21890     21892     21942     21945
     21891     21890     21892     21893     21891     21890     21892     21894
     21891     21890     21892     21942     21892     21942     21945     21946
     21892     21942     21945     21947     21892     21942     21945     21948
     21893     21892     21942     21943     21893     21892     21942     21944
     21893     21892     21942     21945     21894     21892     21942     21943
     21894     21892     21942     21944     21894     21892     21942     21945
     21895     21898     21901     21902     21895     21898     21901     21903
     21895     21898     21901     21904     21896     21895     21898     21899
     21896     21895     21898     21900     21896     21895     21898     21901
     21897     21895     21898     21899     21897     21895     21898     21900
     21897     21895     21898     21901     21898     21901     21904     21905
     21898     21901     21904     21906     21898     21901     21904     21907
     21899     21898     21901     21902     21899     21898     21901     21903
     21899     21898     21901     21904     21900     21898     21901     21902
     21900     21898     21901     21903     21900     21898     21901     21904
     21901     21904     21907     21908     21901     21904     21907     21909
     21901     21904     21907     21910     21902     21901     21904     21905
     21902     21901     21904     21906     21902     21901     21904     21907
     21903     21901     21904     21905     21903     21901     21904     21906
     21903     21901     21904     21907     21904     21907     21910     21911
     21904     21907     21910     21912     21904     21907     21910     21913
     21905     21904     21907     21908     21905     21904     21907     21909
     21905     21904     21907     21910     21906     21904     21907     21908
     21906     21904     21907     21909     21906     21904     21907     21910
     21907     21910     21913     21914     21907     21910     21913     21915
     21908     21907     21910     21911     21908     21907     21910     21912
     21908     21907     21910     21913     21909     21907     21910     21911
     21909     21907     21910     21912     21909     21907     21910     21913
     21910     21913     21915     21916     21910     21913     21915     21917
     21911     21910     21913     21914     21911     21910     21913     21915
     21912     21910     21913     21914     21912     21910     21913     21915
     21913     21915     21917     21918     21913     21915     21917     21919
     21913     21915     21917     21920     21914     21913     21915     21916
     21914     21913     21915     21917     21915     21917     21920     21921
     21915     21917     21920     21922     21915     21917     21920     21923
     21916     21915     21917     21918     21916     21915     21917     21919
     21916     21915     21917     21920     21917     21920     21923     21924
     21917     21920     21923     21925     21917     21920     21923     21926
     21918     21917     21920     21921     21918     21917     21920     21922
     21918     21917     21920     21923     21919     21917     21920     21921
     21919     21917     21920     21922     21919     21917     21920     21923
     21920     21923     21926     21927     21920     21923     21926     21928
     21920     21923     21926     21929     21921     21920     21923     21924
     21921     21920     21923     21925     21921     21920     21923     21926
     21922     21920     21923     21924     21922     21920     21923     21925
     21922     21920     21923     21926     21923     21926     21929     21930
     21923     21926     21929     21931     21923     21926     21929     21932
     21924     21923     21926     21927     21924     21923     21926     21928
     21924     21923     21926     21929     21925     21923     21926     21927
     21925     21923     21926     21928     21925     21923     21926     21929
     21926     21929     21932     21933     21926     21929     21932     21934
     21926     21929     21932     21935     21927     21926     21929     21930
     21927     21926     21929     21931     21927     21926     21929     21932
     21928     21926     21929     21930     21928     21926     21929     21931
     21928     21926     21929     21932     21929     21932     21935     21936
     21929     21932     21935     21937     21929     21932     21935     21938
     21930     21929     21932     21933     21930     21929     21932     21934
     21930     21929     21932     21935     21931     21929     21932     21933
     21931     21929     21932     21934     21931     21929     21932     21935
     21932     21935     21938     21939     21932     21935     21938     21940
     21932     21935     21938     21941     21933     21932     21935     21936
     21933     21932     21935     21937     21933     21932     21935     21938
     21934     21932     21935     21936     21934     21932     21935     21937
     21934     21932     21935     21938     21936     21935     21938     21939
     21936     21935     21938     21940     21936     21935     21938     21941
     21937     21935     21938     21939     21937     21935     21938     21940
     21937     21935     21938     21941     21942     21945     21948     21949
     21942     21945     21948     21950     21942     21945     21948     21951
     21943     21942     21945     21946     21943     21942     21945     21947
     21943     21942     21945     21948     21944     21942     21945     21946
     21944     21942     21945     21947     21944     21942     21945     21948
     21945     21948     21951     21952     21945     21948     21951     21953
     21945     21948     21951     21954     21946     21945     21948     21949
     21946     21945     21948     21950     21946     21945     21948     21951
     21947     21945     21948     21949     21947     21945     21948     21950
     21947     21945     21948     21951     21948     21951     21954     21955
     21948     21951     21954     21956     21948     21951     21954     21957
     21949     21948     21951     21952     21949     21948     21951     21953
     21949     21948     21951     21954     21950     21948     21951     21952
     21950     21948     21951     21953     21950     21948     21951     21954
     21951     21954     21957     21958     21951     21954     21957     21959
     21951     21954     21957     21960     21952     21951     21954     21955
     21952     21951     21954     21956     21952     21951     21954     21957
     21953     21951     21954     21955     21953     21951     21954     21956
     21953     21951     21954     21957     21954     21957     21960     21961
     21954     21957     21960     21962     21954     21957     21960     21963
     21955     21954     21957     21958     21955     21954     21957     21959
     21955     21954     21957     21960     21956     21954     21957     21958
     21956     21954     21957     21959     21956     21954     21957     21960
     21957     21960     21963     21964     21957     21960     21963     21965
     21957     21960     21963     21966     21958     21957     21960     21961
     21958     21957     21960     21962     21958     21957     21960     21963
     21959     21957     21960     21961     21959     21957     21960     21962
     21959     21957     21960     21963     21960     21963     21966     21967
     21960     21963     21966     21968     21960     21963     21966     21969
     21961     21960     21963     21964     21961     21960     21963     21965
     21961     21960     21963     21966     21962     21960     21963     21964
     21962     21960     21963     21965     21962     21960     21963     21966
     21963     21966     21969     21970     21963     21966     21969     21971
     21963     21966     21969     21972     21964     21963     21966     21967
     21964     21963     21966     21968     21964     21963     21966     21969
     21965     21963     21966     21967     21965     21963     21966     21968
     21965     21963     21966     21969     21966     21969     21972     21973
     21966     21969     21972     21974     21966     21969     21972     21975
     21967     21966     21969     21970     21967     21966     21969     21971
     21967     21966     21969     21972     21968     21966     21969     21970
     21968     21966     21969     21971     21968     21966     21969     21972
     21969     21972     21975     21976     21969     21972     21975     21977
     21969     21972     21975     21978     21970     21969     21972     21973
     21970     21969     21972     21974     21970     21969     21972     21975
     21971     21969     21972     21973     21971     21969     21972     21974
     21971     21969     21972     21975     21972     21975     21978     21979
     21972     21975     21978     21980     21972     21975     21978     21981
     21973     21972     21975     21976     21973     21972     21975     21977
     21973     21972     21975     21978     21974     21972     21975     21976
     21974     21972     21975     21977     21974     21972     21975     21978
     21975     21978     21981     21982     21975     21978     21981     21983
     21975     21978     21981     21984     21976     21975     21978     21979
     21976     21975     21978     21980     21976     21975     21978     21981
     21977     21975     21978     21979     21977     21975     21978     21980
     21977     21975     21978     21981     21979     21978     21981     21982
     21979     21978     21981     21983     21979     21978     21981     21984
     21980     21978     21981     21982     21980     21978     21981     21983
     21980     21978     21981     21984      1037      1041      1044      1045
      1037      1041      1044      1075      1037      1083      1080      1075
      1037      1083      1080      1081      1037      1083      1080      1082
      1038      1037      1039      1040      1038      1037      1041      1042
      1038      1037      1041      1043      1038      1037      1041      1044
      1038      1037      1083      1080      1038      1037      1083      1084
      1038      1037      1083      1085      1039      1037      1041      1042
      1039      1037      1041      1043      1039      1037      1041      1044
      1039      1037      1083      1080      1039      1037      1083      1084
      1039      1037      1083      1085      1040      1039      1037      1041
      1040      1039      1037      1083      1041      1037      1083      1080
      1041      1037      1083      1084      1041      1037      1083      1085
      1041      1044      1045      1046      1041      1044      1045      1047
      1041      1044      1075      1073      1041      1044      1075      1076
      1041      1044      1075      1080      1042      1041      1037      1083
      1042      1041      1044      1045      1042      1041      1044      1075
      1043      1041      1037      1083      1043      1041      1044      1045
      1043      1041      1044      1075      1044      1041      1037      1083
      1044      1045      1047      1048      1044      1045      1047      1049
      1044      1045      1047      1050      1044      1075      1073      1050
      1044      1075      1073      1070      1044      1075      1073      1074
      1044      1075      1076      1077      1044      1075      1076      1078
      1044      1075      1076      1079      1044      1075      1080      1081
      1044      1075      1080      1082      1044      1075      1080      1083
      1045      1044      1075      1073      1045      1044      1075      1076
      1045      1044      1075      1080      1045      1047      1050      1051
      1045      1047      1050      1052      1045      1047      1050      1073
      1046      1045      1044      1075      1046      1045      1047      1048
      1046      1045      1047      1049      1046      1045      1047      1050
      1047      1045      1044      1075      1047      1050      1052      1053
      1047      1050      1052      1054      1047      1050      1052      1062
      1047      1050      1073      1070      1047      1050      1073      1074
      1047      1050      1073      1075      1048      1047      1050      1051
      1048      1047      1050      1052      1048      1047      1050      1073
      1049      1047      1050      1051      1049      1047      1050      1052
      1049      1047      1050      1073      1050      1052      1054      1055
      1050      1052      1054      1056      1050      1052      1054      1057
      1050      1052      1062      1060      1050      1052      1062      1063
      1050      1052      1062      1067      1050      1073      1070      1067
      1050      1073      1070      1071      1050      1073      1070      1072
      1050      1073      1075      1076      1050      1073      1075      1080
      1051      1050      1052      1053      1051      1050      1052      1054
      1051      1050      1052      1062      1051      1050      1073      1070
      1051      1050      1073      1074      1051      1050      1073      1075
      1052      1050      1073      1070      1052      1050      1073      1074
      1052      1050      1073      1075      1052      1054      1057      1058
      1052      1054      1057      1059      1052      1054      1057      1060
      1052      1062      1060      1057      1052      1062      1060      1061
      1052      1062      1060      1086      1052      1062      1063      1064
      1052      1062      1063      1065      1052      1062      1063      1066
      1052      1062      1067      1068      1052      1062      1067      1069
      1052      1062      1067      1070      1053      1052      1050      1073
      1053      1052      1054      1055      1053      1052      1054      1056
      1053      1052      1054      1057      1053      1052      1062      1060
      1053      1052      1062      1063      1053      1052      1062      1067
      1054      1052      1050      1073      1054      1052      1062      1060
      1054      1052      1062      1063      1054      1052      1062      1067
      1054      1057      1060      1061      1054      1057      1060      1062
      1054      1057      1060      1086      1055      1054      1052      1062
      1055      1054      1057      1058      1055      1054      1057      1059
      1055      1054      1057      1060      1056      1054      1052      1062
      1056      1054      1057      1058      1056      1054      1057      1059
      1056      1054      1057      1060      1057      1054      1052      1062
      1057      1060      1062      1063      1057      1060      1062      1067
      1057      1060      1086      1087      1057      1060      1086      1088
      1057      1060      1086      1092      1058      1057      1060      1061
      1058      1057      1060      1062      1058      1057      1060      1086
      1059      1057      1060      1061      1059      1057      1060      1062
      1059      1057      1060      1086      1060      1062      1063      1064
      1060      1062      1063      1065      1060      1062      1063      1066
      1060      1062      1067      1068      1060      1062      1067      1069
      1060      1062      1067      1070      1060      1086      1088      1089
      1060      1086      1088      1090      1060      1086      1088      1091
      1060      1086      1092      1093      1060      1086      1092      1094
      1060      1086      1092      1095      1061      1060      1062      1063
      1061      1060      1062      1067      1061      1060      1086      1087
      1061      1060      1086      1088      1061      1060      1086      1092
      1062      1052      1050      1073      1062      1060      1086      1087
      1062      1060      1086      1088      1062      1060      1086      1092
      1062      1067      1070      1071      1062      1067      1070      1072
      1062      1067      1070      1073      1063      1062      1060      1086
      1063      1062      1067      1068      1063      1062      1067      1069
      1063      1062      1067      1070      1064      1063      1062      1067
      1065      1063      1062      1067      1066      1063      1062      1067
      1067      1062      1060      1086      1067      1070      1073      1074
      1067      1070      1073      1075      1068      1067      1070      1071
      1068      1067      1070      1072      1068      1067      1070      1073
      1069      1067      1070      1071      1069      1067      1070      1072
      1069      1067      1070      1073      1070      1073      1075      1076
      1070      1073      1075      1080      1071      1070      1073      1074
      1071      1070      1073      1075      1072      1070      1073      1074
      1072      1070      1073      1075      1073      1075      1076      1077
      1073      1075      1076      1078      1073      1075      1076      1079
      1073      1075      1080      1081      1073      1075      1080      1082
      1073      1075      1080      1083      1074      1073      1075      1076
      1074      1073      1075      1080      1075      1080      1083      1084
      1075      1080      1083      1085      1076      1075      1080      1081
      1076      1075      1080      1082      1076      1075      1080      1083
      1077      1076      1075      1080      1078      1076      1075      1080
      1079      1076      1075      1080      1081      1080      1083      1084
      1081      1080      1083      1085      1082      1080      1083      1084
      1082      1080      1083      1085      1086      1092      1095      1096
      1086      1092      1095      1097      1086      1092      1095      1098
      1087      1086      1088      1089      1087      1086      1088      1090
      1087      1086      1088      1091      1087      1086      1092      1093
      1087      1086      1092      1094      1087      1086      1092      1095
      1088      1086      1092      1093      1088      1086      1092      1094
      1088      1086      1092      1095      1089      1088      1086      1092
      1090      1088      1086      1092      1091      1088      1086      1092
      1092      1095      1098      1099      1092      1095      1098      1100
      1092      1095      1098      1101      1093      1092      1095      1096
      1093      1092      1095      1097      1093      1092      1095      1098
      1094      1092      1095      1096      1094      1092      1095      1097
      1094      1092      1095      1098      1095      1098      1101      1102
      1095      1098      1101      1103      1095      1098      1101      1107
      1096      1095      1098      1099      1096      1095      1098      1100
      1096      1095      1098      1101      1097      1095      1098      1099
      1097      1095      1098      1100      1097      1095      1098      1101
      1098      1101      1103      1104      1098      1101      1103      1105
      1098      1101      1103      1106      1098      1101      1107      1108
      1098      1101      1107      1109      1098      1101      1107      1110
      1099      1098      1101      1102      1099      1098      1101      1103
      1099      1098      1101      1107      1100      1098      1101      1102
      1100      1098      1101      1103      1100      1098      1101      1107
      1102      1101      1103      1104      1102      1101      1103      1105
      1102      1101      1103      1106      1102      1101      1107      1108
      1102      1101      1107      1109      1102      1101      1107      1110
      1103      1101      1107      1108      1103      1101      1107      1109
      1103      1101      1107      1110      1104      1103      1101      1107
      1105      1103      1101      1107      1106      1103      1101      1107
     11975     11988     11991     11992     11975     11988     11991     11993
     11975     11988     11991     11998     11976     11975     11980     11981
     11976     11975     11980     11982     11976     11975     11980     11983
     11976     11975     11984     11985     11976     11975     11984     11986
     11976     11975     11984     11987     11976     11975     11988     11989
     11976     11975     11988     11990     11976     11975     11988     11991
     11977     11976     11975     11980     11977     11976     11975     11984
     11977     11976     11975     11988     11978     11976     11975     11980
     11978     11976     11975     11984     11978     11976     11975     11988
     11979     11976     11975     11980     11979     11976     11975     11984
     11979     11976     11975     11988     11980     11975     11984     11985
     11980     11975     11984     11986     11980     11975     11984     11987
     11980     11975     11988     11989     11980     11975     11988     11990
     11980     11975     11988     11991     11981     11980     11975     11984
     11981     11980     11975     11988     11982     11980     11975     11984
     11982     11980     11975     11988     11983     11980     11975     11984
     11983     11980     11975     11988     11984     11975     11988     11989
     11984     11975     11988     11990     11984     11975     11988     11991
     11985     11984     11975     11988     11986     11984     11975     11988
     11987     11984     11975     11988     11988     11991     11998     11994
     11989     11988     11991     11992     11989     11988     11991     11993
     11989     11988     11991     11998     11990     11988     11991     11992
     11990     11988     11991     11993     11990     11988     11991     11998
     11991     11998     11994     11995     11991     11998     11994     11996
     11991     11998     11994     11997     11992     11991     11998     11994
     11993     11991     11998     11994     11994     11997     11999     12000
     11994     11997     11999     12001     11994     11997     11999     12004
     11995     11994     11997     11999     11996     11994     11997     11999
     11997     11999     12004     12002     11997     11999     12004     12005
     11997     11999     12004     12006     11998     11994     11997     11999
     11999     12004     12002     12003     11999     12004     12002     12054
     11999     12004     12006     12007     11999     12004     12006     12008
     11999     12004     12006     12010     12000     11999     12004     12002
     12000     11999     12004     12005     12000     11999     12004     12006
     12001     11999     12004     12002     12001     11999     12004     12005
     12001     11999     12004     12006     12002     12004     12006     12007
     12002     12004     12006     12008     12002     12004     12006     12010
     12002     12054     12056     12057     12002     12054     12056     12058
     12002     12054     12056     12059     12003     12002     12004     12005
     12003     12002     12004     12006     12003     12002     12054     12055
     12003     12002     12054     12056     12004     12002     12054     12055
     12004     12002     12054     12056     12004     12006     12008     12009
     12004     12006     12010     12011     12004     12006     12010     12012
     12005     12004     12002     12054     12005     12004     12006     12007
     12005     12004     12006     12008     12005     12004     12006     12010
     12006     12004     12002     12054     12006     12010     12012     12013
     12006     12010     12012     12014     12007     12006     12008     12009
     12007     12006     12010     12011     12007     12006     12010     12012
     12008     12006     12010     12011     12008     12006     12010     12012
     12009     12008     12006     12010     12010     12012     12014     12015
     12010     12012     12014     12016     12010     12012     12014     12017
     12011     12010     12012     12013     12011     12010     12012     12014
     12012     12014     12017     12018     12012     12014     12017     12019
     12012     12014     12017     12020     12013     12012     12014     12015
     12013     12012     12014     12016     12013     12012     12014     12017
     12014     12017     12020     12021     12014     12017     12020     12022
     12014     12017     12020     12023     12015     12014     12017     12018
     12015     12014     12017     12019     12015     12014     12017     12020
     12016     12014     12017     12018     12016     12014     12017     12019
     12016     12014     12017     12020     12017     12020     12023     12024
     12017     12020     12023     12025     12017     12020     12023     12026
     12018     12017     12020     12021     12018     12017     12020     12022
     12018     12017     12020     12023     12019     12017     12020     12021
     12019     12017     12020     12022     12019     12017     12020     12023
     12020     12023     12026     12027     12020     12023     12026     12028
     12020     12023     12026     12029     12021     12020     12023     12024
     12021     12020     12023     12025     12021     12020     12023     12026
     12022     12020     12023     12024     12022     12020     12023     12025
     12022     12020     12023     12026     12023     12026     12029     12030
     12023     12026     12029     12031     12023     12026     12029     12032
     12024     12023     12026     12027     12024     12023     12026     12028
     12024     12023     12026     12029     12025     12023     12026     12027
     12025     12023     12026     12028     12025     12023     12026     12029
     12026     12029     12032     12033     12026     12029     12032     12034
     12026     12029     12032     12035     12027     12026     12029     12030
     12027     12026     12029     12031     12027     12026     12029     12032
     12028     12026     12029     12030     12028     12026     12029     12031
     12028     12026     12029     12032     12029     12032     12035     12036
     12029     12032     12035     12037     12029     12032     12035     12038
     12030     12029     12032     12033     12030     12029     12032     12034
     12030     12029     12032     12035     12031     12029     12032     12033
     12031     12029     12032     12034     12031     12029     12032     12035
     12032     12035     12038     12039     12032     12035     12038     12040
     12032     12035     12038     12041     12033     12032     12035     12036
     12033     12032     12035     12037     12033     12032     12035     12038
     12034     12032     12035     12036     12034     12032     12035     12037
     12034     12032     12035     12038     12035     12038     12041     12042
     12035     12038     12041     12043     12035     12038     12041     12044
     12036     12035     12038     12039     12036     12035     12038     12040
     12036     12035     12038     12041     12037     12035     12038     12039
     12037     12035     12038     12040     12037     12035     12038     12041
     12038     12041     12044     12045     12038     12041     12044     12046
     12038     12041     12044     12047     12039     12038     12041     12042
     12039     12038     12041     12043     12039     12038     12041     12044
     12040     12038     12041     12042     12040     12038     12041     12043
     12040     12038     12041     12044     12041     12044     12047     12048
     12041     12044     12047     12049     12041     12044     12047     12050
     12042     12041     12044     12045     12042     12041     12044     12046
     12042     12041     12044     12047     12043     12041     12044     12045
     12043     12041     12044     12046     12043     12041     12044     12047
     12044     12047     12050     12051     12044     12047     12050     12052
     12044     12047     12050     12053     12045     12044     12047     12048
     12045     12044     12047     12049     12045     12044     12047     12050
     12046     12044     12047     12048     12046     12044     12047     12049
     12046     12044     12047     12050     12048     12047     12050     12051
     12048     12047     12050     12052     12048     12047     12050     12053
     12049     12047     12050     12051     12049     12047     12050     12052
     12049     12047     12050     12053     12054     12056     12059     12060
     12054     12056     12059     12061     12054     12056     12059     12062
     12055     12054     12056     12057     12055     12054     12056     12058
     12055     12054     12056     12059     12056     12059     12062     12063
     12056     12059     12062     12064     12056     12059     12062     12065
     12057     12056     12059     12060     12057     12056     12059     12061
     12057     12056     12059     12062     12058     12056     12059     12060
     12058     12056     12059     12061     12058     12056     12059     12062
     12059     12062     12065     12066     12059     12062     12065     12067
     12059     12062     12065     12068     12060     12059     12062     12063
     12060     12059     12062     12064     12060     12059     12062     12065
     12061     12059     12062     12063     12061     12059     12062     12064
     12061     12059     12062     12065     12062     12065     12068     12069
     12062     12065     12068     12070     12062     12065     12068     12071
     12063     12062     12065     12066     12063     12062     12065     12067
     12063     12062     12065     12068     12064     12062     12065     12066
     12064     12062     12065     12067     12064     12062     12065     12068
     12065     12068     12071     12072     12065     12068     12071     12073
     12065     12068     12071     12074     12066     12065     12068     12069
     12066     12065     12068     12070     12066     12065     12068     12071
     12067     12065     12068     12069     12067     12065     12068     12070
     12067     12065     12068     12071     12068     12071     12074     12075
     12068     12071     12074     12076     12068     12071     12074     12077
     12069     12068     12071     12072     12069     12068     12071     12073
     12069     12068     12071     12074     12070     12068     12071     12072
     12070     12068     12071     12073     12070     12068     12071     12074
     12071     12074     12077     12078     12071     12074     12077     12079
     12072     12071     12074     12075     12072     12071     12074     12076
     12072     12071     12074     12077     12073     12071     12074     12075
     12073     12071     12074     12076     12073     12071     12074     12077
     12074     12077     12079     12080     12074     12077     12079     12081
     12075     12074     12077     12078     12075     12074     12077     12079
     12076     12074     12077     12078     12076     12074     12077     12079
     12077     12079     12081     12082     12077     12079     12081     12083
     12077     12079     12081     12084     12078     12077     12079     12080
     12078     12077     12079     12081     12079     12081     12084     12085
     12079     12081     12084     12086     12079     12081     12084     12087
     12080     12079     12081     12082     12080     12079     12081     12083
     12080     12079     12081     12084     12081     12084     12087     12088
     12081     12084     12087     12089     12081     12084     12087     12090
     12082     12081     12084     12085     12082     12081     12084     12086
     12082     12081     12084     12087     12083     12081     12084     12085
     12083     12081     12084     12086     12083     12081     12084     12087
     12084     12087     12090     12091     12084     12087     12090     12092
     12084     12087     12090     12093     12085     12084     12087     12088
     12085     12084     12087     12089     12085     12084     12087     12090
     12086     12084     12087     12088     12086     12084     12087     12089
     12086     12084     12087     12090     12087     12090     12093     12094
     12087     12090     12093     12095     12087     12090     12093     12096
     12088     12087     12090     12091     12088     12087     12090     12092
     12088     12087     12090     12093     12089     12087     12090     12091
     12089     12087     12090     12092     12089     12087     12090     12093
     12090     12093     12096     12097     12090     12093     12096     12098
     12090     12093     12096     12099     12091     12090     12093     12094
     12091     12090     12093     12095     12091     12090     12093     12096
     12092     12090     12093     12094     12092     12090     12093     12095
     12092     12090     12093     12096     12093     12096     12099     12100
     12093     12096     12099     12101     12093     12096     12099     12102
     12094     12093     12096     12097     12094     12093     12096     12098
     12094     12093     12096     12099     12095     12093     12096     12097
     12095     12093     12096     12098     12095     12093     12096     12099
     12096     12099     12102     12103     12096     12099     12102     12104
     12096     12099     12102     12105     12097     12096     12099     12100
     12097     12096     12099     12101     12097     12096     12099     12102
     12098     12096     12099     12100     12098     12096     12099     12101
     12098     12096     12099     12102     12100     12099     12102     12103
     12100     12099     12102     12104     12100     12099     12102     12105
     12101     12099     12102     12103     12101     12099     12102     12104
     12101     12099     12102     12105      4425      4426      4441      4442
      4425      4426      4441      4443      4425      4426      4441      4447
      4426      4425      4429      4430      4426      4425      4429      4431
      4426      4425      4429      4432      4426      4425      4433      4434
      4426      4425      4433      4435      4426      4425      4433      4436
      4426      4425      4437      4438      4426      4425      4437      4439
      4426      4425      4437      4440      4426      4441      4447      4444
      4427      4426      4425      4429      4427      4426      4425      4433
      4427      4426      4425      4437      4427      4426      4441      4442
      4427      4426      4441      4443      4427      4426      4441      4447
      4428      4426      4425      4429      4428      4426      4425      4433
      4428      4426      4425      4437      4428      4426      4441      4442
      4428      4426      4441      4443      4428      4426      4441      4447
      4429      4425      4426      4441      4429      4425      4433      4434
      4429      4425      4433      4435      4429      4425      4433      4436
      4429      4425      4437      4438      4429      4425      4437      4439
      4429      4425      4437      4440      4430      4429      4425      4433
      4430      4429      4425      4437      4431      4429      4425      4433
      4431      4429      4425      4437      4432      4429      4425      4433
      4432      4429      4425      4437      4433      4425      4426      4441
      4433      4425      4437      4438      4433      4425      4437      4439
      4433      4425      4437      4440      4434      4433      4425      4437
      4435      4433      4425      4437      4436      4433      4425      4437
      4437      4425      4426      4441      4441      4447      4444      4445
      4441      4447      4444      4446      4441      4447      4444      4448
      4442      4441      4447      4444      4443      4441      4447      4444
      4444      4448      4449      4450      4444      4448      4449      4451
      4444      4448      4449      4452      4445      4444      4448      4449
      4446      4444      4448      4449      4447      4444      4448      4449
      4448      4449      4452      4453      4448      4449      4452      4454
      4448      4449      4452      4460      4449      4452      4454      4455
      4449      4452      4460      4461      4449      4452      4460      4462
      4449      4452      4460      4463      4450      4449      4452      4453
      4450      4449      4452      4454      4450      4449      4452      4460
      4451      4449      4452      4453      4451      4449      4452      4454
      4451      4449      4452      4460      4452      4454      4455      4456
      4452      4454      4455      4457      4452      4460      4463      4464
      4453      4452      4454      4455      4453      4452      4460      4461
      4453      4452      4460      4462      4453      4452      4460      4463
      4454      4452      4460      4461      4454      4452      4460      4462
      4454      4452      4460      4463      4454      4455      4457      4458
      4454      4455      4457      4459      4454      4455      4457      4469
      4455      4454      4452      4460      4455      4457      4469      4470
      4455      4457      4469      4471      4455      4457      4469      4472
      4456      4455      4457      4458      4456      4455      4457      4459
      4456      4455      4457      4469      4457      4469      4472      4473
      4457      4469      4472      4474      4457      4469      4472      4475
      4458      4457      4469      4470      4458      4457      4469      4471
      4458      4457      4469      4472      4459      4457      4469      4470
      4459      4457      4469      4471      4459      4457      4469      4472
      4460      4463      4464      4465      4460      4463      4464      4466
      4461      4460      4463      4464      4462      4460      4463      4464
      4463      4464      4466      4467      4463      4464      4466      4468
      4463      4464      4466      4516      4464      4466      4516      4517
      4464      4466      4516      4518      4464      4466      4516      4519
      4465      4464      4466      4467      4465      4464      4466      4468
      4465      4464      4466      4516      4466      4516      4519      4520
      4466      4516      4519      4521      4466      4516      4519      4522
      4467      4466      4516      4517      4467      4466      4516      4518
      4467      4466      4516      4519      4468      4466      4516      4517
      4468      4466      4516      4518      4468      4466      4516      4519
      4469      4472      4475      4476      4469      4472      4475      4477
      4470      4469      4472      4473      4470      4469      4472      4474
      4470      4469      4472      4475      4471      4469      4472      4473
      4471      4469      4472      4474      4471      4469      4472      4475
      4472      4475      4477      4478      4472      4475      4477      4479
      4473      4472      4475      4476      4473      4472      4475      4477
      4474      4472      4475      4476      4474      4472      4475      4477
      4475      4477      4479      4480      4475      4477      4479      4481
      4475      4477      4479      4482      4476      4475      4477      4478
      4476      4475      4477      4479      4477      4479      4482      4483
      4477      4479      4482      4484      4478      4477      4479      4480
      4478      4477      4479      4481      4478      4477      4479      4482
      4479      4482      4484      4485      4479      4482      4484      4486
      4480      4479      4482      4483      4480      4479      4482      4484
      4481      4479      4482      4483      4481      4479      4482      4484
      4482      4484      4486      4487      4482      4484      4486      4488
      4482      4484      4486      4489      4483      4482      4484      4485
      4483      4482      4484      4486      4484      4486      4489      4490
      4484      4486      4489      4491      4485      4484      4486      4487
      4485      4484      4486      4488      4485      4484      4486      4489
      4486      4489      4491      4492      4486      4489      4491      4493
      4487      4486      4489      4490      4487      4486      4489      4491
      4488      4486      4489      4490      4488      4486      4489      4491
      4489      4491      4493      4494      4489      4491      4493      4495
      4489      4491      4493      4496      4490      4489      4491      4492
      4490      4489      4491      4493      4491      4493      4496      4497
      4491      4493      4496      4498      4492      4491      4493      4494
      4492      4491      4493      4495      4492      4491      4493      4496
      4493      4496      4498      4499      4493      4496      4498      4500
      4494      4493      4496      4497      4494      4493      4496      4498
      4495      4493      4496      4497      4495      4493      4496      4498
      4496      4498      4500      4501      4496      4498      4500      4502
      4496      4498      4500      4503      4497      4496      4498      4499
      4497      4496      4498      4500      4498      4500      4503      4504
      4498      4500      4503      4505      4498      4500      4503      4506
      4499      4498      4500      4501      4499      4498      4500      4502
      4499      4498      4500      4503      4500      4503      4506      4507
      4500      4503      4506      4508      4500      4503      4506      4509
      4501      4500      4503      4504      4501      4500      4503      4505
      4501      4500      4503      4506      4502      4500      4503      4504
      4502      4500      4503      4505      4502      4500      4503      4506
      4503      4506      4509      4510      4503      4506      4509      4511
      4503      4506      4509      4512      4504      4503      4506      4507
      4504      4503      4506      4508      4504      4503      4506      4509
      4505      4503      4506      4507      4505      4503      4506      4508
      4505      4503      4506      4509      4506      4509      4512      4513
      4506      4509      4512      4514      4506      4509      4512      4515
      4507      4506      4509      4510      4507      4506      4509      4511
      4507      4506      4509      4512      4508      4506      4509      4510
      4508      4506      4509      4511      4508      4506      4509      4512
      4510      4509      4512      4513      4510      4509      4512      4514
      4510      4509      4512      4515      4511      4509      4512      4513
      4511      4509      4512      4514      4511      4509      4512      4515
      4516      4519      4522      4523      4516      4519      4522      4524
      4516      4519      4522      4525      4517      4516      4519      4520
      4517      4516      4519      4521      4517      4516      4519      4522
      4518      4516      4519      4520      4518      4516      4519      4521
      4518      4516      4519      4522      4519      4522      4525      4526
      4519      4522      4525      4527      4519      4522      4525      4528
      4520      4519      4522      4523      4520      4519      4522      4524
      4520      4519      4522      4525      4521      4519      4522      4523
      4521      4519      4522      4524      4521      4519      4522      4525
      4522      4525      4528      4529      4522      4525      4528      4530
      4522      4525      4528      4531      4523      4522      4525      4526
      4523      4522      4525      4527      4523      4522      4525      4528
      4524      4522      4525      4526      4524      4522      4525      4527
      4524      4522      4525      4528      4525      4528      4531      4532
      4525      4528      4531      4533      4525      4528      4531      4534
      4526      4525      4528      4529      4526      4525      4528      4530
      4526      4525      4528      4531      4527      4525      4528      4529
      4527      4525      4528      4530      4527      4525      4528      4531
      4528      4531      4534      4535      4528      4531      4534      4536
      4528      4531      4534      4537      4529      4528      4531      4532
      4529      4528      4531      4533      4529      4528      4531      4534
      4530      4528      4531      4532      4530      4528      4531      4533
      4530      4528      4531      4534      4531      4534      4537      4538
      4531      4534      4537      4539      4531      4534      4537      4540
      4532      4531      4534      4535      4532      4531      4534      4536
      4532      4531      4534      4537      4533      4531      4534      4535
      4533      4531      4534      4536      4533      4531      4534      4537
      4534      4537      4540      4541      4534      4537      4540      4542
      4534      4537      4540      4543      4535      4534      4537      4538
      4535      4534      4537      4539      4535      4534      4537      4540
      4536      4534      4537      4538      4536      4534      4537      4539
      4536      4534      4537      4540      4537      4540      4543      4544
      4537      4540      4543      4545      4537      4540      4543      4546
      4538      4537      4540      4541      4538      4537      4540      4542
      4538      4537      4540      4543      4539      4537      4540      4541
      4539      4537      4540      4542      4539      4537      4540      4543
      4540      4543      4546      4547      4540      4543      4546      4548
      4540      4543      4546      4549      4541      4540      4543      4544
      4541      4540      4543      4545      4541      4540      4543      4546
      4542      4540      4543      4544      4542      4540      4543      4545
      4542      4540      4543      4546      4543      4546      4549      4550
      4543      4546      4549      4551      4543      4546      4549      4552
      4544      4543      4546      4547      4544      4543      4546      4548
      4544      4543      4546      4549      4545      4543      4546      4547
      4545      4543      4546      4548      4545      4543      4546      4549
      4546      4549      4552      4553      4546      4549      4552      4554
      4546      4549      4552      4555      4547      4546      4549      4550
      4547      4546      4549      4551      4547      4546      4549      4552
      4548      4546      4549      4550      4548      4546      4549      4551
      4548      4546      4549      4552      4549      4552      4555      4556
      4549      4552      4555      4557      4549      4552      4555      4558
      4550      4549      4552      4553      4550      4549      4552      4554
      4550      4549      4552      4555      4551      4549      4552      4553
      4551      4549      4552      4554      4551      4549      4552      4555
      4552      4555      4558      4559      4552      4555      4558      4560
      4552      4555      4558      4561      4553      4552      4555      4556
      4553      4552      4555      4557      4553      4552      4555      4558
      4554      4552      4555      4556      4554      4552      4555      4557
      4554      4552      4555      4558      4555      4558      4561      4562
      4555      4558      4561      4563      4555      4558      4561      4564
      4556      4555      4558      4559      4556      4555      4558      4560
      4556      4555      4558      4561      4557      4555      4558      4559
      4557      4555      4558      4560      4557      4555      4558      4561
      4559      4558      4561      4562      4559      4558      4561      4563
      4559      4558      4561      4564      4560      4558      4561      4562
      4560      4558      4561      4563      4560      4558      4561      4564
      1111      1115      1118      1119      1111      1115      1118      1149
      1111      1157      1154      1149      1111      1157      1154      1155
      1111      1157      1154      1156      1112      1111      1113      1114
      1112      1111      1115      1116      1112      1111      1115      1117
      1112      1111      1115      1118      1112      1111      1157      1154
      1112      1111      1157      1158      1112      1111      1157      1159
      1113      1111      1115      1116      1113      1111      1115      1117
      1113      1111      1115      1118      1113      1111      1157      1154
      1113      1111      1157      1158      1113      1111      1157      1159
      1114      1113      1111      1115      1114      1113      1111      1157
      1115      1111      1157      1154      1115      1111      1157      1158
      1115      1111      1157      1159      1115      1118      1119      1120
      1115      1118      1119      1121      1115      1118      1149      1147
      1115      1118      1149      1150      1115      1118      1149      1154
      1116      1115      1111      1157      1116      1115      1118      1119
      1116      1115      1118      1149      1117      1115      1111      1157
      1117      1115      1118      1119      1117      1115      1118      1149
      1118      1115      1111      1157      1118      1119      1121      1122
      1118      1119      1121      1123      1118      1119      1121      1124
      1118      1149      1147      1124      1118      1149      1147      1144
      1118      1149      1147      1148      1118      1149      1150      1151
      1118      1149      1150      1152      1118      1149      1150      1153
      1118      1149      1154      1155      1118      1149      1154      1156
      1118      1149      1154      1157      1119      1118      1149      1147
      1119      1118      1149      1150      1119      1118      1149      1154
      1119      1121      1124      1125      1119      1121      1124      1126
      1119      1121      1124      1147      1120      1119      1118      1149
      1120      1119      1121      1122      1120      1119      1121      1123
      1120      1119      1121      1124      1121      1119      1118      1149
      1121      1124      1126      1127      1121      1124      1126      1128
      1121      1124      1126      1136      1121      1124      1147      1144
      1121      1124      1147      1148      1121      1124      1147      1149
      1122      1121      1124      1125      1122      1121      1124      1126
      1122      1121      1124      1147      1123      1121      1124      1125
      1123      1121      1124      1126      1123      1121      1124      1147
      1124      1126      1128      1129      1124      1126      1128      1130
      1124      1126      1128      1131      1124      1126      1136      1134
      1124      1126      1136      1137      1124      1126      1136      1141
      1124      1147      1144      1141      1124      1147      1144      1145
      1124      1147      1144      1146      1124      1147      1149      1150
      1124      1147      1149      1154      1125      1124      1126      1127
      1125      1124      1126      1128      1125      1124      1126      1136
      1125      1124      1147      1144      1125      1124      1147      1148
      1125      1124      1147      1149      1126      1124      1147      1144
      1126      1124      1147      1148      1126      1124      1147      1149
      1126      1128      1131      1132      1126      1128      1131      1133
      1126      1128      1131      1134      1126      1136      1134      1131
      1126      1136      1134      1135      1126      1136      1134      1160
      1126      1136      1137      1138      1126      1136      1137      1139
      1126      1136      1137      1140      1126      1136      1141      1142
      1126      1136      1141      1143      1126      1136      1141      1144
      1127      1126      1124      1147      1127      1126      1128      1129
      1127      1126      1128      1130      1127      1126      1128      1131
      1127      1126      1136      1134      1127      1126      1136      1137
      1127      1126      1136      1141      1128      1126      1124      1147
      1128      1126      1136      1134      1128      1126      1136      1137
      1128      1126      1136      1141      1128      1131      1134      1135
      1128      1131      1134      1136      1128      1131      1134      1160
      1129      1128      1126      1136      1129      1128      1131      1132
      1129      1128      1131      1133      1129      1128      1131      1134
      1130      1128      1126      1136      1130      1128      1131      1132
      1130      1128      1131      1133      1130      1128      1131      1134
      1131      1128      1126      1136      1131      1134      1136      1137
      1131      1134      1136      1141      1131      1134      1160      1161
      1131      1134      1160      1162      1131      1134      1160      1166
      1132      1131      1134      1135      1132      1131      1134      1136
      1132      1131      1134      1160      1133      1131      1134      1135
      1133      1131      1134      1136      1133      1131      1134      1160
      1134      1136      1137      1138      1134      1136      1137      1139
      1134      1136      1137      1140      1134      1136      1141      1142
      1134      1136      1141      1143      1134      1136      1141      1144
      1134      1160      1162      1163      1134      1160      1162      1164
      1134      1160      1162      1165      1134      1160      1166      1167
      1134      1160      1166      1168      1134      1160      1166      1169
      1135      1134      1136      1137      1135      1134      1136      1141
      1135      1134      1160      1161      1135      1134      1160      1162
      1135      1134      1160      1166      1136      1126      1124      1147
      1136      1134      1160      1161      1136      1134      1160      1162
      1136      1134      1160      1166      1136      1141      1144      1145
      1136      1141      1144      1146      1136      1141      1144      1147
      1137      1136      1134      1160      1137      1136      1141      1142
      1137      1136      1141      1143      1137      1136      1141      1144
      1138      1137      1136      1141      1139      1137      1136      1141
      1140      1137      1136      1141      1141      1136      1134      1160
      1141      1144      1147      1148      1141      1144      1147      1149
      1142      1141      1144      1145      1142      1141      1144      1146
      1142      1141      1144      1147      1143      1141      1144      1145
      1143      1141      1144      1146      1143      1141      1144      1147
      1144      1147      1149      1150      1144      1147      1149      1154
      1145      1144      1147      1148      1145      1144      1147      1149
      1146      1144      1147      1148      1146      1144      1147      1149
      1147      1149      1150      1151      1147      1149      1150      1152
      1147      1149      1150      1153      1147      1149      1154      1155
      1147      1149      1154      1156      1147      1149      1154      1157
      1148      1147      1149      1150      1148      1147      1149      1154
      1149      1154      1157      1158      1149      1154      1157      1159
      1150      1149      1154      1155      1150      1149      1154      1156
      1150      1149      1154      1157      1151      1150      1149      1154
      1152      1150      1149      1154      1153      1150      1149      1154
      1155      1154      1157      1158      1155      1154      1157      1159
      1156      1154      1157      1158      1156      1154      1157      1159
      1160      1166      1169      1170      1160      1166      1169      1171
      1160      1166      1169      1172      1161      1160      1162      1163
      1161      1160      1162      1164      1161      1160      1162      1165
      1161      1160      1166      1167      1161      1160      1166      1168
      1161      1160      1166      1169      1162      1160      1166      1167
      1162      1160      1166      1168      1162      1160      1166      1169
      1163      1162      1160      1166      1164      1162      1160      1166
      1165      1162      1160      1166      1166      1169      1172      1173
      1166      1169      1172      1174      1166      1169      1172      1175
      1167      1166      1169      1170      1167      1166      1169      1171
      1167      1166      1169      1172      1168      1166      1169      1170
      1168      1166      1169      1171      1168      1166      1169      1172
      1169      1172      1175      1176      1169      1172      1175      1177
      1169      1172      1175      1181      1170      1169      1172      1173
      1170      1169      1172      1174      1170      1169      1172      1175
      1171      1169      1172      1173      1171      1169      1172      1174
      1171      1169      1172      1175      1172      1175      1177      1178
      1172      1175      1177      1179      1172      1175      1177      1180
      1172      1175      1181      1182      1172      1175      1181      1183
      1172      1175      1181      1184      1173      1172      1175      1176
      1173      1172      1175      1177      1173      1172      1175      1181
      1174      1172      1175      1176      1174      1172      1175      1177
      1174      1172      1175      1181      1176      1175      1177      1178
      1176      1175      1177      1179      1176      1175      1177      1180
      1176      1175      1181      1182      1176      1175      1181      1183
      1176      1175      1181      1184      1177      1175      1181      1182
      1177      1175      1181      1183      1177      1175      1181      1184
      1178      1177      1175      1181      1179      1177      1175      1181
      1180      1177      1175      1181      1185      1189      1192      1193
      1185      1189      1192      1223      1185      1231      1228      1223
      1185      1231      1228      1229      1185      1231      1228      1230
      1186      1185      1187      1188      1186      1185      1189      1190
      1186      1185      1189      1191      1186      1185      1189      1192
      1186      1185      1231      1228      1186      1185      1231      1232
      1186      1185      1231      1233      1187      1185      1189      1190
      1187      1185      1189      1191      1187      1185      1189      1192
      1187      1185      1231      1228      1187      1185      1231      1232
      1187      1185      1231      1233      1188      1187      1185      1189
      1188      1187      1185      1231      1189      1185      1231      1228
      1189      1185      1231      1232      1189      1185      1231      1233
      1189      1192      1193      1194      1189      1192      1193      1195
      1189      1192      1223      1221      1189      1192      1223      1224
      1189      1192      1223      1228      1190      1189      1185      1231
      1190      1189      1192      1193      1190      1189      1192      1223
      1191      1189      1185      1231      1191      1189      1192      1193
      1191      1189      1192      1223      1192      1189      1185      1231
      1192      1193      1195      1196      1192      1193      1195      1197
      1192      1193      1195      1198      1192      1223      1221      1198
      1192      1223      1221      1218      1192      1223      1221      1222
      1192      1223      1224      1225      1192      1223      1224      1226
      1192      1223      1224      1227      1192      1223      1228      1229
      1192      1223      1228      1230      1192      1223      1228      1231
      1193      1192      1223      1221      1193      1192      1223      1224
      1193      1192      1223      1228      1193      1195      1198      1199
      1193      1195      1198      1200      1193      1195      1198      1221
      1194      1193      1192      1223      1194      1193      1195      1196
      1194      1193      1195      1197      1194      1193      1195      1198
      1195      1193      1192      1223      1195      1198      1200      1201
      1195      1198      1200      1202      1195      1198      1200      1210
      1195      1198      1221      1218      1195      1198      1221      1222
      1195      1198      1221      1223      1196      1195      1198      1199
      1196      1195      1198      1200      1196      1195      1198      1221
      1197      1195      1198      1199      1197      1195      1198      1200
      1197      1195      1198      1221      1198      1200      1202      1203
      1198      1200      1202      1204      1198      1200      1202      1205
      1198      1200      1210      1208      1198      1200      1210      1211
      1198      1200      1210      1215      1198      1221      1218      1215
      1198      1221      1218      1219      1198      1221      1218      1220
      1198      1221      1223      1224      1198      1221      1223      1228
      1199      1198      1200      1201      1199      1198      1200      1202
      1199      1198      1200      1210      1199      1198      1221      1218
      1199      1198      1221      1222      1199      1198      1221      1223
      1200      1198      1221      1218      1200      1198      1221      1222
      1200      1198      1221      1223      1200      1202      1205      1206
      1200      1202      1205      1207      1200      1202      1205      1208
      1200      1210      1208      1205      1200      1210      1208      1209
      1200      1210      1208      1234      1200      1210      1211      1212
      1200      1210      1211      1213      1200      1210      1211      1214
      1200      1210      1215      1216      1200      1210      1215      1217
      1200      1210      1215      1218      1201      1200      1198      1221
      1201      1200      1202      1203      1201      1200      1202      1204
      1201      1200      1202      1205      1201      1200      1210      1208
      1201      1200      1210      1211      1201      1200      1210      1215
      1202      1200      1198      1221      1202      1200      1210      1208
      1202      1200      1210      1211      1202      1200      1210      1215
      1202      1205      1208      1209      1202      1205      1208      1210
      1202      1205      1208      1234      1203      1202      1200      1210
      1203      1202      1205      1206      1203      1202      1205      1207
      1203      1202      1205      1208      1204      1202      1200      1210
      1204      1202      1205      1206      1204      1202      1205      1207
      1204      1202      1205      1208      1205      1202      1200      1210
      1205      1208      1210      1211      1205      1208      1210      1215
      1205      1208      1234      1235      1205      1208      1234      1236
      1205      1208      1234      1240      1206      1205      1208      1209
      1206      1205      1208      1210      1206      1205      1208      1234
      1207      1205      1208      1209      1207      1205      1208      1210
      1207      1205      1208      1234      1208      1210      1211      1212
      1208      1210      1211      1213      1208      1210      1211      1214
      1208      1210      1215      1216      1208      1210      1215      1217
      1208      1210      1215      1218      1208      1234      1236      1237
      1208      1234      1236      1238      1208      1234      1236      1239
      1208      1234      1240      1241      1208      1234      1240      1242
      1208      1234      1240      1243      1209      1208      1210      1211
      1209      1208      1210      1215      1209      1208      1234      1235
      1209      1208      1234      1236      1209      1208      1234      1240
      1210      1200      1198      1221      1210      1208      1234      1235
      1210      1208      1234      1236      1210      1208      1234      1240
      1210      1215      1218      1219      1210      1215      1218      1220
      1210      1215      1218      1221      1211      1210      1208      1234
      1211      1210      1215      1216      1211      1210      1215      1217
      1211      1210      1215      1218      1212      1211      1210      1215
      1213      1211      1210      1215      1214      1211      1210      1215
      1215      1210      1208      1234      1215      1218      1221      1222
      1215      1218      1221      1223      1216      1215      1218      1219
      1216      1215      1218      1220      1216      1215      1218      1221
      1217      1215      1218      1219      1217      1215      1218      1220
      1217      1215      1218      1221      1218      1221      1223      1224
      1218      1221      1223      1228      1219      1218      1221      1222
      1219      1218      1221      1223      1220      1218      1221      1222
      1220      1218      1221      1223      1221      1223      1224      1225
      1221      1223      1224      1226      1221      1223      1224      1227
      1221      1223      1228      1229      1221      1223      1228      1230
      1221      1223      1228      1231      1222      1221      1223      1224
      1222      1221      1223      1228      1223      1228      1231      1232
      1223      1228      1231      1233      1224      1223      1228      1229
      1224      1223      1228      1230      1224      1223      1228      1231
      1225      1224      1223      1228      1226      1224      1223      1228
      1227      1224      1223      1228      1229      1228      1231      1232
      1229      1228      1231      1233      1230      1228      1231      1232
      1230      1228      1231      1233      1234      1240      1243      1244
      1234      1240      1243      1245      1234      1240      1243      1246
      1235      1234      1236      1237      1235      1234      1236      1238
      1235      1234      1236      1239      1235      1234      1240      1241
      1235      1234      1240      1242      1235      1234      1240      1243
      1236      1234      1240      1241      1236      1234      1240      1242
      1236      1234      1240      1243      1237      1236      1234      1240
      1238      1236      1234      1240      1239      1236      1234      1240
      1240      1243      1246      1247      1240      1243      1246      1248
      1240      1243      1246      1249      1241      1240      1243      1244
      1241      1240      1243      1245      1241      1240      1243      1246
      1242      1240      1243      1244      1242      1240      1243      1245
      1242      1240      1243      1246      1243      1246      1249      1250
      1243      1246      1249      1251      1243      1246      1249      1255
      1244      1243      1246      1247      1244      1243      1246      1248
      1244      1243      1246      1249      1245      1243      1246      1247
      1245      1243      1246      1248      1245      1243      1246      1249
      1246      1249      1251      1252      1246      1249      1251      1253
      1246      1249      1251      1254      1246      1249      1255      1256
      1246      1249      1255      1257      1246      1249      1255      1258
      1247      1246      1249      1250      1247      1246      1249      1251
      1247      1246      1249      1255      1248      1246      1249      1250
      1248      1246      1249      1251      1248      1246      1249      1255
      1250      1249      1251      1252      1250      1249      1251      1253
      1250      1249      1251      1254      1250      1249      1255      1256
      1250      1249      1255      1257      1250      1249      1255      1258
      1251      1249      1255      1256      1251      1249      1255      1257
      1251      1249      1255      1258      1252      1251      1249      1255
      1253      1251      1249      1255      1254      1251      1249      1255
      1259      1263      1266      1267      1259      1263      1266      1297
      1259      1305      1302      1297      1259      1305      1302      1303
      1259      1305      1302      1304      1260      1259      1261      1262
      1260      1259      1263      1264      1260      1259      1263      1265
      1260      1259      1263      1266      1260      1259      1305      1302
      1260      1259      1305      1306      1260      1259      1305      1307
      1261      1259      1263      1264      1261      1259      1263      1265
      1261      1259      1263      1266      1261      1259      1305      1302
      1261      1259      1305      1306      1261      1259      1305      1307
      1262      1261      1259      1263      1262      1261      1259      1305
      1263      1259      1305      1302      1263      1259      1305      1306
      1263      1259      1305      1307      1263      1266      1267      1268
      1263      1266      1267      1269      1263      1266      1297      1295
      1263      1266      1297      1298      1263      1266      1297      1302
      1264      1263      1259      1305      1264      1263      1266      1267
      1264      1263      1266      1297      1265      1263      1259      1305
      1265      1263      1266      1267      1265      1263      1266      1297
      1266      1263      1259      1305      1266      1267      1269      1270
      1266      1267      1269      1271      1266      1267      1269      1272
      1266      1297      1295      1272      1266      1297      1295      1292
      1266      1297      1295      1296      1266      1297      1298      1299
      1266      1297      1298      1300      1266      1297      1298      1301
      1266      1297      1302      1303      1266      1297      1302      1304
      1266      1297      1302      1305      1267      1266      1297      1295
      1267      1266      1297      1298      1267      1266      1297      1302
      1267      1269      1272      1273      1267      1269      1272      1274
      1267      1269      1272      1295      1268      1267      1266      1297
      1268      1267      1269      1270      1268      1267      1269      1271
      1268      1267      1269      1272      1269      1267      1266      1297
      1269      1272      1274      1275      1269      1272      1274      1276
      1269      1272      1274      1284      1269      1272      1295      1292
      1269      1272      1295      1296      1269      1272      1295      1297
      1270      1269      1272      1273      1270      1269      1272      1274
      1270      1269      1272      1295      1271      1269      1272      1273
      1271      1269      1272      1274      1271      1269      1272      1295
      1272      1274      1276      1277      1272      1274      1276      1278
      1272      1274      1276      1279      1272      1274      1284      1282
      1272      1274      1284      1285      1272      1274      1284      1289
      1272      1295      1292      1289      1272      1295      1292      1293
      1272      1295      1292      1294      1272      1295      1297      1298
      1272      1295      1297      1302      1273      1272      1274      1275
      1273      1272      1274      1276      1273      1272      1274      1284
      1273      1272      1295      1292      1273      1272      1295      1296
      1273      1272      1295      1297      1274      1272      1295      1292
      1274      1272      1295      1296      1274      1272      1295      1297
      1274      1276      1279      1280      1274      1276      1279      1281
      1274      1276      1279      1282      1274      1284      1282      1279
      1274      1284      1282      1283      1274      1284      1282      1308
      1274      1284      1285      1286      1274      1284      1285      1287
      1274      1284      1285      1288      1274      1284      1289      1290
      1274      1284      1289      1291      1274      1284      1289      1292
      1275      1274      1272      1295      1275      1274      1276      1277
      1275      1274      1276      1278      1275      1274      1276      1279
      1275      1274      1284      1282      1275      1274      1284      1285
      1275      1274      1284      1289      1276      1274      1272      1295
      1276      1274      1284      1282      1276      1274      1284      1285
      1276      1274      1284      1289      1276      1279      1282      1283
      1276      1279      1282      1284      1276      1279      1282      1308
      1277      1276      1274      1284      1277      1276      1279      1280
      1277      1276      1279      1281      1277      1276      1279      1282
      1278      1276      1274      1284      1278      1276      1279      1280
      1278      1276      1279      1281      1278      1276      1279      1282
      1279      1276      1274      1284      1279      1282      1284      1285
      1279      1282      1284      1289      1279      1282      1308      1309
      1279      1282      1308      1310      1279      1282      1308      1314
      1280      1279      1282      1283      1280      1279      1282      1284
      1280      1279      1282      1308      1281      1279      1282      1283
      1281      1279      1282      1284      1281      1279      1282      1308
      1282      1284      1285      1286      1282      1284      1285      1287
      1282      1284      1285      1288      1282      1284      1289      1290
      1282      1284      1289      1291      1282      1284      1289      1292
      1282      1308      1310      1311      1282      1308      1310      1312
      1282      1308      1310      1313      1282      1308      1314      1315
      1282      1308      1314      1316      1282      1308      1314      1317
      1283      1282      1284      1285      1283      1282      1284      1289
      1283      1282      1308      1309      1283      1282      1308      1310
      1283      1282      1308      1314      1284      1274      1272      1295
      1284      1282      1308      1309      1284      1282      1308      1310
      1284      1282      1308      1314      1284      1289      1292      1293
      1284      1289      1292      1294      1284      1289      1292      1295
      1285      1284      1282      1308      1285      1284      1289      1290
      1285      1284      1289      1291      1285      1284      1289      1292
      1286      1285      1284      1289      1287      1285      1284      1289
      1288      1285      1284      1289      1289      1284      1282      1308
      1289      1292      1295      1296      1289      1292      1295      1297
      1290      1289      1292      1293      1290      1289      1292      1294
      1290      1289      1292      1295      1291      1289      1292      1293
      1291      1289      1292      1294      1291      1289      1292      1295
      1292      1295      1297      1298      1292      1295      1297      1302
      1293      1292      1295      1296      1293      1292      1295      1297
      1294      1292      1295      1296      1294      1292      1295      1297
      1295      1297      1298      1299      1295      1297      1298      1300
      1295      1297      1298      1301      1295      1297      1302      1303
      1295      1297      1302      1304      1295      1297      1302      1305
      1296      1295      1297      1298      1296      1295      1297      1302
      1297      1302      1305      1306      1297      1302      1305      1307
      1298      1297      1302      1303      1298      1297      1302      1304
      1298      1297      1302      1305      1299      1298      1297      1302
      1300      1298      1297      1302      1301      1298      1297      1302
      1303      1302      1305      1306      1303      1302      1305      1307
      1304      1302      1305      1306      1304      1302      1305      1307
      1308      1314      1317      1318      1308      1314      1317      1319
      1308      1314      1317      1320      1309      1308      1310      1311
      1309      1308      1310      1312      1309      1308      1310      1313
      1309      1308      1314      1315      1309      1308      1314      1316
      1309      1308      1314      1317      1310      1308      1314      1315
      1310      1308      1314      1316      1310      1308      1314      1317
      1311      1310      1308      1314      1312      1310      1308      1314
      1313      1310      1308      1314      1314      1317      1320      1321
      1314      1317      1320      1322      1314      1317      1320      1323
      1315      1314      1317      1318      1315      1314      1317      1319
      1315      1314      1317      1320      1316      1314      1317      1318
      1316      1314      1317      1319      1316      1314      1317      1320
      1317      1320      1323      1324      1317      1320      1323      1325
      1317      1320      1323      1329      1318      1317      1320      1321
      1318      1317      1320      1322      1318      1317      1320      1323
      1319      1317      1320      1321      1319      1317      1320      1322
      1319      1317      1320      1323      1320      1323      1325      1326
      1320      1323      1325      1327      1320      1323      1325      1328
      1320      1323      1329      1330      1320      1323      1329      1331
      1320      1323      1329      1332      1321      1320      1323      1324
      1321      1320      1323      1325      1321      1320      1323      1329
      1322      1320      1323      1324      1322      1320      1323      1325
      1322      1320      1323      1329      1324      1323      1325      1326
      1324      1323      1325      1327      1324      1323      1325      1328
      1324      1323      1329      1330      1324      1323      1329      1331
      1324      1323      1329      1332      1325      1323      1329      1330
      1325      1323      1329      1331      1325      1323      1329      1332
      1326      1325      1323      1329      1327      1325      1323      1329
      1328      1325      1323      1329      1333      1337      1340      1341
      1333      1337      1340      1371      1333      1379      1376      1371
      1333      1379      1376      1377      1333      1379      1376      1378
      1334      1333      1335      1336      1334      1333      1337      1338
      1334      1333      1337      1339      1334      1333      1337      1340
      1334      1333      1379      1376      1334      1333      1379      1380
      1334      1333      1379      1381      1335      1333      1337      1338
      1335      1333      1337      1339      1335      1333      1337      1340
      1335      1333      1379      1376      1335      1333      1379      1380
      1335      1333      1379      1381      1336      1335      1333      1337
      1336      1335      1333      1379      1337      1333      1379      1376
      1337      1333      1379      1380      1337      1333      1379      1381
      1337      1340      1341      1342      1337      1340      1341      1343
      1337      1340      1371      1369      1337      1340      1371      1372
      1337      1340      1371      1376      1338      1337      1333      1379
      1338      1337      1340      1341      1338      1337      1340      1371
      1339      1337      1333      1379      1339      1337      1340      1341
      1339      1337      1340      1371      1340      1337      1333      1379
      1340      1341      1343      1344      1340      1341      1343      1345
      1340      1341      1343      1346      1340      1371      1369      1346
      1340      1371      1369      1366      1340      1371      1369      1370
      1340      1371      1372      1373      1340      1371      1372      1374
      1340      1371      1372      1375      1340      1371      1376      1377
      1340      1371      1376      1378      1340      1371      1376      1379
      1341      1340      1371      1369      1341      1340      1371      1372
      1341      1340      1371      1376      1341      1343      1346      1347
      1341      1343      1346      1348      1341      1343      1346      1369
      1342      1341      1340      1371      1342      1341      1343      1344
      1342      1341      1343      1345      1342      1341      1343      1346
      1343      1341      1340      1371      1343      1346      1348      1349
      1343      1346      1348      1350      1343      1346      1348      1358
      1343      1346      1369      1366      1343      1346      1369      1370
      1343      1346      1369      1371      1344      1343      1346      1347
      1344      1343      1346      1348      1344      1343      1346      1369
      1345      1343      1346      1347      1345      1343      1346      1348
      1345      1343      1346      1369      1346      1348      1350      1351
      1346      1348      1350      1352      1346      1348      1350      1353
      1346      1348      1358      1356      1346      1348      1358      1359
      1346      1348      1358      1363      1346      1369      1366      1363
      1346      1369      1366      1367      1346      1369      1366      1368
      1346      1369      1371      1372      1346      1369      1371      1376
      1347      1346      1348      1349      1347      1346      1348      1350
      1347      1346      1348      1358      1347      1346      1369      1366
      1347      1346      1369      1370      1347      1346      1369      1371
      1348      1346      1369      1366      1348      1346      1369      1370
      1348      1346      1369      1371      1348      1350      1353      1354
      1348      1350      1353      1355      1348      1350      1353      1356
      1348      1358      1356      1353      1348      1358      1356      1357
      1348      1358      1356      1382      1348      1358      1359      1360
      1348      1358      1359      1361      1348      1358      1359      1362
      1348      1358      1363      1364      1348      1358      1363      1365
      1348      1358      1363      1366      1349      1348      1346      1369
      1349      1348      1350      1351      1349      1348      1350      1352
      1349      1348      1350      1353      1349      1348      1358      1356
      1349      1348      1358      1359      1349      1348      1358      1363
      1350      1348      1346      1369      1350      1348      1358      1356
      1350      1348      1358      1359      1350      1348      1358      1363
      1350      1353      1356      1357      1350      1353      1356      1358
      1350      1353      1356      1382      1351      1350      1348      1358
      1351      1350      1353      1354      1351      1350      1353      1355
      1351      1350      1353      1356      1352      1350      1348      1358
      1352      1350      1353      1354      1352      1350      1353      1355
      1352      1350      1353      1356      1353      1350      1348      1358
      1353      1356      1358      1359      1353      1356      1358      1363
      1353      1356      1382      1383      1353      1356      1382      1384
      1353      1356      1382      1388      1354      1353      1356      1357
      1354      1353      1356      1358      1354      1353      1356      1382
      1355      1353      1356      1357      1355      1353      1356      1358
      1355      1353      1356      1382      1356      1358      1359      1360
      1356      1358      1359      1361      1356      1358      1359      1362
      1356      1358      1363      1364      1356      1358      1363      1365
      1356      1358      1363      1366      1356      1382      1384      1385
      1356      1382      1384      1386      1356      1382      1384      1387
      1356      1382      1388      1389      1356      1382      1388      1390
      1356      1382      1388      1391      1357      1356      1358      1359
      1357      1356      1358      1363      1357      1356      1382      1383
      1357      1356      1382      1384      1357      1356      1382      1388
      1358      1348      1346      1369      1358      1356      1382      1383
      1358      1356      1382      1384      1358      1356      1382      1388
      1358      1363      1366      1367      1358      1363      1366      1368
      1358      1363      1366      1369      1359      1358      1356      1382
      1359      1358      1363      1364      1359      1358      1363      1365
      1359      1358      1363      1366      1360      1359      1358      1363
      1361      1359      1358      1363      1362      1359      1358      1363
      1363      1358      1356      1382      1363      1366      1369      1370
      1363      1366      1369      1371      1364      1363      1366      1367
      1364      1363      1366      1368      1364      1363      1366      1369
      1365      1363      1366      1367      1365      1363      1366      1368
      1365      1363      1366      1369      1366      1369      1371      1372
      1366      1369      1371      1376      1367      1366      1369      1370
      1367      1366      1369      1371      1368      1366      1369      1370
      1368      1366      1369      1371      1369      1371      1372      1373
      1369      1371      1372      1374      1369      1371      1372      1375
      1369      1371      1376      1377      1369      1371      1376      1378
      1369      1371      1376      1379      1370      1369      1371      1372
      1370      1369      1371      1376      1371      1376      1379      1380
      1371      1376      1379      1381      1372      1371      1376      1377
      1372      1371      1376      1378      1372      1371      1376      1379
      1373      1372      1371      1376      1374      1372      1371      1376
      1375      1372      1371      1376      1377      1376      1379      1380
      1377      1376      1379      1381      1378      1376      1379      1380
      1378      1376      1379      1381      1382      1388      1391      1392
      1382      1388      1391      1393      1382      1388      1391      1394
      1383      1382      1384      1385      1383      1382      1384      1386
      1383      1382      1384      1387      1383      1382      1388      1389
      1383      1382      1388      1390      1383      1382      1388      1391
      1384      1382      1388      1389      1384      1382      1388      1390
      1384      1382      1388      1391      1385      1384      1382      1388
      1386      1384      1382      1388      1387      1384      1382      1388
      1388      1391      1394      1395      1388      1391      1394      1396
      1388      1391      1394      1397      1389      1388      1391      1392
      1389      1388      1391      1393      1389      1388      1391      1394
      1390      1388      1391      1392      1390      1388      1391      1393
      1390      1388      1391      1394      1391      1394      1397      1398
      1391      1394      1397      1399      1391      1394      1397      1403
      1392      1391      1394      1395      1392      1391      1394      1396
      1392      1391      1394      1397      1393      1391      1394      1395
      1393      1391      1394      1396      1393      1391      1394      1397
      1394      1397      1399      1400      1394      1397      1399      1401
      1394      1397      1399      1402      1394      1397      1403      1404
      1394      1397      1403      1405      1394      1397      1403      1406
      1395      1394      1397      1398      1395      1394      1397      1399
      1395      1394      1397      1403      1396      1394      1397      1398
      1396      1394      1397      1399      1396      1394      1397      1403
      1398      1397      1399      1400      1398      1397      1399      1401
      1398      1397      1399      1402      1398      1397      1403      1404
      1398      1397      1403      1405      1398      1397      1403      1406
      1399      1397      1403      1404      1399      1397      1403      1405
      1399      1397      1403      1406      1400      1399      1397      1403
      1401      1399      1397      1403      1402      1399      1397      1403
     12106     12119     12122     12123     12106     12119     12122     12124
     12106     12119     12122     12129     12107     12106     12111     12112
     12107     12106     12111     12113     12107     12106     12111     12114
     12107     12106     12115     12116     12107     12106     12115     12117
     12107     12106     12115     12118     12107     12106     12119     12120
     12107     12106     12119     12121     12107     12106     12119     12122
     12108     12107     12106     12111     12108     12107     12106     12115
     12108     12107     12106     12119     12109     12107     12106     12111
     12109     12107     12106     12115     12109     12107     12106     12119
     12110     12107     12106     12111     12110     12107     12106     12115
     12110     12107     12106     12119     12111     12106     12115     12116
     12111     12106     12115     12117     12111     12106     12115     12118
     12111     12106     12119     12120     12111     12106     12119     12121
     12111     12106     12119     12122     12112     12111     12106     12115
     12112     12111     12106     12119     12113     12111     12106     12115
     12113     12111     12106     12119     12114     12111     12106     12115
     12114     12111     12106     12119     12115     12106     12119     12120
     12115     12106     12119     12121     12115     12106     12119     12122
     12116     12115     12106     12119     12117     12115     12106     12119
     12118     12115     12106     12119     12119     12122     12129     12125
     12120     12119     12122     12123     12120     12119     12122     12124
     12120     12119     12122     12129     12121     12119     12122     12123
     12121     12119     12122     12124     12121     12119     12122     12129
     12122     12129     12125     12126     12122     12129     12125     12127
     12122     12129     12125     12128     12123     12122     12129     12125
     12124     12122     12129     12125     12125     12128     12130     12131
     12125     12128     12130     12132     12125     12128     12130     12135
     12126     12125     12128     12130     12127     12125     12128     12130
     12128     12130     12135     12133     12128     12130     12135     12136
     12128     12130     12135     12137     12129     12125     12128     12130
     12130     12135     12133     12134     12130     12135     12133     12185
     12130     12135     12137     12138     12130     12135     12137     12139
     12130     12135     12137     12141     12131     12130     12135     12133
     12131     12130     12135     12136     12131     12130     12135     12137
     12132     12130     12135     12133     12132     12130     12135     12136
     12132     12130     12135     12137     12133     12135     12137     12138
     12133     12135     12137     12139     12133     12135     12137     12141
     12133     12185     12187     12188     12133     12185     12187     12189
     12133     12185     12187     12190     12134     12133     12135     12136
     12134     12133     12135     12137     12134     12133     12185     12186
     12134     12133     12185     12187     12135     12133     12185     12186
     12135     12133     12185     12187     12135     12137     12139     12140
     12135     12137     12141     12142     12135     12137     12141     12143
     12136     12135     12133     12185     12136     12135     12137     12138
     12136     12135     12137     12139     12136     12135     12137     12141
     12137     12135     12133     12185     12137     12141     12143     12144
     12137     12141     12143     12145     12138     12137     12139     12140
     12138     12137     12141     12142     12138     12137     12141     12143
     12139     12137     12141     12142     12139     12137     12141     12143
     12140     12139     12137     12141     12141     12143     12145     12146
     12141     12143     12145     12147     12141     12143     12145     12148
     12142     12141     12143     12144     12142     12141     12143     12145
     12143     12145     12148     12149     12143     12145     12148     12150
     12143     12145     12148     12151     12144     12143     12145     12146
     12144     12143     12145     12147     12144     12143     12145     12148
     12145     12148     12151     12152     12145     12148     12151     12153
     12145     12148     12151     12154     12146     12145     12148     12149
     12146     12145     12148     12150     12146     12145     12148     12151
     12147     12145     12148     12149     12147     12145     12148     12150
     12147     12145     12148     12151     12148     12151     12154     12155
     12148     12151     12154     12156     12148     12151     12154     12157
     12149     12148     12151     12152     12149     12148     12151     12153
     12149     12148     12151     12154     12150     12148     12151     12152
     12150     12148     12151     12153     12150     12148     12151     12154
     12151     12154     12157     12158     12151     12154     12157     12159
     12151     12154     12157     12160     12152     12151     12154     12155
     12152     12151     12154     12156     12152     12151     12154     12157
     12153     12151     12154     12155     12153     12151     12154     12156
     12153     12151     12154     12157     12154     12157     12160     12161
     12154     12157     12160     12162     12154     12157     12160     12163
     12155     12154     12157     12158     12155     12154     12157     12159
     12155     12154     12157     12160     12156     12154     12157     12158
     12156     12154     12157     12159     12156     12154     12157     12160
     12157     12160     12163     12164     12157     12160     12163     12165
     12157     12160     12163     12166     12158     12157     12160     12161
     12158     12157     12160     12162     12158     12157     12160     12163
     12159     12157     12160     12161     12159     12157     12160     12162
     12159     12157     12160     12163     12160     12163     12166     12167
     12160     12163     12166     12168     12160     12163     12166     12169
     12161     12160     12163     12164     12161     12160     12163     12165
     12161     12160     12163     12166     12162     12160     12163     12164
     12162     12160     12163     12165     12162     12160     12163     12166
     12163     12166     12169     12170     12163     12166     12169     12171
     12163     12166     12169     12172     12164     12163     12166     12167
     12164     12163     12166     12168     12164     12163     12166     12169
     12165     12163     12166     12167     12165     12163     12166     12168
     12165     12163     12166     12169     12166     12169     12172     12173
     12166     12169     12172     12174     12166     12169     12172     12175
     12167     12166     12169     12170     12167     12166     12169     12171
     12167     12166     12169     12172     12168     12166     12169     12170
     12168     12166     12169     12171     12168     12166     12169     12172
     12169     12172     12175     12176     12169     12172     12175     12177
     12169     12172     12175     12178     12170     12169     12172     12173
     12170     12169     12172     12174     12170     12169     12172     12175
     12171     12169     12172     12173     12171     12169     12172     12174
     12171     12169     12172     12175     12172     12175     12178     12179
     12172     12175     12178     12180     12172     12175     12178     12181
     12173     12172     12175     12176     12173     12172     12175     12177
     12173     12172     12175     12178     12174     12172     12175     12176
     12174     12172     12175     12177     12174     12172     12175     12178
     12175     12178     12181     12182     12175     12178     12181     12183
     12175     12178     12181     12184     12176     12175     12178     12179
     12176     12175     12178     12180     12176     12175     12178     12181
     12177     12175     12178     12179     12177     12175     12178     12180
     12177     12175     12178     12181     12179     12178     12181     12182
     12179     12178     12181     12183     12179     12178     12181     12184
     12180     12178     12181     12182     12180     12178     12181     12183
     12180     12178     12181     12184     12185     12187     12190     12191
     12185     12187     12190     12192     12185     12187     12190     12193
     12186     12185     12187     12188     12186     12185     12187     12189
     12186     12185     12187     12190     12187     12190     12193     12194
     12187     12190     12193     12195     12187     12190     12193     12196
     12188     12187     12190     12191     12188     12187     12190     12192
     12188     12187     12190     12193     12189     12187     12190     12191
     12189     12187     12190     12192     12189     12187     12190     12193
     12190     12193     12196     12197     12190     12193     12196     12198
     12190     12193     12196     12199     12191     12190     12193     12194
     12191     12190     12193     12195     12191     12190     12193     12196
     12192     12190     12193     12194     12192     12190     12193     12195
     12192     12190     12193     12196     12193     12196     12199     12200
     12193     12196     12199     12201     12193     12196     12199     12202
     12194     12193     12196     12197     12194     12193     12196     12198
     12194     12193     12196     12199     12195     12193     12196     12197
     12195     12193     12196     12198     12195     12193     12196     12199
     12196     12199     12202     12203     12196     12199     12202     12204
     12196     12199     12202     12205     12197     12196     12199     12200
     12197     12196     12199     12201     12197     12196     12199     12202
     12198     12196     12199     12200     12198     12196     12199     12201
     12198     12196     12199     12202     12199     12202     12205     12206
     12199     12202     12205     12207     12199     12202     12205     12208
     12200     12199     12202     12203     12200     12199     12202     12204
     12200     12199     12202     12205     12201     12199     12202     12203
     12201     12199     12202     12204     12201     12199     12202     12205
     12202     12205     12208     12209     12202     12205     12208     12210
     12203     12202     12205     12206     12203     12202     12205     12207
     12203     12202     12205     12208     12204     12202     12205     12206
     12204     12202     12205     12207     12204     12202     12205     12208
     12205     12208     12210     12211     12205     12208     12210     12212
     12206     12205     12208     12209     12206     12205     12208     12210
     12207     12205     12208     12209     12207     12205     12208     12210
     12208     12210     12212     12213     12208     12210     12212     12214
     12208     12210     12212     12215     12209     12208     12210     12211
     12209     12208     12210     12212     12210     12212     12215     12216
     12210     12212     12215     12217     12210     12212     12215     12218
     12211     12210     12212     12213     12211     12210     12212     12214
     12211     12210     12212     12215     12212     12215     12218     12219
     12212     12215     12218     12220     12212     12215     12218     12221
     12213     12212     12215     12216     12213     12212     12215     12217
     12213     12212     12215     12218     12214     12212     12215     12216
     12214     12212     12215     12217     12214     12212     12215     12218
     12215     12218     12221     12222     12215     12218     12221     12223
     12215     12218     12221     12224     12216     12215     12218     12219
     12216     12215     12218     12220     12216     12215     12218     12221
     12217     12215     12218     12219     12217     12215     12218     12220
     12217     12215     12218     12221     12218     12221     12224     12225
     12218     12221     12224     12226     12218     12221     12224     12227
     12219     12218     12221     12222     12219     12218     12221     12223
     12219     12218     12221     12224     12220     12218     12221     12222
     12220     12218     12221     12223     12220     12218     12221     12224
     12221     12224     12227     12228     12221     12224     12227     12229
     12221     12224     12227     12230     12222     12221     12224     12225
     12222     12221     12224     12226     12222     12221     12224     12227
     12223     12221     12224     12225     12223     12221     12224     12226
     12223     12221     12224     12227     12224     12227     12230     12231
     12224     12227     12230     12232     12224     12227     12230     12233
     12225     12224     12227     12228     12225     12224     12227     12229
     12225     12224     12227     12230     12226     12224     12227     12228
     12226     12224     12227     12229     12226     12224     12227     12230
     12227     12230     12233     12234     12227     12230     12233     12235
     12227     12230     12233     12236     12228     12227     12230     12231
     12228     12227     12230     12232     12228     12227     12230     12233
     12229     12227     12230     12231     12229     12227     12230     12232
     12229     12227     12230     12233     12231     12230     12233     12234
     12231     12230     12233     12235     12231     12230     12233     12236
     12232     12230     12233     12234     12232     12230     12233     12235
     12232     12230     12233     12236      1407      1411      1414      1415
      1407      1411      1414      1445      1407      1453      1450      1445
      1407      1453      1450      1451      1407      1453      1450      1452
      1408      1407      1409      1410      1408      1407      1411      1412
      1408      1407      1411      1413      1408      1407      1411      1414
      1408      1407      1453      1450      1408      1407      1453      1454
      1408      1407      1453      1455      1409      1407      1411      1412
      1409      1407      1411      1413      1409      1407      1411      1414
      1409      1407      1453      1450      1409      1407      1453      1454
      1409      1407      1453      1455      1410      1409      1407      1411
      1410      1409      1407      1453      1411      1407      1453      1450
      1411      1407      1453      1454      1411      1407      1453      1455
      1411      1414      1415      1416      1411      1414      1415      1417
      1411      1414      1445      1443      1411      1414      1445      1446
      1411      1414      1445      1450      1412      1411      1407      1453
      1412      1411      1414      1415      1412      1411      1414      1445
      1413      1411      1407      1453      1413      1411      1414      1415
      1413      1411      1414      1445      1414      1411      1407      1453
      1414      1415      1417      1418      1414      1415      1417      1419
      1414      1415      1417      1420      1414      1445      1443      1420
      1414      1445      1443      1440      1414      1445      1443      1444
      1414      1445      1446      1447      1414      1445      1446      1448
      1414      1445      1446      1449      1414      1445      1450      1451
      1414      1445      1450      1452      1414      1445      1450      1453
      1415      1414      1445      1443      1415      1414      1445      1446
      1415      1414      1445      1450      1415      1417      1420      1421
      1415      1417      1420      1422      1415      1417      1420      1443
      1416      1415      1414      1445      1416      1415      1417      1418
      1416      1415      1417      1419      1416      1415      1417      1420
      1417      1415      1414      1445      1417      1420      1422      1423
      1417      1420      1422      1424      1417      1420      1422      1432
      1417      1420      1443      1440      1417      1420      1443      1444
      1417      1420      1443      1445      1418      1417      1420      1421
      1418      1417      1420      1422      1418      1417      1420      1443
      1419      1417      1420      1421      1419      1417      1420      1422
      1419      1417      1420      1443      1420      1422      1424      1425
      1420      1422      1424      1426      1420      1422      1424      1427
      1420      1422      1432      1430      1420      1422      1432      1433
      1420      1422      1432      1437      1420      1443      1440      1437
      1420      1443      1440      1441      1420      1443      1440      1442
      1420      1443      1445      1446      1420      1443      1445      1450
      1421      1420      1422      1423      1421      1420      1422      1424
      1421      1420      1422      1432      1421      1420      1443      1440
      1421      1420      1443      1444      1421      1420      1443      1445
      1422      1420      1443      1440      1422      1420      1443      1444
      1422      1420      1443      1445      1422      1424      1427      1428
      1422      1424      1427      1429      1422      1424      1427      1430
      1422      1432      1430      1427      1422      1432      1430      1431
      1422      1432      1430      1456      1422      1432      1433      1434
      1422      1432      1433      1435      1422      1432      1433      1436
      1422      1432      1437      1438      1422      1432      1437      1439
      1422      1432      1437      1440      1423      1422      1420      1443
      1423      1422      1424      1425      1423      1422      1424      1426
      1423      1422      1424      1427      1423      1422      1432      1430
      1423      1422      1432      1433      1423      1422      1432      1437
      1424      1422      1420      1443      1424      1422      1432      1430
      1424      1422      1432      1433      1424      1422      1432      1437
      1424      1427      1430      1431      1424      1427      1430      1432
      1424      1427      1430      1456      1425      1424      1422      1432
      1425      1424      1427      1428      1425      1424      1427      1429
      1425      1424      1427      1430      1426      1424      1422      1432
      1426      1424      1427      1428      1426      1424      1427      1429
      1426      1424      1427      1430      1427      1424      1422      1432
      1427      1430      1432      1433      1427      1430      1432      1437
      1427      1430      1456      1457      1427      1430      1456      1458
      1427      1430      1456      1462      1428      1427      1430      1431
      1428      1427      1430      1432      1428      1427      1430      1456
      1429      1427      1430      1431      1429      1427      1430      1432
      1429      1427      1430      1456      1430      1432      1433      1434
      1430      1432      1433      1435      1430      1432      1433      1436
      1430      1432      1437      1438      1430      1432      1437      1439
      1430      1432      1437      1440      1430      1456      1458      1459
      1430      1456      1458      1460      1430      1456      1458      1461
      1430      1456      1462      1463      1430      1456      1462      1464
      1430      1456      1462      1465      1431      1430      1432      1433
      1431      1430      1432      1437      1431      1430      1456      1457
      1431      1430      1456      1458      1431      1430      1456      1462
      1432      1422      1420      1443      1432      1430      1456      1457
      1432      1430      1456      1458      1432      1430      1456      1462
      1432      1437      1440      1441      1432      1437      1440      1442
      1432      1437      1440      1443      1433      1432      1430      1456
      1433      1432      1437      1438      1433      1432      1437      1439
      1433      1432      1437      1440      1434      1433      1432      1437
      1435      1433      1432      1437      1436      1433      1432      1437
      1437      1432      1430      1456      1437      1440      1443      1444
      1437      1440      1443      1445      1438      1437      1440      1441
      1438      1437      1440      1442      1438      1437      1440      1443
      1439      1437      1440      1441      1439      1437      1440      1442
      1439      1437      1440      1443      1440      1443      1445      1446
      1440      1443      1445      1450      1441      1440      1443      1444
      1441      1440      1443      1445      1442      1440      1443      1444
      1442      1440      1443      1445      1443      1445      1446      1447
      1443      1445      1446      1448      1443      1445      1446      1449
      1443      1445      1450      1451      1443      1445      1450      1452
      1443      1445      1450      1453      1444      1443      1445      1446
      1444      1443      1445      1450      1445      1450      1453      1454
      1445      1450      1453      1455      1446      1445      1450      1451
      1446      1445      1450      1452      1446      1445      1450      1453
      1447      1446      1445      1450      1448      1446      1445      1450
      1449      1446      1445      1450      1451      1450      1453      1454
      1451      1450      1453      1455      1452      1450      1453      1454
      1452      1450      1453      1455      1456      1462      1465      1466
      1456      1462      1465      1467      1456      1462      1465      1468
      1457      1456      1458      1459      1457      1456      1458      1460
      1457      1456      1458      1461      1457      1456      1462      1463
      1457      1456      1462      1464      1457      1456      1462      1465
      1458      1456      1462      1463      1458      1456      1462      1464
      1458      1456      1462      1465      1459      1458      1456      1462
      1460      1458      1456      1462      1461      1458      1456      1462
      1462      1465      1468      1469      1462      1465      1468      1470
      1462      1465      1468      1471      1463      1462      1465      1466
      1463      1462      1465      1467      1463      1462      1465      1468
      1464      1462      1465      1466      1464      1462      1465      1467
      1464      1462      1465      1468      1465      1468      1471      1472
      1465      1468      1471      1473      1465      1468      1471      1477
      1466      1465      1468      1469      1466      1465      1468      1470
      1466      1465      1468      1471      1467      1465      1468      1469
      1467      1465      1468      1470      1467      1465      1468      1471
      1468      1471      1473      1474      1468      1471      1473      1475
      1468      1471      1473      1476      1468      1471      1477      1478
      1468      1471      1477      1479      1468      1471      1477      1480
      1469      1468      1471      1472      1469      1468      1471      1473
      1469      1468      1471      1477      1470      1468      1471      1472
      1470      1468      1471      1473      1470      1468      1471      1477
      1472      1471      1473      1474      1472      1471      1473      1475
      1472      1471      1473      1476      1472      1471      1477      1478
      1472      1471      1477      1479      1472      1471      1477      1480
      1473      1471      1477      1478      1473      1471      1477      1479
      1473      1471      1477      1480      1474      1473      1471      1477
      1475      1473      1471      1477      1476      1473      1471      1477
      1481      1485      1488      1489      1481      1485      1488      1519
      1481      1527      1524      1519      1481      1527      1524      1525
      1481      1527      1524      1526      1482      1481      1483      1484
      1482      1481      1485      1486      1482      1481      1485      1487
      1482      1481      1485      1488      1482      1481      1527      1524
      1482      1481      1527      1528      1482      1481      1527      1529
      1483      1481      1485      1486      1483      1481      1485      1487
      1483      1481      1485      1488      1483      1481      1527      1524
      1483      1481      1527      1528      1483      1481      1527      1529
      1484      1483      1481      1485      1484      1483      1481      1527
      1485      1481      1527      1524      1485      1481      1527      1528
      1485      1481      1527      1529      1485      1488      1489      1490
      1485      1488      1489      1491      1485      1488      1519      1517
      1485      1488      1519      1520      1485      1488      1519      1524
      1486      1485      1481      1527      1486      1485      1488      1489
      1486      1485      1488      1519      1487      1485      1481      1527
      1487      1485      1488      1489      1487      1485      1488      1519
      1488      1485      1481      1527      1488      1489      1491      1492
      1488      1489      1491      1493      1488      1489      1491      1494
      1488      1519      1517      1494      1488      1519      1517      1514
      1488      1519      1517      1518      1488      1519      1520      1521
      1488      1519      1520      1522      1488      1519      1520      1523
      1488      1519      1524      1525      1488      1519      1524      1526
      1488      1519      1524      1527      1489      1488      1519      1517
      1489      1488      1519      1520      1489      1488      1519      1524
      1489      1491      1494      1495      1489      1491      1494      1496
      1489      1491      1494      1517      1490      1489      1488      1519
      1490      1489      1491      1492      1490      1489      1491      1493
      1490      1489      1491      1494      1491      1489      1488      1519
      1491      1494      1496      1497      1491      1494      1496      1498
      1491      1494      1496      1506      1491      1494      1517      1514
      1491      1494      1517      1518      1491      1494      1517      1519
      1492      1491      1494      1495      1492      1491      1494      1496
      1492      1491      1494      1517      1493      1491      1494      1495
      1493      1491      1494      1496      1493      1491      1494      1517
      1494      1496      1498      1499      1494      1496      1498      1500
      1494      1496      1498      1501      1494      1496      1506      1504
      1494      1496      1506      1507      1494      1496      1506      1511
      1494      1517      1514      1511      1494      1517      1514      1515
      1494      1517      1514      1516      1494      1517      1519      1520
      1494      1517      1519      1524      1495      1494      1496      1497
      1495      1494      1496      1498      1495      1494      1496      1506
      1495      1494      1517      1514      1495      1494      1517      1518
      1495      1494      1517      1519      1496      1494      1517      1514
      1496      1494      1517      1518      1496      1494      1517      1519
      1496      1498      1501      1502      1496      1498      1501      1503
      1496      1498      1501      1504      1496      1506      1504      1501
      1496      1506      1504      1505      1496      1506      1504      1530
      1496      1506      1507      1508      1496      1506      1507      1509
      1496      1506      1507      1510      1496      1506      1511      1512
      1496      1506      1511      1513      1496      1506      1511      1514
      1497      1496      1494      1517      1497      1496      1498      1499
      1497      1496      1498      1500      1497      1496      1498      1501
      1497      1496      1506      1504      1497      1496      1506      1507
      1497      1496      1506      1511      1498      1496      1494      1517
      1498      1496      1506      1504      1498      1496      1506      1507
      1498      1496      1506      1511      1498      1501      1504      1505
      1498      1501      1504      1506      1498      1501      1504      1530
      1499      1498      1496      1506      1499      1498      1501      1502
      1499      1498      1501      1503      1499      1498      1501      1504
      1500      1498      1496      1506      1500      1498      1501      1502
      1500      1498      1501      1503      1500      1498      1501      1504
      1501      1498      1496      1506      1501      1504      1506      1507
      1501      1504      1506      1511      1501      1504      1530      1531
      1501      1504      1530      1532      1501      1504      1530      1536
      1502      1501      1504      1505      1502      1501      1504      1506
      1502      1501      1504      1530      1503      1501      1504      1505
      1503      1501      1504      1506      1503      1501      1504      1530
      1504      1506      1507      1508      1504      1506      1507      1509
      1504      1506      1507      1510      1504      1506      1511      1512
      1504      1506      1511      1513      1504      1506      1511      1514
      1504      1530      1532      1533      1504      1530      1532      1534
      1504      1530      1532      1535      1504      1530      1536      1537
      1504      1530      1536      1538      1504      1530      1536      1539
      1505      1504      1506      1507      1505      1504      1506      1511
      1505      1504      1530      1531      1505      1504      1530      1532
      1505      1504      1530      1536      1506      1496      1494      1517
      1506      1504      1530      1531      1506      1504      1530      1532
      1506      1504      1530      1536      1506      1511      1514      1515
      1506      1511      1514      1516      1506      1511      1514      1517
      1507      1506      1504      1530      1507      1506      1511      1512
      1507      1506      1511      1513      1507      1506      1511      1514
      1508      1507      1506      1511      1509      1507      1506      1511
      1510      1507      1506      1511      1511      1506      1504      1530
      1511      1514      1517      1518      1511      1514      1517      1519
      1512      1511      1514      1515      1512      1511      1514      1516
      1512      1511      1514      1517      1513      1511      1514      1515
      1513      1511      1514      1516      1513      1511      1514      1517
      1514      1517      1519      1520      1514      1517      1519      1524
      1515      1514      1517      1518      1515      1514      1517      1519
      1516      1514      1517      1518      1516      1514      1517      1519
      1517      1519      1520      1521      1517      1519      1520      1522
      1517      1519      1520      1523      1517      1519      1524      1525
      1517      1519      1524      1526      1517      1519      1524      1527
      1518      1517      1519      1520      1518      1517      1519      1524
      1519      1524      1527      1528      1519      1524      1527      1529
      1520      1519      1524      1525      1520      1519      1524      1526
      1520      1519      1524      1527      1521      1520      1519      1524
      1522      1520      1519      1524      1523      1520      1519      1524
      1525      1524      1527      1528      1525      1524      1527      1529
      1526      1524      1527      1528      1526      1524      1527      1529
      1530      1536      1539      1540      1530      1536      1539      1541
      1530      1536      1539      1542      1531      1530      1532      1533
      1531      1530      1532      1534      1531      1530      1532      1535
      1531      1530      1536      1537      1531      1530      1536      1538
      1531      1530      1536      1539      1532      1530      1536      1537
      1532      1530      1536      1538      1532      1530      1536      1539
      1533      1532      1530      1536      1534      1532      1530      1536
      1535      1532      1530      1536      1536      1539      1542      1543
      1536      1539      1542      1544      1536      1539      1542      1545
      1537      1536      1539      1540      1537      1536      1539      1541
      1537      1536      1539      1542      1538      1536      1539      1540
      1538      1536      1539      1541      1538      1536      1539      1542
      1539      1542      1545      1546      1539      1542      1545      1547
      1539      1542      1545      1551      1540      1539      1542      1543
      1540      1539      1542      1544      1540      1539      1542      1545
      1541      1539      1542      1543      1541      1539      1542      1544
      1541      1539      1542      1545      1542      1545      1547      1548
      1542      1545      1547      1549      1542      1545      1547      1550
      1542      1545      1551      1552      1542      1545      1551      1553
      1542      1545      1551      1554      1543      1542      1545      1546
      1543      1542      1545      1547      1543      1542      1545      1551
      1544      1542      1545      1546      1544      1542      1545      1547
      1544      1542      1545      1551      1546      1545      1547      1548
      1546      1545      1547      1549      1546      1545      1547      1550
      1546      1545      1551      1552      1546      1545      1551      1553
      1546      1545      1551      1554      1547      1545      1551      1552
      1547      1545      1551      1553      1547      1545      1551      1554
      1548      1547      1545      1551      1549      1547      1545      1551
      1550      1547      1545      1551     12237     12250     12253     12254
     12237     12250     12253     12255     12237     12250     12253     12260
     12238     12237     12242     12243     12238     12237     12242     12244
     12238     12237     12242     12245     12238     12237     12246     12247
     12238     12237     12246     12248     12238     12237     12246     12249
     12238     12237     12250     12251     12238     12237     12250     12252
     12238     12237     12250     12253     12239     12238     12237     12242
     12239     12238     12237     12246     12239     12238     12237     12250
     12240     12238     12237     12242     12240     12238     12237     12246
     12240     12238     12237     12250     12241     12238     12237     12242
     12241     12238     12237     12246     12241     12238     12237     12250
     12242     12237     12246     12247     12242     12237     12246     12248
     12242     12237     12246     12249     12242     12237     12250     12251
     12242     12237     12250     12252     12242     12237     12250     12253
     12243     12242     12237     12246     12243     12242     12237     12250
     12244     12242     12237     12246     12244     12242     12237     12250
     12245     12242     12237     12246     12245     12242     12237     12250
     12246     12237     12250     12251     12246     12237     12250     12252
     12246     12237     12250     12253     12247     12246     12237     12250
     12248     12246     12237     12250     12249     12246     12237     12250
     12250     12253     12260     12256     12251     12250     12253     12254
     12251     12250     12253     12255     12251     12250     12253     12260
     12252     12250     12253     12254     12252     12250     12253     12255
     12252     12250     12253     12260     12253     12260     12256     12257
     12253     12260     12256     12258     12253     12260     12256     12259
     12254     12253     12260     12256     12255     12253     12260     12256
     12256     12259     12261     12262     12256     12259     12261     12263
     12256     12259     12261     12266     12257     12256     12259     12261
     12258     12256     12259     12261     12259     12261     12266     12264
     12259     12261     12266     12267     12259     12261     12266     12268
     12260     12256     12259     12261     12261     12266     12264     12265
     12261     12266     12264     12316     12261     12266     12268     12269
     12261     12266     12268     12270     12261     12266     12268     12272
     12262     12261     12266     12264     12262     12261     12266     12267
     12262     12261     12266     12268     12263     12261     12266     12264
     12263     12261     12266     12267     12263     12261     12266     12268
     12264     12266     12268     12269     12264     12266     12268     12270
     12264     12266     12268     12272     12264     12316     12318     12319
     12264     12316     12318     12320     12264     12316     12318     12321
     12265     12264     12266     12267     12265     12264     12266     12268
     12265     12264     12316     12317     12265     12264     12316     12318
     12266     12264     12316     12317     12266     12264     12316     12318
     12266     12268     12270     12271     12266     12268     12272     12273
     12266     12268     12272     12274     12267     12266     12264     12316
     12267     12266     12268     12269     12267     12266     12268     12270
     12267     12266     12268     12272     12268     12266     12264     12316
     12268     12272     12274     12275     12268     12272     12274     12276
     12269     12268     12270     12271     12269     12268     12272     12273
     12269     12268     12272     12274     12270     12268     12272     12273
     12270     12268     12272     12274     12271     12270     12268     12272
     12272     12274     12276     12277     12272     12274     12276     12278
     12272     12274     12276     12279     12273     12272     12274     12275
     12273     12272     12274     12276     12274     12276     12279     12280
     12274     12276     12279     12281     12274     12276     12279     12282
     12275     12274     12276     12277     12275     12274     12276     12278
     12275     12274     12276     12279     12276     12279     12282     12283
     12276     12279     12282     12284     12276     12279     12282     12285
     12277     12276     12279     12280     12277     12276     12279     12281
     12277     12276     12279     12282     12278     12276     12279     12280
     12278     12276     12279     12281     12278     12276     12279     12282
     12279     12282     12285     12286     12279     12282     12285     12287
     12279     12282     12285     12288     12280     12279     12282     12283
     12280     12279     12282     12284     12280     12279     12282     12285
     12281     12279     12282     12283     12281     12279     12282     12284
     12281     12279     12282     12285     12282     12285     12288     12289
     12282     12285     12288     12290     12282     12285     12288     12291
     12283     12282     12285     12286     12283     12282     12285     12287
     12283     12282     12285     12288     12284     12282     12285     12286
     12284     12282     12285     12287     12284     12282     12285     12288
     12285     12288     12291     12292     12285     12288     12291     12293
     12285     12288     12291     12294     12286     12285     12288     12289
     12286     12285     12288     12290     12286     12285     12288     12291
     12287     12285     12288     12289     12287     12285     12288     12290
     12287     12285     12288     12291     12288     12291     12294     12295
     12288     12291     12294     12296     12288     12291     12294     12297
     12289     12288     12291     12292     12289     12288     12291     12293
     12289     12288     12291     12294     12290     12288     12291     12292
     12290     12288     12291     12293     12290     12288     12291     12294
     12291     12294     12297     12298     12291     12294     12297     12299
     12291     12294     12297     12300     12292     12291     12294     12295
     12292     12291     12294     12296     12292     12291     12294     12297
     12293     12291     12294     12295     12293     12291     12294     12296
     12293     12291     12294     12297     12294     12297     12300     12301
     12294     12297     12300     12302     12294     12297     12300     12303
     12295     12294     12297     12298     12295     12294     12297     12299
     12295     12294     12297     12300     12296     12294     12297     12298
     12296     12294     12297     12299     12296     12294     12297     12300
     12297     12300     12303     12304     12297     12300     12303     12305
     12297     12300     12303     12306     12298     12297     12300     12301
     12298     12297     12300     12302     12298     12297     12300     12303
     12299     12297     12300     12301     12299     12297     12300     12302
     12299     12297     12300     12303     12300     12303     12306     12307
     12300     12303     12306     12308     12300     12303     12306     12309
     12301     12300     12303     12304     12301     12300     12303     12305
     12301     12300     12303     12306     12302     12300     12303     12304
     12302     12300     12303     12305     12302     12300     12303     12306
     12303     12306     12309     12310     12303     12306     12309     12311
     12303     12306     12309     12312     12304     12303     12306     12307
     12304     12303     12306     12308     12304     12303     12306     12309
     12305     12303     12306     12307     12305     12303     12306     12308
     12305     12303     12306     12309     12306     12309     12312     12313
     12306     12309     12312     12314     12306     12309     12312     12315
     12307     12306     12309     12310     12307     12306     12309     12311
     12307     12306     12309     12312     12308     12306     12309     12310
     12308     12306     12309     12311     12308     12306     12309     12312
     12310     12309     12312     12313     12310     12309     12312     12314
     12310     12309     12312     12315     12311     12309     12312     12313
     12311     12309     12312     12314     12311     12309     12312     12315
     12316     12318     12321     12322     12316     12318     12321     12323
     12316     12318     12321     12324     12317     12316     12318     12319
     12317     12316     12318     12320     12317     12316     12318     12321
     12318     12321     12324     12325     12318     12321     12324     12326
     12318     12321     12324     12327     12319     12318     12321     12322
     12319     12318     12321     12323     12319     12318     12321     12324
     12320     12318     12321     12322     12320     12318     12321     12323
     12320     12318     12321     12324     12321     12324     12327     12328
     12321     12324     12327     12329     12321     12324     12327     12330
     12322     12321     12324     12325     12322     12321     12324     12326
     12322     12321     12324     12327     12323     12321     12324     12325
     12323     12321     12324     12326     12323     12321     12324     12327
     12324     12327     12330     12331     12324     12327     12330     12332
     12324     12327     12330     12333     12325     12324     12327     12328
     12325     12324     12327     12329     12325     12324     12327     12330
     12326     12324     12327     12328     12326     12324     12327     12329
     12326     12324     12327     12330     12327     12330     12333     12334
     12327     12330     12333     12335     12327     12330     12333     12336
     12328     12327     12330     12331     12328     12327     12330     12332
     12328     12327     12330     12333     12329     12327     12330     12331
     12329     12327     12330     12332     12329     12327     12330     12333
     12330     12333     12336     12337     12330     12333     12336     12338
     12330     12333     12336     12339     12331     12330     12333     12334
     12331     12330     12333     12335     12331     12330     12333     12336
     12332     12330     12333     12334     12332     12330     12333     12335
     12332     12330     12333     12336     12333     12336     12339     12340
     12333     12336     12339     12341     12334     12333     12336     12337
     12334     12333     12336     12338     12334     12333     12336     12339
     12335     12333     12336     12337     12335     12333     12336     12338
     12335     12333     12336     12339     12336     12339     12341     12342
     12336     12339     12341     12343     12337     12336     12339     12340
     12337     12336     12339     12341     12338     12336     12339     12340
     12338     12336     12339     12341     12339     12341     12343     12344
     12339     12341     12343     12345     12339     12341     12343     12346
     12340     12339     12341     12342     12340     12339     12341     12343
     12341     12343     12346     12347     12341     12343     12346     12348
     12341     12343     12346     12349     12342     12341     12343     12344
     12342     12341     12343     12345     12342     12341     12343     12346
     12343     12346     12349     12350     12343     12346     12349     12351
     12343     12346     12349     12352     12344     12343     12346     12347
     12344     12343     12346     12348     12344     12343     12346     12349
     12345     12343     12346     12347     12345     12343     12346     12348
     12345     12343     12346     12349     12346     12349     12352     12353
     12346     12349     12352     12354     12346     12349     12352     12355
     12347     12346     12349     12350     12347     12346     12349     12351
     12347     12346     12349     12352     12348     12346     12349     12350
     12348     12346     12349     12351     12348     12346     12349     12352
     12349     12352     12355     12356     12349     12352     12355     12357
     12349     12352     12355     12358     12350     12349     12352     12353
     12350     12349     12352     12354     12350     12349     12352     12355
     12351     12349     12352     12353     12351     12349     12352     12354
     12351     12349     12352     12355     12352     12355     12358     12359
     12352     12355     12358     12360     12352     12355     12358     12361
     12353     12352     12355     12356     12353     12352     12355     12357
     12353     12352     12355     12358     12354     12352     12355     12356
     12354     12352     12355     12357     12354     12352     12355     12358
     12355     12358     12361     12362     12355     12358     12361     12363
     12355     12358     12361     12364     12356     12355     12358     12359
     12356     12355     12358     12360     12356     12355     12358     12361
     12357     12355     12358     12359     12357     12355     12358     12360
     12357     12355     12358     12361     12358     12361     12364     12365
     12358     12361     12364     12366     12358     12361     12364     12367
     12359     12358     12361     12362     12359     12358     12361     12363
     12359     12358     12361     12364     12360     12358     12361     12362
     12360     12358     12361     12363     12360     12358     12361     12364
     12362     12361     12364     12365     12362     12361     12364     12366
     12362     12361     12364     12367     12363     12361     12364     12365
     12363     12361     12364     12366     12363     12361     12364     12367
      1555      1559      1562      1563      1555      1559      1562      1593
      1555      1601      1598      1593      1555      1601      1598      1599
      1555      1601      1598      1600      1556      1555      1557      1558
      1556      1555      1559      1560      1556      1555      1559      1561
      1556      1555      1559      1562      1556      1555      1601      1598
      1556      1555      1601      1602      1556      1555      1601      1603
      1557      1555      1559      1560      1557      1555      1559      1561
      1557      1555      1559      1562      1557      1555      1601      1598
      1557      1555      1601      1602      1557      1555      1601      1603
      1558      1557      1555      1559      1558      1557      1555      1601
      1559      1555      1601      1598      1559      1555      1601      1602
      1559      1555      1601      1603      1559      1562      1563      1564
      1559      1562      1563      1565      1559      1562      1593      1591
      1559      1562      1593      1594      1559      1562      1593      1598
      1560      1559      1555      1601      1560      1559      1562      1563
      1560      1559      1562      1593      1561      1559      1555      1601
      1561      1559      1562      1563      1561      1559      1562      1593
      1562      1559      1555      1601      1562      1563      1565      1566
      1562      1563      1565      1567      1562      1563      1565      1568
      1562      1593      1591      1568      1562      1593      1591      1588
      1562      1593      1591      1592      1562      1593      1594      1595
      1562      1593      1594      1596      1562      1593      1594      1597
      1562      1593      1598      1599      1562      1593      1598      1600
      1562      1593      1598      1601      1563      1562      1593      1591
      1563      1562      1593      1594      1563      1562      1593      1598
      1563      1565      1568      1569      1563      1565      1568      1570
      1563      1565      1568      1591      1564      1563      1562      1593
      1564      1563      1565      1566      1564      1563      1565      1567
      1564      1563      1565      1568      1565      1563      1562      1593
      1565      1568      1570      1571      1565      1568      1570      1572
      1565      1568      1570      1580      1565      1568      1591      1588
      1565      1568      1591      1592      1565      1568      1591      1593
      1566      1565      1568      1569      1566      1565      1568      1570
      1566      1565      1568      1591      1567      1565      1568      1569
      1567      1565      1568      1570      1567      1565      1568      1591
      1568      1570      1572      1573      1568      1570      1572      1574
      1568      1570      1572      1575      1568      1570      1580      1578
      1568      1570      1580      1581      1568      1570      1580      1585
      1568      1591      1588      1585      1568      1591      1588      1589
      1568      1591      1588      1590      1568      1591      1593      1594
      1568      1591      1593      1598      1569      1568      1570      1571
      1569      1568      1570      1572      1569      1568      1570      1580
      1569      1568      1591      1588      1569      1568      1591      1592
      1569      1568      1591      1593      1570      1568      1591      1588
      1570      1568      1591      1592      1570      1568      1591      1593
      1570      1572      1575      1576      1570      1572      1575      1577
      1570      1572      1575      1578      1570      1580      1578      1575
      1570      1580      1578      1579      1570      1580      1578      1604
      1570      1580      1581      1582      1570      1580      1581      1583
      1570      1580      1581      1584      1570      1580      1585      1586
      1570      1580      1585      1587      1570      1580      1585      1588
      1571      1570      1568      1591      1571      1570      1572      1573
      1571      1570      1572      1574      1571      1570      1572      1575
      1571      1570      1580      1578      1571      1570      1580      1581
      1571      1570      1580      1585      1572      1570      1568      1591
      1572      1570      1580      1578      1572      1570      1580      1581
      1572      1570      1580      1585      1572      1575      1578      1579
      1572      1575      1578      1580      1572      1575      1578      1604
      1573      1572      1570      1580      1573      1572      1575      1576
      1573      1572      1575      1577      1573      1572      1575      1578
      1574      1572      1570      1580      1574      1572      1575      1576
      1574      1572      1575      1577      1574      1572      1575      1578
      1575      1572      1570      1580      1575      1578      1580      1581
      1575      1578      1580      1585      1575      1578      1604      1605
      1575      1578      1604      1606      1575      1578      1604      1610
      1576      1575      1578      1579      1576      1575      1578      1580
      1576      1575      1578      1604      1577      1575      1578      1579
      1577      1575      1578      1580      1577      1575      1578      1604
      1578      1580      1581      1582      1578      1580      1581      1583
      1578      1580      1581      1584      1578      1580      1585      1586
      1578      1580      1585      1587      1578      1580      1585      1588
      1578      1604      1606      1607      1578      1604      1606      1608
      1578      1604      1606      1609      1578      1604      1610      1611
      1578      1604      1610      1612      1578      1604      1610      1613
      1579      1578      1580      1581      1579      1578      1580      1585
      1579      1578      1604      1605      1579      1578      1604      1606
      1579      1578      1604      1610      1580      1570      1568      1591
      1580      1578      1604      1605      1580      1578      1604      1606
      1580      1578      1604      1610      1580      1585      1588      1589
      1580      1585      1588      1590      1580      1585      1588      1591
      1581      1580      1578      1604      1581      1580      1585      1586
      1581      1580      1585      1587      1581      1580      1585      1588
      1582      1581      1580      1585      1583      1581      1580      1585
      1584      1581      1580      1585      1585      1580      1578      1604
      1585      1588      1591      1592      1585      1588      1591      1593
      1586      1585      1588      1589      1586      1585      1588      1590
      1586      1585      1588      1591      1587      1585      1588      1589
      1587      1585      1588      1590      1587      1585      1588      1591
      1588      1591      1593      1594      1588      1591      1593      1598
      1589      1588      1591      1592      1589      1588      1591      1593
      1590      1588      1591      1592      1590      1588      1591      1593
      1591      1593      1594      1595      1591      1593      1594      1596
      1591      1593      1594      1597      1591      1593      1598      1599
      1591      1593      1598      1600      1591      1593      1598      1601
      1592      1591      1593      1594      1592      1591      1593      1598
      1593      1598      1601      1602      1593      1598      1601      1603
      1594      1593      1598      1599      1594      1593      1598      1600
      1594      1593      1598      1601      1595      1594      1593      1598
      1596      1594      1593      1598      1597      1594      1593      1598
      1599      1598      1601      1602      1599      1598      1601      1603
      1600      1598      1601      1602      1600      1598      1601      1603
      1604      1610      1613      1614      1604      1610      1613      1615
      1604      1610      1613      1616      1605      1604      1606      1607
      1605      1604      1606      1608      1605      1604      1606      1609
      1605      1604      1610      1611      1605      1604      1610      1612
      1605      1604      1610      1613      1606      1604      1610      1611
      1606      1604      1610      1612      1606      1604      1610      1613
      1607      1606      1604      1610      1608      1606      1604      1610
      1609      1606      1604      1610      1610      1613      1616      1617
      1610      1613      1616      1618      1610      1613      1616      1619
      1611      1610      1613      1614      1611      1610      1613      1615
      1611      1610      1613      1616      1612      1610      1613      1614
      1612      1610      1613      1615      1612      1610      1613      1616
      1613      1616      1619      1620      1613      1616      1619      1621
      1613      1616      1619      1625      1614      1613      1616      1617
      1614      1613      1616      1618      1614      1613      1616      1619
      1615      1613      1616      1617      1615      1613      1616      1618
      1615      1613      1616      1619      1616      1619      1621      1622
      1616      1619      1621      1623      1616      1619      1621      1624
      1616      1619      1625      1626      1616      1619      1625      1627
      1616      1619      1625      1628      1617      1616      1619      1620
      1617      1616      1619      1621      1617      1616      1619      1625
      1618      1616      1619      1620      1618      1616      1619      1621
      1618      1616      1619      1625      1620      1619      1621      1622
      1620      1619      1621      1623      1620      1619      1621      1624
      1620      1619      1625      1626      1620      1619      1625      1627
      1620      1619      1625      1628      1621      1619      1625      1626
      1621      1619      1625      1627      1621      1619      1625      1628
      1622      1621      1619      1625      1623      1621      1619      1625
      1624      1621      1619      1625     12368     12381     12384     12385
     12368     12381     12384     12386     12368     12381     12384     12391
     12369     12368     12373     12374     12369     12368     12373     12375
     12369     12368     12373     12376     12369     12368     12377     12378
     12369     12368     12377     12379     12369     12368     12377     12380
     12369     12368     12381     12382     12369     12368     12381     12383
     12369     12368     12381     12384     12370     12369     12368     12373
     12370     12369     12368     12377     12370     12369     12368     12381
     12371     12369     12368     12373     12371     12369     12368     12377
     12371     12369     12368     12381     12372     12369     12368     12373
     12372     12369     12368     12377     12372     12369     12368     12381
     12373     12368     12377     12378     12373     12368     12377     12379
     12373     12368     12377     12380     12373     12368     12381     12382
     12373     12368     12381     12383     12373     12368     12381     12384
     12374     12373     12368     12377     12374     12373     12368     12381
     12375     12373     12368     12377     12375     12373     12368     12381
     12376     12373     12368     12377     12376     12373     12368     12381
     12377     12368     12381     12382     12377     12368     12381     12383
     12377     12368     12381     12384     12378     12377     12368     12381
     12379     12377     12368     12381     12380     12377     12368     12381
     12381     12384     12391     12387     12382     12381     12384     12385
     12382     12381     12384     12386     12382     12381     12384     12391
     12383     12381     12384     12385     12383     12381     12384     12386
     12383     12381     12384     12391     12384     12391     12387     12388
     12384     12391     12387     12389     12384     12391     12387     12390
     12385     12384     12391     12387     12386     12384     12391     12387
     12387     12390     12392     12393     12387     12390     12392     12394
     12387     12390     12392     12397     12388     12387     12390     12392
     12389     12387     12390     12392     12390     12392     12397     12395
     12390     12392     12397     12398     12390     12392     12397     12399
     12391     12387     12390     12392     12392     12397     12395     12396
     12392     12397     12395     12447     12392     12397     12399     12400
     12392     12397     12399     12401     12392     12397     12399     12403
     12393     12392     12397     12395     12393     12392     12397     12398
     12393     12392     12397     12399     12394     12392     12397     12395
     12394     12392     12397     12398     12394     12392     12397     12399
     12395     12397     12399     12400     12395     12397     12399     12401
     12395     12397     12399     12403     12395     12447     12449     12450
     12395     12447     12449     12451     12395     12447     12449     12452
     12396     12395     12397     12398     12396     12395     12397     12399
     12396     12395     12447     12448     12396     12395     12447     12449
     12397     12395     12447     12448     12397     12395     12447     12449
     12397     12399     12401     12402     12397     12399     12403     12404
     12397     12399     12403     12405     12398     12397     12395     12447
     12398     12397     12399     12400     12398     12397     12399     12401
     12398     12397     12399     12403     12399     12397     12395     12447
     12399     12403     12405     12406     12399     12403     12405     12407
     12400     12399     12401     12402     12400     12399     12403     12404
     12400     12399     12403     12405     12401     12399     12403     12404
     12401     12399     12403     12405     12402     12401     12399     12403
     12403     12405     12407     12408     12403     12405     12407     12409
     12403     12405     12407     12410     12404     12403     12405     12406
     12404     12403     12405     12407     12405     12407     12410     12411
     12405     12407     12410     12412     12405     12407     12410     12413
     12406     12405     12407     12408     12406     12405     12407     12409
     12406     12405     12407     12410     12407     12410     12413     12414
     12407     12410     12413     12415     12407     12410     12413     12416
     12408     12407     12410     12411     12408     12407     12410     12412
     12408     12407     12410     12413     12409     12407     12410     12411
     12409     12407     12410     12412     12409     12407     12410     12413
     12410     12413     12416     12417     12410     12413     12416     12418
     12410     12413     12416     12419     12411     12410     12413     12414
     12411     12410     12413     12415     12411     12410     12413     12416
     12412     12410     12413     12414     12412     12410     12413     12415
     12412     12410     12413     12416     12413     12416     12419     12420
     12413     12416     12419     12421     12413     12416     12419     12422
     12414     12413     12416     12417     12414     12413     12416     12418
     12414     12413     12416     12419     12415     12413     12416     12417
     12415     12413     12416     12418     12415     12413     12416     12419
     12416     12419     12422     12423     12416     12419     12422     12424
     12416     12419     12422     12425     12417     12416     12419     12420
     12417     12416     12419     12421     12417     12416     12419     12422
     12418     12416     12419     12420     12418     12416     12419     12421
     12418     12416     12419     12422     12419     12422     12425     12426
     12419     12422     12425     12427     12419     12422     12425     12428
     12420     12419     12422     12423     12420     12419     12422     12424
     12420     12419     12422     12425     12421     12419     12422     12423
     12421     12419     12422     12424     12421     12419     12422     12425
     12422     12425     12428     12429     12422     12425     12428     12430
     12422     12425     12428     12431     12423     12422     12425     12426
     12423     12422     12425     12427     12423     12422     12425     12428
     12424     12422     12425     12426     12424     12422     12425     12427
     12424     12422     12425     12428     12425     12428     12431     12432
     12425     12428     12431     12433     12425     12428     12431     12434
     12426     12425     12428     12429     12426     12425     12428     12430
     12426     12425     12428     12431     12427     12425     12428     12429
     12427     12425     12428     12430     12427     12425     12428     12431
     12428     12431     12434     12435     12428     12431     12434     12436
     12428     12431     12434     12437     12429     12428     12431     12432
     12429     12428     12431     12433     12429     12428     12431     12434
     12430     12428     12431     12432     12430     12428     12431     12433
     12430     12428     12431     12434     12431     12434     12437     12438
     12431     12434     12437     12439     12431     12434     12437     12440
     12432     12431     12434     12435     12432     12431     12434     12436
     12432     12431     12434     12437     12433     12431     12434     12435
     12433     12431     12434     12436     12433     12431     12434     12437
     12434     12437     12440     12441     12434     12437     12440     12442
     12434     12437     12440     12443     12435     12434     12437     12438
     12435     12434     12437     12439     12435     12434     12437     12440
     12436     12434     12437     12438     12436     12434     12437     12439
     12436     12434     12437     12440     12437     12440     12443     12444
     12437     12440     12443     12445     12437     12440     12443     12446
     12438     12437     12440     12441     12438     12437     12440     12442
     12438     12437     12440     12443     12439     12437     12440     12441
     12439     12437     12440     12442     12439     12437     12440     12443
     12441     12440     12443     12444     12441     12440     12443     12445
     12441     12440     12443     12446     12442     12440     12443     12444
     12442     12440     12443     12445     12442     12440     12443     12446
     12447     12449     12452     12453     12447     12449     12452     12454
     12447     12449     12452     12455     12448     12447     12449     12450
     12448     12447     12449     12451     12448     12447     12449     12452
     12449     12452     12455     12456     12449     12452     12455     12457
     12449     12452     12455     12458     12450     12449     12452     12453
     12450     12449     12452     12454     12450     12449     12452     12455
     12451     12449     12452     12453     12451     12449     12452     12454
     12451     12449     12452     12455     12452     12455     12458     12459
     12452     12455     12458     12460     12452     12455     12458     12461
     12453     12452     12455     12456     12453     12452     12455     12457
     12453     12452     12455     12458     12454     12452     12455     12456
     12454     12452     12455     12457     12454     12452     12455     12458
     12455     12458     12461     12462     12455     12458     12461     12463
     12455     12458     12461     12464     12456     12455     12458     12459
     12456     12455     12458     12460     12456     12455     12458     12461
     12457     12455     12458     12459     12457     12455     12458     12460
     12457     12455     12458     12461     12458     12461     12464     12465
     12458     12461     12464     12466     12458     12461     12464     12467
     12459     12458     12461     12462     12459     12458     12461     12463
     12459     12458     12461     12464     12460     12458     12461     12462
     12460     12458     12461     12463     12460     12458     12461     12464
     12461     12464     12467     12468     12461     12464     12467     12469
     12461     12464     12467     12470     12462     12461     12464     12465
     12462     12461     12464     12466     12462     12461     12464     12467
     12463     12461     12464     12465     12463     12461     12464     12466
     12463     12461     12464     12467     12464     12467     12470     12471
     12464     12467     12470     12472     12465     12464     12467     12468
     12465     12464     12467     12469     12465     12464     12467     12470
     12466     12464     12467     12468     12466     12464     12467     12469
     12466     12464     12467     12470     12467     12470     12472     12473
     12467     12470     12472     12474     12468     12467     12470     12471
     12468     12467     12470     12472     12469     12467     12470     12471
     12469     12467     12470     12472     12470     12472     12474     12475
     12470     12472     12474     12476     12470     12472     12474     12477
     12471     12470     12472     12473     12471     12470     12472     12474
     12472     12474     12477     12478     12472     12474     12477     12479
     12472     12474     12477     12480     12473     12472     12474     12475
     12473     12472     12474     12476     12473     12472     12474     12477
     12474     12477     12480     12481     12474     12477     12480     12482
     12474     12477     12480     12483     12475     12474     12477     12478
     12475     12474     12477     12479     12475     12474     12477     12480
     12476     12474     12477     12478     12476     12474     12477     12479
     12476     12474     12477     12480     12477     12480     12483     12484
     12477     12480     12483     12485     12477     12480     12483     12486
     12478     12477     12480     12481     12478     12477     12480     12482
     12478     12477     12480     12483     12479     12477     12480     12481
     12479     12477     12480     12482     12479     12477     12480     12483
     12480     12483     12486     12487     12480     12483     12486     12488
     12480     12483     12486     12489     12481     12480     12483     12484
     12481     12480     12483     12485     12481     12480     12483     12486
     12482     12480     12483     12484     12482     12480     12483     12485
     12482     12480     12483     12486     12483     12486     12489     12490
     12483     12486     12489     12491     12483     12486     12489     12492
     12484     12483     12486     12487     12484     12483     12486     12488
     12484     12483     12486     12489     12485     12483     12486     12487
     12485     12483     12486     12488     12485     12483     12486     12489
     12486     12489     12492     12493     12486     12489     12492     12494
     12486     12489     12492     12495     12487     12486     12489     12490
     12487     12486     12489     12491     12487     12486     12489     12492
     12488     12486     12489     12490     12488     12486     12489     12491
     12488     12486     12489     12492     12489     12492     12495     12496
     12489     12492     12495     12497     12489     12492     12495     12498
     12490     12489     12492     12493     12490     12489     12492     12494
     12490     12489     12492     12495     12491     12489     12492     12493
     12491     12489     12492     12494     12491     12489     12492     12495
     12493     12492     12495     12496     12493     12492     12495     12497
     12493     12492     12495     12498     12494     12492     12495     12496
     12494     12492     12495     12497     12494     12492     12495     12498
      1629      1633      1636      1637      1629      1633      1636      1667
      1629      1675      1672      1667      1629      1675      1672      1673
      1629      1675      1672      1674      1630      1629      1631      1632
      1630      1629      1633      1634      1630      1629      1633      1635
      1630      1629      1633      1636      1630      1629      1675      1672
      1630      1629      1675      1676      1630      1629      1675      1677
      1631      1629      1633      1634      1631      1629      1633      1635
      1631      1629      1633      1636      1631      1629      1675      1672
      1631      1629      1675      1676      1631      1629      1675      1677
      1632      1631      1629      1633      1632      1631      1629      1675
      1633      1629      1675      1672      1633      1629      1675      1676
      1633      1629      1675      1677      1633      1636      1637      1638
      1633      1636      1637      1639      1633      1636      1667      1665
      1633      1636      1667      1668      1633      1636      1667      1672
      1634      1633      1629      1675      1634      1633      1636      1637
      1634      1633      1636      1667      1635      1633      1629      1675
      1635      1633      1636      1637      1635      1633      1636      1667
      1636      1633      1629      1675      1636      1637      1639      1640
      1636      1637      1639      1641      1636      1637      1639      1642
      1636      1667      1665      1642      1636      1667      1665      1662
      1636      1667      1665      1666      1636      1667      1668      1669
      1636      1667      1668      1670      1636      1667      1668      1671
      1636      1667      1672      1673      1636      1667      1672      1674
      1636      1667      1672      1675      1637      1636      1667      1665
      1637      1636      1667      1668      1637      1636      1667      1672
      1637      1639      1642      1643      1637      1639      1642      1644
      1637      1639      1642      1665      1638      1637      1636      1667
      1638      1637      1639      1640      1638      1637      1639      1641
      1638      1637      1639      1642      1639      1637      1636      1667
      1639      1642      1644      1645      1639      1642      1644      1646
      1639      1642      1644      1654      1639      1642      1665      1662
      1639      1642      1665      1666      1639      1642      1665      1667
      1640      1639      1642      1643      1640      1639      1642      1644
      1640      1639      1642      1665      1641      1639      1642      1643
      1641      1639      1642      1644      1641      1639      1642      1665
      1642      1644      1646      1647      1642      1644      1646      1648
      1642      1644      1646      1649      1642      1644      1654      1652
      1642      1644      1654      1655      1642      1644      1654      1659
      1642      1665      1662      1659      1642      1665      1662      1663
      1642      1665      1662      1664      1642      1665      1667      1668
      1642      1665      1667      1672      1643      1642      1644      1645
      1643      1642      1644      1646      1643      1642      1644      1654
      1643      1642      1665      1662      1643      1642      1665      1666
      1643      1642      1665      1667      1644      1642      1665      1662
      1644      1642      1665      1666      1644      1642      1665      1667
      1644      1646      1649      1650      1644      1646      1649      1651
      1644      1646      1649      1652      1644      1654      1652      1649
      1644      1654      1652      1653      1644      1654      1652      1678
      1644      1654      1655      1656      1644      1654      1655      1657
      1644      1654      1655      1658      1644      1654      1659      1660
      1644      1654      1659      1661      1644      1654      1659      1662
      1645      1644      1642      1665      1645      1644      1646      1647
      1645      1644      1646      1648      1645      1644      1646      1649
      1645      1644      1654      1652      1645      1644      1654      1655
      1645      1644      1654      1659      1646      1644      1642      1665
      1646      1644      1654      1652      1646      1644      1654      1655
      1646      1644      1654      1659      1646      1649      1652      1653
      1646      1649      1652      1654      1646      1649      1652      1678
      1647      1646      1644      1654      1647      1646      1649      1650
      1647      1646      1649      1651      1647      1646      1649      1652
      1648      1646      1644      1654      1648      1646      1649      1650
      1648      1646      1649      1651      1648      1646      1649      1652
      1649      1646      1644      1654      1649      1652      1654      1655
      1649      1652      1654      1659      1649      1652      1678      1679
      1649      1652      1678      1680      1649      1652      1678      1684
      1650      1649      1652      1653      1650      1649      1652      1654
      1650      1649      1652      1678      1651      1649      1652      1653
      1651      1649      1652      1654      1651      1649      1652      1678
      1652      1654      1655      1656      1652      1654      1655      1657
      1652      1654      1655      1658      1652      1654      1659      1660
      1652      1654      1659      1661      1652      1654      1659      1662
      1652      1678      1680      1681      1652      1678      1680      1682
      1652      1678      1680      1683      1652      1678      1684      1685
      1652      1678      1684      1686      1652      1678      1684      1687
      1653      1652      1654      1655      1653      1652      1654      1659
      1653      1652      1678      1679      1653      1652      1678      1680
      1653      1652      1678      1684      1654      1644      1642      1665
      1654      1652      1678      1679      1654      1652      1678      1680
      1654      1652      1678      1684      1654      1659      1662      1663
      1654      1659      1662      1664      1654      1659      1662      1665
      1655      1654      1652      1678      1655      1654      1659      1660
      1655      1654      1659      1661      1655      1654      1659      1662
      1656      1655      1654      1659      1657      1655      1654      1659
      1658      1655      1654      1659      1659      1654      1652      1678
      1659      1662      1665      1666      1659      1662      1665      1667
      1660      1659      1662      1663      1660      1659      1662      1664
      1660      1659      1662      1665      1661      1659      1662      1663
      1661      1659      1662      1664      1661      1659      1662      1665
      1662      1665      1667      1668      1662      1665      1667      1672
      1663      1662      1665      1666      1663      1662      1665      1667
      1664      1662      1665      1666      1664      1662      1665      1667
      1665      1667      1668      1669      1665      1667      1668      1670
      1665      1667      1668      1671      1665      1667      1672      1673
      1665      1667      1672      1674      1665      1667      1672      1675
      1666      1665      1667      1668      1666      1665      1667      1672
      1667      1672      1675      1676      1667      1672      1675      1677
      1668      1667      1672      1673      1668      1667      1672      1674
      1668      1667      1672      1675      1669      1668      1667      1672
      1670      1668      1667      1672      1671      1668      1667      1672
      1673      1672      1675      1676      1673      1672      1675      1677
      1674      1672      1675      1676      1674      1672      1675      1677
      1678      1684      1687      1688      1678      1684      1687      1689
      1678      1684      1687      1690      1679      1678      1680      1681
      1679      1678      1680      1682      1679      1678      1680      1683
      1679      1678      1684      1685      1679      1678      1684      1686
      1679      1678      1684      1687      1680      1678      1684      1685
      1680      1678      1684      1686      1680      1678      1684      1687
      1681      1680      1678      1684      1682      1680      1678      1684
      1683      1680      1678      1684      1684      1687      1690      1691
      1684      1687      1690      1692      1684      1687      1690      1693
      1685      1684      1687      1688      1685      1684      1687      1689
      1685      1684      1687      1690      1686      1684      1687      1688
      1686      1684      1687      1689      1686      1684      1687      1690
      1687      1690      1693      1694      1687      1690      1693      1695
      1687      1690      1693      1699      1688      1687      1690      1691
      1688      1687      1690      1692      1688      1687      1690      1693
      1689      1687      1690      1691      1689      1687      1690      1692
      1689      1687      1690      1693      1690      1693      1695      1696
      1690      1693      1695      1697      1690      1693      1695      1698
      1690      1693      1699      1700      1690      1693      1699      1701
      1690      1693      1699      1702      1691      1690      1693      1694
      1691      1690      1693      1695      1691      1690      1693      1699
      1692      1690      1693      1694      1692      1690      1693      1695
      1692      1690      1693      1699      1694      1693      1695      1696
      1694      1693      1695      1697      1694      1693      1695      1698
      1694      1693      1699      1700      1694      1693      1699      1701
      1694      1693      1699      1702      1695      1693      1699      1700
      1695      1693      1699      1701      1695      1693      1699      1702
      1696      1695      1693      1699      1697      1695      1693      1699
      1698      1695      1693      1699      4565      4566      4581      4582
      4565      4566      4581      4583      4565      4566      4581      4587
      4566      4565      4569      4570      4566      4565      4569      4571
      4566      4565      4569      4572      4566      4565      4573      4574
      4566      4565      4573      4575      4566      4565      4573      4576
      4566      4565      4577      4578      4566      4565      4577      4579
      4566      4565      4577      4580      4566      4581      4587      4584
      4567      4566      4565      4569      4567      4566      4565      4573
      4567      4566      4565      4577      4567      4566      4581      4582
      4567      4566      4581      4583      4567      4566      4581      4587
      4568      4566      4565      4569      4568      4566      4565      4573
      4568      4566      4565      4577      4568      4566      4581      4582
      4568      4566      4581      4583      4568      4566      4581      4587
      4569      4565      4566      4581      4569      4565      4573      4574
      4569      4565      4573      4575      4569      4565      4573      4576
      4569      4565      4577      4578      4569      4565      4577      4579
      4569      4565      4577      4580      4570      4569      4565      4573
      4570      4569      4565      4577      4571      4569      4565      4573
      4571      4569      4565      4577      4572      4569      4565      4573
      4572      4569      4565      4577      4573      4565      4566      4581
      4573      4565      4577      4578      4573      4565      4577      4579
      4573      4565      4577      4580      4574      4573      4565      4577
      4575      4573      4565      4577      4576      4573      4565      4577
      4577      4565      4566      4581      4581      4587      4584      4585
      4581      4587      4584      4586      4581      4587      4584      4588
      4582      4581      4587      4584      4583      4581      4587      4584
      4584      4588      4589      4590      4584      4588      4589      4591
      4584      4588      4589      4592      4585      4584      4588      4589
      4586      4584      4588      4589      4587      4584      4588      4589
      4588      4589      4592      4593      4588      4589      4592      4594
      4588      4589      4592      4600      4589      4592      4594      4595
      4589      4592      4600      4601      4589      4592      4600      4602
      4589      4592      4600      4603      4590      4589      4592      4593
      4590      4589      4592      4594      4590      4589      4592      4600
      4591      4589      4592      4593      4591      4589      4592      4594
      4591      4589      4592      4600      4592      4594      4595      4596
      4592      4594      4595      4597      4592      4600      4603      4604
      4593      4592      4594      4595      4593      4592      4600      4601
      4593      4592      4600      4602      4593      4592      4600      4603
      4594      4592      4600      4601      4594      4592      4600      4602
      4594      4592      4600      4603      4594      4595      4597      4598
      4594      4595      4597      4599      4594      4595      4597      4609
      4595      4594      4592      4600      4595      4597      4609      4610
      4595      4597      4609      4611      4595      4597      4609      4612
      4596      4595      4597      4598      4596      4595      4597      4599
      4596      4595      4597      4609      4597      4609      4612      4613
      4597      4609      4612      4614      4597      4609      4612      4615
      4598      4597      4609      4610      4598      4597      4609      4611
      4598      4597      4609      4612      4599      4597      4609      4610
      4599      4597      4609      4611      4599      4597      4609      4612
      4600      4603      4604      4605      4600      4603      4604      4606
      4601      4600      4603      4604      4602      4600      4603      4604
      4603      4604      4606      4607      4603      4604      4606      4608
      4603      4604      4606      4656      4604      4606      4656      4657
      4604      4606      4656      4658      4604      4606      4656      4659
      4605      4604      4606      4607      4605      4604      4606      4608
      4605      4604      4606      4656      4606      4656      4659      4660
      4606      4656      4659      4661      4606      4656      4659      4662
      4607      4606      4656      4657      4607      4606      4656      4658
      4607      4606      4656      4659      4608      4606      4656      4657
      4608      4606      4656      4658      4608      4606      4656      4659
      4609      4612      4615      4616      4609      4612      4615      4617
      4610      4609      4612      4613      4610      4609      4612      4614
      4610      4609      4612      4615      4611      4609      4612      4613
      4611      4609      4612      4614      4611      4609      4612      4615
      4612      4615      4617      4618      4612      4615      4617      4619
      4613      4612      4615      4616      4613      4612      4615      4617
      4614      4612      4615      4616      4614      4612      4615      4617
      4615      4617      4619      4620      4615      4617      4619      4621
      4615      4617      4619      4622      4616      4615      4617      4618
      4616      4615      4617      4619      4617      4619      4622      4623
      4617      4619      4622      4624      4618      4617      4619      4620
      4618      4617      4619      4621      4618      4617      4619      4622
      4619      4622      4624      4625      4619      4622      4624      4626
      4620      4619      4622      4623      4620      4619      4622      4624
      4621      4619      4622      4623      4621      4619      4622      4624
      4622      4624      4626      4627      4622      4624      4626      4628
      4622      4624      4626      4629      4623      4622      4624      4625
      4623      4622      4624      4626      4624      4626      4629      4630
      4624      4626      4629      4631      4625      4624      4626      4627
      4625      4624      4626      4628      4625      4624      4626      4629
      4626      4629      4631      4632      4626      4629      4631      4633
      4627      4626      4629      4630      4627      4626      4629      4631
      4628      4626      4629      4630      4628      4626      4629      4631
      4629      4631      4633      4634      4629      4631      4633      4635
      4629      4631      4633      4636      4630      4629      4631      4632
      4630      4629      4631      4633      4631      4633      4636      4637
      4631      4633      4636      4638      4632      4631      4633      4634
      4632      4631      4633      4635      4632      4631      4633      4636
      4633      4636      4638      4639      4633      4636      4638      4640
      4634      4633      4636      4637      4634      4633      4636      4638
      4635      4633      4636      4637      4635      4633      4636      4638
      4636      4638      4640      4641      4636      4638      4640      4642
      4636      4638      4640      4643      4637      4636      4638      4639
      4637      4636      4638      4640      4638      4640      4643      4644
      4638      4640      4643      4645      4638      4640      4643      4646
      4639      4638      4640      4641      4639      4638      4640      4642
      4639      4638      4640      4643      4640      4643      4646      4647
      4640      4643      4646      4648      4640      4643      4646      4649
      4641      4640      4643      4644      4641      4640      4643      4645
      4641      4640      4643      4646      4642      4640      4643      4644
      4642      4640      4643      4645      4642      4640      4643      4646
      4643      4646      4649      4650      4643      4646      4649      4651
      4643      4646      4649      4652      4644      4643      4646      4647
      4644      4643      4646      4648      4644      4643      4646      4649
      4645      4643      4646      4647      4645      4643      4646      4648
      4645      4643      4646      4649      4646      4649      4652      4653
      4646      4649      4652      4654      4646      4649      4652      4655
      4647      4646      4649      4650      4647      4646      4649      4651
      4647      4646      4649      4652      4648      4646      4649      4650
      4648      4646      4649      4651      4648      4646      4649      4652
      4650      4649      4652      4653      4650      4649      4652      4654
      4650      4649      4652      4655      4651      4649      4652      4653
      4651      4649      4652      4654      4651      4649      4652      4655
      4656      4659      4662      4663      4656      4659      4662      4664
      4656      4659      4662      4665      4657      4656      4659      4660
      4657      4656      4659      4661      4657      4656      4659      4662
      4658      4656      4659      4660      4658      4656      4659      4661
      4658      4656      4659      4662      4659      4662      4665      4666
      4659      4662      4665      4667      4659      4662      4665      4668
      4660      4659      4662      4663      4660      4659      4662      4664
      4660      4659      4662      4665      4661      4659      4662      4663
      4661      4659      4662      4664      4661      4659      4662      4665
      4662      4665      4668      4669      4662      4665      4668      4670
      4662      4665      4668      4671      4663      4662      4665      4666
      4663      4662      4665      4667      4663      4662      4665      4668
      4664      4662      4665      4666      4664      4662      4665      4667
      4664      4662      4665      4668      4665      4668      4671      4672
      4665      4668      4671      4673      4665      4668      4671      4674
      4666      4665      4668      4669      4666      4665      4668      4670
      4666      4665      4668      4671      4667      4665      4668      4669
      4667      4665      4668      4670      4667      4665      4668      4671
      4668      4671      4674      4675      4668      4671      4674      4676
      4668      4671      4674      4677      4669      4668      4671      4672
      4669      4668      4671      4673      4669      4668      4671      4674
      4670      4668      4671      4672      4670      4668      4671      4673
      4670      4668      4671      4674      4671      4674      4677      4678
      4671      4674      4677      4679      4671      4674      4677      4680
      4672      4671      4674      4675      4672      4671      4674      4676
      4672      4671      4674      4677      4673      4671      4674      4675
      4673      4671      4674      4676      4673      4671      4674      4677
      4674      4677      4680      4681      4674      4677      4680      4682
      4674      4677      4680      4683      4675      4674      4677      4678
      4675      4674      4677      4679      4675      4674      4677      4680
      4676      4674      4677      4678      4676      4674      4677      4679
      4676      4674      4677      4680      4677      4680      4683      4684
      4677      4680      4683      4685      4677      4680      4683      4686
      4678      4677      4680      4681      4678      4677      4680      4682
      4678      4677      4680      4683      4679      4677      4680      4681
      4679      4677      4680      4682      4679      4677      4680      4683
      4680      4683      4686      4687      4680      4683      4686      4688
      4680      4683      4686      4689      4681      4680      4683      4684
      4681      4680      4683      4685      4681      4680      4683      4686
      4682      4680      4683      4684      4682      4680      4683      4685
      4682      4680      4683      4686      4683      4686      4689      4690
      4683      4686      4689      4691      4683      4686      4689      4692
      4684      4683      4686      4687      4684      4683      4686      4688
      4684      4683      4686      4689      4685      4683      4686      4687
      4685      4683      4686      4688      4685      4683      4686      4689
      4686      4689      4692      4693      4686      4689      4692      4694
      4686      4689      4692      4695      4687      4686      4689      4690
      4687      4686      4689      4691      4687      4686      4689      4692
      4688      4686      4689      4690      4688      4686      4689      4691
      4688      4686      4689      4692      4689      4692      4695      4696
      4689      4692      4695      4697      4689      4692      4695      4698
      4690      4689      4692      4693      4690      4689      4692      4694
      4690      4689      4692      4695      4691      4689      4692      4693
      4691      4689      4692      4694      4691      4689      4692      4695
      4692      4695      4698      4699      4692      4695      4698      4700
      4692      4695      4698      4701      4693      4692      4695      4696
      4693      4692      4695      4697      4693      4692      4695      4698
      4694      4692      4695      4696      4694      4692      4695      4697
      4694      4692      4695      4698      4695      4698      4701      4702
      4695      4698      4701      4703      4695      4698      4701      4704
      4696      4695      4698      4699      4696      4695      4698      4700
      4696      4695      4698      4701      4697      4695      4698      4699
      4697      4695      4698      4700      4697      4695      4698      4701
      4699      4698      4701      4702      4699      4698      4701      4703
      4699      4698      4701      4704      4700      4698      4701      4702
      4700      4698      4701      4703      4700      4698      4701      4704
     20228     20232     20235     20236     20228     20232     20235     20237
     20228     20232     20235     20241     20229     20228     20232     20233
     20229     20228     20232     20234     20229     20228     20232     20235
     20230     20228     20232     20233     20230     20228     20232     20234
     20230     20228     20232     20235     20231     20228     20232     20233
     20231     20228     20232     20234     20231     20228     20232     20235
     20232     20235     20241     20238     20233     20232     20235     20236
     20233     20232     20235     20237     20233     20232     20235     20241
     20234     20232     20235     20236     20234     20232     20235     20237
     20234     20232     20235     20241     20235     20241     20238     20239
     20235     20241     20238     20240     20235     20241     20238     20242
     20236     20235     20241     20238     20237     20235     20241     20238
     20238     20242     20243     20244     20238     20242     20243     20245
     20238     20242     20243     20246     20239     20238     20242     20243
     20240     20238     20242     20243     20241     20238     20242     20243
     20242     20243     20246     20247     20242     20243     20246     20248
     20242     20243     20246     20254     20243     20246     20248     20249
     20243     20246     20254     20255     20243     20246     20254     20256
     20243     20246     20254     20257     20244     20243     20246     20247
     20244     20243     20246     20248     20244     20243     20246     20254
     20245     20243     20246     20247     20245     20243     20246     20248
     20245     20243     20246     20254     20246     20248     20249     20250
     20246     20248     20249     20251     20246     20254     20257     20258
     20247     20246     20248     20249     20247     20246     20254     20255
     20247     20246     20254     20256     20247     20246     20254     20257
     20248     20246     20254     20255     20248     20246     20254     20256
     20248     20246     20254     20257     20248     20249     20251     20252
     20248     20249     20251     20253     20248     20249     20251     20263
     20249     20248     20246     20254     20249     20251     20263     20264
     20249     20251     20263     20265     20249     20251     20263     20266
     20250     20249     20251     20252     20250     20249     20251     20253
     20250     20249     20251     20263     20251     20263     20266     20267
     20251     20263     20266     20268     20251     20263     20266     20269
     20252     20251     20263     20264     20252     20251     20263     20265
     20252     20251     20263     20266     20253     20251     20263     20264
     20253     20251     20263     20265     20253     20251     20263     20266
     20254     20257     20258     20259     20254     20257     20258     20260
     20255     20254     20257     20258     20256     20254     20257     20258
     20257     20258     20260     20261     20257     20258     20260     20262
     20257     20258     20260     20310     20258     20260     20310     20311
     20258     20260     20310     20312     20258     20260     20310     20313
     20259     20258     20260     20261     20259     20258     20260     20262
     20259     20258     20260     20310     20260     20310     20313     20314
     20260     20310     20313     20315     20260     20310     20313     20316
     20261     20260     20310     20311     20261     20260     20310     20312
     20261     20260     20310     20313     20262     20260     20310     20311
     20262     20260     20310     20312     20262     20260     20310     20313
     20263     20266     20269     20270     20263     20266     20269     20271
     20263     20266     20269     20272     20264     20263     20266     20267
     20264     20263     20266     20268     20264     20263     20266     20269
     20265     20263     20266     20267     20265     20263     20266     20268
     20265     20263     20266     20269     20266     20269     20272     20273
     20266     20269     20272     20274     20266     20269     20272     20275
     20267     20266     20269     20270     20267     20266     20269     20271
     20267     20266     20269     20272     20268     20266     20269     20270
     20268     20266     20269     20271     20268     20266     20269     20272
     20269     20272     20275     20276     20269     20272     20275     20277
     20269     20272     20275     20278     20270     20269     20272     20273
     20270     20269     20272     20274     20270     20269     20272     20275
     20271     20269     20272     20273     20271     20269     20272     20274
     20271     20269     20272     20275     20272     20275     20278     20279
     20272     20275     20278     20280     20272     20275     20278     20281
     20273     20272     20275     20276     20273     20272     20275     20277
     20273     20272     20275     20278     20274     20272     20275     20276
     20274     20272     20275     20277     20274     20272     20275     20278
     20275     20278     20281     20282     20275     20278     20281     20283
     20276     20275     20278     20279     20276     20275     20278     20280
     20276     20275     20278     20281     20277     20275     20278     20279
     20277     20275     20278     20280     20277     20275     20278     20281
     20278     20281     20283     20284     20278     20281     20283     20285
     20279     20278     20281     20282     20279     20278     20281     20283
     20280     20278     20281     20282     20280     20278     20281     20283
     20281     20283     20285     20286     20281     20283     20285     20287
     20281     20283     20285     20288     20282     20281     20283     20284
     20282     20281     20283     20285     20283     20285     20288     20289
     20283     20285     20288     20290     20283     20285     20288     20291
     20284     20283     20285     20286     20284     20283     20285     20287
     20284     20283     20285     20288     20285     20288     20291     20292
     20285     20288     20291     20293     20285     20288     20291     20294
     20286     20285     20288     20289     20286     20285     20288     20290
     20286     20285     20288     20291     20287     20285     20288     20289
     20287     20285     20288     20290     20287     20285     20288     20291
     20288     20291     20294     20295     20288     20291     20294     20296
     20288     20291     20294     20297     20289     20288     20291     20292
     20289     20288     20291     20293     20289     20288     20291     20294
     20290     20288     20291     20292     20290     20288     20291     20293
     20290     20288     20291     20294     20291     20294     20297     20298
     20291     20294     20297     20299     20291     20294     20297     20300
     20292     20291     20294     20295     20292     20291     20294     20296
     20292     20291     20294     20297     20293     20291     20294     20295
     20293     20291     20294     20296     20293     20291     20294     20297
     20294     20297     20300     20301     20294     20297     20300     20302
     20294     20297     20300     20303     20295     20294     20297     20298
     20295     20294     20297     20299     20295     20294     20297     20300
     20296     20294     20297     20298     20296     20294     20297     20299
     20296     20294     20297     20300     20297     20300     20303     20304
     20297     20300     20303     20305     20297     20300     20303     20306
     20298     20297     20300     20301     20298     20297     20300     20302
     20298     20297     20300     20303     20299     20297     20300     20301
     20299     20297     20300     20302     20299     20297     20300     20303
     20300     20303     20306     20307     20300     20303     20306     20308
     20300     20303     20306     20309     20301     20300     20303     20304
     20301     20300     20303     20305     20301     20300     20303     20306
     20302     20300     20303     20304     20302     20300     20303     20305
     20302     20300     20303     20306     20304     20303     20306     20307
     20304     20303     20306     20308     20304     20303     20306     20309
     20305     20303     20306     20307     20305     20303     20306     20308
     20305     20303     20306     20309     20310     20313     20316     20317
     20310     20313     20316     20318     20310     20313     20316     20319
     20311     20310     20313     20314     20311     20310     20313     20315
     20311     20310     20313     20316     20312     20310     20313     20314
     20312     20310     20313     20315     20312     20310     20313     20316
     20313     20316     20319     20320     20313     20316     20319     20321
     20313     20316     20319     20322     20314     20313     20316     20317
     20314     20313     20316     20318     20314     20313     20316     20319
     20315     20313     20316     20317     20315     20313     20316     20318
     20315     20313     20316     20319     20316     20319     20322     20323
     20316     20319     20322     20324     20316     20319     20322     20325
     20317     20316     20319     20320     20317     20316     20319     20321
     20317     20316     20319     20322     20318     20316     20319     20320
     20318     20316     20319     20321     20318     20316     20319     20322
     20319     20322     20325     20326     20319     20322     20325     20327
     20319     20322     20325     20328     20320     20319     20322     20323
     20320     20319     20322     20324     20320     20319     20322     20325
     20321     20319     20322     20323     20321     20319     20322     20324
     20321     20319     20322     20325     20322     20325     20328     20329
     20322     20325     20328     20330     20322     20325     20328     20331
     20323     20322     20325     20326     20323     20322     20325     20327
     20323     20322     20325     20328     20324     20322     20325     20326
     20324     20322     20325     20327     20324     20322     20325     20328
     20325     20328     20331     20332     20325     20328     20331     20333
     20325     20328     20331     20334     20326     20325     20328     20329
     20326     20325     20328     20330     20326     20325     20328     20331
     20327     20325     20328     20329     20327     20325     20328     20330
     20327     20325     20328     20331     20328     20331     20334     20335
     20328     20331     20334     20336     20328     20331     20334     20337
     20329     20328     20331     20332     20329     20328     20331     20333
     20329     20328     20331     20334     20330     20328     20331     20332
     20330     20328     20331     20333     20330     20328     20331     20334
     20331     20334     20337     20338     20331     20334     20337     20339
     20331     20334     20337     20340     20332     20331     20334     20335
     20332     20331     20334     20336     20332     20331     20334     20337
     20333     20331     20334     20335     20333     20331     20334     20336
     20333     20331     20334     20337     20334     20337     20340     20341
     20334     20337     20340     20342     20334     20337     20340     20343
     20335     20334     20337     20338     20335     20334     20337     20339
     20335     20334     20337     20340     20336     20334     20337     20338
     20336     20334     20337     20339     20336     20334     20337     20340
     20337     20340     20343     20344     20337     20340     20343     20345
     20337     20340     20343     20346     20338     20337     20340     20341
     20338     20337     20340     20342     20338     20337     20340     20343
     20339     20337     20340     20341     20339     20337     20340     20342
     20339     20337     20340     20343     20340     20343     20346     20347
     20340     20343     20346     20348     20340     20343     20346     20349
     20341     20340     20343     20344     20341     20340     20343     20345
     20341     20340     20343     20346     20342     20340     20343     20344
     20342     20340     20343     20345     20342     20340     20343     20346
     20343     20346     20349     20350     20343     20346     20349     20351
     20343     20346     20349     20352     20344     20343     20346     20347
     20344     20343     20346     20348     20344     20343     20346     20349
     20345     20343     20346     20347     20345     20343     20346     20348
     20345     20343     20346     20349     20346     20349     20352     20353
     20346     20349     20352     20354     20346     20349     20352     20355
     20347     20346     20349     20350     20347     20346     20349     20351
     20347     20346     20349     20352     20348     20346     20349     20350
     20348     20346     20349     20351     20348     20346     20349     20352
     20349     20352     20355     20356     20349     20352     20355     20357
     20349     20352     20355     20358     20350     20349     20352     20353
     20350     20349     20352     20354     20350     20349     20352     20355
     20351     20349     20352     20353     20351     20349     20352     20354
     20351     20349     20352     20355     20353     20352     20355     20356
     20353     20352     20355     20357     20353     20352     20355     20358
     20354     20352     20355     20356     20354     20352     20355     20357
     20354     20352     20355     20358     16822     16826     16829     16830
     16822     16826     16829     16831     16822     16826     16829     16835
     16823     16822     16826     16827     16823     16822     16826     16828
     16823     16822     16826     16829     16824     16822     16826     16827
     16824     16822     16826     16828     16824     16822     16826     16829
     16825     16822     16826     16827     16825     16822     16826     16828
     16825     16822     16826     16829     16826     16829     16835     16832
     16827     16826     16829     16830     16827     16826     16829     16831
     16827     16826     16829     16835     16828     16826     16829     16830
     16828     16826     16829     16831     16828     16826     16829     16835
     16829     16835     16832     16833     16829     16835     16832     16834
     16829     16835     16832     16836     16830     16829     16835     16832
     16831     16829     16835     16832     16832     16836     16837     16838
     16832     16836     16837     16839     16832     16836     16837     16840
     16833     16832     16836     16837     16834     16832     16836     16837
     16835     16832     16836     16837     16836     16837     16840     16841
     16836     16837     16840     16842     16836     16837     16840     16848
     16837     16840     16842     16843     16837     16840     16848     16849
     16837     16840     16848     16850     16837     16840     16848     16851
     16838     16837     16840     16841     16838     16837     16840     16842
     16838     16837     16840     16848     16839     16837     16840     16841
     16839     16837     16840     16842     16839     16837     16840     16848
     16840     16842     16843     16844     16840     16842     16843     16845
     16840     16848     16851     16852     16841     16840     16842     16843
     16841     16840     16848     16849     16841     16840     16848     16850
     16841     16840     16848     16851     16842     16840     16848     16849
     16842     16840     16848     16850     16842     16840     16848     16851
     16842     16843     16845     16846     16842     16843     16845     16847
     16842     16843     16845     16857     16843     16842     16840     16848
     16843     16845     16857     16858     16843     16845     16857     16859
     16843     16845     16857     16860     16844     16843     16845     16846
     16844     16843     16845     16847     16844     16843     16845     16857
     16845     16857     16860     16861     16845     16857     16860     16862
     16845     16857     16860     16863     16846     16845     16857     16858
     16846     16845     16857     16859     16846     16845     16857     16860
     16847     16845     16857     16858     16847     16845     16857     16859
     16847     16845     16857     16860     16848     16851     16852     16853
     16848     16851     16852     16854     16849     16848     16851     16852
     16850     16848     16851     16852     16851     16852     16854     16855
     16851     16852     16854     16856     16851     16852     16854     16904
     16852     16854     16904     16905     16852     16854     16904     16906
     16852     16854     16904     16907     16853     16852     16854     16855
     16853     16852     16854     16856     16853     16852     16854     16904
     16854     16904     16907     16908     16854     16904     16907     16909
     16854     16904     16907     16910     16855     16854     16904     16905
     16855     16854     16904     16906     16855     16854     16904     16907
     16856     16854     16904     16905     16856     16854     16904     16906
     16856     16854     16904     16907     16857     16860     16863     16864
     16857     16860     16863     16865     16858     16857     16860     16861
     16858     16857     16860     16862     16858     16857     16860     16863
     16859     16857     16860     16861     16859     16857     16860     16862
     16859     16857     16860     16863     16860     16863     16865     16866
     16860     16863     16865     16867     16861     16860     16863     16864
     16861     16860     16863     16865     16862     16860     16863     16864
     16862     16860     16863     16865     16863     16865     16867     16868
     16863     16865     16867     16869     16863     16865     16867     16870
     16864     16863     16865     16866     16864     16863     16865     16867
     16865     16867     16870     16871     16865     16867     16870     16872
     16866     16865     16867     16868     16866     16865     16867     16869
     16866     16865     16867     16870     16867     16870     16872     16873
     16867     16870     16872     16874     16868     16867     16870     16871
     16868     16867     16870     16872     16869     16867     16870     16871
     16869     16867     16870     16872     16870     16872     16874     16875
     16870     16872     16874     16876     16870     16872     16874     16877
     16871     16870     16872     16873     16871     16870     16872     16874
     16872     16874     16877     16878     16872     16874     16877     16879
     16873     16872     16874     16875     16873     16872     16874     16876
     16873     16872     16874     16877     16874     16877     16879     16880
     16874     16877     16879     16881     16875     16874     16877     16878
     16875     16874     16877     16879     16876     16874     16877     16878
     16876     16874     16877     16879     16877     16879     16881     16882
     16877     16879     16881     16883     16877     16879     16881     16884
     16878     16877     16879     16880     16878     16877     16879     16881
     16879     16881     16884     16885     16879     16881     16884     16886
     16880     16879     16881     16882     16880     16879     16881     16883
     16880     16879     16881     16884     16881     16884     16886     16887
     16881     16884     16886     16888     16882     16881     16884     16885
     16882     16881     16884     16886     16883     16881     16884     16885
     16883     16881     16884     16886     16884     16886     16888     16889
     16884     16886     16888     16890     16884     16886     16888     16891
     16885     16884     16886     16887     16885     16884     16886     16888
     16886     16888     16891     16892     16886     16888     16891     16893
     16886     16888     16891     16894     16887     16886     16888     16889
     16887     16886     16888     16890     16887     16886     16888     16891
     16888     16891     16894     16895     16888     16891     16894     16896
     16888     16891     16894     16897     16889     16888     16891     16892
     16889     16888     16891     16893     16889     16888     16891     16894
     16890     16888     16891     16892     16890     16888     16891     16893
     16890     16888     16891     16894     16891     16894     16897     16898
     16891     16894     16897     16899     16891     16894     16897     16900
     16892     16891     16894     16895     16892     16891     16894     16896
     16892     16891     16894     16897     16893     16891     16894     16895
     16893     16891     16894     16896     16893     16891     16894     16897
     16894     16897     16900     16901     16894     16897     16900     16902
     16894     16897     16900     16903     16895     16894     16897     16898
     16895     16894     16897     16899     16895     16894     16897     16900
     16896     16894     16897     16898     16896     16894     16897     16899
     16896     16894     16897     16900     16898     16897     16900     16901
     16898     16897     16900     16902     16898     16897     16900     16903
     16899     16897     16900     16901     16899     16897     16900     16902
     16899     16897     16900     16903     16904     16907     16910     16911
     16904     16907     16910     16912     16904     16907     16910     16913
     16905     16904     16907     16908     16905     16904     16907     16909
     16905     16904     16907     16910     16906     16904     16907     16908
     16906     16904     16907     16909     16906     16904     16907     16910
     16907     16910     16913     16914     16907     16910     16913     16915
     16907     16910     16913     16916     16908     16907     16910     16911
     16908     16907     16910     16912     16908     16907     16910     16913
     16909     16907     16910     16911     16909     16907     16910     16912
     16909     16907     16910     16913     16910     16913     16916     16917
     16910     16913     16916     16918     16910     16913     16916     16919
     16911     16910     16913     16914     16911     16910     16913     16915
     16911     16910     16913     16916     16912     16910     16913     16914
     16912     16910     16913     16915     16912     16910     16913     16916
     16913     16916     16919     16920     16913     16916     16919     16921
     16913     16916     16919     16922     16914     16913     16916     16917
     16914     16913     16916     16918     16914     16913     16916     16919
     16915     16913     16916     16917     16915     16913     16916     16918
     16915     16913     16916     16919     16916     16919     16922     16923
     16916     16919     16922     16924     16916     16919     16922     16925
     16917     16916     16919     16920     16917     16916     16919     16921
     16917     16916     16919     16922     16918     16916     16919     16920
     16918     16916     16919     16921     16918     16916     16919     16922
     16919     16922     16925     16926     16919     16922     16925     16927
     16919     16922     16925     16928     16920     16919     16922     16923
     16920     16919     16922     16924     16920     16919     16922     16925
     16921     16919     16922     16923     16921     16919     16922     16924
     16921     16919     16922     16925     16922     16925     16928     16929
     16922     16925     16928     16930     16922     16925     16928     16931
     16923     16922     16925     16926     16923     16922     16925     16927
     16923     16922     16925     16928     16924     16922     16925     16926
     16924     16922     16925     16927     16924     16922     16925     16928
     16925     16928     16931     16932     16925     16928     16931     16933
     16925     16928     16931     16934     16926     16925     16928     16929
     16926     16925     16928     16930     16926     16925     16928     16931
     16927     16925     16928     16929     16927     16925     16928     16930
     16927     16925     16928     16931     16928     16931     16934     16935
     16928     16931     16934     16936     16928     16931     16934     16937
     16929     16928     16931     16932     16929     16928     16931     16933
     16929     16928     16931     16934     16930     16928     16931     16932
     16930     16928     16931     16933     16930     16928     16931     16934
     16931     16934     16937     16938     16931     16934     16937     16939
     16931     16934     16937     16940     16932     16931     16934     16935
     16932     16931     16934     16936     16932     16931     16934     16937
     16933     16931     16934     16935     16933     16931     16934     16936
     16933     16931     16934     16937     16934     16937     16940     16941
     16934     16937     16940     16942     16934     16937     16940     16943
     16935     16934     16937     16938     16935     16934     16937     16939
     16935     16934     16937     16940     16936     16934     16937     16938
     16936     16934     16937     16939     16936     16934     16937     16940
     16937     16940     16943     16944     16937     16940     16943     16945
     16937     16940     16943     16946     16938     16937     16940     16941
     16938     16937     16940     16942     16938     16937     16940     16943
     16939     16937     16940     16941     16939     16937     16940     16942
     16939     16937     16940     16943     16940     16943     16946     16947
     16940     16943     16946     16948     16940     16943     16946     16949
     16941     16940     16943     16944     16941     16940     16943     16945
     16941     16940     16943     16946     16942     16940     16943     16944
     16942     16940     16943     16945     16942     16940     16943     16946
     16943     16946     16949     16950     16943     16946     16949     16951
     16943     16946     16949     16952     16944     16943     16946     16947
     16944     16943     16946     16948     16944     16943     16946     16949
     16945     16943     16946     16947     16945     16943     16946     16948
     16945     16943     16946     16949     16947     16946     16949     16950
     16947     16946     16949     16951     16947     16946     16949     16952
     16948     16946     16949     16950     16948     16946     16949     16951
     16948     16946     16949     16952      6239      6252      6255      6256
      6239      6252      6255      6257      6239      6252      6255      6261
      6240      6239      6244      6245      6240      6239      6244      6246
      6240      6239      6244      6247      6240      6239      6248      6249
      6240      6239      6248      6250      6240      6239      6248      6251
      6240      6239      6252      6253      6240      6239      6252      6254
      6240      6239      6252      6255      6241      6240      6239      6244
      6241      6240      6239      6248      6241      6240      6239      6252
      6242      6240      6239      6244      6242      6240      6239      6248
      6242      6240      6239      6252      6243      6240      6239      6244
      6243      6240      6239      6248      6243      6240      6239      6252
      6244      6239      6248      6249      6244      6239      6248      6250
      6244      6239      6248      6251      6244      6239      6252      6253
      6244      6239      6252      6254      6244      6239      6252      6255
      6245      6244      6239      6248      6245      6244      6239      6252
      6246      6244      6239      6248      6246      6244      6239      6252
      6247      6244      6239      6248      6247      6244      6239      6252
      6248      6239      6252      6253      6248      6239      6252      6254
      6248      6239      6252      6255      6249      6248      6239      6252
      6250      6248      6239      6252      6251      6248      6239      6252
      6252      6255      6261      6258      6253      6252      6255      6256
      6253      6252      6255      6257      6253      6252      6255      6261
      6254      6252      6255      6256      6254      6252      6255      6257
      6254      6252      6255      6261      6255      6261      6258      6259
      6255      6261      6258      6260      6255      6261      6258      6262
      6256      6255      6261      6258      6257      6255      6261      6258
      6258      6262      6263      6264      6258      6262      6263      6265
      6258      6262      6263      6266      6259      6258      6262      6263
      6260      6258      6262      6263      6261      6258      6262      6263
      6262      6263      6266      6267      6262      6263      6266      6268
      6262      6263      6266      6274      6263      6266      6268      6269
      6263      6266      6274      6275      6263      6266      6274      6276
      6263      6266      6274      6277      6264      6263      6266      6267
      6264      6263      6266      6268      6264      6263      6266      6274
      6265      6263      6266      6267      6265      6263      6266      6268
      6265      6263      6266      6274      6266      6268      6269      6270
      6266      6268      6269      6271      6266      6274      6277      6278
      6267      6266      6268      6269      6267      6266      6274      6275
      6267      6266      6274      6276      6267      6266      6274      6277
      6268      6266      6274      6275      6268      6266      6274      6276
      6268      6266      6274      6277      6268      6269      6271      6272
      6268      6269      6271      6273      6268      6269      6271      6283
      6269      6268      6266      6274      6269      6271      6283      6284
      6269      6271      6283      6285      6269      6271      6283      6286
      6270      6269      6271      6272      6270      6269      6271      6273
      6270      6269      6271      6283      6271      6283      6286      6287
      6271      6283      6286      6288      6271      6283      6286      6289
      6272      6271      6283      6284      6272      6271      6283      6285
      6272      6271      6283      6286      6273      6271      6283      6284
      6273      6271      6283      6285      6273      6271      6283      6286
      6274      6277      6278      6279      6274      6277      6278      6280
      6275      6274      6277      6278      6276      6274      6277      6278
      6277      6278      6280      6281      6277      6278      6280      6282
      6277      6278      6280      6328      6278      6280      6328      6329
      6278      6280      6328      6330      6278      6280      6328      6331
      6279      6278      6280      6281      6279      6278      6280      6282
      6279      6278      6280      6328      6280      6328      6331      6332
      6280      6328      6331      6333      6280      6328      6331      6334
      6281      6280      6328      6329      6281      6280      6328      6330
      6281      6280      6328      6331      6282      6280      6328      6329
      6282      6280      6328      6330      6282      6280      6328      6331
      6283      6286      6289      6290      6283      6286      6289      6291
      6283      6286      6289      6292      6284      6283      6286      6287
      6284      6283      6286      6288      6284      6283      6286      6289
      6285      6283      6286      6287      6285      6283      6286      6288
      6285      6283      6286      6289      6286      6289      6292      6293
      6286      6289      6292      6294      6286      6289      6292      6295
      6287      6286      6289      6290      6287      6286      6289      6291
      6287      6286      6289      6292      6288      6286      6289      6290
      6288      6286      6289      6291      6288      6286      6289      6292
      6289      6292      6295      6296      6289      6292      6295      6297
      6289      6292      6295      6298      6290      6289      6292      6293
      6290      6289      6292      6294      6290      6289      6292      6295
      6291      6289      6292      6293      6291      6289      6292      6294
      6291      6289      6292      6295      6292      6295      6298      6299
      6292      6295      6298      6300      6292      6295      6298      6301
      6293      6292      6295      6296      6293      6292      6295      6297
      6293      6292      6295      6298      6294      6292      6295      6296
      6294      6292      6295      6297      6294      6292      6295      6298
      6295      6298      6301      6302      6295      6298      6301      6303
      6296      6295      6298      6299      6296      6295      6298      6300
      6296      6295      6298      6301      6297      6295      6298      6299
      6297      6295      6298      6300      6297      6295      6298      6301
      6298      6301      6303      6304      6298      6301      6303      6305
      6299      6298      6301      6302      6299      6298      6301      6303
      6300      6298      6301      6302      6300      6298      6301      6303
      6301      6303      6305      6306      6301      6303      6305      6307
      6301      6303      6305      6308      6302      6301      6303      6304
      6302      6301      6303      6305      6303      6305      6308      6309
      6303      6305      6308      6310      6304      6303      6305      6306
      6304      6303      6305      6307      6304      6303      6305      6308
      6305      6308      6310      6311      6305      6308      6310      6312
      6306      6305      6308      6309      6306      6305      6308      6310
      6307      6305      6308      6309      6307      6305      6308      6310
      6308      6310      6312      6313      6308      6310      6312      6314
      6308      6310      6312      6315      6309      6308      6310      6311
      6309      6308      6310      6312      6310      6312      6315      6316
      6310      6312      6315      6317      6310      6312      6315      6318
      6311      6310      6312      6313      6311      6310      6312      6314
      6311      6310      6312      6315      6312      6315      6318      6319
      6312      6315      6318      6320      6312      6315      6318      6321
      6313      6312      6315      6316      6313      6312      6315      6317
      6313      6312      6315      6318      6314      6312      6315      6316
      6314      6312      6315      6317      6314      6312      6315      6318
      6315      6318      6321      6322      6315      6318      6321      6323
      6315      6318      6321      6324      6316      6315      6318      6319
      6316      6315      6318      6320      6316      6315      6318      6321
      6317      6315      6318      6319      6317      6315      6318      6320
      6317      6315      6318      6321      6318      6321      6324      6325
      6318      6321      6324      6326      6318      6321      6324      6327
      6319      6318      6321      6322      6319      6318      6321      6323
      6319      6318      6321      6324      6320      6318      6321      6322
      6320      6318      6321      6323      6320      6318      6321      6324
      6322      6321      6324      6325      6322      6321      6324      6326
      6322      6321      6324      6327      6323      6321      6324      6325
      6323      6321      6324      6326      6323      6321      6324      6327
      6328      6331      6334      6335      6328      6331      6334      6336
      6328      6331      6334      6337      6329      6328      6331      6332
      6329      6328      6331      6333      6329      6328      6331      6334
      6330      6328      6331      6332      6330      6328      6331      6333
      6330      6328      6331      6334      6331      6334      6337      6338
      6331      6334      6337      6339      6331      6334      6337      6340
      6332      6331      6334      6335      6332      6331      6334      6336
      6332      6331      6334      6337      6333      6331      6334      6335
      6333      6331      6334      6336      6333      6331      6334      6337
      6334      6337      6340      6341      6334      6337      6340      6342
      6334      6337      6340      6343      6335      6334      6337      6338
      6335      6334      6337      6339      6335      6334      6337      6340
      6336      6334      6337      6338      6336      6334      6337      6339
      6336      6334      6337      6340      6337      6340      6343      6344
      6337      6340      6343      6345      6337      6340      6343      6346
      6338      6337      6340      6341      6338      6337      6340      6342
      6338      6337      6340      6343      6339      6337      6340      6341
      6339      6337      6340      6342      6339      6337      6340      6343
      6340      6343      6346      6347      6340      6343      6346      6348
      6340      6343      6346      6349      6341      6340      6343      6344
      6341      6340      6343      6345      6341      6340      6343      6346
      6342      6340      6343      6344      6342      6340      6343      6345
      6342      6340      6343      6346      6343      6346      6349      6350
      6343      6346      6349      6351      6343      6346      6349      6352
      6344      6343      6346      6347      6344      6343      6346      6348
      6344      6343      6346      6349      6345      6343      6346      6347
      6345      6343      6346      6348      6345      6343      6346      6349
      6346      6349      6352      6353      6346      6349      6352      6354
      6346      6349      6352      6355      6347      6346      6349      6350
      6347      6346      6349      6351      6347      6346      6349      6352
      6348      6346      6349      6350      6348      6346      6349      6351
      6348      6346      6349      6352      6349      6352      6355      6356
      6349      6352      6355      6357      6349      6352      6355      6358
      6350      6349      6352      6353      6350      6349      6352      6354
      6350      6349      6352      6355      6351      6349      6352      6353
      6351      6349      6352      6354      6351      6349      6352      6355
      6352      6355      6358      6359      6352      6355      6358      6360
      6352      6355      6358      6361      6353      6352      6355      6356
      6353      6352      6355      6357      6353      6352      6355      6358
      6354      6352      6355      6356      6354      6352      6355      6357
      6354      6352      6355      6358      6355      6358      6361      6362
      6355      6358      6361      6363      6355      6358      6361      6364
      6356      6355      6358      6359      6356      6355      6358      6360
      6356      6355      6358      6361      6357      6355      6358      6359
      6357      6355      6358      6360      6357      6355      6358      6361
      6358      6361      6364      6365      6358      6361      6364      6366
      6358      6361      6364      6367      6359      6358      6361      6362
      6359      6358      6361      6363      6359      6358      6361      6364
      6360      6358      6361      6362      6360      6358      6361      6363
      6360      6358      6361      6364      6361      6364      6367      6368
      6361      6364      6367      6369      6361      6364      6367      6370
      6362      6361      6364      6365      6362      6361      6364      6366
      6362      6361      6364      6367      6363      6361      6364      6365
      6363      6361      6364      6366      6363      6361      6364      6367
      6364      6367      6370      6371      6364      6367      6370      6372
      6364      6367      6370      6373      6365      6364      6367      6368
      6365      6364      6367      6369      6365      6364      6367      6370
      6366      6364      6367      6368      6366      6364      6367      6369
      6366      6364      6367      6370      6367      6370      6373      6374
      6367      6370      6373      6375      6367      6370      6373      6376
      6368      6367      6370      6371      6368      6367      6370      6372
      6368      6367      6370      6373      6369      6367      6370      6371
      6369      6367      6370      6372      6369      6367      6370      6373
      6371      6370      6373      6374      6371      6370      6373      6375
      6371      6370      6373      6376      6372      6370      6373      6374
      6372      6370      6373      6375      6372      6370      6373      6376
      6377      6390      6393      6394      6377      6390      6393      6395
      6377      6390      6393      6399      6378      6377      6382      6383
      6378      6377      6382      6384      6378      6377      6382      6385
      6378      6377      6386      6387      6378      6377      6386      6388
      6378      6377      6386      6389      6378      6377      6390      6391
      6378      6377      6390      6392      6378      6377      6390      6393
      6379      6378      6377      6382      6379      6378      6377      6386
      6379      6378      6377      6390      6380      6378      6377      6382
      6380      6378      6377      6386      6380      6378      6377      6390
      6381      6378      6377      6382      6381      6378      6377      6386
      6381      6378      6377      6390      6382      6377      6386      6387
      6382      6377      6386      6388      6382      6377      6386      6389
      6382      6377      6390      6391      6382      6377      6390      6392
      6382      6377      6390      6393      6383      6382      6377      6386
      6383      6382      6377      6390      6384      6382      6377      6386
      6384      6382      6377      6390      6385      6382      6377      6386
      6385      6382      6377      6390      6386      6377      6390      6391
      6386      6377      6390      6392      6386      6377      6390      6393
      6387      6386      6377      6390      6388      6386      6377      6390
      6389      6386      6377      6390      6390      6393      6399      6396
      6391      6390      6393      6394      6391      6390      6393      6395
      6391      6390      6393      6399      6392      6390      6393      6394
      6392      6390      6393      6395      6392      6390      6393      6399
      6393      6399      6396      6397      6393      6399      6396      6398
      6393      6399      6396      6400      6394      6393      6399      6396
      6395      6393      6399      6396      6396      6400      6401      6402
      6396      6400      6401      6403      6396      6400      6401      6404
      6397      6396      6400      6401      6398      6396      6400      6401
      6399      6396      6400      6401      6400      6401      6404      6405
      6400      6401      6404      6406      6400      6401      6404      6412
      6401      6404      6406      6407      6401      6404      6412      6413
      6401      6404      6412      6414      6401      6404      6412      6415
      6402      6401      6404      6405      6402      6401      6404      6406
      6402      6401      6404      6412      6403      6401      6404      6405
      6403      6401      6404      6406      6403      6401      6404      6412
      6404      6406      6407      6408      6404      6406      6407      6409
      6404      6412      6415      6416      6405      6404      6406      6407
      6405      6404      6412      6413      6405      6404      6412      6414
      6405      6404      6412      6415      6406      6404      6412      6413
      6406      6404      6412      6414      6406      6404      6412      6415
      6406      6407      6409      6410      6406      6407      6409      6411
      6406      6407      6409      6421      6407      6406      6404      6412
      6407      6409      6421      6422      6407      6409      6421      6423
      6407      6409      6421      6424      6408      6407      6409      6410
      6408      6407      6409      6411      6408      6407      6409      6421
      6409      6421      6424      6425      6409      6421      6424      6426
      6409      6421      6424      6427      6410      6409      6421      6422
      6410      6409      6421      6423      6410      6409      6421      6424
      6411      6409      6421      6422      6411      6409      6421      6423
      6411      6409      6421      6424      6412      6415      6416      6417
      6412      6415      6416      6418      6413      6412      6415      6416
      6414      6412      6415      6416      6415      6416      6418      6419
      6415      6416      6418      6420      6415      6416      6418      6466
      6416      6418      6466      6467      6416      6418      6466      6468
      6416      6418      6466      6469      6417      6416      6418      6419
      6417      6416      6418      6420      6417      6416      6418      6466
      6418      6466      6469      6470      6418      6466      6469      6471
      6418      6466      6469      6472      6419      6418      6466      6467
      6419      6418      6466      6468      6419      6418      6466      6469
      6420      6418      6466      6467      6420      6418      6466      6468
      6420      6418      6466      6469      6421      6424      6427      6428
      6421      6424      6427      6429      6421      6424      6427      6430
      6422      6421      6424      6425      6422      6421      6424      6426
      6422      6421      6424      6427      6423      6421      6424      6425
      6423      6421      6424      6426      6423      6421      6424      6427
      6424      6427      6430      6431      6424      6427      6430      6432
      6424      6427      6430      6433      6425      6424      6427      6428
      6425      6424      6427      6429      6425      6424      6427      6430
      6426      6424      6427      6428      6426      6424      6427      6429
      6426      6424      6427      6430      6427      6430      6433      6434
      6427      6430      6433      6435      6427      6430      6433      6436
      6428      6427      6430      6431      6428      6427      6430      6432
      6428      6427      6430      6433      6429      6427      6430      6431
      6429      6427      6430      6432      6429      6427      6430      6433
      6430      6433      6436      6437      6430      6433      6436      6438
      6430      6433      6436      6439      6431      6430      6433      6434
      6431      6430      6433      6435      6431      6430      6433      6436
      6432      6430      6433      6434      6432      6430      6433      6435
      6432      6430      6433      6436      6433      6436      6439      6440
      6433      6436      6439      6441      6434      6433      6436      6437
      6434      6433      6436      6438      6434      6433      6436      6439
      6435      6433      6436      6437      6435      6433      6436      6438
      6435      6433      6436      6439      6436      6439      6441      6442
      6436      6439      6441      6443      6437      6436      6439      6440
      6437      6436      6439      6441      6438      6436      6439      6440
      6438      6436      6439      6441      6439      6441      6443      6444
      6439      6441      6443      6445      6439      6441      6443      6446
      6440      6439      6441      6442      6440      6439      6441      6443
      6441      6443      6446      6447      6441      6443      6446      6448
      6442      6441      6443      6444      6442      6441      6443      6445
      6442      6441      6443      6446      6443      6446      6448      6449
      6443      6446      6448      6450      6444      6443      6446      6447
      6444      6443      6446      6448      6445      6443      6446      6447
      6445      6443      6446      6448      6446      6448      6450      6451
      6446      6448      6450      6452      6446      6448      6450      6453
      6447      6446      6448      6449      6447      6446      6448      6450
      6448      6450      6453      6454      6448      6450      6453      6455
      6448      6450      6453      6456      6449      6448      6450      6451
      6449      6448      6450      6452      6449      6448      6450      6453
      6450      6453      6456      6457      6450      6453      6456      6458
      6450      6453      6456      6459      6451      6450      6453      6454
      6451      6450      6453      6455      6451      6450      6453      6456
      6452      6450      6453      6454      6452      6450      6453      6455
      6452      6450      6453      6456      6453      6456      6459      6460
      6453      6456      6459      6461      6453      6456      6459      6462
      6454      6453      6456      6457      6454      6453      6456      6458
      6454      6453      6456      6459      6455      6453      6456      6457
      6455      6453      6456      6458      6455      6453      6456      6459
      6456      6459      6462      6463      6456      6459      6462      6464
      6456      6459      6462      6465      6457      6456      6459      6460
      6457      6456      6459      6461      6457      6456      6459      6462
      6458      6456      6459      6460      6458      6456      6459      6461
      6458      6456      6459      6462      6460      6459      6462      6463
      6460      6459      6462      6464      6460      6459      6462      6465
      6461      6459      6462      6463      6461      6459      6462      6464
      6461      6459      6462      6465      6466      6469      6472      6473
      6466      6469      6472      6474      6466      6469      6472      6475
      6467      6466      6469      6470      6467      6466      6469      6471
      6467      6466      6469      6472      6468      6466      6469      6470
      6468      6466      6469      6471      6468      6466      6469      6472
      6469      6472      6475      6476      6469      6472      6475      6477
      6469      6472      6475      6478      6470      6469      6472      6473
      6470      6469      6472      6474      6470      6469      6472      6475
      6471      6469      6472      6473      6471      6469      6472      6474
      6471      6469      6472      6475      6472      6475      6478      6479
      6472      6475      6478      6480      6472      6475      6478      6481
      6473      6472      6475      6476      6473      6472      6475      6477
      6473      6472      6475      6478      6474      6472      6475      6476
      6474      6472      6475      6477      6474      6472      6475      6478
      6475      6478      6481      6482      6475      6478      6481      6483
      6475      6478      6481      6484      6476      6475      6478      6479
      6476      6475      6478      6480      6476      6475      6478      6481
      6477      6475      6478      6479      6477      6475      6478      6480
      6477      6475      6478      6481      6478      6481      6484      6485
      6478      6481      6484      6486      6478      6481      6484      6487
      6479      6478      6481      6482      6479      6478      6481      6483
      6479      6478      6481      6484      6480      6478      6481      6482
      6480      6478      6481      6483      6480      6478      6481      6484
      6481      6484      6487      6488      6481      6484      6487      6489
      6481      6484      6487      6490      6482      6481      6484      6485
      6482      6481      6484      6486      6482      6481      6484      6487
      6483      6481      6484      6485      6483      6481      6484      6486
      6483      6481      6484      6487      6484      6487      6490      6491
      6484      6487      6490      6492      6484      6487      6490      6493
      6485      6484      6487      6488      6485      6484      6487      6489
      6485      6484      6487      6490      6486      6484      6487      6488
      6486      6484      6487      6489      6486      6484      6487      6490
      6487      6490      6493      6494      6487      6490      6493      6495
      6487      6490      6493      6496      6488      6487      6490      6491
      6488      6487      6490      6492      6488      6487      6490      6493
      6489      6487      6490      6491      6489      6487      6490      6492
      6489      6487      6490      6493      6490      6493      6496      6497
      6490      6493      6496      6498      6490      6493      6496      6499
      6491      6490      6493      6494      6491      6490      6493      6495
      6491      6490      6493      6496      6492      6490      6493      6494
      6492      6490      6493      6495      6492      6490      6493      6496
      6493      6496      6499      6500      6493      6496      6499      6501
      6493      6496      6499      6502      6494      6493      6496      6497
      6494      6493      6496      6498      6494      6493      6496      6499
      6495      6493      6496      6497      6495      6493      6496      6498
      6495      6493      6496      6499      6496      6499      6502      6503
      6496      6499      6502      6504      6496      6499      6502      6505
      6497      6496      6499      6500      6497      6496      6499      6501
      6497      6496      6499      6502      6498      6496      6499      6500
      6498      6496      6499      6501      6498      6496      6499      6502
      6499      6502      6505      6506      6499      6502      6505      6507
      6499      6502      6505      6508      6500      6499      6502      6503
      6500      6499      6502      6504      6500      6499      6502      6505
      6501      6499      6502      6503      6501      6499      6502      6504
      6501      6499      6502      6505      6502      6505      6508      6509
      6502      6505      6508      6510      6502      6505      6508      6511
      6503      6502      6505      6506      6503      6502      6505      6507
      6503      6502      6505      6508      6504      6502      6505      6506
      6504      6502      6505      6507      6504      6502      6505      6508
      6505      6508      6511      6512      6505      6508      6511      6513
      6505      6508      6511      6514      6506      6505      6508      6509
      6506      6505      6508      6510      6506      6505      6508      6511
      6507      6505      6508      6509      6507      6505      6508      6510
      6507      6505      6508      6511      6509      6508      6511      6512
      6509      6508      6511      6513      6509      6508      6511      6514
      6510      6508      6511      6512      6510      6508      6511      6513
      6510      6508      6511      6514     12499     12512     12515     12516
     12499     12512     12515     12517     12499     12512     12515     12522
     12500     12499     12504     12505     12500     12499     12504     12506
     12500     12499     12504     12507     12500     12499     12508     12509
     12500     12499     12508     12510     12500     12499     12508     12511
     12500     12499     12512     12513     12500     12499     12512     12514
     12500     12499     12512     12515     12501     12500     12499     12504
     12501     12500     12499     12508     12501     12500     12499     12512
     12502     12500     12499     12504     12502     12500     12499     12508
     12502     12500     12499     12512     12503     12500     12499     12504
     12503     12500     12499     12508     12503     12500     12499     12512
     12504     12499     12508     12509     12504     12499     12508     12510
     12504     12499     12508     12511     12504     12499     12512     12513
     12504     12499     12512     12514     12504     12499     12512     12515
     12505     12504     12499     12508     12505     12504     12499     12512
     12506     12504     12499     12508     12506     12504     12499     12512
     12507     12504     12499     12508     12507     12504     12499     12512
     12508     12499     12512     12513     12508     12499     12512     12514
     12508     12499     12512     12515     12509     12508     12499     12512
     12510     12508     12499     12512     12511     12508     12499     12512
     12512     12515     12522     12518     12513     12512     12515     12516
     12513     12512     12515     12517     12513     12512     12515     12522
     12514     12512     12515     12516     12514     12512     12515     12517
     12514     12512     12515     12522     12515     12522     12518     12519
     12515     12522     12518     12520     12515     12522     12518     12521
     12516     12515     12522     12518     12517     12515     12522     12518
     12518     12521     12523     12524     12518     12521     12523     12525
     12518     12521     12523     12528     12519     12518     12521     12523
     12520     12518     12521     12523     12521     12523     12528     12526
     12521     12523     12528     12529     12521     12523     12528     12530
     12522     12518     12521     12523     12523     12528     12526     12527
     12523     12528     12526     12578     12523     12528     12530     12531
     12523     12528     12530     12532     12523     12528     12530     12534
     12524     12523     12528     12526     12524     12523     12528     12529
     12524     12523     12528     12530     12525     12523     12528     12526
     12525     12523     12528     12529     12525     12523     12528     12530
     12526     12528     12530     12531     12526     12528     12530     12532
     12526     12528     12530     12534     12526     12578     12580     12581
     12526     12578     12580     12582     12526     12578     12580     12583
     12527     12526     12528     12529     12527     12526     12528     12530
     12527     12526     12578     12579     12527     12526     12578     12580
     12528     12526     12578     12579     12528     12526     12578     12580
     12528     12530     12532     12533     12528     12530     12534     12535
     12528     12530     12534     12536     12529     12528     12526     12578
     12529     12528     12530     12531     12529     12528     12530     12532
     12529     12528     12530     12534     12530     12528     12526     12578
     12530     12534     12536     12537     12530     12534     12536     12538
     12531     12530     12532     12533     12531     12530     12534     12535
     12531     12530     12534     12536     12532     12530     12534     12535
     12532     12530     12534     12536     12533     12532     12530     12534
     12534     12536     12538     12539     12534     12536     12538     12540
     12534     12536     12538     12541     12535     12534     12536     12537
     12535     12534     12536     12538     12536     12538     12541     12542
     12536     12538     12541     12543     12536     12538     12541     12544
     12537     12536     12538     12539     12537     12536     12538     12540
     12537     12536     12538     12541     12538     12541     12544     12545
     12538     12541     12544     12546     12538     12541     12544     12547
     12539     12538     12541     12542     12539     12538     12541     12543
     12539     12538     12541     12544     12540     12538     12541     12542
     12540     12538     12541     12543     12540     12538     12541     12544
     12541     12544     12547     12548     12541     12544     12547     12549
     12541     12544     12547     12550     12542     12541     12544     12545
     12542     12541     12544     12546     12542     12541     12544     12547
     12543     12541     12544     12545     12543     12541     12544     12546
     12543     12541     12544     12547     12544     12547     12550     12551
     12544     12547     12550     12552     12544     12547     12550     12553
     12545     12544     12547     12548     12545     12544     12547     12549
     12545     12544     12547     12550     12546     12544     12547     12548
     12546     12544     12547     12549     12546     12544     12547     12550
     12547     12550     12553     12554     12547     12550     12553     12555
     12547     12550     12553     12556     12548     12547     12550     12551
     12548     12547     12550     12552     12548     12547     12550     12553
     12549     12547     12550     12551     12549     12547     12550     12552
     12549     12547     12550     12553     12550     12553     12556     12557
     12550     12553     12556     12558     12550     12553     12556     12559
     12551     12550     12553     12554     12551     12550     12553     12555
     12551     12550     12553     12556     12552     12550     12553     12554
     12552     12550     12553     12555     12552     12550     12553     12556
     12553     12556     12559     12560     12553     12556     12559     12561
     12553     12556     12559     12562     12554     12553     12556     12557
     12554     12553     12556     12558     12554     12553     12556     12559
     12555     12553     12556     12557     12555     12553     12556     12558
     12555     12553     12556     12559     12556     12559     12562     12563
     12556     12559     12562     12564     12556     12559     12562     12565
     12557     12556     12559     12560     12557     12556     12559     12561
     12557     12556     12559     12562     12558     12556     12559     12560
     12558     12556     12559     12561     12558     12556     12559     12562
     12559     12562     12565     12566     12559     12562     12565     12567
     12559     12562     12565     12568     12560     12559     12562     12563
     12560     12559     12562     12564     12560     12559     12562     12565
     12561     12559     12562     12563     12561     12559     12562     12564
     12561     12559     12562     12565     12562     12565     12568     12569
     12562     12565     12568     12570     12562     12565     12568     12571
     12563     12562     12565     12566     12563     12562     12565     12567
     12563     12562     12565     12568     12564     12562     12565     12566
     12564     12562     12565     12567     12564     12562     12565     12568
     12565     12568     12571     12572     12565     12568     12571     12573
     12565     12568     12571     12574     12566     12565     12568     12569
     12566     12565     12568     12570     12566     12565     12568     12571
     12567     12565     12568     12569     12567     12565     12568     12570
     12567     12565     12568     12571     12568     12571     12574     12575
     12568     12571     12574     12576     12568     12571     12574     12577
     12569     12568     12571     12572     12569     12568     12571     12573
     12569     12568     12571     12574     12570     12568     12571     12572
     12570     12568     12571     12573     12570     12568     12571     12574
     12572     12571     12574     12575     12572     12571     12574     12576
     12572     12571     12574     12577     12573     12571     12574     12575
     12573     12571     12574     12576     12573     12571     12574     12577
     12578     12580     12583     12584     12578     12580     12583     12585
     12578     12580     12583     12586     12579     12578     12580     12581
     12579     12578     12580     12582     12579     12578     12580     12583
     12580     12583     12586     12587     12580     12583     12586     12588
     12580     12583     12586     12589     12581     12580     12583     12584
     12581     12580     12583     12585     12581     12580     12583     12586
     12582     12580     12583     12584     12582     12580     12583     12585
     12582     12580     12583     12586     12583     12586     12589     12590
     12583     12586     12589     12591     12583     12586     12589     12592
     12584     12583     12586     12587     12584     12583     12586     12588
     12584     12583     12586     12589     12585     12583     12586     12587
     12585     12583     12586     12588     12585     12583     12586     12589
     12586     12589     12592     12593     12586     12589     12592     12594
     12586     12589     12592     12595     12587     12586     12589     12590
     12587     12586     12589     12591     12587     12586     12589     12592
     12588     12586     12589     12590     12588     12586     12589     12591
     12588     12586     12589     12592     12589     12592     12595     12596
     12589     12592     12595     12597     12589     12592     12595     12598
     12590     12589     12592     12593     12590     12589     12592     12594
     12590     12589     12592     12595     12591     12589     12592     12593
     12591     12589     12592     12594     12591     12589     12592     12595
     12592     12595     12598     12599     12592     12595     12598     12600
     12592     12595     12598     12601     12593     12592     12595     12596
     12593     12592     12595     12597     12593     12592     12595     12598
     12594     12592     12595     12596     12594     12592     12595     12597
     12594     12592     12595     12598     12595     12598     12601     12602
     12595     12598     12601     12603     12596     12595     12598     12599
     12596     12595     12598     12600     12596     12595     12598     12601
     12597     12595     12598     12599     12597     12595     12598     12600
     12597     12595     12598     12601     12598     12601     12603     12604
     12598     12601     12603     12605     12599     12598     12601     12602
     12599     12598     12601     12603     12600     12598     12601     12602
     12600     12598     12601     12603     12601     12603     12605     12606
     12601     12603     12605     12607     12601     12603     12605     12608
     12602     12601     12603     12604     12602     12601     12603     12605
     12603     12605     12608     12609     12603     12605     12608     12610
     12603     12605     12608     12611     12604     12603     12605     12606
     12604     12603     12605     12607     12604     12603     12605     12608
     12605     12608     12611     12612     12605     12608     12611     12613
     12605     12608     12611     12614     12606     12605     12608     12609
     12606     12605     12608     12610     12606     12605     12608     12611
     12607     12605     12608     12609     12607     12605     12608     12610
     12607     12605     12608     12611     12608     12611     12614     12615
     12608     12611     12614     12616     12608     12611     12614     12617
     12609     12608     12611     12612     12609     12608     12611     12613
     12609     12608     12611     12614     12610     12608     12611     12612
     12610     12608     12611     12613     12610     12608     12611     12614
     12611     12614     12617     12618     12611     12614     12617     12619
     12611     12614     12617     12620     12612     12611     12614     12615
     12612     12611     12614     12616     12612     12611     12614     12617
     12613     12611     12614     12615     12613     12611     12614     12616
     12613     12611     12614     12617     12614     12617     12620     12621
     12614     12617     12620     12622     12614     12617     12620     12623
     12615     12614     12617     12618     12615     12614     12617     12619
     12615     12614     12617     12620     12616     12614     12617     12618
     12616     12614     12617     12619     12616     12614     12617     12620
     12617     12620     12623     12624     12617     12620     12623     12625
     12617     12620     12623     12626     12618     12617     12620     12621
     12618     12617     12620     12622     12618     12617     12620     12623
     12619     12617     12620     12621     12619     12617     12620     12622
     12619     12617     12620     12623     12620     12623     12626     12627
     12620     12623     12626     12628     12620     12623     12626     12629
     12621     12620     12623     12624     12621     12620     12623     12625
     12621     12620     12623     12626     12622     12620     12623     12624
     12622     12620     12623     12625     12622     12620     12623     12626
     12624     12623     12626     12627     12624     12623     12626     12628
     12624     12623     12626     12629     12625     12623     12626     12627
     12625     12623     12626     12628     12625     12623     12626     12629
      1703      1707      1710      1711      1703      1707      1710      1741
      1703      1749      1746      1741      1703      1749      1746      1747
      1703      1749      1746      1748      1704      1703      1705      1706
      1704      1703      1707      1708      1704      1703      1707      1709
      1704      1703      1707      1710      1704      1703      1749      1746
      1704      1703      1749      1750      1704      1703      1749      1751
      1705      1703      1707      1708      1705      1703      1707      1709
      1705      1703      1707      1710      1705      1703      1749      1746
      1705      1703      1749      1750      1705      1703      1749      1751
      1706      1705      1703      1707      1706      1705      1703      1749
      1707      1703      1749      1746      1707      1703      1749      1750
      1707      1703      1749      1751      1707      1710      1711      1712
      1707      1710      1711      1713      1707      1710      1741      1739
      1707      1710      1741      1742      1707      1710      1741      1746
      1708      1707      1703      1749      1708      1707      1710      1711
      1708      1707      1710      1741      1709      1707      1703      1749
      1709      1707      1710      1711      1709      1707      1710      1741
      1710      1707      1703      1749      1710      1711      1713      1714
      1710      1711      1713      1715      1710      1711      1713      1716
      1710      1741      1739      1716      1710      1741      1739      1736
      1710      1741      1739      1740      1710      1741      1742      1743
      1710      1741      1742      1744      1710      1741      1742      1745
      1710      1741      1746      1747      1710      1741      1746      1748
      1710      1741      1746      1749      1711      1710      1741      1739
      1711      1710      1741      1742      1711      1710      1741      1746
      1711      1713      1716      1717      1711      1713      1716      1718
      1711      1713      1716      1739      1712      1711      1710      1741
      1712      1711      1713      1714      1712      1711      1713      1715
      1712      1711      1713      1716      1713      1711      1710      1741
      1713      1716      1718      1719      1713      1716      1718      1720
      1713      1716      1718      1728      1713      1716      1739      1736
      1713      1716      1739      1740      1713      1716      1739      1741
      1714      1713      1716      1717      1714      1713      1716      1718
      1714      1713      1716      1739      1715      1713      1716      1717
      1715      1713      1716      1718      1715      1713      1716      1739
      1716      1718      1720      1721      1716      1718      1720      1722
      1716      1718      1720      1723      1716      1718      1728      1726
      1716      1718      1728      1729      1716      1718      1728      1733
      1716      1739      1736      1733      1716      1739      1736      1737
      1716      1739      1736      1738      1716      1739      1741      1742
      1716      1739      1741      1746      1717      1716      1718      1719
      1717      1716      1718      1720      1717      1716      1718      1728
      1717      1716      1739      1736      1717      1716      1739      1740
      1717      1716      1739      1741      1718      1716      1739      1736
      1718      1716      1739      1740      1718      1716      1739      1741
      1718      1720      1723      1724      1718      1720      1723      1725
      1718      1720      1723      1726      1718      1728      1726      1723
      1718      1728      1726      1727      1718      1728      1726      1752
      1718      1728      1729      1730      1718      1728      1729      1731
      1718      1728      1729      1732      1718      1728      1733      1734
      1718      1728      1733      1735      1718      1728      1733      1736
      1719      1718      1716      1739      1719      1718      1720      1721
      1719      1718      1720      1722      1719      1718      1720      1723
      1719      1718      1728      1726      1719      1718      1728      1729
      1719      1718      1728      1733      1720      1718      1716      1739
      1720      1718      1728      1726      1720      1718      1728      1729
      1720      1718      1728      1733      1720      1723      1726      1727
      1720      1723      1726      1728      1720      1723      1726      1752
      1721      1720      1718      1728      1721      1720      1723      1724
      1721      1720      1723      1725      1721      1720      1723      1726
      1722      1720      1718      1728      1722      1720      1723      1724
      1722      1720      1723      1725      1722      1720      1723      1726
      1723      1720      1718      1728      1723      1726      1728      1729
      1723      1726      1728      1733      1723      1726      1752      1753
      1723      1726      1752      1754      1723      1726      1752      1758
      1724      1723      1726      1727      1724      1723      1726      1728
      1724      1723      1726      1752      1725      1723      1726      1727
      1725      1723      1726      1728      1725      1723      1726      1752
      1726      1728      1729      1730      1726      1728      1729      1731
      1726      1728      1729      1732      1726      1728      1733      1734
      1726      1728      1733      1735      1726      1728      1733      1736
      1726      1752      1754      1755      1726      1752      1754      1756
      1726      1752      1754      1757      1726      1752      1758      1759
      1726      1752      1758      1760      1726      1752      1758      1761
      1727      1726      1728      1729      1727      1726      1728      1733
      1727      1726      1752      1753      1727      1726      1752      1754
      1727      1726      1752      1758      1728      1718      1716      1739
      1728      1726      1752      1753      1728      1726      1752      1754
      1728      1726      1752      1758      1728      1733      1736      1737
      1728      1733      1736      1738      1728      1733      1736      1739
      1729      1728      1726      1752      1729      1728      1733      1734
      1729      1728      1733      1735      1729      1728      1733      1736
      1730      1729      1728      1733      1731      1729      1728      1733
      1732      1729      1728      1733      1733      1728      1726      1752
      1733      1736      1739      1740      1733      1736      1739      1741
      1734      1733      1736      1737      1734      1733      1736      1738
      1734      1733      1736      1739      1735      1733      1736      1737
      1735      1733      1736      1738      1735      1733      1736      1739
      1736      1739      1741      1742      1736      1739      1741      1746
      1737      1736      1739      1740      1737      1736      1739      1741
      1738      1736      1739      1740      1738      1736      1739      1741
      1739      1741      1742      1743      1739      1741      1742      1744
      1739      1741      1742      1745      1739      1741      1746      1747
      1739      1741      1746      1748      1739      1741      1746      1749
      1740      1739      1741      1742      1740      1739      1741      1746
      1741      1746      1749      1750      1741      1746      1749      1751
      1742      1741      1746      1747      1742      1741      1746      1748
      1742      1741      1746      1749      1743      1742      1741      1746
      1744      1742      1741      1746      1745      1742      1741      1746
      1747      1746      1749      1750      1747      1746      1749      1751
      1748      1746      1749      1750      1748      1746      1749      1751
      1752      1758      1761      1762      1752      1758      1761      1763
      1752      1758      1761      1764      1753      1752      1754      1755
      1753      1752      1754      1756      1753      1752      1754      1757
      1753      1752      1758      1759      1753      1752      1758      1760
      1753      1752      1758      1761      1754      1752      1758      1759
      1754      1752      1758      1760      1754      1752      1758      1761
      1755      1754      1752      1758      1756      1754      1752      1758
      1757      1754      1752      1758      1758      1761      1764      1765
      1758      1761      1764      1766      1758      1761      1764      1767
      1759      1758      1761      1762      1759      1758      1761      1763
      1759      1758      1761      1764      1760      1758      1761      1762
      1760      1758      1761      1763      1760      1758      1761      1764
      1761      1764      1767      1768      1761      1764      1767      1769
      1761      1764      1767      1773      1762      1761      1764      1765
      1762      1761      1764      1766      1762      1761      1764      1767
      1763      1761      1764      1765      1763      1761      1764      1766
      1763      1761      1764      1767      1764      1767      1769      1770
      1764      1767      1769      1771      1764      1767      1769      1772
      1764      1767      1773      1774      1764      1767      1773      1775
      1764      1767      1773      1776      1765      1764      1767      1768
      1765      1764      1767      1769      1765      1764      1767      1773
      1766      1764      1767      1768      1766      1764      1767      1769
      1766      1764      1767      1773      1768      1767      1769      1770
      1768      1767      1769      1771      1768      1767      1769      1772
      1768      1767      1773      1774      1768      1767      1773      1775
      1768      1767      1773      1776      1769      1767      1773      1774
      1769      1767      1773      1775      1769      1767      1773      1776
      1770      1769      1767      1773      1771      1769      1767      1773
      1772      1769      1767      1773      4705      4706      4721      4722
      4705      4706      4721      4723      4705      4706      4721      4727
      4706      4705      4709      4710      4706      4705      4709      4711
      4706      4705      4709      4712      4706      4705      4713      4714
      4706      4705      4713      4715      4706      4705      4713      4716
      4706      4705      4717      4718      4706      4705      4717      4719
      4706      4705      4717      4720      4706      4721      4727      4724
      4707      4706      4705      4709      4707      4706      4705      4713
      4707      4706      4705      4717      4707      4706      4721      4722
      4707      4706      4721      4723      4707      4706      4721      4727
      4708      4706      4705      4709      4708      4706      4705      4713
      4708      4706      4705      4717      4708      4706      4721      4722
      4708      4706      4721      4723      4708      4706      4721      4727
      4709      4705      4706      4721      4709      4705      4713      4714
      4709      4705      4713      4715      4709      4705      4713      4716
      4709      4705      4717      4718      4709      4705      4717      4719
      4709      4705      4717      4720      4710      4709      4705      4713
      4710      4709      4705      4717      4711      4709      4705      4713
      4711      4709      4705      4717      4712      4709      4705      4713
      4712      4709      4705      4717      4713      4705      4706      4721
      4713      4705      4717      4718      4713      4705      4717      4719
      4713      4705      4717      4720      4714      4713      4705      4717
      4715      4713      4705      4717      4716      4713      4705      4717
      4717      4705      4706      4721      4721      4727      4724      4725
      4721      4727      4724      4726      4721      4727      4724      4728
      4722      4721      4727      4724      4723      4721      4727      4724
      4724      4728      4729      4730      4724      4728      4729      4731
      4724      4728      4729      4732      4725      4724      4728      4729
      4726      4724      4728      4729      4727      4724      4728      4729
      4728      4729      4732      4733      4728      4729      4732      4734
      4728      4729      4732      4740      4729      4732      4734      4735
      4729      4732      4740      4741      4729      4732      4740      4742
      4729      4732      4740      4743      4730      4729      4732      4733
      4730      4729      4732      4734      4730      4729      4732      4740
      4731      4729      4732      4733      4731      4729      4732      4734
      4731      4729      4732      4740      4732      4734      4735      4736
      4732      4734      4735      4737      4732      4740      4743      4744
      4733      4732      4734      4735      4733      4732      4740      4741
      4733      4732      4740      4742      4733      4732      4740      4743
      4734      4732      4740      4741      4734      4732      4740      4742
      4734      4732      4740      4743      4734      4735      4737      4738
      4734      4735      4737      4739      4734      4735      4737      4749
      4735      4734      4732      4740      4735      4737      4749      4750
      4735      4737      4749      4751      4735      4737      4749      4752
      4736      4735      4737      4738      4736      4735      4737      4739
      4736      4735      4737      4749      4737      4749      4752      4753
      4737      4749      4752      4754      4737      4749      4752      4755
      4738      4737      4749      4750      4738      4737      4749      4751
      4738      4737      4749      4752      4739      4737      4749      4750
      4739      4737      4749      4751      4739      4737      4749      4752
      4740      4743      4744      4745      4740      4743      4744      4746
      4741      4740      4743      4744      4742      4740      4743      4744
      4743      4744      4746      4747      4743      4744      4746      4748
      4743      4744      4746      4796      4744      4746      4796      4797
      4744      4746      4796      4798      4744      4746      4796      4799
      4745      4744      4746      4747      4745      4744      4746      4748
      4745      4744      4746      4796      4746      4796      4799      4800
      4746      4796      4799      4801      4746      4796      4799      4802
      4747      4746      4796      4797      4747      4746      4796      4798
      4747      4746      4796      4799      4748      4746      4796      4797
      4748      4746      4796      4798      4748      4746      4796      4799
      4749      4752      4755      4756      4749      4752      4755      4757
      4750      4749      4752      4753      4750      4749      4752      4754
      4750      4749      4752      4755      4751      4749      4752      4753
      4751      4749      4752      4754      4751      4749      4752      4755
      4752      4755      4757      4758      4752      4755      4757      4759
      4753      4752      4755      4756      4753      4752      4755      4757
      4754      4752      4755      4756      4754      4752      4755      4757
      4755      4757      4759      4760      4755      4757      4759      4761
      4755      4757      4759      4762      4756      4755      4757      4758
      4756      4755      4757      4759      4757      4759      4762      4763
      4757      4759      4762      4764      4758      4757      4759      4760
      4758      4757      4759      4761      4758      4757      4759      4762
      4759      4762      4764      4765      4759      4762      4764      4766
      4760      4759      4762      4763      4760      4759      4762      4764
      4761      4759      4762      4763      4761      4759      4762      4764
      4762      4764      4766      4767      4762      4764      4766      4768
      4762      4764      4766      4769      4763      4762      4764      4765
      4763      4762      4764      4766      4764      4766      4769      4770
      4764      4766      4769      4771      4765      4764      4766      4767
      4765      4764      4766      4768      4765      4764      4766      4769
      4766      4769      4771      4772      4766      4769      4771      4773
      4767      4766      4769      4770      4767      4766      4769      4771
      4768      4766      4769      4770      4768      4766      4769      4771
      4769      4771      4773      4774      4769      4771      4773      4775
      4769      4771      4773      4776      4770      4769      4771      4772
      4770      4769      4771      4773      4771      4773      4776      4777
      4771      4773      4776      4778      4772      4771      4773      4774
      4772      4771      4773      4775      4772      4771      4773      4776
      4773      4776      4778      4779      4773      4776      4778      4780
      4774      4773      4776      4777      4774      4773      4776      4778
      4775      4773      4776      4777      4775      4773      4776      4778
      4776      4778      4780      4781      4776      4778      4780      4782
      4776      4778      4780      4783      4777      4776      4778      4779
      4777      4776      4778      4780      4778      4780      4783      4784
      4778      4780      4783      4785      4778      4780      4783      4786
      4779      4778      4780      4781      4779      4778      4780      4782
      4779      4778      4780      4783      4780      4783      4786      4787
      4780      4783      4786      4788      4780      4783      4786      4789
      4781      4780      4783      4784      4781      4780      4783      4785
      4781      4780      4783      4786      4782      4780      4783      4784
      4782      4780      4783      4785      4782      4780      4783      4786
      4783      4786      4789      4790      4783      4786      4789      4791
      4783      4786      4789      4792      4784      4783      4786      4787
      4784      4783      4786      4788      4784      4783      4786      4789
      4785      4783      4786      4787      4785      4783      4786      4788
      4785      4783      4786      4789      4786      4789      4792      4793
      4786      4789      4792      4794      4786      4789      4792      4795
      4787      4786      4789      4790      4787      4786      4789      4791
      4787      4786      4789      4792      4788      4786      4789      4790
      4788      4786      4789      4791      4788      4786      4789      4792
      4790      4789      4792      4793      4790      4789      4792      4794
      4790      4789      4792      4795      4791      4789      4792      4793
      4791      4789      4792      4794      4791      4789      4792      4795
      4796      4799      4802      4803      4796      4799      4802      4804
      4796      4799      4802      4805      4797      4796      4799      4800
      4797      4796      4799      4801      4797      4796      4799      4802
      4798      4796      4799      4800      4798      4796      4799      4801
      4798      4796      4799      4802      4799      4802      4805      4806
      4799      4802      4805      4807      4799      4802      4805      4808
      4800      4799      4802      4803      4800      4799      4802      4804
      4800      4799      4802      4805      4801      4799      4802      4803
      4801      4799      4802      4804      4801      4799      4802      4805
      4802      4805      4808      4809      4802      4805      4808      4810
      4802      4805      4808      4811      4803      4802      4805      4806
      4803      4802      4805      4807      4803      4802      4805      4808
      4804      4802      4805      4806      4804      4802      4805      4807
      4804      4802      4805      4808      4805      4808      4811      4812
      4805      4808      4811      4813      4805      4808      4811      4814
      4806      4805      4808      4809      4806      4805      4808      4810
      4806      4805      4808      4811      4807      4805      4808      4809
      4807      4805      4808      4810      4807      4805      4808      4811
      4808      4811      4814      4815      4808      4811      4814      4816
      4808      4811      4814      4817      4809      4808      4811      4812
      4809      4808      4811      4813      4809      4808      4811      4814
      4810      4808      4811      4812      4810      4808      4811      4813
      4810      4808      4811      4814      4811      4814      4817      4818
      4811      4814      4817      4819      4811      4814      4817      4820
      4812      4811      4814      4815      4812      4811      4814      4816
      4812      4811      4814      4817      4813      4811      4814      4815
      4813      4811      4814      4816      4813      4811      4814      4817
      4814      4817      4820      4821      4814      4817      4820      4822
      4814      4817      4820      4823      4815      4814      4817      4818
      4815      4814      4817      4819      4815      4814      4817      4820
      4816      4814      4817      4818      4816      4814      4817      4819
      4816      4814      4817      4820      4817      4820      4823      4824
      4817      4820      4823      4825      4817      4820      4823      4826
      4818      4817      4820      4821      4818      4817      4820      4822
      4818      4817      4820      4823      4819      4817      4820      4821
      4819      4817      4820      4822      4819      4817      4820      4823
      4820      4823      4826      4827      4820      4823      4826      4828
      4820      4823      4826      4829      4821      4820      4823      4824
      4821      4820      4823      4825      4821      4820      4823      4826
      4822      4820      4823      4824      4822      4820      4823      4825
      4822      4820      4823      4826      4823      4826      4829      4830
      4823      4826      4829      4831      4823      4826      4829      4832
      4824      4823      4826      4827      4824      4823      4826      4828
      4824      4823      4826      4829      4825      4823      4826      4827
      4825      4823      4826      4828      4825      4823      4826      4829
      4826      4829      4832      4833      4826      4829      4832      4834
      4826      4829      4832      4835      4827      4826      4829      4830
      4827      4826      4829      4831      4827      4826      4829      4832
      4828      4826      4829      4830      4828      4826      4829      4831
      4828      4826      4829      4832      4829      4832      4835      4836
      4829      4832      4835      4837      4829      4832      4835      4838
      4830      4829      4832      4833      4830      4829      4832      4834
      4830      4829      4832      4835      4831      4829      4832      4833
      4831      4829      4832      4834      4831      4829      4832      4835
      4832      4835      4838      4839      4832      4835      4838      4840
      4832      4835      4838      4841      4833      4832      4835      4836
      4833      4832      4835      4837      4833      4832      4835      4838
      4834      4832      4835      4836      4834      4832      4835      4837
      4834      4832      4835      4838      4835      4838      4841      4842
      4835      4838      4841      4843      4835      4838      4841      4844
      4836      4835      4838      4839      4836      4835      4838      4840
      4836      4835      4838      4841      4837      4835      4838      4839
      4837      4835      4838      4840      4837      4835      4838      4841
      4839      4838      4841      4842      4839      4838      4841      4843
      4839      4838      4841      4844      4840      4838      4841      4842
      4840      4838      4841      4843      4840      4838      4841      4844
     12630     12643     12646     12647     12630     12643     12646     12648
     12630     12643     12646     12653     12631     12630     12635     12636
     12631     12630     12635     12637     12631     12630     12635     12638
     12631     12630     12639     12640     12631     12630     12639     12641
     12631     12630     12639     12642     12631     12630     12643     12644
     12631     12630     12643     12645     12631     12630     12643     12646
     12632     12631     12630     12635     12632     12631     12630     12639
     12632     12631     12630     12643     12633     12631     12630     12635
     12633     12631     12630     12639     12633     12631     12630     12643
     12634     12631     12630     12635     12634     12631     12630     12639
     12634     12631     12630     12643     12635     12630     12639     12640
     12635     12630     12639     12641     12635     12630     12639     12642
     12635     12630     12643     12644     12635     12630     12643     12645
     12635     12630     12643     12646     12636     12635     12630     12639
     12636     12635     12630     12643     12637     12635     12630     12639
     12637     12635     12630     12643     12638     12635     12630     12639
     12638     12635     12630     12643     12639     12630     12643     12644
     12639     12630     12643     12645     12639     12630     12643     12646
     12640     12639     12630     12643     12641     12639     12630     12643
     12642     12639     12630     12643     12643     12646     12653     12649
     12644     12643     12646     12647     12644     12643     12646     12648
     12644     12643     12646     12653     12645     12643     12646     12647
     12645     12643     12646     12648     12645     12643     12646     12653
     12646     12653     12649     12650     12646     12653     12649     12651
     12646     12653     12649     12652     12647     12646     12653     12649
     12648     12646     12653     12649     12649     12652     12654     12655
     12649     12652     12654     12656     12649     12652     12654     12659
     12650     12649     12652     12654     12651     12649     12652     12654
     12652     12654     12659     12657     12652     12654     12659     12660
     12652     12654     12659     12661     12653     12649     12652     12654
     12654     12659     12657     12658     12654     12659     12657     12709
     12654     12659     12661     12662     12654     12659     12661     12663
     12654     12659     12661     12665     12655     12654     12659     12657
     12655     12654     12659     12660     12655     12654     12659     12661
     12656     12654     12659     12657     12656     12654     12659     12660
     12656     12654     12659     12661     12657     12659     12661     12662
     12657     12659     12661     12663     12657     12659     12661     12665
     12657     12709     12711     12712     12657     12709     12711     12713
     12657     12709     12711     12714     12658     12657     12659     12660
     12658     12657     12659     12661     12658     12657     12709     12710
     12658     12657     12709     12711     12659     12657     12709     12710
     12659     12657     12709     12711     12659     12661     12663     12664
     12659     12661     12665     12666     12659     12661     12665     12667
     12660     12659     12657     12709     12660     12659     12661     12662
     12660     12659     12661     12663     12660     12659     12661     12665
     12661     12659     12657     12709     12661     12665     12667     12668
     12661     12665     12667     12669     12662     12661     12663     12664
     12662     12661     12665     12666     12662     12661     12665     12667
     12663     12661     12665     12666     12663     12661     12665     12667
     12664     12663     12661     12665     12665     12667     12669     12670
     12665     12667     12669     12671     12665     12667     12669     12672
     12666     12665     12667     12668     12666     12665     12667     12669
     12667     12669     12672     12673     12667     12669     12672     12674
     12667     12669     12672     12675     12668     12667     12669     12670
     12668     12667     12669     12671     12668     12667     12669     12672
     12669     12672     12675     12676     12669     12672     12675     12677
     12669     12672     12675     12678     12670     12669     12672     12673
     12670     12669     12672     12674     12670     12669     12672     12675
     12671     12669     12672     12673     12671     12669     12672     12674
     12671     12669     12672     12675     12672     12675     12678     12679
     12672     12675     12678     12680     12672     12675     12678     12681
     12673     12672     12675     12676     12673     12672     12675     12677
     12673     12672     12675     12678     12674     12672     12675     12676
     12674     12672     12675     12677     12674     12672     12675     12678
     12675     12678     12681     12682     12675     12678     12681     12683
     12675     12678     12681     12684     12676     12675     12678     12679
     12676     12675     12678     12680     12676     12675     12678     12681
     12677     12675     12678     12679     12677     12675     12678     12680
     12677     12675     12678     12681     12678     12681     12684     12685
     12678     12681     12684     12686     12678     12681     12684     12687
     12679     12678     12681     12682     12679     12678     12681     12683
     12679     12678     12681     12684     12680     12678     12681     12682
     12680     12678     12681     12683     12680     12678     12681     12684
     12681     12684     12687     12688     12681     12684     12687     12689
     12681     12684     12687     12690     12682     12681     12684     12685
     12682     12681     12684     12686     12682     12681     12684     12687
     12683     12681     12684     12685     12683     12681     12684     12686
     12683     12681     12684     12687     12684     12687     12690     12691
     12684     12687     12690     12692     12684     12687     12690     12693
     12685     12684     12687     12688     12685     12684     12687     12689
     12685     12684     12687     12690     12686     12684     12687     12688
     12686     12684     12687     12689     12686     12684     12687     12690
     12687     12690     12693     12694     12687     12690     12693     12695
     12687     12690     12693     12696     12688     12687     12690     12691
     12688     12687     12690     12692     12688     12687     12690     12693
     12689     12687     12690     12691     12689     12687     12690     12692
     12689     12687     12690     12693     12690     12693     12696     12697
     12690     12693     12696     12698     12690     12693     12696     12699
     12691     12690     12693     12694     12691     12690     12693     12695
     12691     12690     12693     12696     12692     12690     12693     12694
     12692     12690     12693     12695     12692     12690     12693     12696
     12693     12696     12699     12700     12693     12696     12699     12701
     12693     12696     12699     12702     12694     12693     12696     12697
     12694     12693     12696     12698     12694     12693     12696     12699
     12695     12693     12696     12697     12695     12693     12696     12698
     12695     12693     12696     12699     12696     12699     12702     12703
     12696     12699     12702     12704     12696     12699     12702     12705
     12697     12696     12699     12700     12697     12696     12699     12701
     12697     12696     12699     12702     12698     12696     12699     12700
     12698     12696     12699     12701     12698     12696     12699     12702
     12699     12702     12705     12706     12699     12702     12705     12707
     12699     12702     12705     12708     12700     12699     12702     12703
     12700     12699     12702     12704     12700     12699     12702     12705
     12701     12699     12702     12703     12701     12699     12702     12704
     12701     12699     12702     12705     12703     12702     12705     12706
     12703     12702     12705     12707     12703     12702     12705     12708
     12704     12702     12705     12706     12704     12702     12705     12707
     12704     12702     12705     12708     12709     12711     12714     12715
     12709     12711     12714     12716     12709     12711     12714     12717
     12710     12709     12711     12712     12710     12709     12711     12713
     12710     12709     12711     12714     12711     12714     12717     12718
     12711     12714     12717     12719     12711     12714     12717     12720
     12712     12711     12714     12715     12712     12711     12714     12716
     12712     12711     12714     12717     12713     12711     12714     12715
     12713     12711     12714     12716     12713     12711     12714     12717
     12714     12717     12720     12721     12714     12717     12720     12722
     12714     12717     12720     12723     12715     12714     12717     12718
     12715     12714     12717     12719     12715     12714     12717     12720
     12716     12714     12717     12718     12716     12714     12717     12719
     12716     12714     12717     12720     12717     12720     12723     12724
     12717     12720     12723     12725     12717     12720     12723     12726
     12718     12717     12720     12721     12718     12717     12720     12722
     12718     12717     12720     12723     12719     12717     12720     12721
     12719     12717     12720     12722     12719     12717     12720     12723
     12720     12723     12726     12727     12720     12723     12726     12728
     12720     12723     12726     12729     12721     12720     12723     12724
     12721     12720     12723     12725     12721     12720     12723     12726
     12722     12720     12723     12724     12722     12720     12723     12725
     12722     12720     12723     12726     12723     12726     12729     12730
     12723     12726     12729     12731     12723     12726     12729     12732
     12724     12723     12726     12727     12724     12723     12726     12728
     12724     12723     12726     12729     12725     12723     12726     12727
     12725     12723     12726     12728     12725     12723     12726     12729
     12726     12729     12732     12733     12726     12729     12732     12734
     12727     12726     12729     12730     12727     12726     12729     12731
     12727     12726     12729     12732     12728     12726     12729     12730
     12728     12726     12729     12731     12728     12726     12729     12732
     12729     12732     12734     12735     12729     12732     12734     12736
     12730     12729     12732     12733     12730     12729     12732     12734
     12731     12729     12732     12733     12731     12729     12732     12734
     12732     12734     12736     12737     12732     12734     12736     12738
     12732     12734     12736     12739     12733     12732     12734     12735
     12733     12732     12734     12736     12734     12736     12739     12740
     12734     12736     12739     12741     12734     12736     12739     12742
     12735     12734     12736     12737     12735     12734     12736     12738
     12735     12734     12736     12739     12736     12739     12742     12743
     12736     12739     12742     12744     12736     12739     12742     12745
     12737     12736     12739     12740     12737     12736     12739     12741
     12737     12736     12739     12742     12738     12736     12739     12740
     12738     12736     12739     12741     12738     12736     12739     12742
     12739     12742     12745     12746     12739     12742     12745     12747
     12739     12742     12745     12748     12740     12739     12742     12743
     12740     12739     12742     12744     12740     12739     12742     12745
     12741     12739     12742     12743     12741     12739     12742     12744
     12741     12739     12742     12745     12742     12745     12748     12749
     12742     12745     12748     12750     12742     12745     12748     12751
     12743     12742     12745     12746     12743     12742     12745     12747
     12743     12742     12745     12748     12744     12742     12745     12746
     12744     12742     12745     12747     12744     12742     12745     12748
     12745     12748     12751     12752     12745     12748     12751     12753
     12745     12748     12751     12754     12746     12745     12748     12749
     12746     12745     12748     12750     12746     12745     12748     12751
     12747     12745     12748     12749     12747     12745     12748     12750
     12747     12745     12748     12751     12748     12751     12754     12755
     12748     12751     12754     12756     12748     12751     12754     12757
     12749     12748     12751     12752     12749     12748     12751     12753
     12749     12748     12751     12754     12750     12748     12751     12752
     12750     12748     12751     12753     12750     12748     12751     12754
     12751     12754     12757     12758     12751     12754     12757     12759
     12751     12754     12757     12760     12752     12751     12754     12755
     12752     12751     12754     12756     12752     12751     12754     12757
     12753     12751     12754     12755     12753     12751     12754     12756
     12753     12751     12754     12757     12755     12754     12757     12758
     12755     12754     12757     12759     12755     12754     12757     12760
     12756     12754     12757     12758     12756     12754     12757     12759
     12756     12754     12757     12760      8279      8283      8285      8286
      8279      8283      8285      8287      8279      8283      8288      8289
      8279      8283      8288      8290      8279      8283      8288      8294
      8280      8279      8283      8284      8280      8279      8283      8285
      8280      8279      8283      8288      8281      8279      8283      8284
      8281      8279      8283      8285      8281      8279      8283      8288
      8282      8279      8283      8284      8282      8279      8283      8285
      8282      8279      8283      8288      8283      8288      8294      8291
      8284      8283      8285      8286      8284      8283      8285      8287
      8284      8283      8288      8289      8284      8283      8288      8290
      8284      8283      8288      8294      8285      8283      8288      8289
      8285      8283      8288      8290      8285      8283      8288      8294
      8286      8285      8283      8288      8287      8285      8283      8288
      8288      8294      8291      8292      8288      8294      8291      8293
      8288      8294      8291      8295      8289      8288      8294      8291
      8290      8288      8294      8291      8291      8295      8296      8297
      8291      8295      8296      8298      8291      8295      8296      8299
      8292      8291      8295      8296      8293      8291      8295      8296
      8294      8291      8295      8296      8295      8296      8299      8300
      8295      8296      8299      8301      8295      8296      8299      8307
      8296      8299      8301      8302      8296      8299      8307      8308
      8296      8299      8307      8309      8296      8299      8307      8310
      8297      8296      8299      8300      8297      8296      8299      8301
      8297      8296      8299      8307      8298      8296      8299      8300
      8298      8296      8299      8301      8298      8296      8299      8307
      8299      8301      8302      8303      8299      8301      8302      8304
      8299      8307      8310      8311      8300      8299      8301      8302
      8300      8299      8307      8308      8300      8299      8307      8309
      8300      8299      8307      8310      8301      8299      8307      8308
      8301      8299      8307      8309      8301      8299      8307      8310
      8301      8302      8304      8305      8301      8302      8304      8306
      8301      8302      8304      8316      8302      8301      8299      8307
      8302      8304      8316      8317      8302      8304      8316      8318
      8302      8304      8316      8319      8303      8302      8304      8305
      8303      8302      8304      8306      8303      8302      8304      8316
      8304      8316      8319      8320      8304      8316      8319      8321
      8304      8316      8319      8322      8305      8304      8316      8317
      8305      8304      8316      8318      8305      8304      8316      8319
      8306      8304      8316      8317      8306      8304      8316      8318
      8306      8304      8316      8319      8307      8310      8311      8312
      8307      8310      8311      8313      8308      8307      8310      8311
      8309      8307      8310      8311      8310      8311      8313      8314
      8310      8311      8313      8315      8310      8311      8313      8363
      8311      8313      8363      8364      8311      8313      8363      8365
      8311      8313      8363      8366      8312      8311      8313      8314
      8312      8311      8313      8315      8312      8311      8313      8363
      8313      8363      8366      8367      8313      8363      8366      8368
      8313      8363      8366      8369      8314      8313      8363      8364
      8314      8313      8363      8365      8314      8313      8363      8366
      8315      8313      8363      8364      8315      8313      8363      8365
      8315      8313      8363      8366      8316      8319      8322      8323
      8316      8319      8322      8324      8317      8316      8319      8320
      8317      8316      8319      8321      8317      8316      8319      8322
      8318      8316      8319      8320      8318      8316      8319      8321
      8318      8316      8319      8322      8319      8322      8324      8325
      8319      8322      8324      8326      8320      8319      8322      8323
      8320      8319      8322      8324      8321      8319      8322      8323
      8321      8319      8322      8324      8322      8324      8326      8327
      8322      8324      8326      8328      8322      8324      8326      8329
      8323      8322      8324      8325      8323      8322      8324      8326
      8324      8326      8329      8330      8324      8326      8329      8331
      8325      8324      8326      8327      8325      8324      8326      8328
      8325      8324      8326      8329      8326      8329      8331      8332
      8326      8329      8331      8333      8327      8326      8329      8330
      8327      8326      8329      8331      8328      8326      8329      8330
      8328      8326      8329      8331      8329      8331      8333      8334
      8329      8331      8333      8335      8329      8331      8333      8336
      8330      8329      8331      8332      8330      8329      8331      8333
      8331      8333      8336      8337      8331      8333      8336      8338
      8332      8331      8333      8334      8332      8331      8333      8335
      8332      8331      8333      8336      8333      8336      8338      8339
      8333      8336      8338      8340      8334      8333      8336      8337
      8334      8333      8336      8338      8335      8333      8336      8337
      8335      8333      8336      8338      8336      8338      8340      8341
      8336      8338      8340      8342      8336      8338      8340      8343
      8337      8336      8338      8339      8337      8336      8338      8340
      8338      8340      8343      8344      8338      8340      8343      8345
      8339      8338      8340      8341      8339      8338      8340      8342
      8339      8338      8340      8343      8340      8343      8345      8346
      8340      8343      8345      8347      8341      8340      8343      8344
      8341      8340      8343      8345      8342      8340      8343      8344
      8342      8340      8343      8345      8343      8345      8347      8348
      8343      8345      8347      8349      8343      8345      8347      8350
      8344      8343      8345      8346      8344      8343      8345      8347
      8345      8347      8350      8351      8345      8347      8350      8352
      8345      8347      8350      8353      8346      8345      8347      8348
      8346      8345      8347      8349      8346      8345      8347      8350
      8347      8350      8353      8354      8347      8350      8353      8355
      8347      8350      8353      8356      8348      8347      8350      8351
      8348      8347      8350      8352      8348      8347      8350      8353
      8349      8347      8350      8351      8349      8347      8350      8352
      8349      8347      8350      8353      8350      8353      8356      8357
      8350      8353      8356      8358      8350      8353      8356      8359
      8351      8350      8353      8354      8351      8350      8353      8355
      8351      8350      8353      8356      8352      8350      8353      8354
      8352      8350      8353      8355      8352      8350      8353      8356
      8353      8356      8359      8360      8353      8356      8359      8361
      8353      8356      8359      8362      8354      8353      8356      8357
      8354      8353      8356      8358      8354      8353      8356      8359
      8355      8353      8356      8357      8355      8353      8356      8358
      8355      8353      8356      8359      8357      8356      8359      8360
      8357      8356      8359      8361      8357      8356      8359      8362
      8358      8356      8359      8360      8358      8356      8359      8361
      8358      8356      8359      8362      8363      8366      8369      8370
      8363      8366      8369      8371      8363      8366      8369      8372
      8364      8363      8366      8367      8364      8363      8366      8368
      8364      8363      8366      8369      8365      8363      8366      8367
      8365      8363      8366      8368      8365      8363      8366      8369
      8366      8369      8372      8373      8366      8369      8372      8374
      8366      8369      8372      8375      8367      8366      8369      8370
      8367      8366      8369      8371      8367      8366      8369      8372
      8368      8366      8369      8370      8368      8366      8369      8371
      8368      8366      8369      8372      8369      8372      8375      8376
      8369      8372      8375      8377      8369      8372      8375      8378
      8370      8369      8372      8373      8370      8369      8372      8374
      8370      8369      8372      8375      8371      8369      8372      8373
      8371      8369      8372      8374      8371      8369      8372      8375
      8372      8375      8378      8379      8372      8375      8378      8380
      8372      8375      8378      8381      8373      8372      8375      8376
      8373      8372      8375      8377      8373      8372      8375      8378
      8374      8372      8375      8376      8374      8372      8375      8377
      8374      8372      8375      8378      8375      8378      8381      8382
      8375      8378      8381      8383      8375      8378      8381      8384
      8376      8375      8378      8379      8376      8375      8378      8380
      8376      8375      8378      8381      8377      8375      8378      8379
      8377      8375      8378      8380      8377      8375      8378      8381
      8378      8381      8384      8385      8378      8381      8384      8386
      8378      8381      8384      8387      8379      8378      8381      8382
      8379      8378      8381      8383      8379      8378      8381      8384
      8380      8378      8381      8382      8380      8378      8381      8383
      8380      8378      8381      8384      8381      8384      8387      8388
      8381      8384      8387      8389      8381      8384      8387      8390
      8382      8381      8384      8385      8382      8381      8384      8386
      8382      8381      8384      8387      8383      8381      8384      8385
      8383      8381      8384      8386      8383      8381      8384      8387
      8384      8387      8390      8391      8384      8387      8390      8392
      8384      8387      8390      8393      8385      8384      8387      8388
      8385      8384      8387      8389      8385      8384      8387      8390
      8386      8384      8387      8388      8386      8384      8387      8389
      8386      8384      8387      8390      8387      8390      8393      8394
      8387      8390      8393      8395      8387      8390      8393      8396
      8388      8387      8390      8391      8388      8387      8390      8392
      8388      8387      8390      8393      8389      8387      8390      8391
      8389      8387      8390      8392      8389      8387      8390      8393
      8390      8393      8396      8397      8390      8393      8396      8398
      8390      8393      8396      8399      8391      8390      8393      8394
      8391      8390      8393      8395      8391      8390      8393      8396
      8392      8390      8393      8394      8392      8390      8393      8395
      8392      8390      8393      8396      8393      8396      8399      8400
      8393      8396      8399      8401      8393      8396      8399      8402
      8394      8393      8396      8397      8394      8393      8396      8398
      8394      8393      8396      8399      8395      8393      8396      8397
      8395      8393      8396      8398      8395      8393      8396      8399
      8396      8399      8402      8403      8396      8399      8402      8404
      8396      8399      8402      8405      8397      8396      8399      8400
      8397      8396      8399      8401      8397      8396      8399      8402
      8398      8396      8399      8400      8398      8396      8399      8401
      8398      8396      8399      8402      8399      8402      8405      8406
      8399      8402      8405      8407      8399      8402      8405      8408
      8400      8399      8402      8403      8400      8399      8402      8404
      8400      8399      8402      8405      8401      8399      8402      8403
      8401      8399      8402      8404      8401      8399      8402      8405
      8402      8405      8408      8409      8402      8405      8408      8410
      8402      8405      8408      8411      8403      8402      8405      8406
      8403      8402      8405      8407      8403      8402      8405      8408
      8404      8402      8405      8406      8404      8402      8405      8407
      8404      8402      8405      8408      8406      8405      8408      8409
      8406      8405      8408      8410      8406      8405      8408      8411
      8407      8405      8408      8409      8407      8405      8408      8410
      8407      8405      8408      8411      8412      8416      8418      8419
      8412      8416      8418      8420      8412      8416      8421      8422
      8412      8416      8421      8423      8412      8416      8421      8427
      8413      8412      8416      8417      8413      8412      8416      8418
      8413      8412      8416      8421      8414      8412      8416      8417
      8414      8412      8416      8418      8414      8412      8416      8421
      8415      8412      8416      8417      8415      8412      8416      8418
      8415      8412      8416      8421      8416      8421      8427      8424
      8417      8416      8418      8419      8417      8416      8418      8420
      8417      8416      8421      8422      8417      8416      8421      8423
      8417      8416      8421      8427      8418      8416      8421      8422
      8418      8416      8421      8423      8418      8416      8421      8427
      8419      8418      8416      8421      8420      8418      8416      8421
      8421      8427      8424      8425      8421      8427      8424      8426
      8421      8427      8424      8428      8422      8421      8427      8424
      8423      8421      8427      8424      8424      8428      8429      8430
      8424      8428      8429      8431      8424      8428      8429      8432
      8425      8424      8428      8429      8426      8424      8428      8429
      8427      8424      8428      8429      8428      8429      8432      8433
      8428      8429      8432      8434      8428      8429      8432      8440
      8429      8432      8434      8435      8429      8432      8440      8441
      8429      8432      8440      8442      8429      8432      8440      8443
      8430      8429      8432      8433      8430      8429      8432      8434
      8430      8429      8432      8440      8431      8429      8432      8433
      8431      8429      8432      8434      8431      8429      8432      8440
      8432      8434      8435      8436      8432      8434      8435      8437
      8432      8440      8443      8444      8433      8432      8434      8435
      8433      8432      8440      8441      8433      8432      8440      8442
      8433      8432      8440      8443      8434      8432      8440      8441
      8434      8432      8440      8442      8434      8432      8440      8443
      8434      8435      8437      8438      8434      8435      8437      8439
      8434      8435      8437      8449      8435      8434      8432      8440
      8435      8437      8449      8450      8435      8437      8449      8451
      8435      8437      8449      8452      8436      8435      8437      8438
      8436      8435      8437      8439      8436      8435      8437      8449
      8437      8449      8452      8453      8437      8449      8452      8454
      8437      8449      8452      8455      8438      8437      8449      8450
      8438      8437      8449      8451      8438      8437      8449      8452
      8439      8437      8449      8450      8439      8437      8449      8451
      8439      8437      8449      8452      8440      8443      8444      8445
      8440      8443      8444      8446      8441      8440      8443      8444
      8442      8440      8443      8444      8443      8444      8446      8447
      8443      8444      8446      8448      8443      8444      8446      8496
      8444      8446      8496      8497      8444      8446      8496      8498
      8444      8446      8496      8499      8445      8444      8446      8447
      8445      8444      8446      8448      8445      8444      8446      8496
      8446      8496      8499      8500      8446      8496      8499      8501
      8446      8496      8499      8502      8447      8446      8496      8497
      8447      8446      8496      8498      8447      8446      8496      8499
      8448      8446      8496      8497      8448      8446      8496      8498
      8448      8446      8496      8499      8449      8452      8455      8456
      8449      8452      8455      8457      8450      8449      8452      8453
      8450      8449      8452      8454      8450      8449      8452      8455
      8451      8449      8452      8453      8451      8449      8452      8454
      8451      8449      8452      8455      8452      8455      8457      8458
      8452      8455      8457      8459      8453      8452      8455      8456
      8453      8452      8455      8457      8454      8452      8455      8456
      8454      8452      8455      8457      8455      8457      8459      8460
      8455      8457      8459      8461      8455      8457      8459      8462
      8456      8455      8457      8458      8456      8455      8457      8459
      8457      8459      8462      8463      8457      8459      8462      8464
      8458      8457      8459      8460      8458      8457      8459      8461
      8458      8457      8459      8462      8459      8462      8464      8465
      8459      8462      8464      8466      8460      8459      8462      8463
      8460      8459      8462      8464      8461      8459      8462      8463
      8461      8459      8462      8464      8462      8464      8466      8467
      8462      8464      8466      8468      8462      8464      8466      8469
      8463      8462      8464      8465      8463      8462      8464      8466
      8464      8466      8469      8470      8464      8466      8469      8471
      8465      8464      8466      8467      8465      8464      8466      8468
      8465      8464      8466      8469      8466      8469      8471      8472
      8466      8469      8471      8473      8467      8466      8469      8470
      8467      8466      8469      8471      8468      8466      8469      8470
      8468      8466      8469      8471      8469      8471      8473      8474
      8469      8471      8473      8475      8469      8471      8473      8476
      8470      8469      8471      8472      8470      8469      8471      8473
      8471      8473      8476      8477      8471      8473      8476      8478
      8472      8471      8473      8474      8472      8471      8473      8475
      8472      8471      8473      8476      8473      8476      8478      8479
      8473      8476      8478      8480      8474      8473      8476      8477
      8474      8473      8476      8478      8475      8473      8476      8477
      8475      8473      8476      8478      8476      8478      8480      8481
      8476      8478      8480      8482      8476      8478      8480      8483
      8477      8476      8478      8479      8477      8476      8478      8480
      8478      8480      8483      8484      8478      8480      8483      8485
      8478      8480      8483      8486      8479      8478      8480      8481
      8479      8478      8480      8482      8479      8478      8480      8483
      8480      8483      8486      8487      8480      8483      8486      8488
      8480      8483      8486      8489      8481      8480      8483      8484
      8481      8480      8483      8485      8481      8480      8483      8486
      8482      8480      8483      8484      8482      8480      8483      8485
      8482      8480      8483      8486      8483      8486      8489      8490
      8483      8486      8489      8491      8483      8486      8489      8492
      8484      8483      8486      8487      8484      8483      8486      8488
      8484      8483      8486      8489      8485      8483      8486      8487
      8485      8483      8486      8488      8485      8483      8486      8489
      8486      8489      8492      8493      8486      8489      8492      8494
      8486      8489      8492      8495      8487      8486      8489      8490
      8487      8486      8489      8491      8487      8486      8489      8492
      8488      8486      8489      8490      8488      8486      8489      8491
      8488      8486      8489      8492      8490      8489      8492      8493
      8490      8489      8492      8494      8490      8489      8492      8495
      8491      8489      8492      8493      8491      8489      8492      8494
      8491      8489      8492      8495      8496      8499      8502      8503
      8496      8499      8502      8504      8496      8499      8502      8505
      8497      8496      8499      8500      8497      8496      8499      8501
      8497      8496      8499      8502      8498      8496      8499      8500
      8498      8496      8499      8501      8498      8496      8499      8502
      8499      8502      8505      8506      8499      8502      8505      8507
      8499      8502      8505      8508      8500      8499      8502      8503
      8500      8499      8502      8504      8500      8499      8502      8505
      8501      8499      8502      8503      8501      8499      8502      8504
      8501      8499      8502      8505      8502      8505      8508      8509
      8502      8505      8508      8510      8502      8505      8508      8511
      8503      8502      8505      8506      8503      8502      8505      8507
      8503      8502      8505      8508      8504      8502      8505      8506
      8504      8502      8505      8507      8504      8502      8505      8508
      8505      8508      8511      8512      8505      8508      8511      8513
      8505      8508      8511      8514      8506      8505      8508      8509
      8506      8505      8508      8510      8506      8505      8508      8511
      8507      8505      8508      8509      8507      8505      8508      8510
      8507      8505      8508      8511      8508      8511      8514      8515
      8508      8511      8514      8516      8508      8511      8514      8517
      8509      8508      8511      8512      8509      8508      8511      8513
      8509      8508      8511      8514      8510      8508      8511      8512
      8510      8508      8511      8513      8510      8508      8511      8514
      8511      8514      8517      8518      8511      8514      8517      8519
      8511      8514      8517      8520      8512      8511      8514      8515
      8512      8511      8514      8516      8512      8511      8514      8517
      8513      8511      8514      8515      8513      8511      8514      8516
      8513      8511      8514      8517      8514      8517      8520      8521
      8514      8517      8520      8522      8514      8517      8520      8523
      8515      8514      8517      8518      8515      8514      8517      8519
      8515      8514      8517      8520      8516      8514      8517      8518
      8516      8514      8517      8519      8516      8514      8517      8520
      8517      8520      8523      8524      8517      8520      8523      8525
      8517      8520      8523      8526      8518      8517      8520      8521
      8518      8517      8520      8522      8518      8517      8520      8523
      8519      8517      8520      8521      8519      8517      8520      8522
      8519      8517      8520      8523      8520      8523      8526      8527
      8520      8523      8526      8528      8520      8523      8526      8529
      8521      8520      8523      8524      8521      8520      8523      8525
      8521      8520      8523      8526      8522      8520      8523      8524
      8522      8520      8523      8525      8522      8520      8523      8526
      8523      8526      8529      8530      8523      8526      8529      8531
      8523      8526      8529      8532      8524      8523      8526      8527
      8524      8523      8526      8528      8524      8523      8526      8529
      8525      8523      8526      8527      8525      8523      8526      8528
      8525      8523      8526      8529      8526      8529      8532      8533
      8526      8529      8532      8534      8526      8529      8532      8535
      8527      8526      8529      8530      8527      8526      8529      8531
      8527      8526      8529      8532      8528      8526      8529      8530
      8528      8526      8529      8531      8528      8526      8529      8532
      8529      8532      8535      8536      8529      8532      8535      8537
      8529      8532      8535      8538      8530      8529      8532      8533
      8530      8529      8532      8534      8530      8529      8532      8535
      8531      8529      8532      8533      8531      8529      8532      8534
      8531      8529      8532      8535      8532      8535      8538      8539
      8532      8535      8538      8540      8532      8535      8538      8541
      8533      8532      8535      8536      8533      8532      8535      8537
      8533      8532      8535      8538      8534      8532      8535      8536
      8534      8532      8535      8537      8534      8532      8535      8538
      8535      8538      8541      8542      8535      8538      8541      8543
      8535      8538      8541      8544      8536      8535      8538      8539
      8536      8535      8538      8540      8536      8535      8538      8541
      8537      8535      8538      8539      8537      8535      8538      8540
      8537      8535      8538      8541      8539      8538      8541      8542
      8539      8538      8541      8543      8539      8538      8541      8544
      8540      8538      8541      8542      8540      8538      8541      8543
      8540      8538      8541      8544      1777      1781      1784      1785
      1777      1781      1784      1815      1777      1823      1820      1815
      1777      1823      1820      1821      1777      1823      1820      1822
      1778      1777      1779      1780      1778      1777      1781      1782
      1778      1777      1781      1783      1778      1777      1781      1784
      1778      1777      1823      1820      1778      1777      1823      1824
      1778      1777      1823      1825      1779      1777      1781      1782
      1779      1777      1781      1783      1779      1777      1781      1784
      1779      1777      1823      1820      1779      1777      1823      1824
      1779      1777      1823      1825      1780      1779      1777      1781
      1780      1779      1777      1823      1781      1777      1823      1820
      1781      1777      1823      1824      1781      1777      1823      1825
      1781      1784      1785      1786      1781      1784      1785      1787
      1781      1784      1815      1813      1781      1784      1815      1816
      1781      1784      1815      1820      1782      1781      1777      1823
      1782      1781      1784      1785      1782      1781      1784      1815
      1783      1781      1777      1823      1783      1781      1784      1785
      1783      1781      1784      1815      1784      1781      1777      1823
      1784      1785      1787      1788      1784      1785      1787      1789
      1784      1785      1787      1790      1784      1815      1813      1790
      1784      1815      1813      1810      1784      1815      1813      1814
      1784      1815      1816      1817      1784      1815      1816      1818
      1784      1815      1816      1819      1784      1815      1820      1821
      1784      1815      1820      1822      1784      1815      1820      1823
      1785      1784      1815      1813      1785      1784      1815      1816
      1785      1784      1815      1820      1785      1787      1790      1791
      1785      1787      1790      1792      1785      1787      1790      1813
      1786      1785      1784      1815      1786      1785      1787      1788
      1786      1785      1787      1789      1786      1785      1787      1790
      1787      1785      1784      1815      1787      1790      1792      1793
      1787      1790      1792      1794      1787      1790      1792      1802
      1787      1790      1813      1810      1787      1790      1813      1814
      1787      1790      1813      1815      1788      1787      1790      1791
      1788      1787      1790      1792      1788      1787      1790      1813
      1789      1787      1790      1791      1789      1787      1790      1792
      1789      1787      1790      1813      1790      1792      1794      1795
      1790      1792      1794      1796      1790      1792      1794      1797
      1790      1792      1802      1800      1790      1792      1802      1803
      1790      1792      1802      1807      1790      1813      1810      1807
      1790      1813      1810      1811      1790      1813      1810      1812
      1790      1813      1815      1816      1790      1813      1815      1820
      1791      1790      1792      1793      1791      1790      1792      1794
      1791      1790      1792      1802      1791      1790      1813      1810
      1791      1790      1813      1814      1791      1790      1813      1815
      1792      1790      1813      1810      1792      1790      1813      1814
      1792      1790      1813      1815      1792      1794      1797      1798
      1792      1794      1797      1799      1792      1794      1797      1800
      1792      1802      1800      1797      1792      1802      1800      1801
      1792      1802      1800      1826      1792      1802      1803      1804
      1792      1802      1803      1805      1792      1802      1803      1806
      1792      1802      1807      1808      1792      1802      1807      1809
      1792      1802      1807      1810      1793      1792      1790      1813
      1793      1792      1794      1795      1793      1792      1794      1796
      1793      1792      1794      1797      1793      1792      1802      1800
      1793      1792      1802      1803      1793      1792      1802      1807
      1794      1792      1790      1813      1794      1792      1802      1800
      1794      1792      1802      1803      1794      1792      1802      1807
      1794      1797      1800      1801      1794      1797      1800      1802
      1794      1797      1800      1826      1795      1794      1792      1802
      1795      1794      1797      1798      1795      1794      1797      1799
      1795      1794      1797      1800      1796      1794      1792      1802
      1796      1794      1797      1798      1796      1794      1797      1799
      1796      1794      1797      1800      1797      1794      1792      1802
      1797      1800      1802      1803      1797      1800      1802      1807
      1797      1800      1826      1827      1797      1800      1826      1828
      1797      1800      1826      1832      1798      1797      1800      1801
      1798      1797      1800      1802      1798      1797      1800      1826
      1799      1797      1800      1801      1799      1797      1800      1802
      1799      1797      1800      1826      1800      1802      1803      1804
      1800      1802      1803      1805      1800      1802      1803      1806
      1800      1802      1807      1808      1800      1802      1807      1809
      1800      1802      1807      1810      1800      1826      1828      1829
      1800      1826      1828      1830      1800      1826      1828      1831
      1800      1826      1832      1833      1800      1826      1832      1834
      1800      1826      1832      1835      1801      1800      1802      1803
      1801      1800      1802      1807      1801      1800      1826      1827
      1801      1800      1826      1828      1801      1800      1826      1832
      1802      1792      1790      1813      1802      1800      1826      1827
      1802      1800      1826      1828      1802      1800      1826      1832
      1802      1807      1810      1811      1802      1807      1810      1812
      1802      1807      1810      1813      1803      1802      1800      1826
      1803      1802      1807      1808      1803      1802      1807      1809
      1803      1802      1807      1810      1804      1803      1802      1807
      1805      1803      1802      1807      1806      1803      1802      1807
      1807      1802      1800      1826      1807      1810      1813      1814
      1807      1810      1813      1815      1808      1807      1810      1811
      1808      1807      1810      1812      1808      1807      1810      1813
      1809      1807      1810      1811      1809      1807      1810      1812
      1809      1807      1810      1813      1810      1813      1815      1816
      1810      1813      1815      1820      1811      1810      1813      1814
      1811      1810      1813      1815      1812      1810      1813      1814
      1812      1810      1813      1815      1813      1815      1816      1817
      1813      1815      1816      1818      1813      1815      1816      1819
      1813      1815      1820      1821      1813      1815      1820      1822
      1813      1815      1820      1823      1814      1813      1815      1816
      1814      1813      1815      1820      1815      1820      1823      1824
      1815      1820      1823      1825      1816      1815      1820      1821
      1816      1815      1820      1822      1816      1815      1820      1823
      1817      1816      1815      1820      1818      1816      1815      1820
      1819      1816      1815      1820      1821      1820      1823      1824
      1821      1820      1823      1825      1822      1820      1823      1824
      1822      1820      1823      1825      1826      1832      1835      1836
      1826      1832      1835      1837      1826      1832      1835      1838
      1827      1826      1828      1829      1827      1826      1828      1830
      1827      1826      1828      1831      1827      1826      1832      1833
      1827      1826      1832      1834      1827      1826      1832      1835
      1828      1826      1832      1833      1828      1826      1832      1834
      1828      1826      1832      1835      1829      1828      1826      1832
      1830      1828      1826      1832      1831      1828      1826      1832
      1832      1835      1838      1839      1832      1835      1838      1840
      1832      1835      1838      1841      1833      1832      1835      1836
      1833      1832      1835      1837      1833      1832      1835      1838
      1834      1832      1835      1836      1834      1832      1835      1837
      1834      1832      1835      1838      1835      1838      1841      1842
      1835      1838      1841      1843      1835      1838      1841      1847
      1836      1835      1838      1839      1836      1835      1838      1840
      1836      1835      1838      1841      1837      1835      1838      1839
      1837      1835      1838      1840      1837      1835      1838      1841
      1838      1841      1843      1844      1838      1841      1843      1845
      1838      1841      1843      1846      1838      1841      1847      1848
      1838      1841      1847      1849      1838      1841      1847      1850
      1839      1838      1841      1842      1839      1838      1841      1843
      1839      1838      1841      1847      1840      1838      1841      1842
      1840      1838      1841      1843      1840      1838      1841      1847
      1842      1841      1843      1844      1842      1841      1843      1845
      1842      1841      1843      1846      1842      1841      1847      1848
      1842      1841      1847      1849      1842      1841      1847      1850
      1843      1841      1847      1848      1843      1841      1847      1849
      1843      1841      1847      1850      1844      1843      1841      1847
      1845      1843      1841      1847      1846      1843      1841      1847
      1851      1855      1858      1859      1851      1855      1858      1889
      1851      1897      1894      1889      1851      1897      1894      1895
      1851      1897      1894      1896      1852      1851      1853      1854
      1852      1851      1855      1856      1852      1851      1855      1857
      1852      1851      1855      1858      1852      1851      1897      1894
      1852      1851      1897      1898      1852      1851      1897      1899
      1853      1851      1855      1856      1853      1851      1855      1857
      1853      1851      1855      1858      1853      1851      1897      1894
      1853      1851      1897      1898      1853      1851      1897      1899
      1854      1853      1851      1855      1854      1853      1851      1897
      1855      1851      1897      1894      1855      1851      1897      1898
      1855      1851      1897      1899      1855      1858      1859      1860
      1855      1858      1859      1861      1855      1858      1889      1887
      1855      1858      1889      1890      1855      1858      1889      1894
      1856      1855      1851      1897      1856      1855      1858      1859
      1856      1855      1858      1889      1857      1855      1851      1897
      1857      1855      1858      1859      1857      1855      1858      1889
      1858      1855      1851      1897      1858      1859      1861      1862
      1858      1859      1861      1863      1858      1859      1861      1864
      1858      1889      1887      1864      1858      1889      1887      1884
      1858      1889      1887      1888      1858      1889      1890      1891
      1858      1889      1890      1892      1858      1889      1890      1893
      1858      1889      1894      1895      1858      1889      1894      1896
      1858      1889      1894      1897      1859      1858      1889      1887
      1859      1858      1889      1890      1859      1858      1889      1894
      1859      1861      1864      1865      1859      1861      1864      1866
      1859      1861      1864      1887      1860      1859      1858      1889
      1860      1859      1861      1862      1860      1859      1861      1863
      1860      1859      1861      1864      1861      1859      1858      1889
      1861      1864      1866      1867      1861      1864      1866      1868
      1861      1864      1866      1876      1861      1864      1887      1884
      1861      1864      1887      1888      1861      1864      1887      1889
      1862      1861      1864      1865      1862      1861      1864      1866
      1862      1861      1864      1887      1863      1861      1864      1865
      1863      1861      1864      1866      1863      1861      1864      1887
      1864      1866      1868      1869      1864      1866      1868      1870
      1864      1866      1868      1871      1864      1866      1876      1874
      1864      1866      1876      1877      1864      1866      1876      1881
      1864      1887      1884      1881      1864      1887      1884      1885
      1864      1887      1884      1886      1864      1887      1889      1890
      1864      1887      1889      1894      1865      1864      1866      1867
      1865      1864      1866      1868      1865      1864      1866      1876
      1865      1864      1887      1884      1865      1864      1887      1888
      1865      1864      1887      1889      1866      1864      1887      1884
      1866      1864      1887      1888      1866      1864      1887      1889
      1866      1868      1871      1872      1866      1868      1871      1873
      1866      1868      1871      1874      1866      1876      1874      1871
      1866      1876      1874      1875      1866      1876      1874      1900
      1866      1876      1877      1878      1866      1876      1877      1879
      1866      1876      1877      1880      1866      1876      1881      1882
      1866      1876      1881      1883      1866      1876      1881      1884
      1867      1866      1864      1887      1867      1866      1868      1869
      1867      1866      1868      1870      1867      1866      1868      1871
      1867      1866      1876      1874      1867      1866      1876      1877
      1867      1866      1876      1881      1868      1866      1864      1887
      1868      1866      1876      1874      1868      1866      1876      1877
      1868      1866      1876      1881      1868      1871      1874      1875
      1868      1871      1874      1876      1868      1871      1874      1900
      1869      1868      1866      1876      1869      1868      1871      1872
      1869      1868      1871      1873      1869      1868      1871      1874
      1870      1868      1866      1876      1870      1868      1871      1872
      1870      1868      1871      1873      1870      1868      1871      1874
      1871      1868      1866      1876      1871      1874      1876      1877
      1871      1874      1876      1881      1871      1874      1900      1901
      1871      1874      1900      1902      1871      1874      1900      1906
      1872      1871      1874      1875      1872      1871      1874      1876
      1872      1871      1874      1900      1873      1871      1874      1875
      1873      1871      1874      1876      1873      1871      1874      1900
      1874      1876      1877      1878      1874      1876      1877      1879
      1874      1876      1877      1880      1874      1876      1881      1882
      1874      1876      1881      1883      1874      1876      1881      1884
      1874      1900      1902      1903      1874      1900      1902      1904
      1874      1900      1902      1905      1874      1900      1906      1907
      1874      1900      1906      1908      1874      1900      1906      1909
      1875      1874      1876      1877      1875      1874      1876      1881
      1875      1874      1900      1901      1875      1874      1900      1902
      1875      1874      1900      1906      1876      1866      1864      1887
      1876      1874      1900      1901      1876      1874      1900      1902
      1876      1874      1900      1906      1876      1881      1884      1885
      1876      1881      1884      1886      1876      1881      1884      1887
      1877      1876      1874      1900      1877      1876      1881      1882
      1877      1876      1881      1883      1877      1876      1881      1884
      1878      1877      1876      1881      1879      1877      1876      1881
      1880      1877      1876      1881      1881      1876      1874      1900
      1881      1884      1887      1888      1881      1884      1887      1889
      1882      1881      1884      1885      1882      1881      1884      1886
      1882      1881      1884      1887      1883      1881      1884      1885
      1883      1881      1884      1886      1883      1881      1884      1887
      1884      1887      1889      1890      1884      1887      1889      1894
      1885      1884      1887      1888      1885      1884      1887      1889
      1886      1884      1887      1888      1886      1884      1887      1889
      1887      1889      1890      1891      1887      1889      1890      1892
      1887      1889      1890      1893      1887      1889      1894      1895
      1887      1889      1894      1896      1887      1889      1894      1897
      1888      1887      1889      1890      1888      1887      1889      1894
      1889      1894      1897      1898      1889      1894      1897      1899
      1890      1889      1894      1895      1890      1889      1894      1896
      1890      1889      1894      1897      1891      1890      1889      1894
      1892      1890      1889      1894      1893      1890      1889      1894
      1895      1894      1897      1898      1895      1894      1897      1899
      1896      1894      1897      1898      1896      1894      1897      1899
      1900      1906      1909      1910      1900      1906      1909      1911
      1900      1906      1909      1912      1901      1900      1902      1903
      1901      1900      1902      1904      1901      1900      1902      1905
      1901      1900      1906      1907      1901      1900      1906      1908
      1901      1900      1906      1909      1902      1900      1906      1907
      1902      1900      1906      1908      1902      1900      1906      1909
      1903      1902      1900      1906      1904      1902      1900      1906
      1905      1902      1900      1906      1906      1909      1912      1913
      1906      1909      1912      1914      1906      1909      1912      1915
      1907      1906      1909      1910      1907      1906      1909      1911
      1907      1906      1909      1912      1908      1906      1909      1910
      1908      1906      1909      1911      1908      1906      1909      1912
      1909      1912      1915      1916      1909      1912      1915      1917
      1909      1912      1915      1921      1910      1909      1912      1913
      1910      1909      1912      1914      1910      1909      1912      1915
      1911      1909      1912      1913      1911      1909      1912      1914
      1911      1909      1912      1915      1912      1915      1917      1918
      1912      1915      1917      1919      1912      1915      1917      1920
      1912      1915      1921      1922      1912      1915      1921      1923
      1912      1915      1921      1924      1913      1912      1915      1916
      1913      1912      1915      1917      1913      1912      1915      1921
      1914      1912      1915      1916      1914      1912      1915      1917
      1914      1912      1915      1921      1916      1915      1917      1918
      1916      1915      1917      1919      1916      1915      1917      1920
      1916      1915      1921      1922      1916      1915      1921      1923
      1916      1915      1921      1924      1917      1915      1921      1922
      1917      1915      1921      1923      1917      1915      1921      1924
      1918      1917      1915      1921      1919      1917      1915      1921
      1920      1917      1915      1921     12761     12774     12777     12778
     12761     12774     12777     12779     12761     12774     12777     12784
     12762     12761     12766     12767     12762     12761     12766     12768
     12762     12761     12766     12769     12762     12761     12770     12771
     12762     12761     12770     12772     12762     12761     12770     12773
     12762     12761     12774     12775     12762     12761     12774     12776
     12762     12761     12774     12777     12763     12762     12761     12766
     12763     12762     12761     12770     12763     12762     12761     12774
     12764     12762     12761     12766     12764     12762     12761     12770
     12764     12762     12761     12774     12765     12762     12761     12766
     12765     12762     12761     12770     12765     12762     12761     12774
     12766     12761     12770     12771     12766     12761     12770     12772
     12766     12761     12770     12773     12766     12761     12774     12775
     12766     12761     12774     12776     12766     12761     12774     12777
     12767     12766     12761     12770     12767     12766     12761     12774
     12768     12766     12761     12770     12768     12766     12761     12774
     12769     12766     12761     12770     12769     12766     12761     12774
     12770     12761     12774     12775     12770     12761     12774     12776
     12770     12761     12774     12777     12771     12770     12761     12774
     12772     12770     12761     12774     12773     12770     12761     12774
     12774     12777     12784     12780     12775     12774     12777     12778
     12775     12774     12777     12779     12775     12774     12777     12784
     12776     12774     12777     12778     12776     12774     12777     12779
     12776     12774     12777     12784     12777     12784     12780     12781
     12777     12784     12780     12782     12777     12784     12780     12783
     12778     12777     12784     12780     12779     12777     12784     12780
     12780     12783     12785     12786     12780     12783     12785     12787
     12780     12783     12785     12790     12781     12780     12783     12785
     12782     12780     12783     12785     12783     12785     12790     12788
     12783     12785     12790     12791     12783     12785     12790     12792
     12784     12780     12783     12785     12785     12790     12788     12789
     12785     12790     12788     12840     12785     12790     12792     12793
     12785     12790     12792     12794     12785     12790     12792     12796
     12786     12785     12790     12788     12786     12785     12790     12791
     12786     12785     12790     12792     12787     12785     12790     12788
     12787     12785     12790     12791     12787     12785     12790     12792
     12788     12790     12792     12793     12788     12790     12792     12794
     12788     12790     12792     12796     12788     12840     12842     12843
     12788     12840     12842     12844     12788     12840     12842     12845
     12789     12788     12790     12791     12789     12788     12790     12792
     12789     12788     12840     12841     12789     12788     12840     12842
     12790     12788     12840     12841     12790     12788     12840     12842
     12790     12792     12794     12795     12790     12792     12796     12797
     12790     12792     12796     12798     12791     12790     12788     12840
     12791     12790     12792     12793     12791     12790     12792     12794
     12791     12790     12792     12796     12792     12790     12788     12840
     12792     12796     12798     12799     12792     12796     12798     12800
     12793     12792     12794     12795     12793     12792     12796     12797
     12793     12792     12796     12798     12794     12792     12796     12797
     12794     12792     12796     12798     12795     12794     12792     12796
     12796     12798     12800     12801     12796     12798     12800     12802
     12796     12798     12800     12803     12797     12796     12798     12799
     12797     12796     12798     12800     12798     12800     12803     12804
     12798     12800     12803     12805     12798     12800     12803     12806
     12799     12798     12800     12801     12799     12798     12800     12802
     12799     12798     12800     12803     12800     12803     12806     12807
     12800     12803     12806     12808     12800     12803     12806     12809
     12801     12800     12803     12804     12801     12800     12803     12805
     12801     12800     12803     12806     12802     12800     12803     12804
     12802     12800     12803     12805     12802     12800     12803     12806
     12803     12806     12809     12810     12803     12806     12809     12811
     12803     12806     12809     12812     12804     12803     12806     12807
     12804     12803     12806     12808     12804     12803     12806     12809
     12805     12803     12806     12807     12805     12803     12806     12808
     12805     12803     12806     12809     12806     12809     12812     12813
     12806     12809     12812     12814     12806     12809     12812     12815
     12807     12806     12809     12810     12807     12806     12809     12811
     12807     12806     12809     12812     12808     12806     12809     12810
     12808     12806     12809     12811     12808     12806     12809     12812
     12809     12812     12815     12816     12809     12812     12815     12817
     12809     12812     12815     12818     12810     12809     12812     12813
     12810     12809     12812     12814     12810     12809     12812     12815
     12811     12809     12812     12813     12811     12809     12812     12814
     12811     12809     12812     12815     12812     12815     12818     12819
     12812     12815     12818     12820     12812     12815     12818     12821
     12813     12812     12815     12816     12813     12812     12815     12817
     12813     12812     12815     12818     12814     12812     12815     12816
     12814     12812     12815     12817     12814     12812     12815     12818
     12815     12818     12821     12822     12815     12818     12821     12823
     12815     12818     12821     12824     12816     12815     12818     12819
     12816     12815     12818     12820     12816     12815     12818     12821
     12817     12815     12818     12819     12817     12815     12818     12820
     12817     12815     12818     12821     12818     12821     12824     12825
     12818     12821     12824     12826     12818     12821     12824     12827
     12819     12818     12821     12822     12819     12818     12821     12823
     12819     12818     12821     12824     12820     12818     12821     12822
     12820     12818     12821     12823     12820     12818     12821     12824
     12821     12824     12827     12828     12821     12824     12827     12829
     12821     12824     12827     12830     12822     12821     12824     12825
     12822     12821     12824     12826     12822     12821     12824     12827
     12823     12821     12824     12825     12823     12821     12824     12826
     12823     12821     12824     12827     12824     12827     12830     12831
     12824     12827     12830     12832     12824     12827     12830     12833
     12825     12824     12827     12828     12825     12824     12827     12829
     12825     12824     12827     12830     12826     12824     12827     12828
     12826     12824     12827     12829     12826     12824     12827     12830
     12827     12830     12833     12834     12827     12830     12833     12835
     12827     12830     12833     12836     12828     12827     12830     12831
     12828     12827     12830     12832     12828     12827     12830     12833
     12829     12827     12830     12831     12829     12827     12830     12832
     12829     12827     12830     12833     12830     12833     12836     12837
     12830     12833     12836     12838     12830     12833     12836     12839
     12831     12830     12833     12834     12831     12830     12833     12835
     12831     12830     12833     12836     12832     12830     12833     12834
     12832     12830     12833     12835     12832     12830     12833     12836
     12834     12833     12836     12837     12834     12833     12836     12838
     12834     12833     12836     12839     12835     12833     12836     12837
     12835     12833     12836     12838     12835     12833     12836     12839
     12840     12842     12845     12846     12840     12842     12845     12847
     12840     12842     12845     12848     12841     12840     12842     12843
     12841     12840     12842     12844     12841     12840     12842     12845
     12842     12845     12848     12849     12842     12845     12848     12850
     12842     12845     12848     12851     12843     12842     12845     12846
     12843     12842     12845     12847     12843     12842     12845     12848
     12844     12842     12845     12846     12844     12842     12845     12847
     12844     12842     12845     12848     12845     12848     12851     12852
     12845     12848     12851     12853     12845     12848     12851     12854
     12846     12845     12848     12849     12846     12845     12848     12850
     12846     12845     12848     12851     12847     12845     12848     12849
     12847     12845     12848     12850     12847     12845     12848     12851
     12848     12851     12854     12855     12848     12851     12854     12856
     12848     12851     12854     12857     12849     12848     12851     12852
     12849     12848     12851     12853     12849     12848     12851     12854
     12850     12848     12851     12852     12850     12848     12851     12853
     12850     12848     12851     12854     12851     12854     12857     12858
     12851     12854     12857     12859     12851     12854     12857     12860
     12852     12851     12854     12855     12852     12851     12854     12856
     12852     12851     12854     12857     12853     12851     12854     12855
     12853     12851     12854     12856     12853     12851     12854     12857
     12854     12857     12860     12861     12854     12857     12860     12862
     12854     12857     12860     12863     12855     12854     12857     12858
     12855     12854     12857     12859     12855     12854     12857     12860
     12856     12854     12857     12858     12856     12854     12857     12859
     12856     12854     12857     12860     12857     12860     12863     12864
     12857     12860     12863     12865     12858     12857     12860     12861
     12858     12857     12860     12862     12858     12857     12860     12863
     12859     12857     12860     12861     12859     12857     12860     12862
     12859     12857     12860     12863     12860     12863     12865     12866
     12860     12863     12865     12867     12861     12860     12863     12864
     12861     12860     12863     12865     12862     12860     12863     12864
     12862     12860     12863     12865     12863     12865     12867     12868
     12863     12865     12867     12869     12863     12865     12867     12870
     12864     12863     12865     12866     12864     12863     12865     12867
     12865     12867     12870     12871     12865     12867     12870     12872
     12865     12867     12870     12873     12866     12865     12867     12868
     12866     12865     12867     12869     12866     12865     12867     12870
     12867     12870     12873     12874     12867     12870     12873     12875
     12867     12870     12873     12876     12868     12867     12870     12871
     12868     12867     12870     12872     12868     12867     12870     12873
     12869     12867     12870     12871     12869     12867     12870     12872
     12869     12867     12870     12873     12870     12873     12876     12877
     12870     12873     12876     12878     12870     12873     12876     12879
     12871     12870     12873     12874     12871     12870     12873     12875
     12871     12870     12873     12876     12872     12870     12873     12874
     12872     12870     12873     12875     12872     12870     12873     12876
     12873     12876     12879     12880     12873     12876     12879     12881
     12873     12876     12879     12882     12874     12873     12876     12877
     12874     12873     12876     12878     12874     12873     12876     12879
     12875     12873     12876     12877     12875     12873     12876     12878
     12875     12873     12876     12879     12876     12879     12882     12883
     12876     12879     12882     12884     12876     12879     12882     12885
     12877     12876     12879     12880     12877     12876     12879     12881
     12877     12876     12879     12882     12878     12876     12879     12880
     12878     12876     12879     12881     12878     12876     12879     12882
     12879     12882     12885     12886     12879     12882     12885     12887
     12879     12882     12885     12888     12880     12879     12882     12883
     12880     12879     12882     12884     12880     12879     12882     12885
     12881     12879     12882     12883     12881     12879     12882     12884
     12881     12879     12882     12885     12882     12885     12888     12889
     12882     12885     12888     12890     12882     12885     12888     12891
     12883     12882     12885     12886     12883     12882     12885     12887
     12883     12882     12885     12888     12884     12882     12885     12886
     12884     12882     12885     12887     12884     12882     12885     12888
     12886     12885     12888     12889     12886     12885     12888     12890
     12886     12885     12888     12891     12887     12885     12888     12889
     12887     12885     12888     12890     12887     12885     12888     12891
     21288     21292     21294     21295     21288     21292     21296     21297
     21288     21292     21296     21298     21288     21292     21296     21300
     21288     21308     21304     21300     21288     21308     21304     21305
     21288     21308     21304     21306     21288     21308     21313     21310
     21289     21288     21290     21291     21289     21288     21292     21293
     21289     21288     21292     21294     21289     21288     21292     21296
     21289     21288     21308     21304     21289     21288     21308     21309
     21289     21288     21308     21313     21290     21288     21292     21293
     21290     21288     21292     21294     21290     21288     21292     21296
     21290     21288     21308     21304     21290     21288     21308     21309
     21290     21288     21308     21313     21291     21290     21288     21292
     21291     21290     21288     21308     21292     21288     21308     21304
     21292     21288     21308     21309     21292     21288     21308     21313
     21292     21296     21298     21299     21292     21296     21300     21301
     21292     21296     21300     21302     21292     21296     21300     21304
     21293     21292     21288     21308     21293     21292     21294     21295
     21293     21292     21296     21297     21293     21292     21296     21298
     21293     21292     21296     21300     21294     21292     21288     21308
     21294     21292     21296     21297     21294     21292     21296     21298
     21294     21292     21296     21300     21295     21294     21292     21296
     21296     21292     21288     21308     21296     21300     21302     21303
     21296     21300     21304     21305     21296     21300     21304     21306
     21296     21300     21304     21308     21297     21296     21298     21299
     21297     21296     21300     21301     21297     21296     21300     21302
     21297     21296     21300     21304     21298     21296     21300     21301
     21298     21296     21300     21302     21298     21296     21300     21304
     21299     21298     21296     21300     21300     21304     21306     21307
     21300     21304     21308     21309     21300     21304     21308     21313
     21301     21300     21302     21303     21301     21300     21304     21305
     21301     21300     21304     21306     21301     21300     21304     21308
     21302     21300     21304     21305     21302     21300     21304     21306
     21302     21300     21304     21308     21303     21302     21300     21304
     21304     21308     21313     21310     21305     21304     21306     21307
     21305     21304     21308     21309     21305     21304     21308     21313
     21306     21304     21308     21309     21306     21304     21308     21313
     21307     21306     21304     21308     21308     21313     21310     21311
     21308     21313     21310     21312     21308     21313     21310     21314
     21309     21308     21313     21310     21310     21314     21315     21316
     21310     21314     21315     21317     21310     21314     21315     21318
     21311     21310     21314     21315     21312     21310     21314     21315
     21313     21310     21314     21315     21314     21315     21318     21319
     21314     21315     21318     21320     21314     21315     21318     21326
     21315     21318     21320     21321     21315     21318     21326     21327
     21315     21318     21326     21328     21315     21318     21326     21329
     21316     21315     21318     21319     21316     21315     21318     21320
     21316     21315     21318     21326     21317     21315     21318     21319
     21317     21315     21318     21320     21317     21315     21318     21326
     21318     21320     21321     21322     21318     21320     21321     21323
     21318     21326     21329     21330     21319     21318     21320     21321
     21319     21318     21326     21327     21319     21318     21326     21328
     21319     21318     21326     21329     21320     21318     21326     21327
     21320     21318     21326     21328     21320     21318     21326     21329
     21320     21321     21323     21324     21320     21321     21323     21325
     21320     21321     21323     21335     21321     21320     21318     21326
     21321     21323     21335     21336     21321     21323     21335     21337
     21321     21323     21335     21338     21322     21321     21323     21324
     21322     21321     21323     21325     21322     21321     21323     21335
     21323     21335     21338     21339     21323     21335     21338     21340
     21323     21335     21338     21341     21324     21323     21335     21336
     21324     21323     21335     21337     21324     21323     21335     21338
     21325     21323     21335     21336     21325     21323     21335     21337
     21325     21323     21335     21338     21326     21329     21330     21331
     21326     21329     21330     21332     21327     21326     21329     21330
     21328     21326     21329     21330     21329     21330     21332     21333
     21329     21330     21332     21334     21329     21330     21332     21382
     21330     21332     21382     21383     21330     21332     21382     21384
     21330     21332     21382     21385     21331     21330     21332     21333
     21331     21330     21332     21334     21331     21330     21332     21382
     21332     21382     21385     21386     21332     21382     21385     21387
     21332     21382     21385     21388     21333     21332     21382     21383
     21333     21332     21382     21384     21333     21332     21382     21385
     21334     21332     21382     21383     21334     21332     21382     21384
     21334     21332     21382     21385     21335     21338     21341     21342
     21335     21338     21341     21343     21336     21335     21338     21339
     21336     21335     21338     21340     21336     21335     21338     21341
     21337     21335     21338     21339     21337     21335     21338     21340
     21337     21335     21338     21341     21338     21341     21343     21344
     21338     21341     21343     21345     21339     21338     21341     21342
     21339     21338     21341     21343     21340     21338     21341     21342
     21340     21338     21341     21343     21341     21343     21345     21346
     21341     21343     21345     21347     21341     21343     21345     21348
     21342     21341     21343     21344     21342     21341     21343     21345
     21343     21345     21348     21349     21343     21345     21348     21350
     21344     21343     21345     21346     21344     21343     21345     21347
     21344     21343     21345     21348     21345     21348     21350     21351
     21345     21348     21350     21352     21346     21345     21348     21349
     21346     21345     21348     21350     21347     21345     21348     21349
     21347     21345     21348     21350     21348     21350     21352     21353
     21348     21350     21352     21354     21348     21350     21352     21355
     21349     21348     21350     21351     21349     21348     21350     21352
     21350     21352     21355     21356     21350     21352     21355     21357
     21351     21350     21352     21353     21351     21350     21352     21354
     21351     21350     21352     21355     21352     21355     21357     21358
     21352     21355     21357     21359     21353     21352     21355     21356
     21353     21352     21355     21357     21354     21352     21355     21356
     21354     21352     21355     21357     21355     21357     21359     21360
     21355     21357     21359     21361     21355     21357     21359     21362
     21356     21355     21357     21358     21356     21355     21357     21359
     21357     21359     21362     21363     21357     21359     21362     21364
     21358     21357     21359     21360     21358     21357     21359     21361
     21358     21357     21359     21362     21359     21362     21364     21365
     21359     21362     21364     21366     21360     21359     21362     21363
     21360     21359     21362     21364     21361     21359     21362     21363
     21361     21359     21362     21364     21362     21364     21366     21367
     21362     21364     21366     21368     21362     21364     21366     21369
     21363     21362     21364     21365     21363     21362     21364     21366
     21364     21366     21369     21370     21364     21366     21369     21371
     21364     21366     21369     21372     21365     21364     21366     21367
     21365     21364     21366     21368     21365     21364     21366     21369
     21366     21369     21372     21373     21366     21369     21372     21374
     21366     21369     21372     21375     21367     21366     21369     21370
     21367     21366     21369     21371     21367     21366     21369     21372
     21368     21366     21369     21370     21368     21366     21369     21371
     21368     21366     21369     21372     21369     21372     21375     21376
     21369     21372     21375     21377     21369     21372     21375     21378
     21370     21369     21372     21373     21370     21369     21372     21374
     21370     21369     21372     21375     21371     21369     21372     21373
     21371     21369     21372     21374     21371     21369     21372     21375
     21372     21375     21378     21379     21372     21375     21378     21380
     21372     21375     21378     21381     21373     21372     21375     21376
     21373     21372     21375     21377     21373     21372     21375     21378
     21374     21372     21375     21376     21374     21372     21375     21377
     21374     21372     21375     21378     21376     21375     21378     21379
     21376     21375     21378     21380     21376     21375     21378     21381
     21377     21375     21378     21379     21377     21375     21378     21380
     21377     21375     21378     21381     21382     21385     21388     21389
     21382     21385     21388     21390     21382     21385     21388     21391
     21383     21382     21385     21386     21383     21382     21385     21387
     21383     21382     21385     21388     21384     21382     21385     21386
     21384     21382     21385     21387     21384     21382     21385     21388
     21385     21388     21391     21392     21385     21388     21391     21393
     21385     21388     21391     21394     21386     21385     21388     21389
     21386     21385     21388     21390     21386     21385     21388     21391
     21387     21385     21388     21389     21387     21385     21388     21390
     21387     21385     21388     21391     21388     21391     21394     21395
     21388     21391     21394     21396     21388     21391     21394     21397
     21389     21388     21391     21392     21389     21388     21391     21393
     21389     21388     21391     21394     21390     21388     21391     21392
     21390     21388     21391     21393     21390     21388     21391     21394
     21391     21394     21397     21398     21391     21394     21397     21399
     21391     21394     21397     21400     21392     21391     21394     21395
     21392     21391     21394     21396     21392     21391     21394     21397
     21393     21391     21394     21395     21393     21391     21394     21396
     21393     21391     21394     21397     21394     21397     21400     21401
     21394     21397     21400     21402     21394     21397     21400     21403
     21395     21394     21397     21398     21395     21394     21397     21399
     21395     21394     21397     21400     21396     21394     21397     21398
     21396     21394     21397     21399     21396     21394     21397     21400
     21397     21400     21403     21404     21397     21400     21403     21405
     21397     21400     21403     21406     21398     21397     21400     21401
     21398     21397     21400     21402     21398     21397     21400     21403
     21399     21397     21400     21401     21399     21397     21400     21402
     21399     21397     21400     21403     21400     21403     21406     21407
     21400     21403     21406     21408     21400     21403     21406     21409
     21401     21400     21403     21404     21401     21400     21403     21405
     21401     21400     21403     21406     21402     21400     21403     21404
     21402     21400     21403     21405     21402     21400     21403     21406
     21403     21406     21409     21410     21403     21406     21409     21411
     21403     21406     21409     21412     21404     21403     21406     21407
     21404     21403     21406     21408     21404     21403     21406     21409
     21405     21403     21406     21407     21405     21403     21406     21408
     21405     21403     21406     21409     21406     21409     21412     21413
     21406     21409     21412     21414     21406     21409     21412     21415
     21407     21406     21409     21410     21407     21406     21409     21411
     21407     21406     21409     21412     21408     21406     21409     21410
     21408     21406     21409     21411     21408     21406     21409     21412
     21409     21412     21415     21416     21409     21412     21415     21417
     21409     21412     21415     21418     21410     21409     21412     21413
     21410     21409     21412     21414     21410     21409     21412     21415
     21411     21409     21412     21413     21411     21409     21412     21414
     21411     21409     21412     21415     21412     21415     21418     21419
     21412     21415     21418     21420     21412     21415     21418     21421
     21413     21412     21415     21416     21413     21412     21415     21417
     21413     21412     21415     21418     21414     21412     21415     21416
     21414     21412     21415     21417     21414     21412     21415     21418
     21415     21418     21421     21422     21415     21418     21421     21423
     21415     21418     21421     21424     21416     21415     21418     21419
     21416     21415     21418     21420     21416     21415     21418     21421
     21417     21415     21418     21419     21417     21415     21418     21420
     21417     21415     21418     21421     21418     21421     21424     21425
     21418     21421     21424     21426     21418     21421     21424     21427
     21419     21418     21421     21422     21419     21418     21421     21423
     21419     21418     21421     21424     21420     21418     21421     21422
     21420     21418     21421     21423     21420     21418     21421     21424
     21421     21424     21427     21428     21421     21424     21427     21429
     21421     21424     21427     21430     21422     21421     21424     21425
     21422     21421     21424     21426     21422     21421     21424     21427
     21423     21421     21424     21425     21423     21421     21424     21426
     21423     21421     21424     21427     21425     21424     21427     21428
     21425     21424     21427     21429     21425     21424     21427     21430
     21426     21424     21427     21428     21426     21424     21427     21429
     21426     21424     21427     21430     16953     16957     16960     16961
     16953     16957     16960     16962     16953     16957     16960     16966
     16954     16953     16957     16958     16954     16953     16957     16959
     16954     16953     16957     16960     16955     16953     16957     16958
     16955     16953     16957     16959     16955     16953     16957     16960
     16956     16953     16957     16958     16956     16953     16957     16959
     16956     16953     16957     16960     16957     16960     16966     16963
     16958     16957     16960     16961     16958     16957     16960     16962
     16958     16957     16960     16966     16959     16957     16960     16961
     16959     16957     16960     16962     16959     16957     16960     16966
     16960     16966     16963     16964     16960     16966     16963     16965
     16960     16966     16963     16967     16961     16960     16966     16963
     16962     16960     16966     16963     16963     16967     16968     16969
     16963     16967     16968     16970     16963     16967     16968     16971
     16964     16963     16967     16968     16965     16963     16967     16968
     16966     16963     16967     16968     16967     16968     16971     16972
     16967     16968     16971     16973     16967     16968     16971     16979
     16968     16971     16973     16974     16968     16971     16979     16980
     16968     16971     16979     16981     16968     16971     16979     16982
     16969     16968     16971     16972     16969     16968     16971     16973
     16969     16968     16971     16979     16970     16968     16971     16972
     16970     16968     16971     16973     16970     16968     16971     16979
     16971     16973     16974     16975     16971     16973     16974     16976
     16971     16979     16982     16983     16972     16971     16973     16974
     16972     16971     16979     16980     16972     16971     16979     16981
     16972     16971     16979     16982     16973     16971     16979     16980
     16973     16971     16979     16981     16973     16971     16979     16982
     16973     16974     16976     16977     16973     16974     16976     16978
     16973     16974     16976     16988     16974     16973     16971     16979
     16974     16976     16988     16989     16974     16976     16988     16990
     16974     16976     16988     16991     16975     16974     16976     16977
     16975     16974     16976     16978     16975     16974     16976     16988
     16976     16988     16991     16992     16976     16988     16991     16993
     16976     16988     16991     16994     16977     16976     16988     16989
     16977     16976     16988     16990     16977     16976     16988     16991
     16978     16976     16988     16989     16978     16976     16988     16990
     16978     16976     16988     16991     16979     16982     16983     16984
     16979     16982     16983     16985     16980     16979     16982     16983
     16981     16979     16982     16983     16982     16983     16985     16986
     16982     16983     16985     16987     16982     16983     16985     17035
     16983     16985     17035     17036     16983     16985     17035     17037
     16983     16985     17035     17038     16984     16983     16985     16986
     16984     16983     16985     16987     16984     16983     16985     17035
     16985     17035     17038     17039     16985     17035     17038     17040
     16985     17035     17038     17041     16986     16985     17035     17036
     16986     16985     17035     17037     16986     16985     17035     17038
     16987     16985     17035     17036     16987     16985     17035     17037
     16987     16985     17035     17038     16988     16991     16994     16995
     16988     16991     16994     16996     16989     16988     16991     16992
     16989     16988     16991     16993     16989     16988     16991     16994
     16990     16988     16991     16992     16990     16988     16991     16993
     16990     16988     16991     16994     16991     16994     16996     16997
     16991     16994     16996     16998     16992     16991     16994     16995
     16992     16991     16994     16996     16993     16991     16994     16995
     16993     16991     16994     16996     16994     16996     16998     16999
     16994     16996     16998     17000     16994     16996     16998     17001
     16995     16994     16996     16997     16995     16994     16996     16998
     16996     16998     17001     17002     16996     16998     17001     17003
     16997     16996     16998     16999     16997     16996     16998     17000
     16997     16996     16998     17001     16998     17001     17003     17004
     16998     17001     17003     17005     16999     16998     17001     17002
     16999     16998     17001     17003     17000     16998     17001     17002
     17000     16998     17001     17003     17001     17003     17005     17006
     17001     17003     17005     17007     17001     17003     17005     17008
     17002     17001     17003     17004     17002     17001     17003     17005
     17003     17005     17008     17009     17003     17005     17008     17010
     17004     17003     17005     17006     17004     17003     17005     17007
     17004     17003     17005     17008     17005     17008     17010     17011
     17005     17008     17010     17012     17006     17005     17008     17009
     17006     17005     17008     17010     17007     17005     17008     17009
     17007     17005     17008     17010     17008     17010     17012     17013
     17008     17010     17012     17014     17008     17010     17012     17015
     17009     17008     17010     17011     17009     17008     17010     17012
     17010     17012     17015     17016     17010     17012     17015     17017
     17011     17010     17012     17013     17011     17010     17012     17014
     17011     17010     17012     17015     17012     17015     17017     17018
     17012     17015     17017     17019     17013     17012     17015     17016
     17013     17012     17015     17017     17014     17012     17015     17016
     17014     17012     17015     17017     17015     17017     17019     17020
     17015     17017     17019     17021     17015     17017     17019     17022
     17016     17015     17017     17018     17016     17015     17017     17019
     17017     17019     17022     17023     17017     17019     17022     17024
     17017     17019     17022     17025     17018     17017     17019     17020
     17018     17017     17019     17021     17018     17017     17019     17022
     17019     17022     17025     17026     17019     17022     17025     17027
     17019     17022     17025     17028     17020     17019     17022     17023
     17020     17019     17022     17024     17020     17019     17022     17025
     17021     17019     17022     17023     17021     17019     17022     17024
     17021     17019     17022     17025     17022     17025     17028     17029
     17022     17025     17028     17030     17022     17025     17028     17031
     17023     17022     17025     17026     17023     17022     17025     17027
     17023     17022     17025     17028     17024     17022     17025     17026
     17024     17022     17025     17027     17024     17022     17025     17028
     17025     17028     17031     17032     17025     17028     17031     17033
     17025     17028     17031     17034     17026     17025     17028     17029
     17026     17025     17028     17030     17026     17025     17028     17031
     17027     17025     17028     17029     17027     17025     17028     17030
     17027     17025     17028     17031     17029     17028     17031     17032
     17029     17028     17031     17033     17029     17028     17031     17034
     17030     17028     17031     17032     17030     17028     17031     17033
     17030     17028     17031     17034     17035     17038     17041     17042
     17035     17038     17041     17043     17035     17038     17041     17044
     17036     17035     17038     17039     17036     17035     17038     17040
     17036     17035     17038     17041     17037     17035     17038     17039
     17037     17035     17038     17040     17037     17035     17038     17041
     17038     17041     17044     17045     17038     17041     17044     17046
     17038     17041     17044     17047     17039     17038     17041     17042
     17039     17038     17041     17043     17039     17038     17041     17044
     17040     17038     17041     17042     17040     17038     17041     17043
     17040     17038     17041     17044     17041     17044     17047     17048
     17041     17044     17047     17049     17041     17044     17047     17050
     17042     17041     17044     17045     17042     17041     17044     17046
     17042     17041     17044     17047     17043     17041     17044     17045
     17043     17041     17044     17046     17043     17041     17044     17047
     17044     17047     17050     17051     17044     17047     17050     17052
     17044     17047     17050     17053     17045     17044     17047     17048
     17045     17044     17047     17049     17045     17044     17047     17050
     17046     17044     17047     17048     17046     17044     17047     17049
     17046     17044     17047     17050     17047     17050     17053     17054
     17047     17050     17053     17055     17047     17050     17053     17056
     17048     17047     17050     17051     17048     17047     17050     17052
     17048     17047     17050     17053     17049     17047     17050     17051
     17049     17047     17050     17052     17049     17047     17050     17053
     17050     17053     17056     17057     17050     17053     17056     17058
     17050     17053     17056     17059     17051     17050     17053     17054
     17051     17050     17053     17055     17051     17050     17053     17056
     17052     17050     17053     17054     17052     17050     17053     17055
     17052     17050     17053     17056     17053     17056     17059     17060
     17053     17056     17059     17061     17053     17056     17059     17062
     17054     17053     17056     17057     17054     17053     17056     17058
     17054     17053     17056     17059     17055     17053     17056     17057
     17055     17053     17056     17058     17055     17053     17056     17059
     17056     17059     17062     17063     17056     17059     17062     17064
     17056     17059     17062     17065     17057     17056     17059     17060
     17057     17056     17059     17061     17057     17056     17059     17062
     17058     17056     17059     17060     17058     17056     17059     17061
     17058     17056     17059     17062     17059     17062     17065     17066
     17059     17062     17065     17067     17059     17062     17065     17068
     17060     17059     17062     17063     17060     17059     17062     17064
     17060     17059     17062     17065     17061     17059     17062     17063
     17061     17059     17062     17064     17061     17059     17062     17065
     17062     17065     17068     17069     17062     17065     17068     17070
     17062     17065     17068     17071     17063     17062     17065     17066
     17063     17062     17065     17067     17063     17062     17065     17068
     17064     17062     17065     17066     17064     17062     17065     17067
     17064     17062     17065     17068     17065     17068     17071     17072
     17065     17068     17071     17073     17065     17068     17071     17074
     17066     17065     17068     17069     17066     17065     17068     17070
     17066     17065     17068     17071     17067     17065     17068     17069
     17067     17065     17068     17070     17067     17065     17068     17071
     17068     17071     17074     17075     17068     17071     17074     17076
     17068     17071     17074     17077     17069     17068     17071     17072
     17069     17068     17071     17073     17069     17068     17071     17074
     17070     17068     17071     17072     17070     17068     17071     17073
     17070     17068     17071     17074     17071     17074     17077     17078
     17071     17074     17077     17079     17071     17074     17077     17080
     17072     17071     17074     17075     17072     17071     17074     17076
     17072     17071     17074     17077     17073     17071     17074     17075
     17073     17071     17074     17076     17073     17071     17074     17077
     17074     17077     17080     17081     17074     17077     17080     17082
     17074     17077     17080     17083     17075     17074     17077     17078
     17075     17074     17077     17079     17075     17074     17077     17080
     17076     17074     17077     17078     17076     17074     17077     17079
     17076     17074     17077     17080     17078     17077     17080     17081
     17078     17077     17080     17082     17078     17077     17080     17083
     17079     17077     17080     17081     17079     17077     17080     17082
     17079     17077     17080     17083     17084     17088     17091     17092
     17084     17088     17091     17093     17084     17088     17091     17097
     17085     17084     17088     17089     17085     17084     17088     17090
     17085     17084     17088     17091     17086     17084     17088     17089
     17086     17084     17088     17090     17086     17084     17088     17091
     17087     17084     17088     17089     17087     17084     17088     17090
     17087     17084     17088     17091     17088     17091     17097     17094
     17089     17088     17091     17092     17089     17088     17091     17093
     17089     17088     17091     17097     17090     17088     17091     17092
     17090     17088     17091     17093     17090     17088     17091     17097
     17091     17097     17094     17095     17091     17097     17094     17096
     17091     17097     17094     17098     17092     17091     17097     17094
     17093     17091     17097     17094     17094     17098     17099     17100
     17094     17098     17099     17101     17094     17098     17099     17102
     17095     17094     17098     17099     17096     17094     17098     17099
     17097     17094     17098     17099     17098     17099     17102     17103
     17098     17099     17102     17104     17098     17099     17102     17110
     17099     17102     17104     17105     17099     17102     17110     17111
     17099     17102     17110     17112     17099     17102     17110     17113
     17100     17099     17102     17103     17100     17099     17102     17104
     17100     17099     17102     17110     17101     17099     17102     17103
     17101     17099     17102     17104     17101     17099     17102     17110
     17102     17104     17105     17106     17102     17104     17105     17107
     17102     17110     17113     17114     17103     17102     17104     17105
     17103     17102     17110     17111     17103     17102     17110     17112
     17103     17102     17110     17113     17104     17102     17110     17111
     17104     17102     17110     17112     17104     17102     17110     17113
     17104     17105     17107     17108     17104     17105     17107     17109
     17104     17105     17107     17119     17105     17104     17102     17110
     17105     17107     17119     17120     17105     17107     17119     17121
     17105     17107     17119     17122     17106     17105     17107     17108
     17106     17105     17107     17109     17106     17105     17107     17119
     17107     17119     17122     17123     17107     17119     17122     17124
     17107     17119     17122     17125     17108     17107     17119     17120
     17108     17107     17119     17121     17108     17107     17119     17122
     17109     17107     17119     17120     17109     17107     17119     17121
     17109     17107     17119     17122     17110     17113     17114     17115
     17110     17113     17114     17116     17111     17110     17113     17114
     17112     17110     17113     17114     17113     17114     17116     17117
     17113     17114     17116     17118     17113     17114     17116     17166
     17114     17116     17166     17167     17114     17116     17166     17168
     17114     17116     17166     17169     17115     17114     17116     17117
     17115     17114     17116     17118     17115     17114     17116     17166
     17116     17166     17169     17170     17116     17166     17169     17171
     17116     17166     17169     17172     17117     17116     17166     17167
     17117     17116     17166     17168     17117     17116     17166     17169
     17118     17116     17166     17167     17118     17116     17166     17168
     17118     17116     17166     17169     17119     17122     17125     17126
     17119     17122     17125     17127     17120     17119     17122     17123
     17120     17119     17122     17124     17120     17119     17122     17125
     17121     17119     17122     17123     17121     17119     17122     17124
     17121     17119     17122     17125     17122     17125     17127     17128
     17122     17125     17127     17129     17123     17122     17125     17126
     17123     17122     17125     17127     17124     17122     17125     17126
     17124     17122     17125     17127     17125     17127     17129     17130
     17125     17127     17129     17131     17125     17127     17129     17132
     17126     17125     17127     17128     17126     17125     17127     17129
     17127     17129     17132     17133     17127     17129     17132     17134
     17128     17127     17129     17130     17128     17127     17129     17131
     17128     17127     17129     17132     17129     17132     17134     17135
     17129     17132     17134     17136     17130     17129     17132     17133
     17130     17129     17132     17134     17131     17129     17132     17133
     17131     17129     17132     17134     17132     17134     17136     17137
     17132     17134     17136     17138     17132     17134     17136     17139
     17133     17132     17134     17135     17133     17132     17134     17136
     17134     17136     17139     17140     17134     17136     17139     17141
     17135     17134     17136     17137     17135     17134     17136     17138
     17135     17134     17136     17139     17136     17139     17141     17142
     17136     17139     17141     17143     17137     17136     17139     17140
     17137     17136     17139     17141     17138     17136     17139     17140
     17138     17136     17139     17141     17139     17141     17143     17144
     17139     17141     17143     17145     17139     17141     17143     17146
     17140     17139     17141     17142     17140     17139     17141     17143
     17141     17143     17146     17147     17141     17143     17146     17148
     17142     17141     17143     17144     17142     17141     17143     17145
     17142     17141     17143     17146     17143     17146     17148     17149
     17143     17146     17148     17150     17144     17143     17146     17147
     17144     17143     17146     17148     17145     17143     17146     17147
     17145     17143     17146     17148     17146     17148     17150     17151
     17146     17148     17150     17152     17146     17148     17150     17153
     17147     17146     17148     17149     17147     17146     17148     17150
     17148     17150     17153     17154     17148     17150     17153     17155
     17148     17150     17153     17156     17149     17148     17150     17151
     17149     17148     17150     17152     17149     17148     17150     17153
     17150     17153     17156     17157     17150     17153     17156     17158
     17150     17153     17156     17159     17151     17150     17153     17154
     17151     17150     17153     17155     17151     17150     17153     17156
     17152     17150     17153     17154     17152     17150     17153     17155
     17152     17150     17153     17156     17153     17156     17159     17160
     17153     17156     17159     17161     17153     17156     17159     17162
     17154     17153     17156     17157     17154     17153     17156     17158
     17154     17153     17156     17159     17155     17153     17156     17157
     17155     17153     17156     17158     17155     17153     17156     17159
     17156     17159     17162     17163     17156     17159     17162     17164
     17156     17159     17162     17165     17157     17156     17159     17160
     17157     17156     17159     17161     17157     17156     17159     17162
     17158     17156     17159     17160     17158     17156     17159     17161
     17158     17156     17159     17162     17160     17159     17162     17163
     17160     17159     17162     17164     17160     17159     17162     17165
     17161     17159     17162     17163     17161     17159     17162     17164
     17161     17159     17162     17165     17166     17169     17172     17173
     17166     17169     17172     17174     17166     17169     17172     17175
     17167     17166     17169     17170     17167     17166     17169     17171
     17167     17166     17169     17172     17168     17166     17169     17170
     17168     17166     17169     17171     17168     17166     17169     17172
     17169     17172     17175     17176     17169     17172     17175     17177
     17169     17172     17175     17178     17170     17169     17172     17173
     17170     17169     17172     17174     17170     17169     17172     17175
     17171     17169     17172     17173     17171     17169     17172     17174
     17171     17169     17172     17175     17172     17175     17178     17179
     17172     17175     17178     17180     17172     17175     17178     17181
     17173     17172     17175     17176     17173     17172     17175     17177
     17173     17172     17175     17178     17174     17172     17175     17176
     17174     17172     17175     17177     17174     17172     17175     17178
     17175     17178     17181     17182     17175     17178     17181     17183
     17175     17178     17181     17184     17176     17175     17178     17179
     17176     17175     17178     17180     17176     17175     17178     17181
     17177     17175     17178     17179     17177     17175     17178     17180
     17177     17175     17178     17181     17178     17181     17184     17185
     17178     17181     17184     17186     17178     17181     17184     17187
     17179     17178     17181     17182     17179     17178     17181     17183
     17179     17178     17181     17184     17180     17178     17181     17182
     17180     17178     17181     17183     17180     17178     17181     17184
     17181     17184     17187     17188     17181     17184     17187     17189
     17181     17184     17187     17190     17182     17181     17184     17185
     17182     17181     17184     17186     17182     17181     17184     17187
     17183     17181     17184     17185     17183     17181     17184     17186
     17183     17181     17184     17187     17184     17187     17190     17191
     17184     17187     17190     17192     17184     17187     17190     17193
     17185     17184     17187     17188     17185     17184     17187     17189
     17185     17184     17187     17190     17186     17184     17187     17188
     17186     17184     17187     17189     17186     17184     17187     17190
     17187     17190     17193     17194     17187     17190     17193     17195
     17187     17190     17193     17196     17188     17187     17190     17191
     17188     17187     17190     17192     17188     17187     17190     17193
     17189     17187     17190     17191     17189     17187     17190     17192
     17189     17187     17190     17193     17190     17193     17196     17197
     17190     17193     17196     17198     17190     17193     17196     17199
     17191     17190     17193     17194     17191     17190     17193     17195
     17191     17190     17193     17196     17192     17190     17193     17194
     17192     17190     17193     17195     17192     17190     17193     17196
     17193     17196     17199     17200     17193     17196     17199     17201
     17193     17196     17199     17202     17194     17193     17196     17197
     17194     17193     17196     17198     17194     17193     17196     17199
     17195     17193     17196     17197     17195     17193     17196     17198
     17195     17193     17196     17199     17196     17199     17202     17203
     17196     17199     17202     17204     17196     17199     17202     17205
     17197     17196     17199     17200     17197     17196     17199     17201
     17197     17196     17199     17202     17198     17196     17199     17200
     17198     17196     17199     17201     17198     17196     17199     17202
     17199     17202     17205     17206     17199     17202     17205     17207
     17199     17202     17205     17208     17200     17199     17202     17203
     17200     17199     17202     17204     17200     17199     17202     17205
     17201     17199     17202     17203     17201     17199     17202     17204
     17201     17199     17202     17205     17202     17205     17208     17209
     17202     17205     17208     17210     17202     17205     17208     17211
     17203     17202     17205     17206     17203     17202     17205     17207
     17203     17202     17205     17208     17204     17202     17205     17206
     17204     17202     17205     17207     17204     17202     17205     17208
     17205     17208     17211     17212     17205     17208     17211     17213
     17205     17208     17211     17214     17206     17205     17208     17209
     17206     17205     17208     17210     17206     17205     17208     17211
     17207     17205     17208     17209     17207     17205     17208     17210
     17207     17205     17208     17211     17209     17208     17211     17212
     17209     17208     17211     17213     17209     17208     17211     17214
     17210     17208     17211     17212     17210     17208     17211     17213
     17210     17208     17211     17214      1925      1929      1932      1933
      1925      1929      1932      1963      1925      1971      1968      1963
      1925      1971      1968      1969      1925      1971      1968      1970
      1926      1925      1927      1928      1926      1925      1929      1930
      1926      1925      1929      1931      1926      1925      1929      1932
      1926      1925      1971      1968      1926      1925      1971      1972
      1926      1925      1971      1973      1927      1925      1929      1930
      1927      1925      1929      1931      1927      1925      1929      1932
      1927      1925      1971      1968      1927      1925      1971      1972
      1927      1925      1971      1973      1928      1927      1925      1929
      1928      1927      1925      1971      1929      1925      1971      1968
      1929      1925      1971      1972      1929      1925      1971      1973
      1929      1932      1933      1934      1929      1932      1933      1935
      1929      1932      1963      1961      1929      1932      1963      1964
      1929      1932      1963      1968      1930      1929      1925      1971
      1930      1929      1932      1933      1930      1929      1932      1963
      1931      1929      1925      1971      1931      1929      1932      1933
      1931      1929      1932      1963      1932      1929      1925      1971
      1932      1933      1935      1936      1932      1933      1935      1937
      1932      1933      1935      1938      1932      1963      1961      1938
      1932      1963      1961      1958      1932      1963      1961      1962
      1932      1963      1964      1965      1932      1963      1964      1966
      1932      1963      1964      1967      1932      1963      1968      1969
      1932      1963      1968      1970      1932      1963      1968      1971
      1933      1932      1963      1961      1933      1932      1963      1964
      1933      1932      1963      1968      1933      1935      1938      1939
      1933      1935      1938      1940      1933      1935      1938      1961
      1934      1933      1932      1963      1934      1933      1935      1936
      1934      1933      1935      1937      1934      1933      1935      1938
      1935      1933      1932      1963      1935      1938      1940      1941
      1935      1938      1940      1942      1935      1938      1940      1950
      1935      1938      1961      1958      1935      1938      1961      1962
      1935      1938      1961      1963      1936      1935      1938      1939
      1936      1935      1938      1940      1936      1935      1938      1961
      1937      1935      1938      1939      1937      1935      1938      1940
      1937      1935      1938      1961      1938      1940      1942      1943
      1938      1940      1942      1944      1938      1940      1942      1945
      1938      1940      1950      1948      1938      1940      1950      1951
      1938      1940      1950      1955      1938      1961      1958      1955
      1938      1961      1958      1959      1938      1961      1958      1960
      1938      1961      1963      1964      1938      1961      1963      1968
      1939      1938      1940      1941      1939      1938      1940      1942
      1939      1938      1940      1950      1939      1938      1961      1958
      1939      1938      1961      1962      1939      1938      1961      1963
      1940      1938      1961      1958      1940      1938      1961      1962
      1940      1938      1961      1963      1940      1942      1945      1946
      1940      1942      1945      1947      1940      1942      1945      1948
      1940      1950      1948      1945      1940      1950      1948      1949
      1940      1950      1948      1974      1940      1950      1951      1952
      1940      1950      1951      1953      1940      1950      1951      1954
      1940      1950      1955      1956      1940      1950      1955      1957
      1940      1950      1955      1958      1941      1940      1938      1961
      1941      1940      1942      1943      1941      1940      1942      1944
      1941      1940      1942      1945      1941      1940      1950      1948
      1941      1940      1950      1951      1941      1940      1950      1955
      1942      1940      1938      1961      1942      1940      1950      1948
      1942      1940      1950      1951      1942      1940      1950      1955
      1942      1945      1948      1949      1942      1945      1948      1950
      1942      1945      1948      1974      1943      1942      1940      1950
      1943      1942      1945      1946      1943      1942      1945      1947
      1943      1942      1945      1948      1944      1942      1940      1950
      1944      1942      1945      1946      1944      1942      1945      1947
      1944      1942      1945      1948      1945      1942      1940      1950
      1945      1948      1950      1951      1945      1948      1950      1955
      1945      1948      1974      1975      1945      1948      1974      1976
      1945      1948      1974      1980      1946      1945      1948      1949
      1946      1945      1948      1950      1946      1945      1948      1974
      1947      1945      1948      1949      1947      1945      1948      1950
      1947      1945      1948      1974      1948      1950      1951      1952
      1948      1950      1951      1953      1948      1950      1951      1954
      1948      1950      1955      1956      1948      1950      1955      1957
      1948      1950      1955      1958      1948      1974      1976      1977
      1948      1974      1976      1978      1948      1974      1976      1979
      1948      1974      1980      1981      1948      1974      1980      1982
      1948      1974      1980      1983      1949      1948      1950      1951
      1949      1948      1950      1955      1949      1948      1974      1975
      1949      1948      1974      1976      1949      1948      1974      1980
      1950      1940      1938      1961      1950      1948      1974      1975
      1950      1948      1974      1976      1950      1948      1974      1980
      1950      1955      1958      1959      1950      1955      1958      1960
      1950      1955      1958      1961      1951      1950      1948      1974
      1951      1950      1955      1956      1951      1950      1955      1957
      1951      1950      1955      1958      1952      1951      1950      1955
      1953      1951      1950      1955      1954      1951      1950      1955
      1955      1950      1948      1974      1955      1958      1961      1962
      1955      1958      1961      1963      1956      1955      1958      1959
      1956      1955      1958      1960      1956      1955      1958      1961
      1957      1955      1958      1959      1957      1955      1958      1960
      1957      1955      1958      1961      1958      1961      1963      1964
      1958      1961      1963      1968      1959      1958      1961      1962
      1959      1958      1961      1963      1960      1958      1961      1962
      1960      1958      1961      1963      1961      1963      1964      1965
      1961      1963      1964      1966      1961      1963      1964      1967
      1961      1963      1968      1969      1961      1963      1968      1970
      1961      1963      1968      1971      1962      1961      1963      1964
      1962      1961      1963      1968      1963      1968      1971      1972
      1963      1968      1971      1973      1964      1963      1968      1969
      1964      1963      1968      1970      1964      1963      1968      1971
      1965      1964      1963      1968      1966      1964      1963      1968
      1967      1964      1963      1968      1969      1968      1971      1972
      1969      1968      1971      1973      1970      1968      1971      1972
      1970      1968      1971      1973      1974      1980      1983      1984
      1974      1980      1983      1985      1974      1980      1983      1986
      1975      1974      1976      1977      1975      1974      1976      1978
      1975      1974      1976      1979      1975      1974      1980      1981
      1975      1974      1980      1982      1975      1974      1980      1983
      1976      1974      1980      1981      1976      1974      1980      1982
      1976      1974      1980      1983      1977      1976      1974      1980
      1978      1976      1974      1980      1979      1976      1974      1980
      1980      1983      1986      1987      1980      1983      1986      1988
      1980      1983      1986      1989      1981      1980      1983      1984
      1981      1980      1983      1985      1981      1980      1983      1986
      1982      1980      1983      1984      1982      1980      1983      1985
      1982      1980      1983      1986      1983      1986      1989      1990
      1983      1986      1989      1991      1983      1986      1989      1995
      1984      1983      1986      1987      1984      1983      1986      1988
      1984      1983      1986      1989      1985      1983      1986      1987
      1985      1983      1986      1988      1985      1983      1986      1989
      1986      1989      1991      1992      1986      1989      1991      1993
      1986      1989      1991      1994      1986      1989      1995      1996
      1986      1989      1995      1997      1986      1989      1995      1998
      1987      1986      1989      1990      1987      1986      1989      1991
      1987      1986      1989      1995      1988      1986      1989      1990
      1988      1986      1989      1991      1988      1986      1989      1995
      1990      1989      1991      1992      1990      1989      1991      1993
      1990      1989      1991      1994      1990      1989      1995      1996
      1990      1989      1995      1997      1990      1989      1995      1998
      1991      1989      1995      1996      1991      1989      1995      1997
      1991      1989      1995      1998      1992      1991      1989      1995
      1993      1991      1989      1995      1994      1991      1989      1995
      4845      4846      4861      4862      4845      4846      4861      4863
      4845      4846      4861      4867      4846      4845      4849      4850
      4846      4845      4849      4851      4846      4845      4849      4852
      4846      4845      4853      4854      4846      4845      4853      4855
      4846      4845      4853      4856      4846      4845      4857      4858
      4846      4845      4857      4859      4846      4845      4857      4860
      4846      4861      4867      4864      4847      4846      4845      4849
      4847      4846      4845      4853      4847      4846      4845      4857
      4847      4846      4861      4862      4847      4846      4861      4863
      4847      4846      4861      4867      4848      4846      4845      4849
      4848      4846      4845      4853      4848      4846      4845      4857
      4848      4846      4861      4862      4848      4846      4861      4863
      4848      4846      4861      4867      4849      4845      4846      4861
      4849      4845      4853      4854      4849      4845      4853      4855
      4849      4845      4853      4856      4849      4845      4857      4858
      4849      4845      4857      4859      4849      4845      4857      4860
      4850      4849      4845      4853      4850      4849      4845      4857
      4851      4849      4845      4853      4851      4849      4845      4857
      4852      4849      4845      4853      4852      4849      4845      4857
      4853      4845      4846      4861      4853      4845      4857      4858
      4853      4845      4857      4859      4853      4845      4857      4860
      4854      4853      4845      4857      4855      4853      4845      4857
      4856      4853      4845      4857      4857      4845      4846      4861
      4861      4867      4864      4865      4861      4867      4864      4866
      4861      4867      4864      4868      4862      4861      4867      4864
      4863      4861      4867      4864      4864      4868      4869      4870
      4864      4868      4869      4871      4864      4868      4869      4872
      4865      4864      4868      4869      4866      4864      4868      4869
      4867      4864      4868      4869      4868      4869      4872      4873
      4868      4869      4872      4874      4868      4869      4872      4880
      4869      4872      4874      4875      4869      4872      4880      4881
      4869      4872      4880      4882      4869      4872      4880      4883
      4870      4869      4872      4873      4870      4869      4872      4874
      4870      4869      4872      4880      4871      4869      4872      4873
      4871      4869      4872      4874      4871      4869      4872      4880
      4872      4874      4875      4876      4872      4874      4875      4877
      4872      4880      4883      4884      4873      4872      4874      4875
      4873      4872      4880      4881      4873      4872      4880      4882
      4873      4872      4880      4883      4874      4872      4880      4881
      4874      4872      4880      4882      4874      4872      4880      4883
      4874      4875      4877      4878      4874      4875      4877      4879
      4874      4875      4877      4889      4875      4874      4872      4880
      4875      4877      4889      4890      4875      4877      4889      4891
      4875      4877      4889      4892      4876      4875      4877      4878
      4876      4875      4877      4879      4876      4875      4877      4889
      4877      4889      4892      4893      4877      4889      4892      4894
      4877      4889      4892      4895      4878      4877      4889      4890
      4878      4877      4889      4891      4878      4877      4889      4892
      4879      4877      4889      4890      4879      4877      4889      4891
      4879      4877      4889      4892      4880      4883      4884      4885
      4880      4883      4884      4886      4881      4880      4883      4884
      4882      4880      4883      4884      4883      4884      4886      4887
      4883      4884      4886      4888      4883      4884      4886      4936
      4884      4886      4936      4937      4884      4886      4936      4938
      4884      4886      4936      4939      4885      4884      4886      4887
      4885      4884      4886      4888      4885      4884      4886      4936
      4886      4936      4939      4940      4886      4936      4939      4941
      4886      4936      4939      4942      4887      4886      4936      4937
      4887      4886      4936      4938      4887      4886      4936      4939
      4888      4886      4936      4937      4888      4886      4936      4938
      4888      4886      4936      4939      4889      4892      4895      4896
      4889      4892      4895      4897      4890      4889      4892      4893
      4890      4889      4892      4894      4890      4889      4892      4895
      4891      4889      4892      4893      4891      4889      4892      4894
      4891      4889      4892      4895      4892      4895      4897      4898
      4892      4895      4897      4899      4893      4892      4895      4896
      4893      4892      4895      4897      4894      4892      4895      4896
      4894      4892      4895      4897      4895      4897      4899      4900
      4895      4897      4899      4901      4895      4897      4899      4902
      4896      4895      4897      4898      4896      4895      4897      4899
      4897      4899      4902      4903      4897      4899      4902      4904
      4898      4897      4899      4900      4898      4897      4899      4901
      4898      4897      4899      4902      4899      4902      4904      4905
      4899      4902      4904      4906      4900      4899      4902      4903
      4900      4899      4902      4904      4901      4899      4902      4903
      4901      4899      4902      4904      4902      4904      4906      4907
      4902      4904      4906      4908      4902      4904      4906      4909
      4903      4902      4904      4905      4903      4902      4904      4906
      4904      4906      4909      4910      4904      4906      4909      4911
      4905      4904      4906      4907      4905      4904      4906      4908
      4905      4904      4906      4909      4906      4909      4911      4912
      4906      4909      4911      4913      4907      4906      4909      4910
      4907      4906      4909      4911      4908      4906      4909      4910
      4908      4906      4909      4911      4909      4911      4913      4914
      4909      4911      4913      4915      4909      4911      4913      4916
      4910      4909      4911      4912      4910      4909      4911      4913
      4911      4913      4916      4917      4911      4913      4916      4918
      4912      4911      4913      4914      4912      4911      4913      4915
      4912      4911      4913      4916      4913      4916      4918      4919
      4913      4916      4918      4920      4914      4913      4916      4917
      4914      4913      4916      4918      4915      4913      4916      4917
      4915      4913      4916      4918      4916      4918      4920      4921
      4916      4918      4920      4922      4916      4918      4920      4923
      4917      4916      4918      4919      4917      4916      4918      4920
      4918      4920      4923      4924      4918      4920      4923      4925
      4918      4920      4923      4926      4919      4918      4920      4921
      4919      4918      4920      4922      4919      4918      4920      4923
      4920      4923      4926      4927      4920      4923      4926      4928
      4920      4923      4926      4929      4921      4920      4923      4924
      4921      4920      4923      4925      4921      4920      4923      4926
      4922      4920      4923      4924      4922      4920      4923      4925
      4922      4920      4923      4926      4923      4926      4929      4930
      4923      4926      4929      4931      4923      4926      4929      4932
      4924      4923      4926      4927      4924      4923      4926      4928
      4924      4923      4926      4929      4925      4923      4926      4927
      4925      4923      4926      4928      4925      4923      4926      4929
      4926      4929      4932      4933      4926      4929      4932      4934
      4926      4929      4932      4935      4927      4926      4929      4930
      4927      4926      4929      4931      4927      4926      4929      4932
      4928      4926      4929      4930      4928      4926      4929      4931
      4928      4926      4929      4932      4930      4929      4932      4933
      4930      4929      4932      4934      4930      4929      4932      4935
      4931      4929      4932      4933      4931      4929      4932      4934
      4931      4929      4932      4935      4936      4939      4942      4943
      4936      4939      4942      4944      4936      4939      4942      4945
      4937      4936      4939      4940      4937      4936      4939      4941
      4937      4936      4939      4942      4938      4936      4939      4940
      4938      4936      4939      4941      4938      4936      4939      4942
      4939      4942      4945      4946      4939      4942      4945      4947
      4939      4942      4945      4948      4940      4939      4942      4943
      4940      4939      4942      4944      4940      4939      4942      4945
      4941      4939      4942      4943      4941      4939      4942      4944
      4941      4939      4942      4945      4942      4945      4948      4949
      4942      4945      4948      4950      4942      4945      4948      4951
      4943      4942      4945      4946      4943      4942      4945      4947
      4943      4942      4945      4948      4944      4942      4945      4946
      4944      4942      4945      4947      4944      4942      4945      4948
      4945      4948      4951      4952      4945      4948      4951      4953
      4945      4948      4951      4954      4946      4945      4948      4949
      4946      4945      4948      4950      4946      4945      4948      4951
      4947      4945      4948      4949      4947      4945      4948      4950
      4947      4945      4948      4951      4948      4951      4954      4955
      4948      4951      4954      4956      4948      4951      4954      4957
      4949      4948      4951      4952      4949      4948      4951      4953
      4949      4948      4951      4954      4950      4948      4951      4952
      4950      4948      4951      4953      4950      4948      4951      4954
      4951      4954      4957      4958      4951      4954      4957      4959
      4951      4954      4957      4960      4952      4951      4954      4955
      4952      4951      4954      4956      4952      4951      4954      4957
      4953      4951      4954      4955      4953      4951      4954      4956
      4953      4951      4954      4957      4954      4957      4960      4961
      4954      4957      4960      4962      4954      4957      4960      4963
      4955      4954      4957      4958      4955      4954      4957      4959
      4955      4954      4957      4960      4956      4954      4957      4958
      4956      4954      4957      4959      4956      4954      4957      4960
      4957      4960      4963      4964      4957      4960      4963      4965
      4957      4960      4963      4966      4958      4957      4960      4961
      4958      4957      4960      4962      4958      4957      4960      4963
      4959      4957      4960      4961      4959      4957      4960      4962
      4959      4957      4960      4963      4960      4963      4966      4967
      4960      4963      4966      4968      4960      4963      4966      4969
      4961      4960      4963      4964      4961      4960      4963      4965
      4961      4960      4963      4966      4962      4960      4963      4964
      4962      4960      4963      4965      4962      4960      4963      4966
      4963      4966      4969      4970      4963      4966      4969      4971
      4963      4966      4969      4972      4964      4963      4966      4967
      4964      4963      4966      4968      4964      4963      4966      4969
      4965      4963      4966      4967      4965      4963      4966      4968
      4965      4963      4966      4969      4966      4969      4972      4973
      4966      4969      4972      4974      4966      4969      4972      4975
      4967      4966      4969      4970      4967      4966      4969      4971
      4967      4966      4969      4972      4968      4966      4969      4970
      4968      4966      4969      4971      4968      4966      4969      4972
      4969      4972      4975      4976      4969      4972      4975      4977
      4969      4972      4975      4978      4970      4969      4972      4973
      4970      4969      4972      4974      4970      4969      4972      4975
      4971      4969      4972      4973      4971      4969      4972      4974
      4971      4969      4972      4975      4972      4975      4978      4979
      4972      4975      4978      4980      4972      4975      4978      4981
      4973      4972      4975      4976      4973      4972      4975      4977
      4973      4972      4975      4978      4974      4972      4975      4976
      4974      4972      4975      4977      4974      4972      4975      4978
      4975      4978      4981      4982      4975      4978      4981      4983
      4975      4978      4981      4984      4976      4975      4978      4979
      4976      4975      4978      4980      4976      4975      4978      4981
      4977      4975      4978      4979      4977      4975      4978      4980
      4977      4975      4978      4981      4979      4978      4981      4982
      4979      4978      4981      4983      4979      4978      4981      4984
      4980      4978      4981      4982      4980      4978      4981      4983
      4980      4978      4981      4984     17215     17219     17222     17223
     17215     17219     17222     17224     17215     17219     17222     17228
     17216     17215     17219     17220     17216     17215     17219     17221
     17216     17215     17219     17222     17217     17215     17219     17220
     17217     17215     17219     17221     17217     17215     17219     17222
     17218     17215     17219     17220     17218     17215     17219     17221
     17218     17215     17219     17222     17219     17222     17228     17225
     17220     17219     17222     17223     17220     17219     17222     17224
     17220     17219     17222     17228     17221     17219     17222     17223
     17221     17219     17222     17224     17221     17219     17222     17228
     17222     17228     17225     17226     17222     17228     17225     17227
     17222     17228     17225     17229     17223     17222     17228     17225
     17224     17222     17228     17225     17225     17229     17230     17231
     17225     17229     17230     17232     17225     17229     17230     17233
     17226     17225     17229     17230     17227     17225     17229     17230
     17228     17225     17229     17230     17229     17230     17233     17234
     17229     17230     17233     17235     17229     17230     17233     17241
     17230     17233     17235     17236     17230     17233     17241     17242
     17230     17233     17241     17243     17230     17233     17241     17244
     17231     17230     17233     17234     17231     17230     17233     17235
     17231     17230     17233     17241     17232     17230     17233     17234
     17232     17230     17233     17235     17232     17230     17233     17241
     17233     17235     17236     17237     17233     17235     17236     17238
     17233     17241     17244     17245     17234     17233     17235     17236
     17234     17233     17241     17242     17234     17233     17241     17243
     17234     17233     17241     17244     17235     17233     17241     17242
     17235     17233     17241     17243     17235     17233     17241     17244
     17235     17236     17238     17239     17235     17236     17238     17240
     17235     17236     17238     17250     17236     17235     17233     17241
     17236     17238     17250     17251     17236     17238     17250     17252
     17236     17238     17250     17253     17237     17236     17238     17239
     17237     17236     17238     17240     17237     17236     17238     17250
     17238     17250     17253     17254     17238     17250     17253     17255
     17238     17250     17253     17256     17239     17238     17250     17251
     17239     17238     17250     17252     17239     17238     17250     17253
     17240     17238     17250     17251     17240     17238     17250     17252
     17240     17238     17250     17253     17241     17244     17245     17246
     17241     17244     17245     17247     17242     17241     17244     17245
     17243     17241     17244     17245     17244     17245     17247     17248
     17244     17245     17247     17249     17244     17245     17247     17297
     17245     17247     17297     17298     17245     17247     17297     17299
     17245     17247     17297     17300     17246     17245     17247     17248
     17246     17245     17247     17249     17246     17245     17247     17297
     17247     17297     17300     17301     17247     17297     17300     17302
     17247     17297     17300     17303     17248     17247     17297     17298
     17248     17247     17297     17299     17248     17247     17297     17300
     17249     17247     17297     17298     17249     17247     17297     17299
     17249     17247     17297     17300     17250     17253     17256     17257
     17250     17253     17256     17258     17251     17250     17253     17254
     17251     17250     17253     17255     17251     17250     17253     17256
     17252     17250     17253     17254     17252     17250     17253     17255
     17252     17250     17253     17256     17253     17256     17258     17259
     17253     17256     17258     17260     17254     17253     17256     17257
     17254     17253     17256     17258     17255     17253     17256     17257
     17255     17253     17256     17258     17256     17258     17260     17261
     17256     17258     17260     17262     17256     17258     17260     17263
     17257     17256     17258     17259     17257     17256     17258     17260
     17258     17260     17263     17264     17258     17260     17263     17265
     17259     17258     17260     17261     17259     17258     17260     17262
     17259     17258     17260     17263     17260     17263     17265     17266
     17260     17263     17265     17267     17261     17260     17263     17264
     17261     17260     17263     17265     17262     17260     17263     17264
     17262     17260     17263     17265     17263     17265     17267     17268
     17263     17265     17267     17269     17263     17265     17267     17270
     17264     17263     17265     17266     17264     17263     17265     17267
     17265     17267     17270     17271     17265     17267     17270     17272
     17266     17265     17267     17268     17266     17265     17267     17269
     17266     17265     17267     17270     17267     17270     17272     17273
     17267     17270     17272     17274     17268     17267     17270     17271
     17268     17267     17270     17272     17269     17267     17270     17271
     17269     17267     17270     17272     17270     17272     17274     17275
     17270     17272     17274     17276     17270     17272     17274     17277
     17271     17270     17272     17273     17271     17270     17272     17274
     17272     17274     17277     17278     17272     17274     17277     17279
     17273     17272     17274     17275     17273     17272     17274     17276
     17273     17272     17274     17277     17274     17277     17279     17280
     17274     17277     17279     17281     17275     17274     17277     17278
     17275     17274     17277     17279     17276     17274     17277     17278
     17276     17274     17277     17279     17277     17279     17281     17282
     17277     17279     17281     17283     17277     17279     17281     17284
     17278     17277     17279     17280     17278     17277     17279     17281
     17279     17281     17284     17285     17279     17281     17284     17286
     17279     17281     17284     17287     17280     17279     17281     17282
     17280     17279     17281     17283     17280     17279     17281     17284
     17281     17284     17287     17288     17281     17284     17287     17289
     17281     17284     17287     17290     17282     17281     17284     17285
     17282     17281     17284     17286     17282     17281     17284     17287
     17283     17281     17284     17285     17283     17281     17284     17286
     17283     17281     17284     17287     17284     17287     17290     17291
     17284     17287     17290     17292     17284     17287     17290     17293
     17285     17284     17287     17288     17285     17284     17287     17289
     17285     17284     17287     17290     17286     17284     17287     17288
     17286     17284     17287     17289     17286     17284     17287     17290
     17287     17290     17293     17294     17287     17290     17293     17295
     17287     17290     17293     17296     17288     17287     17290     17291
     17288     17287     17290     17292     17288     17287     17290     17293
     17289     17287     17290     17291     17289     17287     17290     17292
     17289     17287     17290     17293     17291     17290     17293     17294
     17291     17290     17293     17295     17291     17290     17293     17296
     17292     17290     17293     17294     17292     17290     17293     17295
     17292     17290     17293     17296     17297     17300     17303     17304
     17297     17300     17303     17305     17297     17300     17303     17306
     17298     17297     17300     17301     17298     17297     17300     17302
     17298     17297     17300     17303     17299     17297     17300     17301
     17299     17297     17300     17302     17299     17297     17300     17303
     17300     17303     17306     17307     17300     17303     17306     17308
     17300     17303     17306     17309     17301     17300     17303     17304
     17301     17300     17303     17305     17301     17300     17303     17306
     17302     17300     17303     17304     17302     17300     17303     17305
     17302     17300     17303     17306     17303     17306     17309     17310
     17303     17306     17309     17311     17303     17306     17309     17312
     17304     17303     17306     17307     17304     17303     17306     17308
     17304     17303     17306     17309     17305     17303     17306     17307
     17305     17303     17306     17308     17305     17303     17306     17309
     17306     17309     17312     17313     17306     17309     17312     17314
     17306     17309     17312     17315     17307     17306     17309     17310
     17307     17306     17309     17311     17307     17306     17309     17312
     17308     17306     17309     17310     17308     17306     17309     17311
     17308     17306     17309     17312     17309     17312     17315     17316
     17309     17312     17315     17317     17309     17312     17315     17318
     17310     17309     17312     17313     17310     17309     17312     17314
     17310     17309     17312     17315     17311     17309     17312     17313
     17311     17309     17312     17314     17311     17309     17312     17315
     17312     17315     17318     17319     17312     17315     17318     17320
     17312     17315     17318     17321     17313     17312     17315     17316
     17313     17312     17315     17317     17313     17312     17315     17318
     17314     17312     17315     17316     17314     17312     17315     17317
     17314     17312     17315     17318     17315     17318     17321     17322
     17315     17318     17321     17323     17315     17318     17321     17324
     17316     17315     17318     17319     17316     17315     17318     17320
     17316     17315     17318     17321     17317     17315     17318     17319
     17317     17315     17318     17320     17317     17315     17318     17321
     17318     17321     17324     17325     17318     17321     17324     17326
     17318     17321     17324     17327     17319     17318     17321     17322
     17319     17318     17321     17323     17319     17318     17321     17324
     17320     17318     17321     17322     17320     17318     17321     17323
     17320     17318     17321     17324     17321     17324     17327     17328
     17321     17324     17327     17329     17321     17324     17327     17330
     17322     17321     17324     17325     17322     17321     17324     17326
     17322     17321     17324     17327     17323     17321     17324     17325
     17323     17321     17324     17326     17323     17321     17324     17327
     17324     17327     17330     17331     17324     17327     17330     17332
     17324     17327     17330     17333     17325     17324     17327     17328
     17325     17324     17327     17329     17325     17324     17327     17330
     17326     17324     17327     17328     17326     17324     17327     17329
     17326     17324     17327     17330     17327     17330     17333     17334
     17327     17330     17333     17335     17327     17330     17333     17336
     17328     17327     17330     17331     17328     17327     17330     17332
     17328     17327     17330     17333     17329     17327     17330     17331
     17329     17327     17330     17332     17329     17327     17330     17333
     17330     17333     17336     17337     17330     17333     17336     17338
     17330     17333     17336     17339     17331     17330     17333     17334
     17331     17330     17333     17335     17331     17330     17333     17336
     17332     17330     17333     17334     17332     17330     17333     17335
     17332     17330     17333     17336     17333     17336     17339     17340
     17333     17336     17339     17341     17333     17336     17339     17342
     17334     17333     17336     17337     17334     17333     17336     17338
     17334     17333     17336     17339     17335     17333     17336     17337
     17335     17333     17336     17338     17335     17333     17336     17339
     17336     17339     17342     17343     17336     17339     17342     17344
     17336     17339     17342     17345     17337     17336     17339     17340
     17337     17336     17339     17341     17337     17336     17339     17342
     17338     17336     17339     17340     17338     17336     17339     17341
     17338     17336     17339     17342     17340     17339     17342     17343
     17340     17339     17342     17344     17340     17339     17342     17345
     17341     17339     17342     17343     17341     17339     17342     17344
     17341     17339     17342     17345     17346     17350     17353     17354
     17346     17350     17353     17355     17346     17350     17353     17359
     17347     17346     17350     17351     17347     17346     17350     17352
     17347     17346     17350     17353     17348     17346     17350     17351
     17348     17346     17350     17352     17348     17346     17350     17353
     17349     17346     17350     17351     17349     17346     17350     17352
     17349     17346     17350     17353     17350     17353     17359     17356
     17351     17350     17353     17354     17351     17350     17353     17355
     17351     17350     17353     17359     17352     17350     17353     17354
     17352     17350     17353     17355     17352     17350     17353     17359
     17353     17359     17356     17357     17353     17359     17356     17358
     17353     17359     17356     17360     17354     17353     17359     17356
     17355     17353     17359     17356     17356     17360     17361     17362
     17356     17360     17361     17363     17356     17360     17361     17364
     17357     17356     17360     17361     17358     17356     17360     17361
     17359     17356     17360     17361     17360     17361     17364     17365
     17360     17361     17364     17366     17360     17361     17364     17372
     17361     17364     17366     17367     17361     17364     17372     17373
     17361     17364     17372     17374     17361     17364     17372     17375
     17362     17361     17364     17365     17362     17361     17364     17366
     17362     17361     17364     17372     17363     17361     17364     17365
     17363     17361     17364     17366     17363     17361     17364     17372
     17364     17366     17367     17368     17364     17366     17367     17369
     17364     17372     17375     17376     17365     17364     17366     17367
     17365     17364     17372     17373     17365     17364     17372     17374
     17365     17364     17372     17375     17366     17364     17372     17373
     17366     17364     17372     17374     17366     17364     17372     17375
     17366     17367     17369     17370     17366     17367     17369     17371
     17366     17367     17369     17381     17367     17366     17364     17372
     17367     17369     17381     17382     17367     17369     17381     17383
     17367     17369     17381     17384     17368     17367     17369     17370
     17368     17367     17369     17371     17368     17367     17369     17381
     17369     17381     17384     17385     17369     17381     17384     17386
     17369     17381     17384     17387     17370     17369     17381     17382
     17370     17369     17381     17383     17370     17369     17381     17384
     17371     17369     17381     17382     17371     17369     17381     17383
     17371     17369     17381     17384     17372     17375     17376     17377
     17372     17375     17376     17378     17373     17372     17375     17376
     17374     17372     17375     17376     17375     17376     17378     17379
     17375     17376     17378     17380     17375     17376     17378     17428
     17376     17378     17428     17429     17376     17378     17428     17430
     17376     17378     17428     17431     17377     17376     17378     17379
     17377     17376     17378     17380     17377     17376     17378     17428
     17378     17428     17431     17432     17378     17428     17431     17433
     17378     17428     17431     17434     17379     17378     17428     17429
     17379     17378     17428     17430     17379     17378     17428     17431
     17380     17378     17428     17429     17380     17378     17428     17430
     17380     17378     17428     17431     17381     17384     17387     17388
     17381     17384     17387     17389     17382     17381     17384     17385
     17382     17381     17384     17386     17382     17381     17384     17387
     17383     17381     17384     17385     17383     17381     17384     17386
     17383     17381     17384     17387     17384     17387     17389     17390
     17384     17387     17389     17391     17385     17384     17387     17388
     17385     17384     17387     17389     17386     17384     17387     17388
     17386     17384     17387     17389     17387     17389     17391     17392
     17387     17389     17391     17393     17387     17389     17391     17394
     17388     17387     17389     17390     17388     17387     17389     17391
     17389     17391     17394     17395     17389     17391     17394     17396
     17390     17389     17391     17392     17390     17389     17391     17393
     17390     17389     17391     17394     17391     17394     17396     17397
     17391     17394     17396     17398     17392     17391     17394     17395
     17392     17391     17394     17396     17393     17391     17394     17395
     17393     17391     17394     17396     17394     17396     17398     17399
     17394     17396     17398     17400     17394     17396     17398     17401
     17395     17394     17396     17397     17395     17394     17396     17398
     17396     17398     17401     17402     17396     17398     17401     17403
     17397     17396     17398     17399     17397     17396     17398     17400
     17397     17396     17398     17401     17398     17401     17403     17404
     17398     17401     17403     17405     17399     17398     17401     17402
     17399     17398     17401     17403     17400     17398     17401     17402
     17400     17398     17401     17403     17401     17403     17405     17406
     17401     17403     17405     17407     17401     17403     17405     17408
     17402     17401     17403     17404     17402     17401     17403     17405
     17403     17405     17408     17409     17403     17405     17408     17410
     17404     17403     17405     17406     17404     17403     17405     17407
     17404     17403     17405     17408     17405     17408     17410     17411
     17405     17408     17410     17412     17406     17405     17408     17409
     17406     17405     17408     17410     17407     17405     17408     17409
     17407     17405     17408     17410     17408     17410     17412     17413
     17408     17410     17412     17414     17408     17410     17412     17415
     17409     17408     17410     17411     17409     17408     17410     17412
     17410     17412     17415     17416     17410     17412     17415     17417
     17410     17412     17415     17418     17411     17410     17412     17413
     17411     17410     17412     17414     17411     17410     17412     17415
     17412     17415     17418     17419     17412     17415     17418     17420
     17412     17415     17418     17421     17413     17412     17415     17416
     17413     17412     17415     17417     17413     17412     17415     17418
     17414     17412     17415     17416     17414     17412     17415     17417
     17414     17412     17415     17418     17415     17418     17421     17422
     17415     17418     17421     17423     17415     17418     17421     17424
     17416     17415     17418     17419     17416     17415     17418     17420
     17416     17415     17418     17421     17417     17415     17418     17419
     17417     17415     17418     17420     17417     17415     17418     17421
     17418     17421     17424     17425     17418     17421     17424     17426
     17418     17421     17424     17427     17419     17418     17421     17422
     17419     17418     17421     17423     17419     17418     17421     17424
     17420     17418     17421     17422     17420     17418     17421     17423
     17420     17418     17421     17424     17422     17421     17424     17425
     17422     17421     17424     17426     17422     17421     17424     17427
     17423     17421     17424     17425     17423     17421     17424     17426
     17423     17421     17424     17427     17428     17431     17434     17435
     17428     17431     17434     17436     17428     17431     17434     17437
     17429     17428     17431     17432     17429     17428     17431     17433
     17429     17428     17431     17434     17430     17428     17431     17432
     17430     17428     17431     17433     17430     17428     17431     17434
     17431     17434     17437     17438     17431     17434     17437     17439
     17431     17434     17437     17440     17432     17431     17434     17435
     17432     17431     17434     17436     17432     17431     17434     17437
     17433     17431     17434     17435     17433     17431     17434     17436
     17433     17431     17434     17437     17434     17437     17440     17441
     17434     17437     17440     17442     17434     17437     17440     17443
     17435     17434     17437     17438     17435     17434     17437     17439
     17435     17434     17437     17440     17436     17434     17437     17438
     17436     17434     17437     17439     17436     17434     17437     17440
     17437     17440     17443     17444     17437     17440     17443     17445
     17437     17440     17443     17446     17438     17437     17440     17441
     17438     17437     17440     17442     17438     17437     17440     17443
     17439     17437     17440     17441     17439     17437     17440     17442
     17439     17437     17440     17443     17440     17443     17446     17447
     17440     17443     17446     17448     17440     17443     17446     17449
     17441     17440     17443     17444     17441     17440     17443     17445
     17441     17440     17443     17446     17442     17440     17443     17444
     17442     17440     17443     17445     17442     17440     17443     17446
     17443     17446     17449     17450     17443     17446     17449     17451
     17443     17446     17449     17452     17444     17443     17446     17447
     17444     17443     17446     17448     17444     17443     17446     17449
     17445     17443     17446     17447     17445     17443     17446     17448
     17445     17443     17446     17449     17446     17449     17452     17453
     17446     17449     17452     17454     17446     17449     17452     17455
     17447     17446     17449     17450     17447     17446     17449     17451
     17447     17446     17449     17452     17448     17446     17449     17450
     17448     17446     17449     17451     17448     17446     17449     17452
     17449     17452     17455     17456     17449     17452     17455     17457
     17449     17452     17455     17458     17450     17449     17452     17453
     17450     17449     17452     17454     17450     17449     17452     17455
     17451     17449     17452     17453     17451     17449     17452     17454
     17451     17449     17452     17455     17452     17455     17458     17459
     17452     17455     17458     17460     17452     17455     17458     17461
     17453     17452     17455     17456     17453     17452     17455     17457
     17453     17452     17455     17458     17454     17452     17455     17456
     17454     17452     17455     17457     17454     17452     17455     17458
     17455     17458     17461     17462     17455     17458     17461     17463
     17455     17458     17461     17464     17456     17455     17458     17459
     17456     17455     17458     17460     17456     17455     17458     17461
     17457     17455     17458     17459     17457     17455     17458     17460
     17457     17455     17458     17461     17458     17461     17464     17465
     17458     17461     17464     17466     17458     17461     17464     17467
     17459     17458     17461     17462     17459     17458     17461     17463
     17459     17458     17461     17464     17460     17458     17461     17462
     17460     17458     17461     17463     17460     17458     17461     17464
     17461     17464     17467     17468     17461     17464     17467     17469
     17461     17464     17467     17470     17462     17461     17464     17465
     17462     17461     17464     17466     17462     17461     17464     17467
     17463     17461     17464     17465     17463     17461     17464     17466
     17463     17461     17464     17467     17464     17467     17470     17471
     17464     17467     17470     17472     17464     17467     17470     17473
     17465     17464     17467     17468     17465     17464     17467     17469
     17465     17464     17467     17470     17466     17464     17467     17468
     17466     17464     17467     17469     17466     17464     17467     17470
     17467     17470     17473     17474     17467     17470     17473     17475
     17467     17470     17473     17476     17468     17467     17470     17471
     17468     17467     17470     17472     17468     17467     17470     17473
     17469     17467     17470     17471     17469     17467     17470     17472
     17469     17467     17470     17473     17471     17470     17473     17474
     17471     17470     17473     17475     17471     17470     17473     17476
     17472     17470     17473     17474     17472     17470     17473     17475
     17472     17470     17473     17476     17477     17481     17484     17485
     17477     17481     17484     17486     17477     17481     17484     17490
     17478     17477     17481     17482     17478     17477     17481     17483
     17478     17477     17481     17484     17479     17477     17481     17482
     17479     17477     17481     17483     17479     17477     17481     17484
     17480     17477     17481     17482     17480     17477     17481     17483
     17480     17477     17481     17484     17481     17484     17490     17487
     17482     17481     17484     17485     17482     17481     17484     17486
     17482     17481     17484     17490     17483     17481     17484     17485
     17483     17481     17484     17486     17483     17481     17484     17490
     17484     17490     17487     17488     17484     17490     17487     17489
     17484     17490     17487     17491     17485     17484     17490     17487
     17486     17484     17490     17487     17487     17491     17492     17493
     17487     17491     17492     17494     17487     17491     17492     17495
     17488     17487     17491     17492     17489     17487     17491     17492
     17490     17487     17491     17492     17491     17492     17495     17496
     17491     17492     17495     17497     17491     17492     17495     17503
     17492     17495     17497     17498     17492     17495     17503     17504
     17492     17495     17503     17505     17492     17495     17503     17506
     17493     17492     17495     17496     17493     17492     17495     17497
     17493     17492     17495     17503     17494     17492     17495     17496
     17494     17492     17495     17497     17494     17492     17495     17503
     17495     17497     17498     17499     17495     17497     17498     17500
     17495     17503     17506     17507     17496     17495     17497     17498
     17496     17495     17503     17504     17496     17495     17503     17505
     17496     17495     17503     17506     17497     17495     17503     17504
     17497     17495     17503     17505     17497     17495     17503     17506
     17497     17498     17500     17501     17497     17498     17500     17502
     17497     17498     17500     17512     17498     17497     17495     17503
     17498     17500     17512     17513     17498     17500     17512     17514
     17498     17500     17512     17515     17499     17498     17500     17501
     17499     17498     17500     17502     17499     17498     17500     17512
     17500     17512     17515     17516     17500     17512     17515     17517
     17500     17512     17515     17518     17501     17500     17512     17513
     17501     17500     17512     17514     17501     17500     17512     17515
     17502     17500     17512     17513     17502     17500     17512     17514
     17502     17500     17512     17515     17503     17506     17507     17508
     17503     17506     17507     17509     17504     17503     17506     17507
     17505     17503     17506     17507     17506     17507     17509     17510
     17506     17507     17509     17511     17506     17507     17509     17559
     17507     17509     17559     17560     17507     17509     17559     17561
     17507     17509     17559     17562     17508     17507     17509     17510
     17508     17507     17509     17511     17508     17507     17509     17559
     17509     17559     17562     17563     17509     17559     17562     17564
     17509     17559     17562     17565     17510     17509     17559     17560
     17510     17509     17559     17561     17510     17509     17559     17562
     17511     17509     17559     17560     17511     17509     17559     17561
     17511     17509     17559     17562     17512     17515     17518     17519
     17512     17515     17518     17520     17513     17512     17515     17516
     17513     17512     17515     17517     17513     17512     17515     17518
     17514     17512     17515     17516     17514     17512     17515     17517
     17514     17512     17515     17518     17515     17518     17520     17521
     17515     17518     17520     17522     17516     17515     17518     17519
     17516     17515     17518     17520     17517     17515     17518     17519
     17517     17515     17518     17520     17518     17520     17522     17523
     17518     17520     17522     17524     17518     17520     17522     17525
     17519     17518     17520     17521     17519     17518     17520     17522
     17520     17522     17525     17526     17520     17522     17525     17527
     17521     17520     17522     17523     17521     17520     17522     17524
     17521     17520     17522     17525     17522     17525     17527     17528
     17522     17525     17527     17529     17523     17522     17525     17526
     17523     17522     17525     17527     17524     17522     17525     17526
     17524     17522     17525     17527     17525     17527     17529     17530
     17525     17527     17529     17531     17525     17527     17529     17532
     17526     17525     17527     17528     17526     17525     17527     17529
     17527     17529     17532     17533     17527     17529     17532     17534
     17528     17527     17529     17530     17528     17527     17529     17531
     17528     17527     17529     17532     17529     17532     17534     17535
     17529     17532     17534     17536     17530     17529     17532     17533
     17530     17529     17532     17534     17531     17529     17532     17533
     17531     17529     17532     17534     17532     17534     17536     17537
     17532     17534     17536     17538     17532     17534     17536     17539
     17533     17532     17534     17535     17533     17532     17534     17536
     17534     17536     17539     17540     17534     17536     17539     17541
     17535     17534     17536     17537     17535     17534     17536     17538
     17535     17534     17536     17539     17536     17539     17541     17542
     17536     17539     17541     17543     17537     17536     17539     17540
     17537     17536     17539     17541     17538     17536     17539     17540
     17538     17536     17539     17541     17539     17541     17543     17544
     17539     17541     17543     17545     17539     17541     17543     17546
     17540     17539     17541     17542     17540     17539     17541     17543
     17541     17543     17546     17547     17541     17543     17546     17548
     17541     17543     17546     17549     17542     17541     17543     17544
     17542     17541     17543     17545     17542     17541     17543     17546
     17543     17546     17549     17550     17543     17546     17549     17551
     17543     17546     17549     17552     17544     17543     17546     17547
     17544     17543     17546     17548     17544     17543     17546     17549
     17545     17543     17546     17547     17545     17543     17546     17548
     17545     17543     17546     17549     17546     17549     17552     17553
     17546     17549     17552     17554     17546     17549     17552     17555
     17547     17546     17549     17550     17547     17546     17549     17551
     17547     17546     17549     17552     17548     17546     17549     17550
     17548     17546     17549     17551     17548     17546     17549     17552
     17549     17552     17555     17556     17549     17552     17555     17557
     17549     17552     17555     17558     17550     17549     17552     17553
     17550     17549     17552     17554     17550     17549     17552     17555
     17551     17549     17552     17553     17551     17549     17552     17554
     17551     17549     17552     17555     17553     17552     17555     17556
     17553     17552     17555     17557     17553     17552     17555     17558
     17554     17552     17555     17556     17554     17552     17555     17557
     17554     17552     17555     17558     17559     17562     17565     17566
     17559     17562     17565     17567     17559     17562     17565     17568
     17560     17559     17562     17563     17560     17559     17562     17564
     17560     17559     17562     17565     17561     17559     17562     17563
     17561     17559     17562     17564     17561     17559     17562     17565
     17562     17565     17568     17569     17562     17565     17568     17570
     17562     17565     17568     17571     17563     17562     17565     17566
     17563     17562     17565     17567     17563     17562     17565     17568
     17564     17562     17565     17566     17564     17562     17565     17567
     17564     17562     17565     17568     17565     17568     17571     17572
     17565     17568     17571     17573     17565     17568     17571     17574
     17566     17565     17568     17569     17566     17565     17568     17570
     17566     17565     17568     17571     17567     17565     17568     17569
     17567     17565     17568     17570     17567     17565     17568     17571
     17568     17571     17574     17575     17568     17571     17574     17576
     17568     17571     17574     17577     17569     17568     17571     17572
     17569     17568     17571     17573     17569     17568     17571     17574
     17570     17568     17571     17572     17570     17568     17571     17573
     17570     17568     17571     17574     17571     17574     17577     17578
     17571     17574     17577     17579     17571     17574     17577     17580
     17572     17571     17574     17575     17572     17571     17574     17576
     17572     17571     17574     17577     17573     17571     17574     17575
     17573     17571     17574     17576     17573     17571     17574     17577
     17574     17577     17580     17581     17574     17577     17580     17582
     17574     17577     17580     17583     17575     17574     17577     17578
     17575     17574     17577     17579     17575     17574     17577     17580
     17576     17574     17577     17578     17576     17574     17577     17579
     17576     17574     17577     17580     17577     17580     17583     17584
     17577     17580     17583     17585     17577     17580     17583     17586
     17578     17577     17580     17581     17578     17577     17580     17582
     17578     17577     17580     17583     17579     17577     17580     17581
     17579     17577     17580     17582     17579     17577     17580     17583
     17580     17583     17586     17587     17580     17583     17586     17588
     17580     17583     17586     17589     17581     17580     17583     17584
     17581     17580     17583     17585     17581     17580     17583     17586
     17582     17580     17583     17584     17582     17580     17583     17585
     17582     17580     17583     17586     17583     17586     17589     17590
     17583     17586     17589     17591     17583     17586     17589     17592
     17584     17583     17586     17587     17584     17583     17586     17588
     17584     17583     17586     17589     17585     17583     17586     17587
     17585     17583     17586     17588     17585     17583     17586     17589
     17586     17589     17592     17593     17586     17589     17592     17594
     17586     17589     17592     17595     17587     17586     17589     17590
     17587     17586     17589     17591     17587     17586     17589     17592
     17588     17586     17589     17590     17588     17586     17589     17591
     17588     17586     17589     17592     17589     17592     17595     17596
     17589     17592     17595     17597     17589     17592     17595     17598
     17590     17589     17592     17593     17590     17589     17592     17594
     17590     17589     17592     17595     17591     17589     17592     17593
     17591     17589     17592     17594     17591     17589     17592     17595
     17592     17595     17598     17599     17592     17595     17598     17600
     17592     17595     17598     17601     17593     17592     17595     17596
     17593     17592     17595     17597     17593     17592     17595     17598
     17594     17592     17595     17596     17594     17592     17595     17597
     17594     17592     17595     17598     17595     17598     17601     17602
     17595     17598     17601     17603     17595     17598     17601     17604
     17596     17595     17598     17599     17596     17595     17598     17600
     17596     17595     17598     17601     17597     17595     17598     17599
     17597     17595     17598     17600     17597     17595     17598     17601
     17598     17601     17604     17605     17598     17601     17604     17606
     17598     17601     17604     17607     17599     17598     17601     17602
     17599     17598     17601     17603     17599     17598     17601     17604
     17600     17598     17601     17602     17600     17598     17601     17603
     17600     17598     17601     17604     17602     17601     17604     17605
     17602     17601     17604     17606     17602     17601     17604     17607
     17603     17601     17604     17605     17603     17601     17604     17606
     17603     17601     17604     17607      8545      8549      8551      8552
      8545      8549      8551      8553      8545      8549      8554      8555
      8545      8549      8554      8556      8545      8549      8554      8560
      8546      8545      8549      8550      8546      8545      8549      8551
      8546      8545      8549      8554      8547      8545      8549      8550
      8547      8545      8549      8551      8547      8545      8549      8554
      8548      8545      8549      8550      8548      8545      8549      8551
      8548      8545      8549      8554      8549      8554      8560      8557
      8550      8549      8551      8552      8550      8549      8551      8553
      8550      8549      8554      8555      8550      8549      8554      8556
      8550      8549      8554      8560      8551      8549      8554      8555
      8551      8549      8554      8556      8551      8549      8554      8560
      8552      8551      8549      8554      8553      8551      8549      8554
      8554      8560      8557      8558      8554      8560      8557      8559
      8554      8560      8557      8561      8555      8554      8560      8557
      8556      8554      8560      8557      8557      8561      8562      8563
      8557      8561      8562      8564      8557      8561      8562      8565
      8558      8557      8561      8562      8559      8557      8561      8562
      8560      8557      8561      8562      8561      8562      8565      8566
      8561      8562      8565      8567      8561      8562      8565      8573
      8562      8565      8567      8568      8562      8565      8573      8574
      8562      8565      8573      8575      8562      8565      8573      8576
      8563      8562      8565      8566      8563      8562      8565      8567
      8563      8562      8565      8573      8564      8562      8565      8566
      8564      8562      8565      8567      8564      8562      8565      8573
      8565      8567      8568      8569      8565      8567      8568      8570
      8565      8573      8576      8577      8566      8565      8567      8568
      8566      8565      8573      8574      8566      8565      8573      8575
      8566      8565      8573      8576      8567      8565      8573      8574
      8567      8565      8573      8575      8567      8565      8573      8576
      8567      8568      8570      8571      8567      8568      8570      8572
      8567      8568      8570      8582      8568      8567      8565      8573
      8568      8570      8582      8583      8568      8570      8582      8584
      8568      8570      8582      8585      8569      8568      8570      8571
      8569      8568      8570      8572      8569      8568      8570      8582
      8570      8582      8585      8586      8570      8582      8585      8587
      8570      8582      8585      8588      8571      8570      8582      8583
      8571      8570      8582      8584      8571      8570      8582      8585
      8572      8570      8582      8583      8572      8570      8582      8584
      8572      8570      8582      8585      8573      8576      8577      8578
      8573      8576      8577      8579      8574      8573      8576      8577
      8575      8573      8576      8577      8576      8577      8579      8580
      8576      8577      8579      8581      8576      8577      8579      8629
      8577      8579      8629      8630      8577      8579      8629      8631
      8577      8579      8629      8632      8578      8577      8579      8580
      8578      8577      8579      8581      8578      8577      8579      8629
      8579      8629      8632      8633      8579      8629      8632      8634
      8579      8629      8632      8635      8580      8579      8629      8630
      8580      8579      8629      8631      8580      8579      8629      8632
      8581      8579      8629      8630      8581      8579      8629      8631
      8581      8579      8629      8632      8582      8585      8588      8589
      8582      8585      8588      8590      8583      8582      8585      8586
      8583      8582      8585      8587      8583      8582      8585      8588
      8584      8582      8585      8586      8584      8582      8585      8587
      8584      8582      8585      8588      8585      8588      8590      8591
      8585      8588      8590      8592      8586      8585      8588      8589
      8586      8585      8588      8590      8587      8585      8588      8589
      8587      8585      8588      8590      8588      8590      8592      8593
      8588      8590      8592      8594      8588      8590      8592      8595
      8589      8588      8590      8591      8589      8588      8590      8592
      8590      8592      8595      8596      8590      8592      8595      8597
      8591      8590      8592      8593      8591      8590      8592      8594
      8591      8590      8592      8595      8592      8595      8597      8598
      8592      8595      8597      8599      8593      8592      8595      8596
      8593      8592      8595      8597      8594      8592      8595      8596
      8594      8592      8595      8597      8595      8597      8599      8600
      8595      8597      8599      8601      8595      8597      8599      8602
      8596      8595      8597      8598      8596      8595      8597      8599
      8597      8599      8602      8603      8597      8599      8602      8604
      8598      8597      8599      8600      8598      8597      8599      8601
      8598      8597      8599      8602      8599      8602      8604      8605
      8599      8602      8604      8606      8600      8599      8602      8603
      8600      8599      8602      8604      8601      8599      8602      8603
      8601      8599      8602      8604      8602      8604      8606      8607
      8602      8604      8606      8608      8602      8604      8606      8609
      8603      8602      8604      8605      8603      8602      8604      8606
      8604      8606      8609      8610      8604      8606      8609      8611
      8605      8604      8606      8607      8605      8604      8606      8608
      8605      8604      8606      8609      8606      8609      8611      8612
      8606      8609      8611      8613      8607      8606      8609      8610
      8607      8606      8609      8611      8608      8606      8609      8610
      8608      8606      8609      8611      8609      8611      8613      8614
      8609      8611      8613      8615      8609      8611      8613      8616
      8610      8609      8611      8612      8610      8609      8611      8613
      8611      8613      8616      8617      8611      8613      8616      8618
      8611      8613      8616      8619      8612      8611      8613      8614
      8612      8611      8613      8615      8612      8611      8613      8616
      8613      8616      8619      8620      8613      8616      8619      8621
      8613      8616      8619      8622      8614      8613      8616      8617
      8614      8613      8616      8618      8614      8613      8616      8619
      8615      8613      8616      8617      8615      8613      8616      8618
      8615      8613      8616      8619      8616      8619      8622      8623
      8616      8619      8622      8624      8616      8619      8622      8625
      8617      8616      8619      8620      8617      8616      8619      8621
      8617      8616      8619      8622      8618      8616      8619      8620
      8618      8616      8619      8621      8618      8616      8619      8622
      8619      8622      8625      8626      8619      8622      8625      8627
      8619      8622      8625      8628      8620      8619      8622      8623
      8620      8619      8622      8624      8620      8619      8622      8625
      8621      8619      8622      8623      8621      8619      8622      8624
      8621      8619      8622      8625      8623      8622      8625      8626
      8623      8622      8625      8627      8623      8622      8625      8628
      8624      8622      8625      8626      8624      8622      8625      8627
      8624      8622      8625      8628      8629      8632      8635      8636
      8629      8632      8635      8637      8629      8632      8635      8638
      8630      8629      8632      8633      8630      8629      8632      8634
      8630      8629      8632      8635      8631      8629      8632      8633
      8631      8629      8632      8634      8631      8629      8632      8635
      8632      8635      8638      8639      8632      8635      8638      8640
      8632      8635      8638      8641      8633      8632      8635      8636
      8633      8632      8635      8637      8633      8632      8635      8638
      8634      8632      8635      8636      8634      8632      8635      8637
      8634      8632      8635      8638      8635      8638      8641      8642
      8635      8638      8641      8643      8635      8638      8641      8644
      8636      8635      8638      8639      8636      8635      8638      8640
      8636      8635      8638      8641      8637      8635      8638      8639
      8637      8635      8638      8640      8637      8635      8638      8641
      8638      8641      8644      8645      8638      8641      8644      8646
      8638      8641      8644      8647      8639      8638      8641      8642
      8639      8638      8641      8643      8639      8638      8641      8644
      8640      8638      8641      8642      8640      8638      8641      8643
      8640      8638      8641      8644      8641      8644      8647      8648
      8641      8644      8647      8649      8641      8644      8647      8650
      8642      8641      8644      8645      8642      8641      8644      8646
      8642      8641      8644      8647      8643      8641      8644      8645
      8643      8641      8644      8646      8643      8641      8644      8647
      8644      8647      8650      8651      8644      8647      8650      8652
      8644      8647      8650      8653      8645      8644      8647      8648
      8645      8644      8647      8649      8645      8644      8647      8650
      8646      8644      8647      8648      8646      8644      8647      8649
      8646      8644      8647      8650      8647      8650      8653      8654
      8647      8650      8653      8655      8647      8650      8653      8656
      8648      8647      8650      8651      8648      8647      8650      8652
      8648      8647      8650      8653      8649      8647      8650      8651
      8649      8647      8650      8652      8649      8647      8650      8653
      8650      8653      8656      8657      8650      8653      8656      8658
      8650      8653      8656      8659      8651      8650      8653      8654
      8651      8650      8653      8655      8651      8650      8653      8656
      8652      8650      8653      8654      8652      8650      8653      8655
      8652      8650      8653      8656      8653      8656      8659      8660
      8653      8656      8659      8661      8653      8656      8659      8662
      8654      8653      8656      8657      8654      8653      8656      8658
      8654      8653      8656      8659      8655      8653      8656      8657
      8655      8653      8656      8658      8655      8653      8656      8659
      8656      8659      8662      8663      8656      8659      8662      8664
      8656      8659      8662      8665      8657      8656      8659      8660
      8657      8656      8659      8661      8657      8656      8659      8662
      8658      8656      8659      8660      8658      8656      8659      8661
      8658      8656      8659      8662      8659      8662      8665      8666
      8659      8662      8665      8667      8659      8662      8665      8668
      8660      8659      8662      8663      8660      8659      8662      8664
      8660      8659      8662      8665      8661      8659      8662      8663
      8661      8659      8662      8664      8661      8659      8662      8665
      8662      8665      8668      8669      8662      8665      8668      8670
      8662      8665      8668      8671      8663      8662      8665      8666
      8663      8662      8665      8667      8663      8662      8665      8668
      8664      8662      8665      8666      8664      8662      8665      8667
      8664      8662      8665      8668      8665      8668      8671      8672
      8665      8668      8671      8673      8665      8668      8671      8674
      8666      8665      8668      8669      8666      8665      8668      8670
      8666      8665      8668      8671      8667      8665      8668      8669
      8667      8665      8668      8670      8667      8665      8668      8671
      8668      8671      8674      8675      8668      8671      8674      8676
      8668      8671      8674      8677      8669      8668      8671      8672
      8669      8668      8671      8673      8669      8668      8671      8674
      8670      8668      8671      8672      8670      8668      8671      8673
      8670      8668      8671      8674      8672      8671      8674      8675
      8672      8671      8674      8676      8672      8671      8674      8677
      8673      8671      8674      8675      8673      8671      8674      8676
      8673      8671      8674      8677      1999      2003      2006      2007
      1999      2003      2006      2037      1999      2045      2042      2037
      1999      2045      2042      2043      1999      2045      2042      2044
      2000      1999      2001      2002      2000      1999      2003      2004
      2000      1999      2003      2005      2000      1999      2003      2006
      2000      1999      2045      2042      2000      1999      2045      2046
      2000      1999      2045      2047      2001      1999      2003      2004
      2001      1999      2003      2005      2001      1999      2003      2006
      2001      1999      2045      2042      2001      1999      2045      2046
      2001      1999      2045      2047      2002      2001      1999      2003
      2002      2001      1999      2045      2003      1999      2045      2042
      2003      1999      2045      2046      2003      1999      2045      2047
      2003      2006      2007      2008      2003      2006      2007      2009
      2003      2006      2037      2035      2003      2006      2037      2038
      2003      2006      2037      2042      2004      2003      1999      2045
      2004      2003      2006      2007      2004      2003      2006      2037
      2005      2003      1999      2045      2005      2003      2006      2007
      2005      2003      2006      2037      2006      2003      1999      2045
      2006      2007      2009      2010      2006      2007      2009      2011
      2006      2007      2009      2012      2006      2037      2035      2012
      2006      2037      2035      2032      2006      2037      2035      2036
      2006      2037      2038      2039      2006      2037      2038      2040
      2006      2037      2038      2041      2006      2037      2042      2043
      2006      2037      2042      2044      2006      2037      2042      2045
      2007      2006      2037      2035      2007      2006      2037      2038
      2007      2006      2037      2042      2007      2009      2012      2013
      2007      2009      2012      2014      2007      2009      2012      2035
      2008      2007      2006      2037      2008      2007      2009      2010
      2008      2007      2009      2011      2008      2007      2009      2012
      2009      2007      2006      2037      2009      2012      2014      2015
      2009      2012      2014      2016      2009      2012      2014      2024
      2009      2012      2035      2032      2009      2012      2035      2036
      2009      2012      2035      2037      2010      2009      2012      2013
      2010      2009      2012      2014      2010      2009      2012      2035
      2011      2009      2012      2013      2011      2009      2012      2014
      2011      2009      2012      2035      2012      2014      2016      2017
      2012      2014      2016      2018      2012      2014      2016      2019
      2012      2014      2024      2022      2012      2014      2024      2025
      2012      2014      2024      2029      2012      2035      2032      2029
      2012      2035      2032      2033      2012      2035      2032      2034
      2012      2035      2037      2038      2012      2035      2037      2042
      2013      2012      2014      2015      2013      2012      2014      2016
      2013      2012      2014      2024      2013      2012      2035      2032
      2013      2012      2035      2036      2013      2012      2035      2037
      2014      2012      2035      2032      2014      2012      2035      2036
      2014      2012      2035      2037      2014      2016      2019      2020
      2014      2016      2019      2021      2014      2016      2019      2022
      2014      2024      2022      2019      2014      2024      2022      2023
      2014      2024      2022      2048      2014      2024      2025      2026
      2014      2024      2025      2027      2014      2024      2025      2028
      2014      2024      2029      2030      2014      2024      2029      2031
      2014      2024      2029      2032      2015      2014      2012      2035
      2015      2014      2016      2017      2015      2014      2016      2018
      2015      2014      2016      2019      2015      2014      2024      2022
      2015      2014      2024      2025      2015      2014      2024      2029
      2016      2014      2012      2035      2016      2014      2024      2022
      2016      2014      2024      2025      2016      2014      2024      2029
      2016      2019      2022      2023      2016      2019      2022      2024
      2016      2019      2022      2048      2017      2016      2014      2024
      2017      2016      2019      2020      2017      2016      2019      2021
      2017      2016      2019      2022      2018      2016      2014      2024
      2018      2016      2019      2020      2018      2016      2019      2021
      2018      2016      2019      2022      2019      2016      2014      2024
      2019      2022      2024      2025      2019      2022      2024      2029
      2019      2022      2048      2049      2019      2022      2048      2050
      2019      2022      2048      2054      2020      2019      2022      2023
      2020      2019      2022      2024      2020      2019      2022      2048
      2021      2019      2022      2023      2021      2019      2022      2024
      2021      2019      2022      2048      2022      2024      2025      2026
      2022      2024      2025      2027      2022      2024      2025      2028
      2022      2024      2029      2030      2022      2024      2029      2031
      2022      2024      2029      2032      2022      2048      2050      2051
      2022      2048      2050      2052      2022      2048      2050      2053
      2022      2048      2054      2055      2022      2048      2054      2056
      2022      2048      2054      2057      2023      2022      2024      2025
      2023      2022      2024      2029      2023      2022      2048      2049
      2023      2022      2048      2050      2023      2022      2048      2054
      2024      2014      2012      2035      2024      2022      2048      2049
      2024      2022      2048      2050      2024      2022      2048      2054
      2024      2029      2032      2033      2024      2029      2032      2034
      2024      2029      2032      2035      2025      2024      2022      2048
      2025      2024      2029      2030      2025      2024      2029      2031
      2025      2024      2029      2032      2026      2025      2024      2029
      2027      2025      2024      2029      2028      2025      2024      2029
      2029      2024      2022      2048      2029      2032      2035      2036
      2029      2032      2035      2037      2030      2029      2032      2033
      2030      2029      2032      2034      2030      2029      2032      2035
      2031      2029      2032      2033      2031      2029      2032      2034
      2031      2029      2032      2035      2032      2035      2037      2038
      2032      2035      2037      2042      2033      2032      2035      2036
      2033      2032      2035      2037      2034      2032      2035      2036
      2034      2032      2035      2037      2035      2037      2038      2039
      2035      2037      2038      2040      2035      2037      2038      2041
      2035      2037      2042      2043      2035      2037      2042      2044
      2035      2037      2042      2045      2036      2035      2037      2038
      2036      2035      2037      2042      2037      2042      2045      2046
      2037      2042      2045      2047      2038      2037      2042      2043
      2038      2037      2042      2044      2038      2037      2042      2045
      2039      2038      2037      2042      2040      2038      2037      2042
      2041      2038      2037      2042      2043      2042      2045      2046
      2043      2042      2045      2047      2044      2042      2045      2046
      2044      2042      2045      2047      2048      2054      2057      2058
      2048      2054      2057      2059      2048      2054      2057      2060
      2049      2048      2050      2051      2049      2048      2050      2052
      2049      2048      2050      2053      2049      2048      2054      2055
      2049      2048      2054      2056      2049      2048      2054      2057
      2050      2048      2054      2055      2050      2048      2054      2056
      2050      2048      2054      2057      2051      2050      2048      2054
      2052      2050      2048      2054      2053      2050      2048      2054
      2054      2057      2060      2061      2054      2057      2060      2062
      2054      2057      2060      2063      2055      2054      2057      2058
      2055      2054      2057      2059      2055      2054      2057      2060
      2056      2054      2057      2058      2056      2054      2057      2059
      2056      2054      2057      2060      2057      2060      2063      2064
      2057      2060      2063      2065      2057      2060      2063      2069
      2058      2057      2060      2061      2058      2057      2060      2062
      2058      2057      2060      2063      2059      2057      2060      2061
      2059      2057      2060      2062      2059      2057      2060      2063
      2060      2063      2065      2066      2060      2063      2065      2067
      2060      2063      2065      2068      2060      2063      2069      2070
      2060      2063      2069      2071      2060      2063      2069      2072
      2061      2060      2063      2064      2061      2060      2063      2065
      2061      2060      2063      2069      2062      2060      2063      2064
      2062      2060      2063      2065      2062      2060      2063      2069
      2064      2063      2065      2066      2064      2063      2065      2067
      2064      2063      2065      2068      2064      2063      2069      2070
      2064      2063      2069      2071      2064      2063      2069      2072
      2065      2063      2069      2070      2065      2063      2069      2071
      2065      2063      2069      2072      2066      2065      2063      2069
      2067      2065      2063      2069      2068      2065      2063      2069
     17608     17612     17615     17616     17608     17612     17615     17617
     17608     17612     17615     17621     17609     17608     17612     17613
     17609     17608     17612     17614     17609     17608     17612     17615
     17610     17608     17612     17613     17610     17608     17612     17614
     17610     17608     17612     17615     17611     17608     17612     17613
     17611     17608     17612     17614     17611     17608     17612     17615
     17612     17615     17621     17618     17613     17612     17615     17616
     17613     17612     17615     17617     17613     17612     17615     17621
     17614     17612     17615     17616     17614     17612     17615     17617
     17614     17612     17615     17621     17615     17621     17618     17619
     17615     17621     17618     17620     17615     17621     17618     17622
     17616     17615     17621     17618     17617     17615     17621     17618
     17618     17622     17623     17624     17618     17622     17623     17625
     17618     17622     17623     17626     17619     17618     17622     17623
     17620     17618     17622     17623     17621     17618     17622     17623
     17622     17623     17626     17627     17622     17623     17626     17628
     17622     17623     17626     17634     17623     17626     17628     17629
     17623     17626     17634     17635     17623     17626     17634     17636
     17623     17626     17634     17637     17624     17623     17626     17627
     17624     17623     17626     17628     17624     17623     17626     17634
     17625     17623     17626     17627     17625     17623     17626     17628
     17625     17623     17626     17634     17626     17628     17629     17630
     17626     17628     17629     17631     17626     17634     17637     17638
     17627     17626     17628     17629     17627     17626     17634     17635
     17627     17626     17634     17636     17627     17626     17634     17637
     17628     17626     17634     17635     17628     17626     17634     17636
     17628     17626     17634     17637     17628     17629     17631     17632
     17628     17629     17631     17633     17628     17629     17631     17643
     17629     17628     17626     17634     17629     17631     17643     17644
     17629     17631     17643     17645     17629     17631     17643     17646
     17630     17629     17631     17632     17630     17629     17631     17633
     17630     17629     17631     17643     17631     17643     17646     17647
     17631     17643     17646     17648     17631     17643     17646     17649
     17632     17631     17643     17644     17632     17631     17643     17645
     17632     17631     17643     17646     17633     17631     17643     17644
     17633     17631     17643     17645     17633     17631     17643     17646
     17634     17637     17638     17639     17634     17637     17638     17640
     17635     17634     17637     17638     17636     17634     17637     17638
     17637     17638     17640     17641     17637     17638     17640     17642
     17637     17638     17640     17690     17638     17640     17690     17691
     17638     17640     17690     17692     17638     17640     17690     17693
     17639     17638     17640     17641     17639     17638     17640     17642
     17639     17638     17640     17690     17640     17690     17693     17694
     17640     17690     17693     17695     17640     17690     17693     17696
     17641     17640     17690     17691     17641     17640     17690     17692
     17641     17640     17690     17693     17642     17640     17690     17691
     17642     17640     17690     17692     17642     17640     17690     17693
     17643     17646     17649     17650     17643     17646     17649     17651
     17644     17643     17646     17647     17644     17643     17646     17648
     17644     17643     17646     17649     17645     17643     17646     17647
     17645     17643     17646     17648     17645     17643     17646     17649
     17646     17649     17651     17652     17646     17649     17651     17653
     17647     17646     17649     17650     17647     17646     17649     17651
     17648     17646     17649     17650     17648     17646     17649     17651
     17649     17651     17653     17654     17649     17651     17653     17655
     17649     17651     17653     17656     17650     17649     17651     17652
     17650     17649     17651     17653     17651     17653     17656     17657
     17651     17653     17656     17658     17652     17651     17653     17654
     17652     17651     17653     17655     17652     17651     17653     17656
     17653     17656     17658     17659     17653     17656     17658     17660
     17654     17653     17656     17657     17654     17653     17656     17658
     17655     17653     17656     17657     17655     17653     17656     17658
     17656     17658     17660     17661     17656     17658     17660     17662
     17656     17658     17660     17663     17657     17656     17658     17659
     17657     17656     17658     17660     17658     17660     17663     17664
     17658     17660     17663     17665     17659     17658     17660     17661
     17659     17658     17660     17662     17659     17658     17660     17663
     17660     17663     17665     17666     17660     17663     17665     17667
     17661     17660     17663     17664     17661     17660     17663     17665
     17662     17660     17663     17664     17662     17660     17663     17665
     17663     17665     17667     17668     17663     17665     17667     17669
     17663     17665     17667     17670     17664     17663     17665     17666
     17664     17663     17665     17667     17665     17667     17670     17671
     17665     17667     17670     17672     17666     17665     17667     17668
     17666     17665     17667     17669     17666     17665     17667     17670
     17667     17670     17672     17673     17667     17670     17672     17674
     17668     17667     17670     17671     17668     17667     17670     17672
     17669     17667     17670     17671     17669     17667     17670     17672
     17670     17672     17674     17675     17670     17672     17674     17676
     17670     17672     17674     17677     17671     17670     17672     17673
     17671     17670     17672     17674     17672     17674     17677     17678
     17672     17674     17677     17679     17672     17674     17677     17680
     17673     17672     17674     17675     17673     17672     17674     17676
     17673     17672     17674     17677     17674     17677     17680     17681
     17674     17677     17680     17682     17674     17677     17680     17683
     17675     17674     17677     17678     17675     17674     17677     17679
     17675     17674     17677     17680     17676     17674     17677     17678
     17676     17674     17677     17679     17676     17674     17677     17680
     17677     17680     17683     17684     17677     17680     17683     17685
     17677     17680     17683     17686     17678     17677     17680     17681
     17678     17677     17680     17682     17678     17677     17680     17683
     17679     17677     17680     17681     17679     17677     17680     17682
     17679     17677     17680     17683     17680     17683     17686     17687
     17680     17683     17686     17688     17680     17683     17686     17689
     17681     17680     17683     17684     17681     17680     17683     17685
     17681     17680     17683     17686     17682     17680     17683     17684
     17682     17680     17683     17685     17682     17680     17683     17686
     17684     17683     17686     17687     17684     17683     17686     17688
     17684     17683     17686     17689     17685     17683     17686     17687
     17685     17683     17686     17688     17685     17683     17686     17689
     17690     17693     17696     17697     17690     17693     17696     17698
     17690     17693     17696     17699     17691     17690     17693     17694
     17691     17690     17693     17695     17691     17690     17693     17696
     17692     17690     17693     17694     17692     17690     17693     17695
     17692     17690     17693     17696     17693     17696     17699     17700
     17693     17696     17699     17701     17693     17696     17699     17702
     17694     17693     17696     17697     17694     17693     17696     17698
     17694     17693     17696     17699     17695     17693     17696     17697
     17695     17693     17696     17698     17695     17693     17696     17699
     17696     17699     17702     17703     17696     17699     17702     17704
     17696     17699     17702     17705     17697     17696     17699     17700
     17697     17696     17699     17701     17697     17696     17699     17702
     17698     17696     17699     17700     17698     17696     17699     17701
     17698     17696     17699     17702     17699     17702     17705     17706
     17699     17702     17705     17707     17699     17702     17705     17708
     17700     17699     17702     17703     17700     17699     17702     17704
     17700     17699     17702     17705     17701     17699     17702     17703
     17701     17699     17702     17704     17701     17699     17702     17705
     17702     17705     17708     17709     17702     17705     17708     17710
     17702     17705     17708     17711     17703     17702     17705     17706
     17703     17702     17705     17707     17703     17702     17705     17708
     17704     17702     17705     17706     17704     17702     17705     17707
     17704     17702     17705     17708     17705     17708     17711     17712
     17705     17708     17711     17713     17705     17708     17711     17714
     17706     17705     17708     17709     17706     17705     17708     17710
     17706     17705     17708     17711     17707     17705     17708     17709
     17707     17705     17708     17710     17707     17705     17708     17711
     17708     17711     17714     17715     17708     17711     17714     17716
     17708     17711     17714     17717     17709     17708     17711     17712
     17709     17708     17711     17713     17709     17708     17711     17714
     17710     17708     17711     17712     17710     17708     17711     17713
     17710     17708     17711     17714     17711     17714     17717     17718
     17711     17714     17717     17719     17711     17714     17717     17720
     17712     17711     17714     17715     17712     17711     17714     17716
     17712     17711     17714     17717     17713     17711     17714     17715
     17713     17711     17714     17716     17713     17711     17714     17717
     17714     17717     17720     17721     17714     17717     17720     17722
     17714     17717     17720     17723     17715     17714     17717     17718
     17715     17714     17717     17719     17715     17714     17717     17720
     17716     17714     17717     17718     17716     17714     17717     17719
     17716     17714     17717     17720     17717     17720     17723     17724
     17717     17720     17723     17725     17717     17720     17723     17726
     17718     17717     17720     17721     17718     17717     17720     17722
     17718     17717     17720     17723     17719     17717     17720     17721
     17719     17717     17720     17722     17719     17717     17720     17723
     17720     17723     17726     17727     17720     17723     17726     17728
     17720     17723     17726     17729     17721     17720     17723     17724
     17721     17720     17723     17725     17721     17720     17723     17726
     17722     17720     17723     17724     17722     17720     17723     17725
     17722     17720     17723     17726     17723     17726     17729     17730
     17723     17726     17729     17731     17723     17726     17729     17732
     17724     17723     17726     17727     17724     17723     17726     17728
     17724     17723     17726     17729     17725     17723     17726     17727
     17725     17723     17726     17728     17725     17723     17726     17729
     17726     17729     17732     17733     17726     17729     17732     17734
     17726     17729     17732     17735     17727     17726     17729     17730
     17727     17726     17729     17731     17727     17726     17729     17732
     17728     17726     17729     17730     17728     17726     17729     17731
     17728     17726     17729     17732     17729     17732     17735     17736
     17729     17732     17735     17737     17729     17732     17735     17738
     17730     17729     17732     17733     17730     17729     17732     17734
     17730     17729     17732     17735     17731     17729     17732     17733
     17731     17729     17732     17734     17731     17729     17732     17735
     17733     17732     17735     17736     17733     17732     17735     17737
     17733     17732     17735     17738     17734     17732     17735     17736
     17734     17732     17735     17737     17734     17732     17735     17738
      8678      8682      8684      8685      8678      8682      8684      8686
      8678      8682      8687      8688      8678      8682      8687      8689
      8678      8682      8687      8693      8679      8678      8682      8683
      8679      8678      8682      8684      8679      8678      8682      8687
      8680      8678      8682      8683      8680      8678      8682      8684
      8680      8678      8682      8687      8681      8678      8682      8683
      8681      8678      8682      8684      8681      8678      8682      8687
      8682      8687      8693      8690      8683      8682      8684      8685
      8683      8682      8684      8686      8683      8682      8687      8688
      8683      8682      8687      8689      8683      8682      8687      8693
      8684      8682      8687      8688      8684      8682      8687      8689
      8684      8682      8687      8693      8685      8684      8682      8687
      8686      8684      8682      8687      8687      8693      8690      8691
      8687      8693      8690      8692      8687      8693      8690      8694
      8688      8687      8693      8690      8689      8687      8693      8690
      8690      8694      8695      8696      8690      8694      8695      8697
      8690      8694      8695      8698      8691      8690      8694      8695
      8692      8690      8694      8695      8693      8690      8694      8695
      8694      8695      8698      8699      8694      8695      8698      8700
      8694      8695      8698      8706      8695      8698      8700      8701
      8695      8698      8706      8707      8695      8698      8706      8708
      8695      8698      8706      8709      8696      8695      8698      8699
      8696      8695      8698      8700      8696      8695      8698      8706
      8697      8695      8698      8699      8697      8695      8698      8700
      8697      8695      8698      8706      8698      8700      8701      8702
      8698      8700      8701      8703      8698      8706      8709      8710
      8699      8698      8700      8701      8699      8698      8706      8707
      8699      8698      8706      8708      8699      8698      8706      8709
      8700      8698      8706      8707      8700      8698      8706      8708
      8700      8698      8706      8709      8700      8701      8703      8704
      8700      8701      8703      8705      8700      8701      8703      8715
      8701      8700      8698      8706      8701      8703      8715      8716
      8701      8703      8715      8717      8701      8703      8715      8718
      8702      8701      8703      8704      8702      8701      8703      8705
      8702      8701      8703      8715      8703      8715      8718      8719
      8703      8715      8718      8720      8703      8715      8718      8721
      8704      8703      8715      8716      8704      8703      8715      8717
      8704      8703      8715      8718      8705      8703      8715      8716
      8705      8703      8715      8717      8705      8703      8715      8718
      8706      8709      8710      8711      8706      8709      8710      8712
      8707      8706      8709      8710      8708      8706      8709      8710
      8709      8710      8712      8713      8709      8710      8712      8714
      8709      8710      8712      8762      8710      8712      8762      8763
      8710      8712      8762      8764      8710      8712      8762      8765
      8711      8710      8712      8713      8711      8710      8712      8714
      8711      8710      8712      8762      8712      8762      8765      8766
      8712      8762      8765      8767      8712      8762      8765      8768
      8713      8712      8762      8763      8713      8712      8762      8764
      8713      8712      8762      8765      8714      8712      8762      8763
      8714      8712      8762      8764      8714      8712      8762      8765
      8715      8718      8721      8722      8715      8718      8721      8723
      8716      8715      8718      8719      8716      8715      8718      8720
      8716      8715      8718      8721      8717      8715      8718      8719
      8717      8715      8718      8720      8717      8715      8718      8721
      8718      8721      8723      8724      8718      8721      8723      8725
      8719      8718      8721      8722      8719      8718      8721      8723
      8720      8718      8721      8722      8720      8718      8721      8723
      8721      8723      8725      8726      8721      8723      8725      8727
      8721      8723      8725      8728      8722      8721      8723      8724
      8722      8721      8723      8725      8723      8725      8728      8729
      8723      8725      8728      8730      8724      8723      8725      8726
      8724      8723      8725      8727      8724      8723      8725      8728
      8725      8728      8730      8731      8725      8728      8730      8732
      8726      8725      8728      8729      8726      8725      8728      8730
      8727      8725      8728      8729      8727      8725      8728      8730
      8728      8730      8732      8733      8728      8730      8732      8734
      8728      8730      8732      8735      8729      8728      8730      8731
      8729      8728      8730      8732      8730      8732      8735      8736
      8730      8732      8735      8737      8731      8730      8732      8733
      8731      8730      8732      8734      8731      8730      8732      8735
      8732      8735      8737      8738      8732      8735      8737      8739
      8733      8732      8735      8736      8733      8732      8735      8737
      8734      8732      8735      8736      8734      8732      8735      8737
      8735      8737      8739      8740      8735      8737      8739      8741
      8735      8737      8739      8742      8736      8735      8737      8738
      8736      8735      8737      8739      8737      8739      8742      8743
      8737      8739      8742      8744      8738      8737      8739      8740
      8738      8737      8739      8741      8738      8737      8739      8742
      8739      8742      8744      8745      8739      8742      8744      8746
      8740      8739      8742      8743      8740      8739      8742      8744
      8741      8739      8742      8743      8741      8739      8742      8744
      8742      8744      8746      8747      8742      8744      8746      8748
      8742      8744      8746      8749      8743      8742      8744      8745
      8743      8742      8744      8746      8744      8746      8749      8750
      8744      8746      8749      8751      8744      8746      8749      8752
      8745      8744      8746      8747      8745      8744      8746      8748
      8745      8744      8746      8749      8746      8749      8752      8753
      8746      8749      8752      8754      8746      8749      8752      8755
      8747      8746      8749      8750      8747      8746      8749      8751
      8747      8746      8749      8752      8748      8746      8749      8750
      8748      8746      8749      8751      8748      8746      8749      8752
      8749      8752      8755      8756      8749      8752      8755      8757
      8749      8752      8755      8758      8750      8749      8752      8753
      8750      8749      8752      8754      8750      8749      8752      8755
      8751      8749      8752      8753      8751      8749      8752      8754
      8751      8749      8752      8755      8752      8755      8758      8759
      8752      8755      8758      8760      8752      8755      8758      8761
      8753      8752      8755      8756      8753      8752      8755      8757
      8753      8752      8755      8758      8754      8752      8755      8756
      8754      8752      8755      8757      8754      8752      8755      8758
      8756      8755      8758      8759      8756      8755      8758      8760
      8756      8755      8758      8761      8757      8755      8758      8759
      8757      8755      8758      8760      8757      8755      8758      8761
      8762      8765      8768      8769      8762      8765      8768      8770
      8762      8765      8768      8771      8763      8762      8765      8766
      8763      8762      8765      8767      8763      8762      8765      8768
      8764      8762      8765      8766      8764      8762      8765      8767
      8764      8762      8765      8768      8765      8768      8771      8772
      8765      8768      8771      8773      8765      8768      8771      8774
      8766      8765      8768      8769      8766      8765      8768      8770
      8766      8765      8768      8771      8767      8765      8768      8769
      8767      8765      8768      8770      8767      8765      8768      8771
      8768      8771      8774      8775      8768      8771      8774      8776
      8768      8771      8774      8777      8769      8768      8771      8772
      8769      8768      8771      8773      8769      8768      8771      8774
      8770      8768      8771      8772      8770      8768      8771      8773
      8770      8768      8771      8774      8771      8774      8777      8778
      8771      8774      8777      8779      8771      8774      8777      8780
      8772      8771      8774      8775      8772      8771      8774      8776
      8772      8771      8774      8777      8773      8771      8774      8775
      8773      8771      8774      8776      8773      8771      8774      8777
      8774      8777      8780      8781      8774      8777      8780      8782
      8774      8777      8780      8783      8775      8774      8777      8778
      8775      8774      8777      8779      8775      8774      8777      8780
      8776      8774      8777      8778      8776      8774      8777      8779
      8776      8774      8777      8780      8777      8780      8783      8784
      8777      8780      8783      8785      8777      8780      8783      8786
      8778      8777      8780      8781      8778      8777      8780      8782
      8778      8777      8780      8783      8779      8777      8780      8781
      8779      8777      8780      8782      8779      8777      8780      8783
      8780      8783      8786      8787      8780      8783      8786      8788
      8780      8783      8786      8789      8781      8780      8783      8784
      8781      8780      8783      8785      8781      8780      8783      8786
      8782      8780      8783      8784      8782      8780      8783      8785
      8782      8780      8783      8786      8783      8786      8789      8790
      8783      8786      8789      8791      8783      8786      8789      8792
      8784      8783      8786      8787      8784      8783      8786      8788
      8784      8783      8786      8789      8785      8783      8786      8787
      8785      8783      8786      8788      8785      8783      8786      8789
      8786      8789      8792      8793      8786      8789      8792      8794
      8786      8789      8792      8795      8787      8786      8789      8790
      8787      8786      8789      8791      8787      8786      8789      8792
      8788      8786      8789      8790      8788      8786      8789      8791
      8788      8786      8789      8792      8789      8792      8795      8796
      8789      8792      8795      8797      8789      8792      8795      8798
      8790      8789      8792      8793      8790      8789      8792      8794
      8790      8789      8792      8795      8791      8789      8792      8793
      8791      8789      8792      8794      8791      8789      8792      8795
      8792      8795      8798      8799      8792      8795      8798      8800
      8792      8795      8798      8801      8793      8792      8795      8796
      8793      8792      8795      8797      8793      8792      8795      8798
      8794      8792      8795      8796      8794      8792      8795      8797
      8794      8792      8795      8798      8795      8798      8801      8802
      8795      8798      8801      8803      8795      8798      8801      8804
      8796      8795      8798      8799      8796      8795      8798      8800
      8796      8795      8798      8801      8797      8795      8798      8799
      8797      8795      8798      8800      8797      8795      8798      8801
      8798      8801      8804      8805      8798      8801      8804      8806
      8798      8801      8804      8807      8799      8798      8801      8802
      8799      8798      8801      8803      8799      8798      8801      8804
      8800      8798      8801      8802      8800      8798      8801      8803
      8800      8798      8801      8804      8801      8804      8807      8808
      8801      8804      8807      8809      8801      8804      8807      8810
      8802      8801      8804      8805      8802      8801      8804      8806
      8802      8801      8804      8807      8803      8801      8804      8805
      8803      8801      8804      8806      8803      8801      8804      8807
      8805      8804      8807      8808      8805      8804      8807      8809
      8805      8804      8807      8810      8806      8804      8807      8808
      8806      8804      8807      8809      8806      8804      8807      8810
     12892     12905     12908     12909     12892     12905     12908     12910
     12892     12905     12908     12915     12893     12892     12897     12898
     12893     12892     12897     12899     12893     12892     12897     12900
     12893     12892     12901     12902     12893     12892     12901     12903
     12893     12892     12901     12904     12893     12892     12905     12906
     12893     12892     12905     12907     12893     12892     12905     12908
     12894     12893     12892     12897     12894     12893     12892     12901
     12894     12893     12892     12905     12895     12893     12892     12897
     12895     12893     12892     12901     12895     12893     12892     12905
     12896     12893     12892     12897     12896     12893     12892     12901
     12896     12893     12892     12905     12897     12892     12901     12902
     12897     12892     12901     12903     12897     12892     12901     12904
     12897     12892     12905     12906     12897     12892     12905     12907
     12897     12892     12905     12908     12898     12897     12892     12901
     12898     12897     12892     12905     12899     12897     12892     12901
     12899     12897     12892     12905     12900     12897     12892     12901
     12900     12897     12892     12905     12901     12892     12905     12906
     12901     12892     12905     12907     12901     12892     12905     12908
     12902     12901     12892     12905     12903     12901     12892     12905
     12904     12901     12892     12905     12905     12908     12915     12911
     12906     12905     12908     12909     12906     12905     12908     12910
     12906     12905     12908     12915     12907     12905     12908     12909
     12907     12905     12908     12910     12907     12905     12908     12915
     12908     12915     12911     12912     12908     12915     12911     12913
     12908     12915     12911     12914     12909     12908     12915     12911
     12910     12908     12915     12911     12911     12914     12916     12917
     12911     12914     12916     12918     12911     12914     12916     12921
     12912     12911     12914     12916     12913     12911     12914     12916
     12914     12916     12921     12919     12914     12916     12921     12922
     12914     12916     12921     12923     12915     12911     12914     12916
     12916     12921     12919     12920     12916     12921     12919     12971
     12916     12921     12923     12924     12916     12921     12923     12925
     12916     12921     12923     12927     12917     12916     12921     12919
     12917     12916     12921     12922     12917     12916     12921     12923
     12918     12916     12921     12919     12918     12916     12921     12922
     12918     12916     12921     12923     12919     12921     12923     12924
     12919     12921     12923     12925     12919     12921     12923     12927
     12919     12971     12973     12974     12919     12971     12973     12975
     12919     12971     12973     12976     12920     12919     12921     12922
     12920     12919     12921     12923     12920     12919     12971     12972
     12920     12919     12971     12973     12921     12919     12971     12972
     12921     12919     12971     12973     12921     12923     12925     12926
     12921     12923     12927     12928     12921     12923     12927     12929
     12922     12921     12919     12971     12922     12921     12923     12924
     12922     12921     12923     12925     12922     12921     12923     12927
     12923     12921     12919     12971     12923     12927     12929     12930
     12923     12927     12929     12931     12924     12923     12925     12926
     12924     12923     12927     12928     12924     12923     12927     12929
     12925     12923     12927     12928     12925     12923     12927     12929
     12926     12925     12923     12927     12927     12929     12931     12932
     12927     12929     12931     12933     12927     12929     12931     12934
     12928     12927     12929     12930     12928     12927     12929     12931
     12929     12931     12934     12935     12929     12931     12934     12936
     12929     12931     12934     12937     12930     12929     12931     12932
     12930     12929     12931     12933     12930     12929     12931     12934
     12931     12934     12937     12938     12931     12934     12937     12939
     12931     12934     12937     12940     12932     12931     12934     12935
     12932     12931     12934     12936     12932     12931     12934     12937
     12933     12931     12934     12935     12933     12931     12934     12936
     12933     12931     12934     12937     12934     12937     12940     12941
     12934     12937     12940     12942     12934     12937     12940     12943
     12935     12934     12937     12938     12935     12934     12937     12939
     12935     12934     12937     12940     12936     12934     12937     12938
     12936     12934     12937     12939     12936     12934     12937     12940
     12937     12940     12943     12944     12937     12940     12943     12945
     12937     12940     12943     12946     12938     12937     12940     12941
     12938     12937     12940     12942     12938     12937     12940     12943
     12939     12937     12940     12941     12939     12937     12940     12942
     12939     12937     12940     12943     12940     12943     12946     12947
     12940     12943     12946     12948     12940     12943     12946     12949
     12941     12940     12943     12944     12941     12940     12943     12945
     12941     12940     12943     12946     12942     12940     12943     12944
     12942     12940     12943     12945     12942     12940     12943     12946
     12943     12946     12949     12950     12943     12946     12949     12951
     12943     12946     12949     12952     12944     12943     12946     12947
     12944     12943     12946     12948     12944     12943     12946     12949
     12945     12943     12946     12947     12945     12943     12946     12948
     12945     12943     12946     12949     12946     12949     12952     12953
     12946     12949     12952     12954     12946     12949     12952     12955
     12947     12946     12949     12950     12947     12946     12949     12951
     12947     12946     12949     12952     12948     12946     12949     12950
     12948     12946     12949     12951     12948     12946     12949     12952
     12949     12952     12955     12956     12949     12952     12955     12957
     12949     12952     12955     12958     12950     12949     12952     12953
     12950     12949     12952     12954     12950     12949     12952     12955
     12951     12949     12952     12953     12951     12949     12952     12954
     12951     12949     12952     12955     12952     12955     12958     12959
     12952     12955     12958     12960     12952     12955     12958     12961
     12953     12952     12955     12956     12953     12952     12955     12957
     12953     12952     12955     12958     12954     12952     12955     12956
     12954     12952     12955     12957     12954     12952     12955     12958
     12955     12958     12961     12962     12955     12958     12961     12963
     12955     12958     12961     12964     12956     12955     12958     12959
     12956     12955     12958     12960     12956     12955     12958     12961
     12957     12955     12958     12959     12957     12955     12958     12960
     12957     12955     12958     12961     12958     12961     12964     12965
     12958     12961     12964     12966     12958     12961     12964     12967
     12959     12958     12961     12962     12959     12958     12961     12963
     12959     12958     12961     12964     12960     12958     12961     12962
     12960     12958     12961     12963     12960     12958     12961     12964
     12961     12964     12967     12968     12961     12964     12967     12969
     12961     12964     12967     12970     12962     12961     12964     12965
     12962     12961     12964     12966     12962     12961     12964     12967
     12963     12961     12964     12965     12963     12961     12964     12966
     12963     12961     12964     12967     12965     12964     12967     12968
     12965     12964     12967     12969     12965     12964     12967     12970
     12966     12964     12967     12968     12966     12964     12967     12969
     12966     12964     12967     12970     12971     12973     12976     12977
     12971     12973     12976     12978     12971     12973     12976     12979
     12972     12971     12973     12974     12972     12971     12973     12975
     12972     12971     12973     12976     12973     12976     12979     12980
     12973     12976     12979     12981     12973     12976     12979     12982
     12974     12973     12976     12977     12974     12973     12976     12978
     12974     12973     12976     12979     12975     12973     12976     12977
     12975     12973     12976     12978     12975     12973     12976     12979
     12976     12979     12982     12983     12976     12979     12982     12984
     12976     12979     12982     12985     12977     12976     12979     12980
     12977     12976     12979     12981     12977     12976     12979     12982
     12978     12976     12979     12980     12978     12976     12979     12981
     12978     12976     12979     12982     12979     12982     12985     12986
     12979     12982     12985     12987     12979     12982     12985     12988
     12980     12979     12982     12983     12980     12979     12982     12984
     12980     12979     12982     12985     12981     12979     12982     12983
     12981     12979     12982     12984     12981     12979     12982     12985
     12982     12985     12988     12989     12982     12985     12988     12990
     12982     12985     12988     12991     12983     12982     12985     12986
     12983     12982     12985     12987     12983     12982     12985     12988
     12984     12982     12985     12986     12984     12982     12985     12987
     12984     12982     12985     12988     12985     12988     12991     12992
     12985     12988     12991     12993     12985     12988     12991     12994
     12986     12985     12988     12989     12986     12985     12988     12990
     12986     12985     12988     12991     12987     12985     12988     12989
     12987     12985     12988     12990     12987     12985     12988     12991
     12988     12991     12994     12995     12988     12991     12994     12996
     12989     12988     12991     12992     12989     12988     12991     12993
     12989     12988     12991     12994     12990     12988     12991     12992
     12990     12988     12991     12993     12990     12988     12991     12994
     12991     12994     12996     12997     12991     12994     12996     12998
     12992     12991     12994     12995     12992     12991     12994     12996
     12993     12991     12994     12995     12993     12991     12994     12996
     12994     12996     12998     12999     12994     12996     12998     13000
     12994     12996     12998     13001     12995     12994     12996     12997
     12995     12994     12996     12998     12996     12998     13001     13002
     12996     12998     13001     13003     12996     12998     13001     13004
     12997     12996     12998     12999     12997     12996     12998     13000
     12997     12996     12998     13001     12998     13001     13004     13005
     12998     13001     13004     13006     12998     13001     13004     13007
     12999     12998     13001     13002     12999     12998     13001     13003
     12999     12998     13001     13004     13000     12998     13001     13002
     13000     12998     13001     13003     13000     12998     13001     13004
     13001     13004     13007     13008     13001     13004     13007     13009
     13001     13004     13007     13010     13002     13001     13004     13005
     13002     13001     13004     13006     13002     13001     13004     13007
     13003     13001     13004     13005     13003     13001     13004     13006
     13003     13001     13004     13007     13004     13007     13010     13011
     13004     13007     13010     13012     13004     13007     13010     13013
     13005     13004     13007     13008     13005     13004     13007     13009
     13005     13004     13007     13010     13006     13004     13007     13008
     13006     13004     13007     13009     13006     13004     13007     13010
     13007     13010     13013     13014     13007     13010     13013     13015
     13007     13010     13013     13016     13008     13007     13010     13011
     13008     13007     13010     13012     13008     13007     13010     13013
     13009     13007     13010     13011     13009     13007     13010     13012
     13009     13007     13010     13013     13010     13013     13016     13017
     13010     13013     13016     13018     13010     13013     13016     13019
     13011     13010     13013     13014     13011     13010     13013     13015
     13011     13010     13013     13016     13012     13010     13013     13014
     13012     13010     13013     13015     13012     13010     13013     13016
     13013     13016     13019     13020     13013     13016     13019     13021
     13013     13016     13019     13022     13014     13013     13016     13017
     13014     13013     13016     13018     13014     13013     13016     13019
     13015     13013     13016     13017     13015     13013     13016     13018
     13015     13013     13016     13019     13017     13016     13019     13020
     13017     13016     13019     13021     13017     13016     13019     13022
     13018     13016     13019     13020     13018     13016     13019     13021
     13018     13016     13019     13022      6515      6528      6531      6532
      6515      6528      6531      6533      6515      6528      6531      6537
      6516      6515      6520      6521      6516      6515      6520      6522
      6516      6515      6520      6523      6516      6515      6524      6525
      6516      6515      6524      6526      6516      6515      6524      6527
      6516      6515      6528      6529      6516      6515      6528      6530
      6516      6515      6528      6531      6517      6516      6515      6520
      6517      6516      6515      6524      6517      6516      6515      6528
      6518      6516      6515      6520      6518      6516      6515      6524
      6518      6516      6515      6528      6519      6516      6515      6520
      6519      6516      6515      6524      6519      6516      6515      6528
      6520      6515      6524      6525      6520      6515      6524      6526
      6520      6515      6524      6527      6520      6515      6528      6529
      6520      6515      6528      6530      6520      6515      6528      6531
      6521      6520      6515      6524      6521      6520      6515      6528
      6522      6520      6515      6524      6522      6520      6515      6528
      6523      6520      6515      6524      6523      6520      6515      6528
      6524      6515      6528      6529      6524      6515      6528      6530
      6524      6515      6528      6531      6525      6524      6515      6528
      6526      6524      6515      6528      6527      6524      6515      6528
      6528      6531      6537      6534      6529      6528      6531      6532
      6529      6528      6531      6533      6529      6528      6531      6537
      6530      6528      6531      6532      6530      6528      6531      6533
      6530      6528      6531      6537      6531      6537      6534      6535
      6531      6537      6534      6536      6531      6537      6534      6538
      6532      6531      6537      6534      6533      6531      6537      6534
      6534      6538      6539      6540      6534      6538      6539      6541
      6534      6538      6539      6542      6535      6534      6538      6539
      6536      6534      6538      6539      6537      6534      6538      6539
      6538      6539      6542      6543      6538      6539      6542      6544
      6538      6539      6542      6550      6539      6542      6544      6545
      6539      6542      6550      6551      6539      6542      6550      6552
      6539      6542      6550      6553      6540      6539      6542      6543
      6540      6539      6542      6544      6540      6539      6542      6550
      6541      6539      6542      6543      6541      6539      6542      6544
      6541      6539      6542      6550      6542      6544      6545      6546
      6542      6544      6545      6547      6542      6550      6553      6554
      6543      6542      6544      6545      6543      6542      6550      6551
      6543      6542      6550      6552      6543      6542      6550      6553
      6544      6542      6550      6551      6544      6542      6550      6552
      6544      6542      6550      6553      6544      6545      6547      6548
      6544      6545      6547      6549      6544      6545      6547      6559
      6545      6544      6542      6550      6545      6547      6559      6560
      6545      6547      6559      6561      6545      6547      6559      6562
      6546      6545      6547      6548      6546      6545      6547      6549
      6546      6545      6547      6559      6547      6559      6562      6563
      6547      6559      6562      6564      6547      6559      6562      6565
      6548      6547      6559      6560      6548      6547      6559      6561
      6548      6547      6559      6562      6549      6547      6559      6560
      6549      6547      6559      6561      6549      6547      6559      6562
      6550      6553      6554      6555      6550      6553      6554      6556
      6551      6550      6553      6554      6552      6550      6553      6554
      6553      6554      6556      6557      6553      6554      6556      6558
      6553      6554      6556      6604      6554      6556      6604      6605
      6554      6556      6604      6606      6554      6556      6604      6607
      6555      6554      6556      6557      6555      6554      6556      6558
      6555      6554      6556      6604      6556      6604      6607      6608
      6556      6604      6607      6609      6556      6604      6607      6610
      6557      6556      6604      6605      6557      6556      6604      6606
      6557      6556      6604      6607      6558      6556      6604      6605
      6558      6556      6604      6606      6558      6556      6604      6607
      6559      6562      6565      6566      6559      6562      6565      6567
      6559      6562      6565      6568      6560      6559      6562      6563
      6560      6559      6562      6564      6560      6559      6562      6565
      6561      6559      6562      6563      6561      6559      6562      6564
      6561      6559      6562      6565      6562      6565      6568      6569
      6562      6565      6568      6570      6562      6565      6568      6571
      6563      6562      6565      6566      6563      6562      6565      6567
      6563      6562      6565      6568      6564      6562      6565      6566
      6564      6562      6565      6567      6564      6562      6565      6568
      6565      6568      6571      6572      6565      6568      6571      6573
      6565      6568      6571      6574      6566      6565      6568      6569
      6566      6565      6568      6570      6566      6565      6568      6571
      6567      6565      6568      6569      6567      6565      6568      6570
      6567      6565      6568      6571      6568      6571      6574      6575
      6568      6571      6574      6576      6568      6571      6574      6577
      6569      6568      6571      6572      6569      6568      6571      6573
      6569      6568      6571      6574      6570      6568      6571      6572
      6570      6568      6571      6573      6570      6568      6571      6574
      6571      6574      6577      6578      6571      6574      6577      6579
      6572      6571      6574      6575      6572      6571      6574      6576
      6572      6571      6574      6577      6573      6571      6574      6575
      6573      6571      6574      6576      6573      6571      6574      6577
      6574      6577      6579      6580      6574      6577      6579      6581
      6575      6574      6577      6578      6575      6574      6577      6579
      6576      6574      6577      6578      6576      6574      6577      6579
      6577      6579      6581      6582      6577      6579      6581      6583
      6577      6579      6581      6584      6578      6577      6579      6580
      6578      6577      6579      6581      6579      6581      6584      6585
      6579      6581      6584      6586      6580      6579      6581      6582
      6580      6579      6581      6583      6580      6579      6581      6584
      6581      6584      6586      6587      6581      6584      6586      6588
      6582      6581      6584      6585      6582      6581      6584      6586
      6583      6581      6584      6585      6583      6581      6584      6586
      6584      6586      6588      6589      6584      6586      6588      6590
      6584      6586      6588      6591      6585      6584      6586      6587
      6585      6584      6586      6588      6586      6588      6591      6592
      6586      6588      6591      6593      6586      6588      6591      6594
      6587      6586      6588      6589      6587      6586      6588      6590
      6587      6586      6588      6591      6588      6591      6594      6595
      6588      6591      6594      6596      6588      6591      6594      6597
      6589      6588      6591      6592      6589      6588      6591      6593
      6589      6588      6591      6594      6590      6588      6591      6592
      6590      6588      6591      6593      6590      6588      6591      6594
      6591      6594      6597      6598      6591      6594      6597      6599
      6591      6594      6597      6600      6592      6591      6594      6595
      6592      6591      6594      6596      6592      6591      6594      6597
      6593      6591      6594      6595      6593      6591      6594      6596
      6593      6591      6594      6597      6594      6597      6600      6601
      6594      6597      6600      6602      6594      6597      6600      6603
      6595      6594      6597      6598      6595      6594      6597      6599
      6595      6594      6597      6600      6596      6594      6597      6598
      6596      6594      6597      6599      6596      6594      6597      6600
      6598      6597      6600      6601      6598      6597      6600      6602
      6598      6597      6600      6603      6599      6597      6600      6601
      6599      6597      6600      6602      6599      6597      6600      6603
      6604      6607      6610      6611      6604      6607      6610      6612
      6604      6607      6610      6613      6605      6604      6607      6608
      6605      6604      6607      6609      6605      6604      6607      6610
      6606      6604      6607      6608      6606      6604      6607      6609
      6606      6604      6607      6610      6607      6610      6613      6614
      6607      6610      6613      6615      6607      6610      6613      6616
      6608      6607      6610      6611      6608      6607      6610      6612
      6608      6607      6610      6613      6609      6607      6610      6611
      6609      6607      6610      6612      6609      6607      6610      6613
      6610      6613      6616      6617      6610      6613      6616      6618
      6610      6613      6616      6619      6611      6610      6613      6614
      6611      6610      6613      6615      6611      6610      6613      6616
      6612      6610      6613      6614      6612      6610      6613      6615
      6612      6610      6613      6616      6613      6616      6619      6620
      6613      6616      6619      6621      6613      6616      6619      6622
      6614      6613      6616      6617      6614      6613      6616      6618
      6614      6613      6616      6619      6615      6613      6616      6617
      6615      6613      6616      6618      6615      6613      6616      6619
      6616      6619      6622      6623      6616      6619      6622      6624
      6616      6619      6622      6625      6617      6616      6619      6620
      6617      6616      6619      6621      6617      6616      6619      6622
      6618      6616      6619      6620      6618      6616      6619      6621
      6618      6616      6619      6622      6619      6622      6625      6626
      6619      6622      6625      6627      6619      6622      6625      6628
      6620      6619      6622      6623      6620      6619      6622      6624
      6620      6619      6622      6625      6621      6619      6622      6623
      6621      6619      6622      6624      6621      6619      6622      6625
      6622      6625      6628      6629      6622      6625      6628      6630
      6622      6625      6628      6631      6623      6622      6625      6626
      6623      6622      6625      6627      6623      6622      6625      6628
      6624      6622      6625      6626      6624      6622      6625      6627
      6624      6622      6625      6628      6625      6628      6631      6632
      6625      6628      6631      6633      6625      6628      6631      6634
      6626      6625      6628      6629      6626      6625      6628      6630
      6626      6625      6628      6631      6627      6625      6628      6629
      6627      6625      6628      6630      6627      6625      6628      6631
      6628      6631      6634      6635      6628      6631      6634      6636
      6628      6631      6634      6637      6629      6628      6631      6632
      6629      6628      6631      6633      6629      6628      6631      6634
      6630      6628      6631      6632      6630      6628      6631      6633
      6630      6628      6631      6634      6631      6634      6637      6638
      6631      6634      6637      6639      6631      6634      6637      6640
      6632      6631      6634      6635      6632      6631      6634      6636
      6632      6631      6634      6637      6633      6631      6634      6635
      6633      6631      6634      6636      6633      6631      6634      6637
      6634      6637      6640      6641      6634      6637      6640      6642
      6634      6637      6640      6643      6635      6634      6637      6638
      6635      6634      6637      6639      6635      6634      6637      6640
      6636      6634      6637      6638      6636      6634      6637      6639
      6636      6634      6637      6640      6637      6640      6643      6644
      6637      6640      6643      6645      6637      6640      6643      6646
      6638      6637      6640      6641      6638      6637      6640      6642
      6638      6637      6640      6643      6639      6637      6640      6641
      6639      6637      6640      6642      6639      6637      6640      6643
      6640      6643      6646      6647      6640      6643      6646      6648
      6640      6643      6646      6649      6641      6640      6643      6644
      6641      6640      6643      6645      6641      6640      6643      6646
      6642      6640      6643      6644      6642      6640      6643      6645
      6642      6640      6643      6646      6643      6646      6649      6650
      6643      6646      6649      6651      6643      6646      6649      6652
      6644      6643      6646      6647      6644      6643      6646      6648
      6644      6643      6646      6649      6645      6643      6646      6647
      6645      6643      6646      6648      6645      6643      6646      6649
      6647      6646      6649      6650      6647      6646      6649      6651
      6647      6646      6649      6652      6648      6646      6649      6650
      6648      6646      6649      6651      6648      6646      6649      6652
      8811      8815      8817      8818      8811      8815      8817      8819
      8811      8815      8820      8821      8811      8815      8820      8822
      8811      8815      8820      8826      8812      8811      8815      8816
      8812      8811      8815      8817      8812      8811      8815      8820
      8813      8811      8815      8816      8813      8811      8815      8817
      8813      8811      8815      8820      8814      8811      8815      8816
      8814      8811      8815      8817      8814      8811      8815      8820
      8815      8820      8826      8823      8816      8815      8817      8818
      8816      8815      8817      8819      8816      8815      8820      8821
      8816      8815      8820      8822      8816      8815      8820      8826
      8817      8815      8820      8821      8817      8815      8820      8822
      8817      8815      8820      8826      8818      8817      8815      8820
      8819      8817      8815      8820      8820      8826      8823      8824
      8820      8826      8823      8825      8820      8826      8823      8827
      8821      8820      8826      8823      8822      8820      8826      8823
      8823      8827      8828      8829      8823      8827      8828      8830
      8823      8827      8828      8831      8824      8823      8827      8828
      8825      8823      8827      8828      8826      8823      8827      8828
      8827      8828      8831      8832      8827      8828      8831      8833
      8827      8828      8831      8839      8828      8831      8833      8834
      8828      8831      8839      8840      8828      8831      8839      8841
      8828      8831      8839      8842      8829      8828      8831      8832
      8829      8828      8831      8833      8829      8828      8831      8839
      8830      8828      8831      8832      8830      8828      8831      8833
      8830      8828      8831      8839      8831      8833      8834      8835
      8831      8833      8834      8836      8831      8839      8842      8843
      8832      8831      8833      8834      8832      8831      8839      8840
      8832      8831      8839      8841      8832      8831      8839      8842
      8833      8831      8839      8840      8833      8831      8839      8841
      8833      8831      8839      8842      8833      8834      8836      8837
      8833      8834      8836      8838      8833      8834      8836      8848
      8834      8833      8831      8839      8834      8836      8848      8849
      8834      8836      8848      8850      8834      8836      8848      8851
      8835      8834      8836      8837      8835      8834      8836      8838
      8835      8834      8836      8848      8836      8848      8851      8852
      8836      8848      8851      8853      8836      8848      8851      8854
      8837      8836      8848      8849      8837      8836      8848      8850
      8837      8836      8848      8851      8838      8836      8848      8849
      8838      8836      8848      8850      8838      8836      8848      8851
      8839      8842      8843      8844      8839      8842      8843      8845
      8840      8839      8842      8843      8841      8839      8842      8843
      8842      8843      8845      8846      8842      8843      8845      8847
      8842      8843      8845      8895      8843      8845      8895      8896
      8843      8845      8895      8897      8843      8845      8895      8898
      8844      8843      8845      8846      8844      8843      8845      8847
      8844      8843      8845      8895      8845      8895      8898      8899
      8845      8895      8898      8900      8845      8895      8898      8901
      8846      8845      8895      8896      8846      8845      8895      8897
      8846      8845      8895      8898      8847      8845      8895      8896
      8847      8845      8895      8897      8847      8845      8895      8898
      8848      8851      8854      8855      8848      8851      8854      8856
      8849      8848      8851      8852      8849      8848      8851      8853
      8849      8848      8851      8854      8850      8848      8851      8852
      8850      8848      8851      8853      8850      8848      8851      8854
      8851      8854      8856      8857      8851      8854      8856      8858
      8852      8851      8854      8855      8852      8851      8854      8856
      8853      8851      8854      8855      8853      8851      8854      8856
      8854      8856      8858      8859      8854      8856      8858      8860
      8854      8856      8858      8861      8855      8854      8856      8857
      8855      8854      8856      8858      8856      8858      8861      8862
      8856      8858      8861      8863      8857      8856      8858      8859
      8857      8856      8858      8860      8857      8856      8858      8861
      8858      8861      8863      8864      8858      8861      8863      8865
      8859      8858      8861      8862      8859      8858      8861      8863
      8860      8858      8861      8862      8860      8858      8861      8863
      8861      8863      8865      8866      8861      8863      8865      8867
      8861      8863      8865      8868      8862      8861      8863      8864
      8862      8861      8863      8865      8863      8865      8868      8869
      8863      8865      8868      8870      8864      8863      8865      8866
      8864      8863      8865      8867      8864      8863      8865      8868
      8865      8868      8870      8871      8865      8868      8870      8872
      8866      8865      8868      8869      8866      8865      8868      8870
      8867      8865      8868      8869      8867      8865      8868      8870
      8868      8870      8872      8873      8868      8870      8872      8874
      8868      8870      8872      8875      8869      8868      8870      8871
      8869      8868      8870      8872      8870      8872      8875      8876
      8870      8872      8875      8877      8871      8870      8872      8873
      8871      8870      8872      8874      8871      8870      8872      8875
      8872      8875      8877      8878      8872      8875      8877      8879
      8873      8872      8875      8876      8873      8872      8875      8877
      8874      8872      8875      8876      8874      8872      8875      8877
      8875      8877      8879      8880      8875      8877      8879      8881
      8875      8877      8879      8882      8876      8875      8877      8878
      8876      8875      8877      8879      8877      8879      8882      8883
      8877      8879      8882      8884      8877      8879      8882      8885
      8878      8877      8879      8880      8878      8877      8879      8881
      8878      8877      8879      8882      8879      8882      8885      8886
      8879      8882      8885      8887      8879      8882      8885      8888
      8880      8879      8882      8883      8880      8879      8882      8884
      8880      8879      8882      8885      8881      8879      8882      8883
      8881      8879      8882      8884      8881      8879      8882      8885
      8882      8885      8888      8889      8882      8885      8888      8890
      8882      8885      8888      8891      8883      8882      8885      8886
      8883      8882      8885      8887      8883      8882      8885      8888
      8884      8882      8885      8886      8884      8882      8885      8887
      8884      8882      8885      8888      8885      8888      8891      8892
      8885      8888      8891      8893      8885      8888      8891      8894
      8886      8885      8888      8889      8886      8885      8888      8890
      8886      8885      8888      8891      8887      8885      8888      8889
      8887      8885      8888      8890      8887      8885      8888      8891
      8889      8888      8891      8892      8889      8888      8891      8893
      8889      8888      8891      8894      8890      8888      8891      8892
      8890      8888      8891      8893      8890      8888      8891      8894
      8895      8898      8901      8902      8895      8898      8901      8903
      8895      8898      8901      8904      8896      8895      8898      8899
      8896      8895      8898      8900      8896      8895      8898      8901
      8897      8895      8898      8899      8897      8895      8898      8900
      8897      8895      8898      8901      8898      8901      8904      8905
      8898      8901      8904      8906      8898      8901      8904      8907
      8899      8898      8901      8902      8899      8898      8901      8903
      8899      8898      8901      8904      8900      8898      8901      8902
      8900      8898      8901      8903      8900      8898      8901      8904
      8901      8904      8907      8908      8901      8904      8907      8909
      8901      8904      8907      8910      8902      8901      8904      8905
      8902      8901      8904      8906      8902      8901      8904      8907
      8903      8901      8904      8905      8903      8901      8904      8906
      8903      8901      8904      8907      8904      8907      8910      8911
      8904      8907      8910      8912      8904      8907      8910      8913
      8905      8904      8907      8908      8905      8904      8907      8909
      8905      8904      8907      8910      8906      8904      8907      8908
      8906      8904      8907      8909      8906      8904      8907      8910
      8907      8910      8913      8914      8907      8910      8913      8915
      8907      8910      8913      8916      8908      8907      8910      8911
      8908      8907      8910      8912      8908      8907      8910      8913
      8909      8907      8910      8911      8909      8907      8910      8912
      8909      8907      8910      8913      8910      8913      8916      8917
      8910      8913      8916      8918      8910      8913      8916      8919
      8911      8910      8913      8914      8911      8910      8913      8915
      8911      8910      8913      8916      8912      8910      8913      8914
      8912      8910      8913      8915      8912      8910      8913      8916
      8913      8916      8919      8920      8913      8916      8919      8921
      8913      8916      8919      8922      8914      8913      8916      8917
      8914      8913      8916      8918      8914      8913      8916      8919
      8915      8913      8916      8917      8915      8913      8916      8918
      8915      8913      8916      8919      8916      8919      8922      8923
      8916      8919      8922      8924      8916      8919      8922      8925
      8917      8916      8919      8920      8917      8916      8919      8921
      8917      8916      8919      8922      8918      8916      8919      8920
      8918      8916      8919      8921      8918      8916      8919      8922
      8919      8922      8925      8926      8919      8922      8925      8927
      8919      8922      8925      8928      8920      8919      8922      8923
      8920      8919      8922      8924      8920      8919      8922      8925
      8921      8919      8922      8923      8921      8919      8922      8924
      8921      8919      8922      8925      8922      8925      8928      8929
      8922      8925      8928      8930      8922      8925      8928      8931
      8923      8922      8925      8926      8923      8922      8925      8927
      8923      8922      8925      8928      8924      8922      8925      8926
      8924      8922      8925      8927      8924      8922      8925      8928
      8925      8928      8931      8932      8925      8928      8931      8933
      8925      8928      8931      8934      8926      8925      8928      8929
      8926      8925      8928      8930      8926      8925      8928      8931
      8927      8925      8928      8929      8927      8925      8928      8930
      8927      8925      8928      8931      8928      8931      8934      8935
      8928      8931      8934      8936      8928      8931      8934      8937
      8929      8928      8931      8932      8929      8928      8931      8933
      8929      8928      8931      8934      8930      8928      8931      8932
      8930      8928      8931      8933      8930      8928      8931      8934
      8931      8934      8937      8938      8931      8934      8937      8939
      8931      8934      8937      8940      8932      8931      8934      8935
      8932      8931      8934      8936      8932      8931      8934      8937
      8933      8931      8934      8935      8933      8931      8934      8936
      8933      8931      8934      8937      8934      8937      8940      8941
      8934      8937      8940      8942      8934      8937      8940      8943
      8935      8934      8937      8938      8935      8934      8937      8939
      8935      8934      8937      8940      8936      8934      8937      8938
      8936      8934      8937      8939      8936      8934      8937      8940
      8938      8937      8940      8941      8938      8937      8940      8942
      8938      8937      8940      8943      8939      8937      8940      8941
      8939      8937      8940      8942      8939      8937      8940      8943
     20359     20363     20366     20367     20359     20363     20366     20368
     20359     20363     20366     20372     20360     20359     20363     20364
     20360     20359     20363     20365     20360     20359     20363     20366
     20361     20359     20363     20364     20361     20359     20363     20365
     20361     20359     20363     20366     20362     20359     20363     20364
     20362     20359     20363     20365     20362     20359     20363     20366
     20363     20366     20372     20369     20364     20363     20366     20367
     20364     20363     20366     20368     20364     20363     20366     20372
     20365     20363     20366     20367     20365     20363     20366     20368
     20365     20363     20366     20372     20366     20372     20369     20370
     20366     20372     20369     20371     20366     20372     20369     20373
     20367     20366     20372     20369     20368     20366     20372     20369
     20369     20373     20374     20375     20369     20373     20374     20376
     20369     20373     20374     20377     20370     20369     20373     20374
     20371     20369     20373     20374     20372     20369     20373     20374
     20373     20374     20377     20378     20373     20374     20377     20379
     20373     20374     20377     20385     20374     20377     20379     20380
     20374     20377     20385     20386     20374     20377     20385     20387
     20374     20377     20385     20388     20375     20374     20377     20378
     20375     20374     20377     20379     20375     20374     20377     20385
     20376     20374     20377     20378     20376     20374     20377     20379
     20376     20374     20377     20385     20377     20379     20380     20381
     20377     20379     20380     20382     20377     20385     20388     20389
     20378     20377     20379     20380     20378     20377     20385     20386
     20378     20377     20385     20387     20378     20377     20385     20388
     20379     20377     20385     20386     20379     20377     20385     20387
     20379     20377     20385     20388     20379     20380     20382     20383
     20379     20380     20382     20384     20379     20380     20382     20394
     20380     20379     20377     20385     20380     20382     20394     20395
     20380     20382     20394     20396     20380     20382     20394     20397
     20381     20380     20382     20383     20381     20380     20382     20384
     20381     20380     20382     20394     20382     20394     20397     20398
     20382     20394     20397     20399     20382     20394     20397     20400
     20383     20382     20394     20395     20383     20382     20394     20396
     20383     20382     20394     20397     20384     20382     20394     20395
     20384     20382     20394     20396     20384     20382     20394     20397
     20385     20388     20389     20390     20385     20388     20389     20391
     20386     20385     20388     20389     20387     20385     20388     20389
     20388     20389     20391     20392     20388     20389     20391     20393
     20388     20389     20391     20441     20389     20391     20441     20442
     20389     20391     20441     20443     20389     20391     20441     20444
     20390     20389     20391     20392     20390     20389     20391     20393
     20390     20389     20391     20441     20391     20441     20444     20445
     20391     20441     20444     20446     20391     20441     20444     20447
     20392     20391     20441     20442     20392     20391     20441     20443
     20392     20391     20441     20444     20393     20391     20441     20442
     20393     20391     20441     20443     20393     20391     20441     20444
     20394     20397     20400     20401     20394     20397     20400     20402
     20394     20397     20400     20403     20395     20394     20397     20398
     20395     20394     20397     20399     20395     20394     20397     20400
     20396     20394     20397     20398     20396     20394     20397     20399
     20396     20394     20397     20400     20397     20400     20403     20404
     20397     20400     20403     20405     20397     20400     20403     20406
     20398     20397     20400     20401     20398     20397     20400     20402
     20398     20397     20400     20403     20399     20397     20400     20401
     20399     20397     20400     20402     20399     20397     20400     20403
     20400     20403     20406     20407     20400     20403     20406     20408
     20400     20403     20406     20409     20401     20400     20403     20404
     20401     20400     20403     20405     20401     20400     20403     20406
     20402     20400     20403     20404     20402     20400     20403     20405
     20402     20400     20403     20406     20403     20406     20409     20410
     20403     20406     20409     20411     20403     20406     20409     20412
     20404     20403     20406     20407     20404     20403     20406     20408
     20404     20403     20406     20409     20405     20403     20406     20407
     20405     20403     20406     20408     20405     20403     20406     20409
     20406     20409     20412     20413     20406     20409     20412     20414
     20407     20406     20409     20410     20407     20406     20409     20411
     20407     20406     20409     20412     20408     20406     20409     20410
     20408     20406     20409     20411     20408     20406     20409     20412
     20409     20412     20414     20415     20409     20412     20414     20416
     20410     20409     20412     20413     20410     20409     20412     20414
     20411     20409     20412     20413     20411     20409     20412     20414
     20412     20414     20416     20417     20412     20414     20416     20418
     20412     20414     20416     20419     20413     20412     20414     20415
     20413     20412     20414     20416     20414     20416     20419     20420
     20414     20416     20419     20421     20414     20416     20419     20422
     20415     20414     20416     20417     20415     20414     20416     20418
     20415     20414     20416     20419     20416     20419     20422     20423
     20416     20419     20422     20424     20416     20419     20422     20425
     20417     20416     20419     20420     20417     20416     20419     20421
     20417     20416     20419     20422     20418     20416     20419     20420
     20418     20416     20419     20421     20418     20416     20419     20422
     20419     20422     20425     20426     20419     20422     20425     20427
     20419     20422     20425     20428     20420     20419     20422     20423
     20420     20419     20422     20424     20420     20419     20422     20425
     20421     20419     20422     20423     20421     20419     20422     20424
     20421     20419     20422     20425     20422     20425     20428     20429
     20422     20425     20428     20430     20422     20425     20428     20431
     20423     20422     20425     20426     20423     20422     20425     20427
     20423     20422     20425     20428     20424     20422     20425     20426
     20424     20422     20425     20427     20424     20422     20425     20428
     20425     20428     20431     20432     20425     20428     20431     20433
     20425     20428     20431     20434     20426     20425     20428     20429
     20426     20425     20428     20430     20426     20425     20428     20431
     20427     20425     20428     20429     20427     20425     20428     20430
     20427     20425     20428     20431     20428     20431     20434     20435
     20428     20431     20434     20436     20428     20431     20434     20437
     20429     20428     20431     20432     20429     20428     20431     20433
     20429     20428     20431     20434     20430     20428     20431     20432
     20430     20428     20431     20433     20430     20428     20431     20434
     20431     20434     20437     20438     20431     20434     20437     20439
     20431     20434     20437     20440     20432     20431     20434     20435
     20432     20431     20434     20436     20432     20431     20434     20437
     20433     20431     20434     20435     20433     20431     20434     20436
     20433     20431     20434     20437     20435     20434     20437     20438
     20435     20434     20437     20439     20435     20434     20437     20440
     20436     20434     20437     20438     20436     20434     20437     20439
     20436     20434     20437     20440     20441     20444     20447     20448
     20441     20444     20447     20449     20441     20444     20447     20450
     20442     20441     20444     20445     20442     20441     20444     20446
     20442     20441     20444     20447     20443     20441     20444     20445
     20443     20441     20444     20446     20443     20441     20444     20447
     20444     20447     20450     20451     20444     20447     20450     20452
     20444     20447     20450     20453     20445     20444     20447     20448
     20445     20444     20447     20449     20445     20444     20447     20450
     20446     20444     20447     20448     20446     20444     20447     20449
     20446     20444     20447     20450     20447     20450     20453     20454
     20447     20450     20453     20455     20447     20450     20453     20456
     20448     20447     20450     20451     20448     20447     20450     20452
     20448     20447     20450     20453     20449     20447     20450     20451
     20449     20447     20450     20452     20449     20447     20450     20453
     20450     20453     20456     20457     20450     20453     20456     20458
     20450     20453     20456     20459     20451     20450     20453     20454
     20451     20450     20453     20455     20451     20450     20453     20456
     20452     20450     20453     20454     20452     20450     20453     20455
     20452     20450     20453     20456     20453     20456     20459     20460
     20453     20456     20459     20461     20453     20456     20459     20462
     20454     20453     20456     20457     20454     20453     20456     20458
     20454     20453     20456     20459     20455     20453     20456     20457
     20455     20453     20456     20458     20455     20453     20456     20459
     20456     20459     20462     20463     20456     20459     20462     20464
     20456     20459     20462     20465     20457     20456     20459     20460
     20457     20456     20459     20461     20457     20456     20459     20462
     20458     20456     20459     20460     20458     20456     20459     20461
     20458     20456     20459     20462     20459     20462     20465     20466
     20459     20462     20465     20467     20459     20462     20465     20468
     20460     20459     20462     20463     20460     20459     20462     20464
     20460     20459     20462     20465     20461     20459     20462     20463
     20461     20459     20462     20464     20461     20459     20462     20465
     20462     20465     20468     20469     20462     20465     20468     20470
     20462     20465     20468     20471     20463     20462     20465     20466
     20463     20462     20465     20467     20463     20462     20465     20468
     20464     20462     20465     20466     20464     20462     20465     20467
     20464     20462     20465     20468     20465     20468     20471     20472
     20465     20468     20471     20473     20465     20468     20471     20474
     20466     20465     20468     20469     20466     20465     20468     20470
     20466     20465     20468     20471     20467     20465     20468     20469
     20467     20465     20468     20470     20467     20465     20468     20471
     20468     20471     20474     20475     20468     20471     20474     20476
     20468     20471     20474     20477     20469     20468     20471     20472
     20469     20468     20471     20473     20469     20468     20471     20474
     20470     20468     20471     20472     20470     20468     20471     20473
     20470     20468     20471     20474     20471     20474     20477     20478
     20471     20474     20477     20479     20471     20474     20477     20480
     20472     20471     20474     20475     20472     20471     20474     20476
     20472     20471     20474     20477     20473     20471     20474     20475
     20473     20471     20474     20476     20473     20471     20474     20477
     20474     20477     20480     20481     20474     20477     20480     20482
     20474     20477     20480     20483     20475     20474     20477     20478
     20475     20474     20477     20479     20475     20474     20477     20480
     20476     20474     20477     20478     20476     20474     20477     20479
     20476     20474     20477     20480     20477     20480     20483     20484
     20477     20480     20483     20485     20477     20480     20483     20486
     20478     20477     20480     20481     20478     20477     20480     20482
     20478     20477     20480     20483     20479     20477     20480     20481
     20479     20477     20480     20482     20479     20477     20480     20483
     20480     20483     20486     20487     20480     20483     20486     20488
     20480     20483     20486     20489     20481     20480     20483     20484
     20481     20480     20483     20485     20481     20480     20483     20486
     20482     20480     20483     20484     20482     20480     20483     20485
     20482     20480     20483     20486     20484     20483     20486     20487
     20484     20483     20486     20488     20484     20483     20486     20489
     20485     20483     20486     20487     20485     20483     20486     20488
     20485     20483     20486     20489      4985      4986      5001      5002
      4985      4986      5001      5003      4985      4986      5001      5007
      4986      4985      4989      4990      4986      4985      4989      4991
      4986      4985      4989      4992      4986      4985      4993      4994
      4986      4985      4993      4995      4986      4985      4993      4996
      4986      4985      4997      4998      4986      4985      4997      4999
      4986      4985      4997      5000      4986      5001      5007      5004
      4987      4986      4985      4989      4987      4986      4985      4993
      4987      4986      4985      4997      4987      4986      5001      5002
      4987      4986      5001      5003      4987      4986      5001      5007
      4988      4986      4985      4989      4988      4986      4985      4993
      4988      4986      4985      4997      4988      4986      5001      5002
      4988      4986      5001      5003      4988      4986      5001      5007
      4989      4985      4986      5001      4989      4985      4993      4994
      4989      4985      4993      4995      4989      4985      4993      4996
      4989      4985      4997      4998      4989      4985      4997      4999
      4989      4985      4997      5000      4990      4989      4985      4993
      4990      4989      4985      4997      4991      4989      4985      4993
      4991      4989      4985      4997      4992      4989      4985      4993
      4992      4989      4985      4997      4993      4985      4986      5001
      4993      4985      4997      4998      4993      4985      4997      4999
      4993      4985      4997      5000      4994      4993      4985      4997
      4995      4993      4985      4997      4996      4993      4985      4997
      4997      4985      4986      5001      5001      5007      5004      5005
      5001      5007      5004      5006      5001      5007      5004      5008
      5002      5001      5007      5004      5003      5001      5007      5004
      5004      5008      5009      5010      5004      5008      5009      5011
      5004      5008      5009      5012      5005      5004      5008      5009
      5006      5004      5008      5009      5007      5004      5008      5009
      5008      5009      5012      5013      5008      5009      5012      5014
      5008      5009      5012      5020      5009      5012      5014      5015
      5009      5012      5020      5021      5009      5012      5020      5022
      5009      5012      5020      5023      5010      5009      5012      5013
      5010      5009      5012      5014      5010      5009      5012      5020
      5011      5009      5012      5013      5011      5009      5012      5014
      5011      5009      5012      5020      5012      5014      5015      5016
      5012      5014      5015      5017      5012      5020      5023      5024
      5013      5012      5014      5015      5013      5012      5020      5021
      5013      5012      5020      5022      5013      5012      5020      5023
      5014      5012      5020      5021      5014      5012      5020      5022
      5014      5012      5020      5023      5014      5015      5017      5018
      5014      5015      5017      5019      5014      5015      5017      5029
      5015      5014      5012      5020      5015      5017      5029      5030
      5015      5017      5029      5031      5015      5017      5029      5032
      5016      5015      5017      5018      5016      5015      5017      5019
      5016      5015      5017      5029      5017      5029      5032      5033
      5017      5029      5032      5034      5017      5029      5032      5035
      5018      5017      5029      5030      5018      5017      5029      5031
      5018      5017      5029      5032      5019      5017      5029      5030
      5019      5017      5029      5031      5019      5017      5029      5032
      5020      5023      5024      5025      5020      5023      5024      5026
      5021      5020      5023      5024      5022      5020      5023      5024
      5023      5024      5026      5027      5023      5024      5026      5028
      5023      5024      5026      5076      5024      5026      5076      5077
      5024      5026      5076      5078      5024      5026      5076      5079
      5025      5024      5026      5027      5025      5024      5026      5028
      5025      5024      5026      5076      5026      5076      5079      5080
      5026      5076      5079      5081      5026      5076      5079      5082
      5027      5026      5076      5077      5027      5026      5076      5078
      5027      5026      5076      5079      5028      5026      5076      5077
      5028      5026      5076      5078      5028      5026      5076      5079
      5029      5032      5035      5036      5029      5032      5035      5037
      5030      5029      5032      5033      5030      5029      5032      5034
      5030      5029      5032      5035      5031      5029      5032      5033
      5031      5029      5032      5034      5031      5029      5032      5035
      5032      5035      5037      5038      5032      5035      5037      5039
      5033      5032      5035      5036      5033      5032      5035      5037
      5034      5032      5035      5036      5034      5032      5035      5037
      5035      5037      5039      5040      5035      5037      5039      5041
      5035      5037      5039      5042      5036      5035      5037      5038
      5036      5035      5037      5039      5037      5039      5042      5043
      5037      5039      5042      5044      5038      5037      5039      5040
      5038      5037      5039      5041      5038      5037      5039      5042
      5039      5042      5044      5045      5039      5042      5044      5046
      5040      5039      5042      5043      5040      5039      5042      5044
      5041      5039      5042      5043      5041      5039      5042      5044
      5042      5044      5046      5047      5042      5044      5046      5048
      5042      5044      5046      5049      5043      5042      5044      5045
      5043      5042      5044      5046      5044      5046      5049      5050
      5044      5046      5049      5051      5045      5044      5046      5047
      5045      5044      5046      5048      5045      5044      5046      5049
      5046      5049      5051      5052      5046      5049      5051      5053
      5047      5046      5049      5050      5047      5046      5049      5051
      5048      5046      5049      5050      5048      5046      5049      5051
      5049      5051      5053      5054      5049      5051      5053      5055
      5049      5051      5053      5056      5050      5049      5051      5052
      5050      5049      5051      5053      5051      5053      5056      5057
      5051      5053      5056      5058      5052      5051      5053      5054
      5052      5051      5053      5055      5052      5051      5053      5056
      5053      5056      5058      5059      5053      5056      5058      5060
      5054      5053      5056      5057      5054      5053      5056      5058
      5055      5053      5056      5057      5055      5053      5056      5058
      5056      5058      5060      5061      5056      5058      5060      5062
      5056      5058      5060      5063      5057      5056      5058      5059
      5057      5056      5058      5060      5058      5060      5063      5064
      5058      5060      5063      5065      5058      5060      5063      5066
      5059      5058      5060      5061      5059      5058      5060      5062
      5059      5058      5060      5063      5060      5063      5066      5067
      5060      5063      5066      5068      5060      5063      5066      5069
      5061      5060      5063      5064      5061      5060      5063      5065
      5061      5060      5063      5066      5062      5060      5063      5064
      5062      5060      5063      5065      5062      5060      5063      5066
      5063      5066      5069      5070      5063      5066      5069      5071
      5063      5066      5069      5072      5064      5063      5066      5067
      5064      5063      5066      5068      5064      5063      5066      5069
      5065      5063      5066      5067      5065      5063      5066      5068
      5065      5063      5066      5069      5066      5069      5072      5073
      5066      5069      5072      5074      5066      5069      5072      5075
      5067      5066      5069      5070      5067      5066      5069      5071
      5067      5066      5069      5072      5068      5066      5069      5070
      5068      5066      5069      5071      5068      5066      5069      5072
      5070      5069      5072      5073      5070      5069      5072      5074
      5070      5069      5072      5075      5071      5069      5072      5073
      5071      5069      5072      5074      5071      5069      5072      5075
      5076      5079      5082      5083      5076      5079      5082      5084
      5076      5079      5082      5085      5077      5076      5079      5080
      5077      5076      5079      5081      5077      5076      5079      5082
      5078      5076      5079      5080      5078      5076      5079      5081
      5078      5076      5079      5082      5079      5082      5085      5086
      5079      5082      5085      5087      5079      5082      5085      5088
      5080      5079      5082      5083      5080      5079      5082      5084
      5080      5079      5082      5085      5081      5079      5082      5083
      5081      5079      5082      5084      5081      5079      5082      5085
      5082      5085      5088      5089      5082      5085      5088      5090
      5082      5085      5088      5091      5083      5082      5085      5086
      5083      5082      5085      5087      5083      5082      5085      5088
      5084      5082      5085      5086      5084      5082      5085      5087
      5084      5082      5085      5088      5085      5088      5091      5092
      5085      5088      5091      5093      5085      5088      5091      5094
      5086      5085      5088      5089      5086      5085      5088      5090
      5086      5085      5088      5091      5087      5085      5088      5089
      5087      5085      5088      5090      5087      5085      5088      5091
      5088      5091      5094      5095      5088      5091      5094      5096
      5088      5091      5094      5097      5089      5088      5091      5092
      5089      5088      5091      5093      5089      5088      5091      5094
      5090      5088      5091      5092      5090      5088      5091      5093
      5090      5088      5091      5094      5091      5094      5097      5098
      5091      5094      5097      5099      5091      5094      5097      5100
      5092      5091      5094      5095      5092      5091      5094      5096
      5092      5091      5094      5097      5093      5091      5094      5095
      5093      5091      5094      5096      5093      5091      5094      5097
      5094      5097      5100      5101      5094      5097      5100      5102
      5094      5097      5100      5103      5095      5094      5097      5098
      5095      5094      5097      5099      5095      5094      5097      5100
      5096      5094      5097      5098      5096      5094      5097      5099
      5096      5094      5097      5100      5097      5100      5103      5104
      5097      5100      5103      5105      5097      5100      5103      5106
      5098      5097      5100      5101      5098      5097      5100      5102
      5098      5097      5100      5103      5099      5097      5100      5101
      5099      5097      5100      5102      5099      5097      5100      5103
      5100      5103      5106      5107      5100      5103      5106      5108
      5100      5103      5106      5109      5101      5100      5103      5104
      5101      5100      5103      5105      5101      5100      5103      5106
      5102      5100      5103      5104      5102      5100      5103      5105
      5102      5100      5103      5106      5103      5106      5109      5110
      5103      5106      5109      5111      5103      5106      5109      5112
      5104      5103      5106      5107      5104      5103      5106      5108
      5104      5103      5106      5109      5105      5103      5106      5107
      5105      5103      5106      5108      5105      5103      5106      5109
      5106      5109      5112      5113      5106      5109      5112      5114
      5106      5109      5112      5115      5107      5106      5109      5110
      5107      5106      5109      5111      5107      5106      5109      5112
      5108      5106      5109      5110      5108      5106      5109      5111
      5108      5106      5109      5112      5109      5112      5115      5116
      5109      5112      5115      5117      5109      5112      5115      5118
      5110      5109      5112      5113      5110      5109      5112      5114
      5110      5109      5112      5115      5111      5109      5112      5113
      5111      5109      5112      5114      5111      5109      5112      5115
      5112      5115      5118      5119      5112      5115      5118      5120
      5112      5115      5118      5121      5113      5112      5115      5116
      5113      5112      5115      5117      5113      5112      5115      5118
      5114      5112      5115      5116      5114      5112      5115      5117
      5114      5112      5115      5118      5115      5118      5121      5122
      5115      5118      5121      5123      5115      5118      5121      5124
      5116      5115      5118      5119      5116      5115      5118      5120
      5116      5115      5118      5121      5117      5115      5118      5119
      5117      5115      5118      5120      5117      5115      5118      5121
      5119      5118      5121      5122      5119      5118      5121      5123
      5119      5118      5121      5124      5120      5118      5121      5122
      5120      5118      5121      5123      5120      5118      5121      5124
     17739     17743     17746     17747     17739     17743     17746     17748
     17739     17743     17746     17752     17740     17739     17743     17744
     17740     17739     17743     17745     17740     17739     17743     17746
     17741     17739     17743     17744     17741     17739     17743     17745
     17741     17739     17743     17746     17742     17739     17743     17744
     17742     17739     17743     17745     17742     17739     17743     17746
     17743     17746     17752     17749     17744     17743     17746     17747
     17744     17743     17746     17748     17744     17743     17746     17752
     17745     17743     17746     17747     17745     17743     17746     17748
     17745     17743     17746     17752     17746     17752     17749     17750
     17746     17752     17749     17751     17746     17752     17749     17753
     17747     17746     17752     17749     17748     17746     17752     17749
     17749     17753     17754     17755     17749     17753     17754     17756
     17749     17753     17754     17757     17750     17749     17753     17754
     17751     17749     17753     17754     17752     17749     17753     17754
     17753     17754     17757     17758     17753     17754     17757     17759
     17753     17754     17757     17765     17754     17757     17759     17760
     17754     17757     17765     17766     17754     17757     17765     17767
     17754     17757     17765     17768     17755     17754     17757     17758
     17755     17754     17757     17759     17755     17754     17757     17765
     17756     17754     17757     17758     17756     17754     17757     17759
     17756     17754     17757     17765     17757     17759     17760     17761
     17757     17759     17760     17762     17757     17765     17768     17769
     17758     17757     17759     17760     17758     17757     17765     17766
     17758     17757     17765     17767     17758     17757     17765     17768
     17759     17757     17765     17766     17759     17757     17765     17767
     17759     17757     17765     17768     17759     17760     17762     17763
     17759     17760     17762     17764     17759     17760     17762     17774
     17760     17759     17757     17765     17760     17762     17774     17775
     17760     17762     17774     17776     17760     17762     17774     17777
     17761     17760     17762     17763     17761     17760     17762     17764
     17761     17760     17762     17774     17762     17774     17777     17778
     17762     17774     17777     17779     17762     17774     17777     17780
     17763     17762     17774     17775     17763     17762     17774     17776
     17763     17762     17774     17777     17764     17762     17774     17775
     17764     17762     17774     17776     17764     17762     17774     17777
     17765     17768     17769     17770     17765     17768     17769     17771
     17766     17765     17768     17769     17767     17765     17768     17769
     17768     17769     17771     17772     17768     17769     17771     17773
     17768     17769     17771     17821     17769     17771     17821     17822
     17769     17771     17821     17823     17769     17771     17821     17824
     17770     17769     17771     17772     17770     17769     17771     17773
     17770     17769     17771     17821     17771     17821     17824     17825
     17771     17821     17824     17826     17771     17821     17824     17827
     17772     17771     17821     17822     17772     17771     17821     17823
     17772     17771     17821     17824     17773     17771     17821     17822
     17773     17771     17821     17823     17773     17771     17821     17824
     17774     17777     17780     17781     17774     17777     17780     17782
     17775     17774     17777     17778     17775     17774     17777     17779
     17775     17774     17777     17780     17776     17774     17777     17778
     17776     17774     17777     17779     17776     17774     17777     17780
     17777     17780     17782     17783     17777     17780     17782     17784
     17778     17777     17780     17781     17778     17777     17780     17782
     17779     17777     17780     17781     17779     17777     17780     17782
     17780     17782     17784     17785     17780     17782     17784     17786
     17780     17782     17784     17787     17781     17780     17782     17783
     17781     17780     17782     17784     17782     17784     17787     17788
     17782     17784     17787     17789     17783     17782     17784     17785
     17783     17782     17784     17786     17783     17782     17784     17787
     17784     17787     17789     17790     17784     17787     17789     17791
     17785     17784     17787     17788     17785     17784     17787     17789
     17786     17784     17787     17788     17786     17784     17787     17789
     17787     17789     17791     17792     17787     17789     17791     17793
     17787     17789     17791     17794     17788     17787     17789     17790
     17788     17787     17789     17791     17789     17791     17794     17795
     17789     17791     17794     17796     17790     17789     17791     17792
     17790     17789     17791     17793     17790     17789     17791     17794
     17791     17794     17796     17797     17791     17794     17796     17798
     17792     17791     17794     17795     17792     17791     17794     17796
     17793     17791     17794     17795     17793     17791     17794     17796
     17794     17796     17798     17799     17794     17796     17798     17800
     17794     17796     17798     17801     17795     17794     17796     17797
     17795     17794     17796     17798     17796     17798     17801     17802
     17796     17798     17801     17803     17797     17796     17798     17799
     17797     17796     17798     17800     17797     17796     17798     17801
     17798     17801     17803     17804     17798     17801     17803     17805
     17799     17798     17801     17802     17799     17798     17801     17803
     17800     17798     17801     17802     17800     17798     17801     17803
     17801     17803     17805     17806     17801     17803     17805     17807
     17801     17803     17805     17808     17802     17801     17803     17804
     17802     17801     17803     17805     17803     17805     17808     17809
     17803     17805     17808     17810     17803     17805     17808     17811
     17804     17803     17805     17806     17804     17803     17805     17807
     17804     17803     17805     17808     17805     17808     17811     17812
     17805     17808     17811     17813     17805     17808     17811     17814
     17806     17805     17808     17809     17806     17805     17808     17810
     17806     17805     17808     17811     17807     17805     17808     17809
     17807     17805     17808     17810     17807     17805     17808     17811
     17808     17811     17814     17815     17808     17811     17814     17816
     17808     17811     17814     17817     17809     17808     17811     17812
     17809     17808     17811     17813     17809     17808     17811     17814
     17810     17808     17811     17812     17810     17808     17811     17813
     17810     17808     17811     17814     17811     17814     17817     17818
     17811     17814     17817     17819     17811     17814     17817     17820
     17812     17811     17814     17815     17812     17811     17814     17816
     17812     17811     17814     17817     17813     17811     17814     17815
     17813     17811     17814     17816     17813     17811     17814     17817
     17815     17814     17817     17818     17815     17814     17817     17819
     17815     17814     17817     17820     17816     17814     17817     17818
     17816     17814     17817     17819     17816     17814     17817     17820
     17821     17824     17827     17828     17821     17824     17827     17829
     17821     17824     17827     17830     17822     17821     17824     17825
     17822     17821     17824     17826     17822     17821     17824     17827
     17823     17821     17824     17825     17823     17821     17824     17826
     17823     17821     17824     17827     17824     17827     17830     17831
     17824     17827     17830     17832     17824     17827     17830     17833
     17825     17824     17827     17828     17825     17824     17827     17829
     17825     17824     17827     17830     17826     17824     17827     17828
     17826     17824     17827     17829     17826     17824     17827     17830
     17827     17830     17833     17834     17827     17830     17833     17835
     17827     17830     17833     17836     17828     17827     17830     17831
     17828     17827     17830     17832     17828     17827     17830     17833
     17829     17827     17830     17831     17829     17827     17830     17832
     17829     17827     17830     17833     17830     17833     17836     17837
     17830     17833     17836     17838     17830     17833     17836     17839
     17831     17830     17833     17834     17831     17830     17833     17835
     17831     17830     17833     17836     17832     17830     17833     17834
     17832     17830     17833     17835     17832     17830     17833     17836
     17833     17836     17839     17840     17833     17836     17839     17841
     17833     17836     17839     17842     17834     17833     17836     17837
     17834     17833     17836     17838     17834     17833     17836     17839
     17835     17833     17836     17837     17835     17833     17836     17838
     17835     17833     17836     17839     17836     17839     17842     17843
     17836     17839     17842     17844     17836     17839     17842     17845
     17837     17836     17839     17840     17837     17836     17839     17841
     17837     17836     17839     17842     17838     17836     17839     17840
     17838     17836     17839     17841     17838     17836     17839     17842
     17839     17842     17845     17846     17839     17842     17845     17847
     17839     17842     17845     17848     17840     17839     17842     17843
     17840     17839     17842     17844     17840     17839     17842     17845
     17841     17839     17842     17843     17841     17839     17842     17844
     17841     17839     17842     17845     17842     17845     17848     17849
     17842     17845     17848     17850     17842     17845     17848     17851
     17843     17842     17845     17846     17843     17842     17845     17847
     17843     17842     17845     17848     17844     17842     17845     17846
     17844     17842     17845     17847     17844     17842     17845     17848
     17845     17848     17851     17852     17845     17848     17851     17853
     17845     17848     17851     17854     17846     17845     17848     17849
     17846     17845     17848     17850     17846     17845     17848     17851
     17847     17845     17848     17849     17847     17845     17848     17850
     17847     17845     17848     17851     17848     17851     17854     17855
     17848     17851     17854     17856     17848     17851     17854     17857
     17849     17848     17851     17852     17849     17848     17851     17853
     17849     17848     17851     17854     17850     17848     17851     17852
     17850     17848     17851     17853     17850     17848     17851     17854
     17851     17854     17857     17858     17851     17854     17857     17859
     17851     17854     17857     17860     17852     17851     17854     17855
     17852     17851     17854     17856     17852     17851     17854     17857
     17853     17851     17854     17855     17853     17851     17854     17856
     17853     17851     17854     17857     17854     17857     17860     17861
     17854     17857     17860     17862     17854     17857     17860     17863
     17855     17854     17857     17858     17855     17854     17857     17859
     17855     17854     17857     17860     17856     17854     17857     17858
     17856     17854     17857     17859     17856     17854     17857     17860
     17857     17860     17863     17864     17857     17860     17863     17865
     17857     17860     17863     17866     17858     17857     17860     17861
     17858     17857     17860     17862     17858     17857     17860     17863
     17859     17857     17860     17861     17859     17857     17860     17862
     17859     17857     17860     17863     17860     17863     17866     17867
     17860     17863     17866     17868     17860     17863     17866     17869
     17861     17860     17863     17864     17861     17860     17863     17865
     17861     17860     17863     17866     17862     17860     17863     17864
     17862     17860     17863     17865     17862     17860     17863     17866
     17864     17863     17866     17867     17864     17863     17866     17868
     17864     17863     17866     17869     17865     17863     17866     17867
     17865     17863     17866     17868     17865     17863     17866     17869
     13023     13036     13039     13040     13023     13036     13039     13041
     13023     13036     13039     13046     13024     13023     13028     13029
     13024     13023     13028     13030     13024     13023     13028     13031
     13024     13023     13032     13033     13024     13023     13032     13034
     13024     13023     13032     13035     13024     13023     13036     13037
     13024     13023     13036     13038     13024     13023     13036     13039
     13025     13024     13023     13028     13025     13024     13023     13032
     13025     13024     13023     13036     13026     13024     13023     13028
     13026     13024     13023     13032     13026     13024     13023     13036
     13027     13024     13023     13028     13027     13024     13023     13032
     13027     13024     13023     13036     13028     13023     13032     13033
     13028     13023     13032     13034     13028     13023     13032     13035
     13028     13023     13036     13037     13028     13023     13036     13038
     13028     13023     13036     13039     13029     13028     13023     13032
     13029     13028     13023     13036     13030     13028     13023     13032
     13030     13028     13023     13036     13031     13028     13023     13032
     13031     13028     13023     13036     13032     13023     13036     13037
     13032     13023     13036     13038     13032     13023     13036     13039
     13033     13032     13023     13036     13034     13032     13023     13036
     13035     13032     13023     13036     13036     13039     13046     13042
     13037     13036     13039     13040     13037     13036     13039     13041
     13037     13036     13039     13046     13038     13036     13039     13040
     13038     13036     13039     13041     13038     13036     13039     13046
     13039     13046     13042     13043     13039     13046     13042     13044
     13039     13046     13042     13045     13040     13039     13046     13042
     13041     13039     13046     13042     13042     13045     13047     13048
     13042     13045     13047     13049     13042     13045     13047     13052
     13043     13042     13045     13047     13044     13042     13045     13047
     13045     13047     13052     13050     13045     13047     13052     13053
     13045     13047     13052     13054     13046     13042     13045     13047
     13047     13052     13050     13051     13047     13052     13050     13102
     13047     13052     13054     13055     13047     13052     13054     13056
     13047     13052     13054     13058     13048     13047     13052     13050
     13048     13047     13052     13053     13048     13047     13052     13054
     13049     13047     13052     13050     13049     13047     13052     13053
     13049     13047     13052     13054     13050     13052     13054     13055
     13050     13052     13054     13056     13050     13052     13054     13058
     13050     13102     13104     13105     13050     13102     13104     13106
     13050     13102     13104     13107     13051     13050     13052     13053
     13051     13050     13052     13054     13051     13050     13102     13103
     13051     13050     13102     13104     13052     13050     13102     13103
     13052     13050     13102     13104     13052     13054     13056     13057
     13052     13054     13058     13059     13052     13054     13058     13060
     13053     13052     13050     13102     13053     13052     13054     13055
     13053     13052     13054     13056     13053     13052     13054     13058
     13054     13052     13050     13102     13054     13058     13060     13061
     13054     13058     13060     13062     13055     13054     13056     13057
     13055     13054     13058     13059     13055     13054     13058     13060
     13056     13054     13058     13059     13056     13054     13058     13060
     13057     13056     13054     13058     13058     13060     13062     13063
     13058     13060     13062     13064     13058     13060     13062     13065
     13059     13058     13060     13061     13059     13058     13060     13062
     13060     13062     13065     13066     13060     13062     13065     13067
     13060     13062     13065     13068     13061     13060     13062     13063
     13061     13060     13062     13064     13061     13060     13062     13065
     13062     13065     13068     13069     13062     13065     13068     13070
     13062     13065     13068     13071     13063     13062     13065     13066
     13063     13062     13065     13067     13063     13062     13065     13068
     13064     13062     13065     13066     13064     13062     13065     13067
     13064     13062     13065     13068     13065     13068     13071     13072
     13065     13068     13071     13073     13065     13068     13071     13074
     13066     13065     13068     13069     13066     13065     13068     13070
     13066     13065     13068     13071     13067     13065     13068     13069
     13067     13065     13068     13070     13067     13065     13068     13071
     13068     13071     13074     13075     13068     13071     13074     13076
     13068     13071     13074     13077     13069     13068     13071     13072
     13069     13068     13071     13073     13069     13068     13071     13074
     13070     13068     13071     13072     13070     13068     13071     13073
     13070     13068     13071     13074     13071     13074     13077     13078
     13071     13074     13077     13079     13071     13074     13077     13080
     13072     13071     13074     13075     13072     13071     13074     13076
     13072     13071     13074     13077     13073     13071     13074     13075
     13073     13071     13074     13076     13073     13071     13074     13077
     13074     13077     13080     13081     13074     13077     13080     13082
     13074     13077     13080     13083     13075     13074     13077     13078
     13075     13074     13077     13079     13075     13074     13077     13080
     13076     13074     13077     13078     13076     13074     13077     13079
     13076     13074     13077     13080     13077     13080     13083     13084
     13077     13080     13083     13085     13077     13080     13083     13086
     13078     13077     13080     13081     13078     13077     13080     13082
     13078     13077     13080     13083     13079     13077     13080     13081
     13079     13077     13080     13082     13079     13077     13080     13083
     13080     13083     13086     13087     13080     13083     13086     13088
     13080     13083     13086     13089     13081     13080     13083     13084
     13081     13080     13083     13085     13081     13080     13083     13086
     13082     13080     13083     13084     13082     13080     13083     13085
     13082     13080     13083     13086     13083     13086     13089     13090
     13083     13086     13089     13091     13083     13086     13089     13092
     13084     13083     13086     13087     13084     13083     13086     13088
     13084     13083     13086     13089     13085     13083     13086     13087
     13085     13083     13086     13088     13085     13083     13086     13089
     13086     13089     13092     13093     13086     13089     13092     13094
     13086     13089     13092     13095     13087     13086     13089     13090
     13087     13086     13089     13091     13087     13086     13089     13092
     13088     13086     13089     13090     13088     13086     13089     13091
     13088     13086     13089     13092     13089     13092     13095     13096
     13089     13092     13095     13097     13089     13092     13095     13098
     13090     13089     13092     13093     13090     13089     13092     13094
     13090     13089     13092     13095     13091     13089     13092     13093
     13091     13089     13092     13094     13091     13089     13092     13095
     13092     13095     13098     13099     13092     13095     13098     13100
     13092     13095     13098     13101     13093     13092     13095     13096
     13093     13092     13095     13097     13093     13092     13095     13098
     13094     13092     13095     13096     13094     13092     13095     13097
     13094     13092     13095     13098     13096     13095     13098     13099
     13096     13095     13098     13100     13096     13095     13098     13101
     13097     13095     13098     13099     13097     13095     13098     13100
     13097     13095     13098     13101     13102     13104     13107     13108
     13102     13104     13107     13109     13102     13104     13107     13110
     13103     13102     13104     13105     13103     13102     13104     13106
     13103     13102     13104     13107     13104     13107     13110     13111
     13104     13107     13110     13112     13104     13107     13110     13113
     13105     13104     13107     13108     13105     13104     13107     13109
     13105     13104     13107     13110     13106     13104     13107     13108
     13106     13104     13107     13109     13106     13104     13107     13110
     13107     13110     13113     13114     13107     13110     13113     13115
     13107     13110     13113     13116     13108     13107     13110     13111
     13108     13107     13110     13112     13108     13107     13110     13113
     13109     13107     13110     13111     13109     13107     13110     13112
     13109     13107     13110     13113     13110     13113     13116     13117
     13110     13113     13116     13118     13110     13113     13116     13119
     13111     13110     13113     13114     13111     13110     13113     13115
     13111     13110     13113     13116     13112     13110     13113     13114
     13112     13110     13113     13115     13112     13110     13113     13116
     13113     13116     13119     13120     13113     13116     13119     13121
     13113     13116     13119     13122     13114     13113     13116     13117
     13114     13113     13116     13118     13114     13113     13116     13119
     13115     13113     13116     13117     13115     13113     13116     13118
     13115     13113     13116     13119     13116     13119     13122     13123
     13116     13119     13122     13124     13116     13119     13122     13125
     13117     13116     13119     13120     13117     13116     13119     13121
     13117     13116     13119     13122     13118     13116     13119     13120
     13118     13116     13119     13121     13118     13116     13119     13122
     13119     13122     13125     13126     13119     13122     13125     13127
     13120     13119     13122     13123     13120     13119     13122     13124
     13120     13119     13122     13125     13121     13119     13122     13123
     13121     13119     13122     13124     13121     13119     13122     13125
     13122     13125     13127     13128     13122     13125     13127     13129
     13123     13122     13125     13126     13123     13122     13125     13127
     13124     13122     13125     13126     13124     13122     13125     13127
     13125     13127     13129     13130     13125     13127     13129     13131
     13125     13127     13129     13132     13126     13125     13127     13128
     13126     13125     13127     13129     13127     13129     13132     13133
     13127     13129     13132     13134     13127     13129     13132     13135
     13128     13127     13129     13130     13128     13127     13129     13131
     13128     13127     13129     13132     13129     13132     13135     13136
     13129     13132     13135     13137     13129     13132     13135     13138
     13130     13129     13132     13133     13130     13129     13132     13134
     13130     13129     13132     13135     13131     13129     13132     13133
     13131     13129     13132     13134     13131     13129     13132     13135
     13132     13135     13138     13139     13132     13135     13138     13140
     13132     13135     13138     13141     13133     13132     13135     13136
     13133     13132     13135     13137     13133     13132     13135     13138
     13134     13132     13135     13136     13134     13132     13135     13137
     13134     13132     13135     13138     13135     13138     13141     13142
     13135     13138     13141     13143     13135     13138     13141     13144
     13136     13135     13138     13139     13136     13135     13138     13140
     13136     13135     13138     13141     13137     13135     13138     13139
     13137     13135     13138     13140     13137     13135     13138     13141
     13138     13141     13144     13145     13138     13141     13144     13146
     13138     13141     13144     13147     13139     13138     13141     13142
     13139     13138     13141     13143     13139     13138     13141     13144
     13140     13138     13141     13142     13140     13138     13141     13143
     13140     13138     13141     13144     13141     13144     13147     13148
     13141     13144     13147     13149     13141     13144     13147     13150
     13142     13141     13144     13145     13142     13141     13144     13146
     13142     13141     13144     13147     13143     13141     13144     13145
     13143     13141     13144     13146     13143     13141     13144     13147
     13144     13147     13150     13151     13144     13147     13150     13152
     13144     13147     13150     13153     13145     13144     13147     13148
     13145     13144     13147     13149     13145     13144     13147     13150
     13146     13144     13147     13148     13146     13144     13147     13149
     13146     13144     13147     13150     13148     13147     13150     13151
     13148     13147     13150     13152     13148     13147     13150     13153
     13149     13147     13150     13151     13149     13147     13150     13152
     13149     13147     13150     13153      8944      8948      8950      8951
      8944      8948      8950      8952      8944      8948      8953      8954
      8944      8948      8953      8955      8944      8948      8953      8959
      8945      8944      8948      8949      8945      8944      8948      8950
      8945      8944      8948      8953      8946      8944      8948      8949
      8946      8944      8948      8950      8946      8944      8948      8953
      8947      8944      8948      8949      8947      8944      8948      8950
      8947      8944      8948      8953      8948      8953      8959      8956
      8949      8948      8950      8951      8949      8948      8950      8952
      8949      8948      8953      8954      8949      8948      8953      8955
      8949      8948      8953      8959      8950      8948      8953      8954
      8950      8948      8953      8955      8950      8948      8953      8959
      8951      8950      8948      8953      8952      8950      8948      8953
      8953      8959      8956      8957      8953      8959      8956      8958
      8953      8959      8956      8960      8954      8953      8959      8956
      8955      8953      8959      8956      8956      8960      8961      8962
      8956      8960      8961      8963      8956      8960      8961      8964
      8957      8956      8960      8961      8958      8956      8960      8961
      8959      8956      8960      8961      8960      8961      8964      8965
      8960      8961      8964      8966      8960      8961      8964      8972
      8961      8964      8966      8967      8961      8964      8972      8973
      8961      8964      8972      8974      8961      8964      8972      8975
      8962      8961      8964      8965      8962      8961      8964      8966
      8962      8961      8964      8972      8963      8961      8964      8965
      8963      8961      8964      8966      8963      8961      8964      8972
      8964      8966      8967      8968      8964      8966      8967      8969
      8964      8972      8975      8976      8965      8964      8966      8967
      8965      8964      8972      8973      8965      8964      8972      8974
      8965      8964      8972      8975      8966      8964      8972      8973
      8966      8964      8972      8974      8966      8964      8972      8975
      8966      8967      8969      8970      8966      8967      8969      8971
      8966      8967      8969      8981      8967      8966      8964      8972
      8967      8969      8981      8982      8967      8969      8981      8983
      8967      8969      8981      8984      8968      8967      8969      8970
      8968      8967      8969      8971      8968      8967      8969      8981
      8969      8981      8984      8985      8969      8981      8984      8986
      8969      8981      8984      8987      8970      8969      8981      8982
      8970      8969      8981      8983      8970      8969      8981      8984
      8971      8969      8981      8982      8971      8969      8981      8983
      8971      8969      8981      8984      8972      8975      8976      8977
      8972      8975      8976      8978      8973      8972      8975      8976
      8974      8972      8975      8976      8975      8976      8978      8979
      8975      8976      8978      8980      8975      8976      8978      9028
      8976      8978      9028      9029      8976      8978      9028      9030
      8976      8978      9028      9031      8977      8976      8978      8979
      8977      8976      8978      8980      8977      8976      8978      9028
      8978      9028      9031      9032      8978      9028      9031      9033
      8978      9028      9031      9034      8979      8978      9028      9029
      8979      8978      9028      9030      8979      8978      9028      9031
      8980      8978      9028      9029      8980      8978      9028      9030
      8980      8978      9028      9031      8981      8984      8987      8988
      8981      8984      8987      8989      8982      8981      8984      8985
      8982      8981      8984      8986      8982      8981      8984      8987
      8983      8981      8984      8985      8983      8981      8984      8986
      8983      8981      8984      8987      8984      8987      8989      8990
      8984      8987      8989      8991      8985      8984      8987      8988
      8985      8984      8987      8989      8986      8984      8987      8988
      8986      8984      8987      8989      8987      8989      8991      8992
      8987      8989      8991      8993      8987      8989      8991      8994
      8988      8987      8989      8990      8988      8987      8989      8991
      8989      8991      8994      8995      8989      8991      8994      8996
      8990      8989      8991      8992      8990      8989      8991      8993
      8990      8989      8991      8994      8991      8994      8996      8997
      8991      8994      8996      8998      8992      8991      8994      8995
      8992      8991      8994      8996      8993      8991      8994      8995
      8993      8991      8994      8996      8994      8996      8998      8999
      8994      8996      8998      9000      8994      8996      8998      9001
      8995      8994      8996      8997      8995      8994      8996      8998
      8996      8998      9001      9002      8996      8998      9001      9003
      8997      8996      8998      8999      8997      8996      8998      9000
      8997      8996      8998      9001      8998      9001      9003      9004
      8998      9001      9003      9005      8999      8998      9001      9002
      8999      8998      9001      9003      9000      8998      9001      9002
      9000      8998      9001      9003      9001      9003      9005      9006
      9001      9003      9005      9007      9001      9003      9005      9008
      9002      9001      9003      9004      9002      9001      9003      9005
      9003      9005      9008      9009      9003      9005      9008      9010
      9004      9003      9005      9006      9004      9003      9005      9007
      9004      9003      9005      9008      9005      9008      9010      9011
      9005      9008      9010      9012      9006      9005      9008      9009
      9006      9005      9008      9010      9007      9005      9008      9009
      9007      9005      9008      9010      9008      9010      9012      9013
      9008      9010      9012      9014      9008      9010      9012      9015
      9009      9008      9010      9011      9009      9008      9010      9012
      9010      9012      9015      9016      9010      9012      9015      9017
      9010      9012      9015      9018      9011      9010      9012      9013
      9011      9010      9012      9014      9011      9010      9012      9015
      9012      9015      9018      9019      9012      9015      9018      9020
      9012      9015      9018      9021      9013      9012      9015      9016
      9013      9012      9015      9017      9013      9012      9015      9018
      9014      9012      9015      9016      9014      9012      9015      9017
      9014      9012      9015      9018      9015      9018      9021      9022
      9015      9018      9021      9023      9015      9018      9021      9024
      9016      9015      9018      9019      9016      9015      9018      9020
      9016      9015      9018      9021      9017      9015      9018      9019
      9017      9015      9018      9020      9017      9015      9018      9021
      9018      9021      9024      9025      9018      9021      9024      9026
      9018      9021      9024      9027      9019      9018      9021      9022
      9019      9018      9021      9023      9019      9018      9021      9024
      9020      9018      9021      9022      9020      9018      9021      9023
      9020      9018      9021      9024      9022      9021      9024      9025
      9022      9021      9024      9026      9022      9021      9024      9027
      9023      9021      9024      9025      9023      9021      9024      9026
      9023      9021      9024      9027      9028      9031      9034      9035
      9028      9031      9034      9036      9028      9031      9034      9037
      9029      9028      9031      9032      9029      9028      9031      9033
      9029      9028      9031      9034      9030      9028      9031      9032
      9030      9028      9031      9033      9030      9028      9031      9034
      9031      9034      9037      9038      9031      9034      9037      9039
      9031      9034      9037      9040      9032      9031      9034      9035
      9032      9031      9034      9036      9032      9031      9034      9037
      9033      9031      9034      9035      9033      9031      9034      9036
      9033      9031      9034      9037      9034      9037      9040      9041
      9034      9037      9040      9042      9034      9037      9040      9043
      9035      9034      9037      9038      9035      9034      9037      9039
      9035      9034      9037      9040      9036      9034      9037      9038
      9036      9034      9037      9039      9036      9034      9037      9040
      9037      9040      9043      9044      9037      9040      9043      9045
      9037      9040      9043      9046      9038      9037      9040      9041
      9038      9037      9040      9042      9038      9037      9040      9043
      9039      9037      9040      9041      9039      9037      9040      9042
      9039      9037      9040      9043      9040      9043      9046      9047
      9040      9043      9046      9048      9040      9043      9046      9049
      9041      9040      9043      9044      9041      9040      9043      9045
      9041      9040      9043      9046      9042      9040      9043      9044
      9042      9040      9043      9045      9042      9040      9043      9046
      9043      9046      9049      9050      9043      9046      9049      9051
      9043      9046      9049      9052      9044      9043      9046      9047
      9044      9043      9046      9048      9044      9043      9046      9049
      9045      9043      9046      9047      9045      9043      9046      9048
      9045      9043      9046      9049      9046      9049      9052      9053
      9046      9049      9052      9054      9046      9049      9052      9055
      9047      9046      9049      9050      9047      9046      9049      9051
      9047      9046      9049      9052      9048      9046      9049      9050
      9048      9046      9049      9051      9048      9046      9049      9052
      9049      9052      9055      9056      9049      9052      9055      9057
      9049      9052      9055      9058      9050      9049      9052      9053
      9050      9049      9052      9054      9050      9049      9052      9055
      9051      9049      9052      9053      9051      9049      9052      9054
      9051      9049      9052      9055      9052      9055      9058      9059
      9052      9055      9058      9060      9052      9055      9058      9061
      9053      9052      9055      9056      9053      9052      9055      9057
      9053      9052      9055      9058      9054      9052      9055      9056
      9054      9052      9055      9057      9054      9052      9055      9058
      9055      9058      9061      9062      9055      9058      9061      9063
      9055      9058      9061      9064      9056      9055      9058      9059
      9056      9055      9058      9060      9056      9055      9058      9061
      9057      9055      9058      9059      9057      9055      9058      9060
      9057      9055      9058      9061      9058      9061      9064      9065
      9058      9061      9064      9066      9058      9061      9064      9067
      9059      9058      9061      9062      9059      9058      9061      9063
      9059      9058      9061      9064      9060      9058      9061      9062
      9060      9058      9061      9063      9060      9058      9061      9064
      9061      9064      9067      9068      9061      9064      9067      9069
      9061      9064      9067      9070      9062      9061      9064      9065
      9062      9061      9064      9066      9062      9061      9064      9067
      9063      9061      9064      9065      9063      9061      9064      9066
      9063      9061      9064      9067      9064      9067      9070      9071
      9064      9067      9070      9072      9064      9067      9070      9073
      9065      9064      9067      9068      9065      9064      9067      9069
      9065      9064      9067      9070      9066      9064      9067      9068
      9066      9064      9067      9069      9066      9064      9067      9070
      9067      9070      9073      9074      9067      9070      9073      9075
      9067      9070      9073      9076      9068      9067      9070      9071
      9068      9067      9070      9072      9068      9067      9070      9073
      9069      9067      9070      9071      9069      9067      9070      9072
      9069      9067      9070      9073      9071      9070      9073      9074
      9071      9070      9073      9075      9071      9070      9073      9076
      9072      9070      9073      9074      9072      9070      9073      9075
      9072      9070      9073      9076     21985     21986     22001     22002
     21985     21986     22001     22003     21985     21986     22001     22007
     21986     21985     21989     21990     21986     21985     21989     21991
     21986     21985     21989     21992     21986     21985     21993     21994
     21986     21985     21993     21995     21986     21985     21993     21996
     21986     21985     21997     21998     21986     21985     21997     21999
     21986     21985     21997     22000     21986     22001     22007     22004
     21987     21986     21985     21989     21987     21986     21985     21993
     21987     21986     21985     21997     21987     21986     22001     22002
     21987     21986     22001     22003     21987     21986     22001     22007
     21988     21986     21985     21989     21988     21986     21985     21993
     21988     21986     21985     21997     21988     21986     22001     22002
     21988     21986     22001     22003     21988     21986     22001     22007
     21989     21985     21986     22001     21989     21985     21993     21994
     21989     21985     21993     21995     21989     21985     21993     21996
     21989     21985     21997     21998     21989     21985     21997     21999
     21989     21985     21997     22000     21990     21989     21985     21993
     21990     21989     21985     21997     21991     21989     21985     21993
     21991     21989     21985     21997     21992     21989     21985     21993
     21992     21989     21985     21997     21993     21985     21986     22001
     21993     21985     21997     21998     21993     21985     21997     21999
     21993     21985     21997     22000     21994     21993     21985     21997
     21995     21993     21985     21997     21996     21993     21985     21997
     21997     21985     21986     22001     22001     22007     22004     22005
     22001     22007     22004     22006     22001     22007     22004     22008
     22002     22001     22007     22004     22003     22001     22007     22004
     22004     22008     22009     22010     22004     22008     22009     22011
     22004     22008     22009     22012     22005     22004     22008     22009
     22006     22004     22008     22009     22007     22004     22008     22009
     22008     22009     22012     22013     22008     22009     22012     22014
     22008     22009     22012     22020     22009     22012     22014     22015
     22009     22012     22020     22021     22009     22012     22020     22022
     22009     22012     22020     22023     22010     22009     22012     22013
     22010     22009     22012     22014     22010     22009     22012     22020
     22011     22009     22012     22013     22011     22009     22012     22014
     22011     22009     22012     22020     22012     22014     22015     22016
     22012     22014     22015     22017     22012     22020     22023     22024
     22013     22012     22014     22015     22013     22012     22020     22021
     22013     22012     22020     22022     22013     22012     22020     22023
     22014     22012     22020     22021     22014     22012     22020     22022
     22014     22012     22020     22023     22014     22015     22017     22018
     22014     22015     22017     22019     22014     22015     22017     22029
     22015     22014     22012     22020     22015     22017     22029     22030
     22015     22017     22029     22031     22015     22017     22029     22032
     22016     22015     22017     22018     22016     22015     22017     22019
     22016     22015     22017     22029     22017     22029     22032     22033
     22017     22029     22032     22034     22017     22029     22032     22035
     22018     22017     22029     22030     22018     22017     22029     22031
     22018     22017     22029     22032     22019     22017     22029     22030
     22019     22017     22029     22031     22019     22017     22029     22032
     22020     22023     22024     22025     22020     22023     22024     22026
     22021     22020     22023     22024     22022     22020     22023     22024
     22023     22024     22026     22027     22023     22024     22026     22028
     22023     22024     22026     22076     22024     22026     22076     22077
     22024     22026     22076     22078     22024     22026     22076     22079
     22025     22024     22026     22027     22025     22024     22026     22028
     22025     22024     22026     22076     22026     22076     22079     22080
     22026     22076     22079     22081     22026     22076     22079     22082
     22027     22026     22076     22077     22027     22026     22076     22078
     22027     22026     22076     22079     22028     22026     22076     22077
     22028     22026     22076     22078     22028     22026     22076     22079
     22029     22032     22035     22036     22029     22032     22035     22037
     22029     22032     22035     22038     22030     22029     22032     22033
     22030     22029     22032     22034     22030     22029     22032     22035
     22031     22029     22032     22033     22031     22029     22032     22034
     22031     22029     22032     22035     22032     22035     22038     22039
     22032     22035     22038     22040     22032     22035     22038     22041
     22033     22032     22035     22036     22033     22032     22035     22037
     22033     22032     22035     22038     22034     22032     22035     22036
     22034     22032     22035     22037     22034     22032     22035     22038
     22035     22038     22041     22042     22035     22038     22041     22043
     22035     22038     22041     22044     22036     22035     22038     22039
     22036     22035     22038     22040     22036     22035     22038     22041
     22037     22035     22038     22039     22037     22035     22038     22040
     22037     22035     22038     22041     22038     22041     22044     22045
     22038     22041     22044     22046     22038     22041     22044     22047
     22039     22038     22041     22042     22039     22038     22041     22043
     22039     22038     22041     22044     22040     22038     22041     22042
     22040     22038     22041     22043     22040     22038     22041     22044
     22041     22044     22047     22048     22041     22044     22047     22049
     22042     22041     22044     22045     22042     22041     22044     22046
     22042     22041     22044     22047     22043     22041     22044     22045
     22043     22041     22044     22046     22043     22041     22044     22047
     22044     22047     22049     22050     22044     22047     22049     22051
     22045     22044     22047     22048     22045     22044     22047     22049
     22046     22044     22047     22048     22046     22044     22047     22049
     22047     22049     22051     22052     22047     22049     22051     22053
     22047     22049     22051     22054     22048     22047     22049     22050
     22048     22047     22049     22051     22049     22051     22054     22055
     22049     22051     22054     22056     22049     22051     22054     22057
     22050     22049     22051     22052     22050     22049     22051     22053
     22050     22049     22051     22054     22051     22054     22057     22058
     22051     22054     22057     22059     22051     22054     22057     22060
     22052     22051     22054     22055     22052     22051     22054     22056
     22052     22051     22054     22057     22053     22051     22054     22055
     22053     22051     22054     22056     22053     22051     22054     22057
     22054     22057     22060     22061     22054     22057     22060     22062
     22054     22057     22060     22063     22055     22054     22057     22058
     22055     22054     22057     22059     22055     22054     22057     22060
     22056     22054     22057     22058     22056     22054     22057     22059
     22056     22054     22057     22060     22057     22060     22063     22064
     22057     22060     22063     22065     22057     22060     22063     22066
     22058     22057     22060     22061     22058     22057     22060     22062
     22058     22057     22060     22063     22059     22057     22060     22061
     22059     22057     22060     22062     22059     22057     22060     22063
     22060     22063     22066     22067     22060     22063     22066     22068
     22060     22063     22066     22069     22061     22060     22063     22064
     22061     22060     22063     22065     22061     22060     22063     22066
     22062     22060     22063     22064     22062     22060     22063     22065
     22062     22060     22063     22066     22063     22066     22069     22070
     22063     22066     22069     22071     22063     22066     22069     22072
     22064     22063     22066     22067     22064     22063     22066     22068
     22064     22063     22066     22069     22065     22063     22066     22067
     22065     22063     22066     22068     22065     22063     22066     22069
     22066     22069     22072     22073     22066     22069     22072     22074
     22066     22069     22072     22075     22067     22066     22069     22070
     22067     22066     22069     22071     22067     22066     22069     22072
     22068     22066     22069     22070     22068     22066     22069     22071
     22068     22066     22069     22072     22070     22069     22072     22073
     22070     22069     22072     22074     22070     22069     22072     22075
     22071     22069     22072     22073     22071     22069     22072     22074
     22071     22069     22072     22075     22076     22079     22082     22083
     22076     22079     22082     22084     22076     22079     22082     22085
     22077     22076     22079     22080     22077     22076     22079     22081
     22077     22076     22079     22082     22078     22076     22079     22080
     22078     22076     22079     22081     22078     22076     22079     22082
     22079     22082     22085     22086     22079     22082     22085     22087
     22079     22082     22085     22088     22080     22079     22082     22083
     22080     22079     22082     22084     22080     22079     22082     22085
     22081     22079     22082     22083     22081     22079     22082     22084
     22081     22079     22082     22085     22082     22085     22088     22089
     22082     22085     22088     22090     22082     22085     22088     22091
     22083     22082     22085     22086     22083     22082     22085     22087
     22083     22082     22085     22088     22084     22082     22085     22086
     22084     22082     22085     22087     22084     22082     22085     22088
     22085     22088     22091     22092     22085     22088     22091     22093
     22085     22088     22091     22094     22086     22085     22088     22089
     22086     22085     22088     22090     22086     22085     22088     22091
     22087     22085     22088     22089     22087     22085     22088     22090
     22087     22085     22088     22091     22088     22091     22094     22095
     22088     22091     22094     22096     22088     22091     22094     22097
     22089     22088     22091     22092     22089     22088     22091     22093
     22089     22088     22091     22094     22090     22088     22091     22092
     22090     22088     22091     22093     22090     22088     22091     22094
     22091     22094     22097     22098     22091     22094     22097     22099
     22091     22094     22097     22100     22092     22091     22094     22095
     22092     22091     22094     22096     22092     22091     22094     22097
     22093     22091     22094     22095     22093     22091     22094     22096
     22093     22091     22094     22097     22094     22097     22100     22101
     22094     22097     22100     22102     22094     22097     22100     22103
     22095     22094     22097     22098     22095     22094     22097     22099
     22095     22094     22097     22100     22096     22094     22097     22098
     22096     22094     22097     22099     22096     22094     22097     22100
     22097     22100     22103     22104     22097     22100     22103     22105
     22097     22100     22103     22106     22098     22097     22100     22101
     22098     22097     22100     22102     22098     22097     22100     22103
     22099     22097     22100     22101     22099     22097     22100     22102
     22099     22097     22100     22103     22100     22103     22106     22107
     22100     22103     22106     22108     22100     22103     22106     22109
     22101     22100     22103     22104     22101     22100     22103     22105
     22101     22100     22103     22106     22102     22100     22103     22104
     22102     22100     22103     22105     22102     22100     22103     22106
     22103     22106     22109     22110     22103     22106     22109     22111
     22103     22106     22109     22112     22104     22103     22106     22107
     22104     22103     22106     22108     22104     22103     22106     22109
     22105     22103     22106     22107     22105     22103     22106     22108
     22105     22103     22106     22109     22106     22109     22112     22113
     22106     22109     22112     22114     22106     22109     22112     22115
     22107     22106     22109     22110     22107     22106     22109     22111
     22107     22106     22109     22112     22108     22106     22109     22110
     22108     22106     22109     22111     22108     22106     22109     22112
     22109     22112     22115     22116     22109     22112     22115     22117
     22109     22112     22115     22118     22110     22109     22112     22113
     22110     22109     22112     22114     22110     22109     22112     22115
     22111     22109     22112     22113     22111     22109     22112     22114
     22111     22109     22112     22115     22113     22112     22115     22116
     22113     22112     22115     22117     22113     22112     22115     22118
     22114     22112     22115     22116     22114     22112     22115     22117
     22114     22112     22115     22118     17870     17874     17877     17878
     17870     17874     17877     17879     17870     17874     17877     17883
     17871     17870     17874     17875     17871     17870     17874     17876
     17871     17870     17874     17877     17872     17870     17874     17875
     17872     17870     17874     17876     17872     17870     17874     17877
     17873     17870     17874     17875     17873     17870     17874     17876
     17873     17870     17874     17877     17874     17877     17883     17880
     17875     17874     17877     17878     17875     17874     17877     17879
     17875     17874     17877     17883     17876     17874     17877     17878
     17876     17874     17877     17879     17876     17874     17877     17883
     17877     17883     17880     17881     17877     17883     17880     17882
     17877     17883     17880     17884     17878     17877     17883     17880
     17879     17877     17883     17880     17880     17884     17885     17886
     17880     17884     17885     17887     17880     17884     17885     17888
     17881     17880     17884     17885     17882     17880     17884     17885
     17883     17880     17884     17885     17884     17885     17888     17889
     17884     17885     17888     17890     17884     17885     17888     17896
     17885     17888     17890     17891     17885     17888     17896     17897
     17885     17888     17896     17898     17885     17888     17896     17899
     17886     17885     17888     17889     17886     17885     17888     17890
     17886     17885     17888     17896     17887     17885     17888     17889
     17887     17885     17888     17890     17887     17885     17888     17896
     17888     17890     17891     17892     17888     17890     17891     17893
     17888     17896     17899     17900     17889     17888     17890     17891
     17889     17888     17896     17897     17889     17888     17896     17898
     17889     17888     17896     17899     17890     17888     17896     17897
     17890     17888     17896     17898     17890     17888     17896     17899
     17890     17891     17893     17894     17890     17891     17893     17895
     17890     17891     17893     17905     17891     17890     17888     17896
     17891     17893     17905     17906     17891     17893     17905     17907
     17891     17893     17905     17908     17892     17891     17893     17894
     17892     17891     17893     17895     17892     17891     17893     17905
     17893     17905     17908     17909     17893     17905     17908     17910
     17893     17905     17908     17911     17894     17893     17905     17906
     17894     17893     17905     17907     17894     17893     17905     17908
     17895     17893     17905     17906     17895     17893     17905     17907
     17895     17893     17905     17908     17896     17899     17900     17901
     17896     17899     17900     17902     17897     17896     17899     17900
     17898     17896     17899     17900     17899     17900     17902     17903
     17899     17900     17902     17904     17899     17900     17902     17952
     17900     17902     17952     17953     17900     17902     17952     17954
     17900     17902     17952     17955     17901     17900     17902     17903
     17901     17900     17902     17904     17901     17900     17902     17952
     17902     17952     17955     17956     17902     17952     17955     17957
     17902     17952     17955     17958     17903     17902     17952     17953
     17903     17902     17952     17954     17903     17902     17952     17955
     17904     17902     17952     17953     17904     17902     17952     17954
     17904     17902     17952     17955     17905     17908     17911     17912
     17905     17908     17911     17913     17906     17905     17908     17909
     17906     17905     17908     17910     17906     17905     17908     17911
     17907     17905     17908     17909     17907     17905     17908     17910
     17907     17905     17908     17911     17908     17911     17913     17914
     17908     17911     17913     17915     17909     17908     17911     17912
     17909     17908     17911     17913     17910     17908     17911     17912
     17910     17908     17911     17913     17911     17913     17915     17916
     17911     17913     17915     17917     17911     17913     17915     17918
     17912     17911     17913     17914     17912     17911     17913     17915
     17913     17915     17918     17919     17913     17915     17918     17920
     17914     17913     17915     17916     17914     17913     17915     17917
     17914     17913     17915     17918     17915     17918     17920     17921
     17915     17918     17920     17922     17916     17915     17918     17919
     17916     17915     17918     17920     17917     17915     17918     17919
     17917     17915     17918     17920     17918     17920     17922     17923
     17918     17920     17922     17924     17918     17920     17922     17925
     17919     17918     17920     17921     17919     17918     17920     17922
     17920     17922     17925     17926     17920     17922     17925     17927
     17921     17920     17922     17923     17921     17920     17922     17924
     17921     17920     17922     17925     17922     17925     17927     17928
     17922     17925     17927     17929     17923     17922     17925     17926
     17923     17922     17925     17927     17924     17922     17925     17926
     17924     17922     17925     17927     17925     17927     17929     17930
     17925     17927     17929     17931     17925     17927     17929     17932
     17926     17925     17927     17928     17926     17925     17927     17929
     17927     17929     17932     17933     17927     17929     17932     17934
     17928     17927     17929     17930     17928     17927     17929     17931
     17928     17927     17929     17932     17929     17932     17934     17935
     17929     17932     17934     17936     17930     17929     17932     17933
     17930     17929     17932     17934     17931     17929     17932     17933
     17931     17929     17932     17934     17932     17934     17936     17937
     17932     17934     17936     17938     17932     17934     17936     17939
     17933     17932     17934     17935     17933     17932     17934     17936
     17934     17936     17939     17940     17934     17936     17939     17941
     17934     17936     17939     17942     17935     17934     17936     17937
     17935     17934     17936     17938     17935     17934     17936     17939
     17936     17939     17942     17943     17936     17939     17942     17944
     17936     17939     17942     17945     17937     17936     17939     17940
     17937     17936     17939     17941     17937     17936     17939     17942
     17938     17936     17939     17940     17938     17936     17939     17941
     17938     17936     17939     17942     17939     17942     17945     17946
     17939     17942     17945     17947     17939     17942     17945     17948
     17940     17939     17942     17943     17940     17939     17942     17944
     17940     17939     17942     17945     17941     17939     17942     17943
     17941     17939     17942     17944     17941     17939     17942     17945
     17942     17945     17948     17949     17942     17945     17948     17950
     17942     17945     17948     17951     17943     17942     17945     17946
     17943     17942     17945     17947     17943     17942     17945     17948
     17944     17942     17945     17946     17944     17942     17945     17947
     17944     17942     17945     17948     17946     17945     17948     17949
     17946     17945     17948     17950     17946     17945     17948     17951
     17947     17945     17948     17949     17947     17945     17948     17950
     17947     17945     17948     17951     17952     17955     17958     17959
     17952     17955     17958     17960     17952     17955     17958     17961
     17953     17952     17955     17956     17953     17952     17955     17957
     17953     17952     17955     17958     17954     17952     17955     17956
     17954     17952     17955     17957     17954     17952     17955     17958
     17955     17958     17961     17962     17955     17958     17961     17963
     17955     17958     17961     17964     17956     17955     17958     17959
     17956     17955     17958     17960     17956     17955     17958     17961
     17957     17955     17958     17959     17957     17955     17958     17960
     17957     17955     17958     17961     17958     17961     17964     17965
     17958     17961     17964     17966     17958     17961     17964     17967
     17959     17958     17961     17962     17959     17958     17961     17963
     17959     17958     17961     17964     17960     17958     17961     17962
     17960     17958     17961     17963     17960     17958     17961     17964
     17961     17964     17967     17968     17961     17964     17967     17969
     17961     17964     17967     17970     17962     17961     17964     17965
     17962     17961     17964     17966     17962     17961     17964     17967
     17963     17961     17964     17965     17963     17961     17964     17966
     17963     17961     17964     17967     17964     17967     17970     17971
     17964     17967     17970     17972     17964     17967     17970     17973
     17965     17964     17967     17968     17965     17964     17967     17969
     17965     17964     17967     17970     17966     17964     17967     17968
     17966     17964     17967     17969     17966     17964     17967     17970
     17967     17970     17973     17974     17967     17970     17973     17975
     17967     17970     17973     17976     17968     17967     17970     17971
     17968     17967     17970     17972     17968     17967     17970     17973
     17969     17967     17970     17971     17969     17967     17970     17972
     17969     17967     17970     17973     17970     17973     17976     17977
     17970     17973     17976     17978     17970     17973     17976     17979
     17971     17970     17973     17974     17971     17970     17973     17975
     17971     17970     17973     17976     17972     17970     17973     17974
     17972     17970     17973     17975     17972     17970     17973     17976
     17973     17976     17979     17980     17973     17976     17979     17981
     17973     17976     17979     17982     17974     17973     17976     17977
     17974     17973     17976     17978     17974     17973     17976     17979
     17975     17973     17976     17977     17975     17973     17976     17978
     17975     17973     17976     17979     17976     17979     17982     17983
     17976     17979     17982     17984     17976     17979     17982     17985
     17977     17976     17979     17980     17977     17976     17979     17981
     17977     17976     17979     17982     17978     17976     17979     17980
     17978     17976     17979     17981     17978     17976     17979     17982
     17979     17982     17985     17986     17979     17982     17985     17987
     17979     17982     17985     17988     17980     17979     17982     17983
     17980     17979     17982     17984     17980     17979     17982     17985
     17981     17979     17982     17983     17981     17979     17982     17984
     17981     17979     17982     17985     17982     17985     17988     17989
     17982     17985     17988     17990     17982     17985     17988     17991
     17983     17982     17985     17986     17983     17982     17985     17987
     17983     17982     17985     17988     17984     17982     17985     17986
     17984     17982     17985     17987     17984     17982     17985     17988
     17985     17988     17991     17992     17985     17988     17991     17993
     17985     17988     17991     17994     17986     17985     17988     17989
     17986     17985     17988     17990     17986     17985     17988     17991
     17987     17985     17988     17989     17987     17985     17988     17990
     17987     17985     17988     17991     17988     17991     17994     17995
     17988     17991     17994     17996     17988     17991     17994     17997
     17989     17988     17991     17992     17989     17988     17991     17993
     17989     17988     17991     17994     17990     17988     17991     17992
     17990     17988     17991     17993     17990     17988     17991     17994
     17991     17994     17997     17998     17991     17994     17997     17999
     17991     17994     17997     18000     17992     17991     17994     17995
     17992     17991     17994     17996     17992     17991     17994     17997
     17993     17991     17994     17995     17993     17991     17994     17996
     17993     17991     17994     17997     17995     17994     17997     17998
     17995     17994     17997     17999     17995     17994     17997     18000
     17996     17994     17997     17998     17996     17994     17997     17999
     17996     17994     17997     18000      9077      9081      9083      9084
      9077      9081      9083      9085      9077      9081      9086      9087
      9077      9081      9086      9088      9077      9081      9086      9092
      9078      9077      9081      9082      9078      9077      9081      9083
      9078      9077      9081      9086      9079      9077      9081      9082
      9079      9077      9081      9083      9079      9077      9081      9086
      9080      9077      9081      9082      9080      9077      9081      9083
      9080      9077      9081      9086      9081      9086      9092      9089
      9082      9081      9083      9084      9082      9081      9083      9085
      9082      9081      9086      9087      9082      9081      9086      9088
      9082      9081      9086      9092      9083      9081      9086      9087
      9083      9081      9086      9088      9083      9081      9086      9092
      9084      9083      9081      9086      9085      9083      9081      9086
      9086      9092      9089      9090      9086      9092      9089      9091
      9086      9092      9089      9093      9087      9086      9092      9089
      9088      9086      9092      9089      9089      9093      9094      9095
      9089      9093      9094      9096      9089      9093      9094      9097
      9090      9089      9093      9094      9091      9089      9093      9094
      9092      9089      9093      9094      9093      9094      9097      9098
      9093      9094      9097      9099      9093      9094      9097      9105
      9094      9097      9099      9100      9094      9097      9105      9106
      9094      9097      9105      9107      9094      9097      9105      9108
      9095      9094      9097      9098      9095      9094      9097      9099
      9095      9094      9097      9105      9096      9094      9097      9098
      9096      9094      9097      9099      9096      9094      9097      9105
      9097      9099      9100      9101      9097      9099      9100      9102
      9097      9105      9108      9109      9098      9097      9099      9100
      9098      9097      9105      9106      9098      9097      9105      9107
      9098      9097      9105      9108      9099      9097      9105      9106
      9099      9097      9105      9107      9099      9097      9105      9108
      9099      9100      9102      9103      9099      9100      9102      9104
      9099      9100      9102      9114      9100      9099      9097      9105
      9100      9102      9114      9115      9100      9102      9114      9116
      9100      9102      9114      9117      9101      9100      9102      9103
      9101      9100      9102      9104      9101      9100      9102      9114
      9102      9114      9117      9118      9102      9114      9117      9119
      9102      9114      9117      9120      9103      9102      9114      9115
      9103      9102      9114      9116      9103      9102      9114      9117
      9104      9102      9114      9115      9104      9102      9114      9116
      9104      9102      9114      9117      9105      9108      9109      9110
      9105      9108      9109      9111      9106      9105      9108      9109
      9107      9105      9108      9109      9108      9109      9111      9112
      9108      9109      9111      9113      9108      9109      9111      9161
      9109      9111      9161      9162      9109      9111      9161      9163
      9109      9111      9161      9164      9110      9109      9111      9112
      9110      9109      9111      9113      9110      9109      9111      9161
      9111      9161      9164      9165      9111      9161      9164      9166
      9111      9161      9164      9167      9112      9111      9161      9162
      9112      9111      9161      9163      9112      9111      9161      9164
      9113      9111      9161      9162      9113      9111      9161      9163
      9113      9111      9161      9164      9114      9117      9120      9121
      9114      9117      9120      9122      9115      9114      9117      9118
      9115      9114      9117      9119      9115      9114      9117      9120
      9116      9114      9117      9118      9116      9114      9117      9119
      9116      9114      9117      9120      9117      9120      9122      9123
      9117      9120      9122      9124      9118      9117      9120      9121
      9118      9117      9120      9122      9119      9117      9120      9121
      9119      9117      9120      9122      9120      9122      9124      9125
      9120      9122      9124      9126      9120      9122      9124      9127
      9121      9120      9122      9123      9121      9120      9122      9124
      9122      9124      9127      9128      9122      9124      9127      9129
      9123      9122      9124      9125      9123      9122      9124      9126
      9123      9122      9124      9127      9124      9127      9129      9130
      9124      9127      9129      9131      9125      9124      9127      9128
      9125      9124      9127      9129      9126      9124      9127      9128
      9126      9124      9127      9129      9127      9129      9131      9132
      9127      9129      9131      9133      9127      9129      9131      9134
      9128      9127      9129      9130      9128      9127      9129      9131
      9129      9131      9134      9135      9129      9131      9134      9136
      9130      9129      9131      9132      9130      9129      9131      9133
      9130      9129      9131      9134      9131      9134      9136      9137
      9131      9134      9136      9138      9132      9131      9134      9135
      9132      9131      9134      9136      9133      9131      9134      9135
      9133      9131      9134      9136      9134      9136      9138      9139
      9134      9136      9138      9140      9134      9136      9138      9141
      9135      9134      9136      9137      9135      9134      9136      9138
      9136      9138      9141      9142      9136      9138      9141      9143
      9137      9136      9138      9139      9137      9136      9138      9140
      9137      9136      9138      9141      9138      9141      9143      9144
      9138      9141      9143      9145      9139      9138      9141      9142
      9139      9138      9141      9143      9140      9138      9141      9142
      9140      9138      9141      9143      9141      9143      9145      9146
      9141      9143      9145      9147      9141      9143      9145      9148
      9142      9141      9143      9144      9142      9141      9143      9145
      9143      9145      9148      9149      9143      9145      9148      9150
      9143      9145      9148      9151      9144      9143      9145      9146
      9144      9143      9145      9147      9144      9143      9145      9148
      9145      9148      9151      9152      9145      9148      9151      9153
      9145      9148      9151      9154      9146      9145      9148      9149
      9146      9145      9148      9150      9146      9145      9148      9151
      9147      9145      9148      9149      9147      9145      9148      9150
      9147      9145      9148      9151      9148      9151      9154      9155
      9148      9151      9154      9156      9148      9151      9154      9157
      9149      9148      9151      9152      9149      9148      9151      9153
      9149      9148      9151      9154      9150      9148      9151      9152
      9150      9148      9151      9153      9150      9148      9151      9154
      9151      9154      9157      9158      9151      9154      9157      9159
      9151      9154      9157      9160      9152      9151      9154      9155
      9152      9151      9154      9156      9152      9151      9154      9157
      9153      9151      9154      9155      9153      9151      9154      9156
      9153      9151      9154      9157      9155      9154      9157      9158
      9155      9154      9157      9159      9155      9154      9157      9160
      9156      9154      9157      9158      9156      9154      9157      9159
      9156      9154      9157      9160      9161      9164      9167      9168
      9161      9164      9167      9169      9161      9164      9167      9170
      9162      9161      9164      9165      9162      9161      9164      9166
      9162      9161      9164      9167      9163      9161      9164      9165
      9163      9161      9164      9166      9163      9161      9164      9167
      9164      9167      9170      9171      9164      9167      9170      9172
      9164      9167      9170      9173      9165      9164      9167      9168
      9165      9164      9167      9169      9165      9164      9167      9170
      9166      9164      9167      9168      9166      9164      9167      9169
      9166      9164      9167      9170      9167      9170      9173      9174
      9167      9170      9173      9175      9167      9170      9173      9176
      9168      9167      9170      9171      9168      9167      9170      9172
      9168      9167      9170      9173      9169      9167      9170      9171
      9169      9167      9170      9172      9169      9167      9170      9173
      9170      9173      9176      9177      9170      9173      9176      9178
      9170      9173      9176      9179      9171      9170      9173      9174
      9171      9170      9173      9175      9171      9170      9173      9176
      9172      9170      9173      9174      9172      9170      9173      9175
      9172      9170      9173      9176      9173      9176      9179      9180
      9173      9176      9179      9181      9173      9176      9179      9182
      9174      9173      9176      9177      9174      9173      9176      9178
      9174      9173      9176      9179      9175      9173      9176      9177
      9175      9173      9176      9178      9175      9173      9176      9179
      9176      9179      9182      9183      9176      9179      9182      9184
      9176      9179      9182      9185      9177      9176      9179      9180
      9177      9176      9179      9181      9177      9176      9179      9182
      9178      9176      9179      9180      9178      9176      9179      9181
      9178      9176      9179      9182      9179      9182      9185      9186
      9179      9182      9185      9187      9179      9182      9185      9188
      9180      9179      9182      9183      9180      9179      9182      9184
      9180      9179      9182      9185      9181      9179      9182      9183
      9181      9179      9182      9184      9181      9179      9182      9185
      9182      9185      9188      9189      9182      9185      9188      9190
      9182      9185      9188      9191      9183      9182      9185      9186
      9183      9182      9185      9187      9183      9182      9185      9188
      9184      9182      9185      9186      9184      9182      9185      9187
      9184      9182      9185      9188      9185      9188      9191      9192
      9185      9188      9191      9193      9185      9188      9191      9194
      9186      9185      9188      9189      9186      9185      9188      9190
      9186      9185      9188      9191      9187      9185      9188      9189
      9187      9185      9188      9190      9187      9185      9188      9191
      9188      9191      9194      9195      9188      9191      9194      9196
      9188      9191      9194      9197      9189      9188      9191      9192
      9189      9188      9191      9193      9189      9188      9191      9194
      9190      9188      9191      9192      9190      9188      9191      9193
      9190      9188      9191      9194      9191      9194      9197      9198
      9191      9194      9197      9199      9191      9194      9197      9200
      9192      9191      9194      9195      9192      9191      9194      9196
      9192      9191      9194      9197      9193      9191      9194      9195
      9193      9191      9194      9196      9193      9191      9194      9197
      9194      9197      9200      9201      9194      9197      9200      9202
      9194      9197      9200      9203      9195      9194      9197      9198
      9195      9194      9197      9199      9195      9194      9197      9200
      9196      9194      9197      9198      9196      9194      9197      9199
      9196      9194      9197      9200      9197      9200      9203      9204
      9197      9200      9203      9205      9197      9200      9203      9206
      9198      9197      9200      9201      9198      9197      9200      9202
      9198      9197      9200      9203      9199      9197      9200      9201
      9199      9197      9200      9202      9199      9197      9200      9203
      9200      9203      9206      9207      9200      9203      9206      9208
      9200      9203      9206      9209      9201      9200      9203      9204
      9201      9200      9203      9205      9201      9200      9203      9206
      9202      9200      9203      9204      9202      9200      9203      9205
      9202      9200      9203      9206      9204      9203      9206      9207
      9204      9203      9206      9208      9204      9203      9206      9209
      9205      9203      9206      9207      9205      9203      9206      9208
      9205      9203      9206      9209      2073      2077      2080      2081
      2073      2077      2080      2111      2073      2119      2116      2111
      2073      2119      2116      2117      2073      2119      2116      2118
      2074      2073      2075      2076      2074      2073      2077      2078
      2074      2073      2077      2079      2074      2073      2077      2080
      2074      2073      2119      2116      2074      2073      2119      2120
      2074      2073      2119      2121      2075      2073      2077      2078
      2075      2073      2077      2079      2075      2073      2077      2080
      2075      2073      2119      2116      2075      2073      2119      2120
      2075      2073      2119      2121      2076      2075      2073      2077
      2076      2075      2073      2119      2077      2073      2119      2116
      2077      2073      2119      2120      2077      2073      2119      2121
      2077      2080      2081      2082      2077      2080      2081      2083
      2077      2080      2111      2109      2077      2080      2111      2112
      2077      2080      2111      2116      2078      2077      2073      2119
      2078      2077      2080      2081      2078      2077      2080      2111
      2079      2077      2073      2119      2079      2077      2080      2081
      2079      2077      2080      2111      2080      2077      2073      2119
      2080      2081      2083      2084      2080      2081      2083      2085
      2080      2081      2083      2086      2080      2111      2109      2086
      2080      2111      2109      2106      2080      2111      2109      2110
      2080      2111      2112      2113      2080      2111      2112      2114
      2080      2111      2112      2115      2080      2111      2116      2117
      2080      2111      2116      2118      2080      2111      2116      2119
      2081      2080      2111      2109      2081      2080      2111      2112
      2081      2080      2111      2116      2081      2083      2086      2087
      2081      2083      2086      2088      2081      2083      2086      2109
      2082      2081      2080      2111      2082      2081      2083      2084
      2082      2081      2083      2085      2082      2081      2083      2086
      2083      2081      2080      2111      2083      2086      2088      2089
      2083      2086      2088      2090      2083      2086      2088      2098
      2083      2086      2109      2106      2083      2086      2109      2110
      2083      2086      2109      2111      2084      2083      2086      2087
      2084      2083      2086      2088      2084      2083      2086      2109
      2085      2083      2086      2087      2085      2083      2086      2088
      2085      2083      2086      2109      2086      2088      2090      2091
      2086      2088      2090      2092      2086      2088      2090      2093
      2086      2088      2098      2096      2086      2088      2098      2099
      2086      2088      2098      2103      2086      2109      2106      2103
      2086      2109      2106      2107      2086      2109      2106      2108
      2086      2109      2111      2112      2086      2109      2111      2116
      2087      2086      2088      2089      2087      2086      2088      2090
      2087      2086      2088      2098      2087      2086      2109      2106
      2087      2086      2109      2110      2087      2086      2109      2111
      2088      2086      2109      2106      2088      2086      2109      2110
      2088      2086      2109      2111      2088      2090      2093      2094
      2088      2090      2093      2095      2088      2090      2093      2096
      2088      2098      2096      2093      2088      2098      2096      2097
      2088      2098      2096      2122      2088      2098      2099      2100
      2088      2098      2099      2101      2088      2098      2099      2102
      2088      2098      2103      2104      2088      2098      2103      2105
      2088      2098      2103      2106      2089      2088      2086      2109
      2089      2088      2090      2091      2089      2088      2090      2092
      2089      2088      2090      2093      2089      2088      2098      2096
      2089      2088      2098      2099      2089      2088      2098      2103
      2090      2088      2086      2109      2090      2088      2098      2096
      2090      2088      2098      2099      2090      2088      2098      2103
      2090      2093      2096      2097      2090      2093      2096      2098
      2090      2093      2096      2122      2091      2090      2088      2098
      2091      2090      2093      2094      2091      2090      2093      2095
      2091      2090      2093      2096      2092      2090      2088      2098
      2092      2090      2093      2094      2092      2090      2093      2095
      2092      2090      2093      2096      2093      2090      2088      2098
      2093      2096      2098      2099      2093      2096      2098      2103
      2093      2096      2122      2123      2093      2096      2122      2124
      2093      2096      2122      2128      2094      2093      2096      2097
      2094      2093      2096      2098      2094      2093      2096      2122
      2095      2093      2096      2097      2095      2093      2096      2098
      2095      2093      2096      2122      2096      2098      2099      2100
      2096      2098      2099      2101      2096      2098      2099      2102
      2096      2098      2103      2104      2096      2098      2103      2105
      2096      2098      2103      2106      2096      2122      2124      2125
      2096      2122      2124      2126      2096      2122      2124      2127
      2096      2122      2128      2129      2096      2122      2128      2130
      2096      2122      2128      2131      2097      2096      2098      2099
      2097      2096      2098      2103      2097      2096      2122      2123
      2097      2096      2122      2124      2097      2096      2122      2128
      2098      2088      2086      2109      2098      2096      2122      2123
      2098      2096      2122      2124      2098      2096      2122      2128
      2098      2103      2106      2107      2098      2103      2106      2108
      2098      2103      2106      2109      2099      2098      2096      2122
      2099      2098      2103      2104      2099      2098      2103      2105
      2099      2098      2103      2106      2100      2099      2098      2103
      2101      2099      2098      2103      2102      2099      2098      2103
      2103      2098      2096      2122      2103      2106      2109      2110
      2103      2106      2109      2111      2104      2103      2106      2107
      2104      2103      2106      2108      2104      2103      2106      2109
      2105      2103      2106      2107      2105      2103      2106      2108
      2105      2103      2106      2109      2106      2109      2111      2112
      2106      2109      2111      2116      2107      2106      2109      2110
      2107      2106      2109      2111      2108      2106      2109      2110
      2108      2106      2109      2111      2109      2111      2112      2113
      2109      2111      2112      2114      2109      2111      2112      2115
      2109      2111      2116      2117      2109      2111      2116      2118
      2109      2111      2116      2119      2110      2109      2111      2112
      2110      2109      2111      2116      2111      2116      2119      2120
      2111      2116      2119      2121      2112      2111      2116      2117
      2112      2111      2116      2118      2112      2111      2116      2119
      2113      2112      2111      2116      2114      2112      2111      2116
      2115      2112      2111      2116      2117      2116      2119      2120
      2117      2116      2119      2121      2118      2116      2119      2120
      2118      2116      2119      2121      2122      2128      2131      2132
      2122      2128      2131      2133      2122      2128      2131      2134
      2123      2122      2124      2125      2123      2122      2124      2126
      2123      2122      2124      2127      2123      2122      2128      2129
      2123      2122      2128      2130      2123      2122      2128      2131
      2124      2122      2128      2129      2124      2122      2128      2130
      2124      2122      2128      2131      2125      2124      2122      2128
      2126      2124      2122      2128      2127      2124      2122      2128
      2128      2131      2134      2135      2128      2131      2134      2136
      2128      2131      2134      2137      2129      2128      2131      2132
      2129      2128      2131      2133      2129      2128      2131      2134
      2130      2128      2131      2132      2130      2128      2131      2133
      2130      2128      2131      2134      2131      2134      2137      2138
      2131      2134      2137      2139      2131      2134      2137      2143
      2132      2131      2134      2135      2132      2131      2134      2136
      2132      2131      2134      2137      2133      2131      2134      2135
      2133      2131      2134      2136      2133      2131      2134      2137
      2134      2137      2139      2140      2134      2137      2139      2141
      2134      2137      2139      2142      2134      2137      2143      2144
      2134      2137      2143      2145      2134      2137      2143      2146
      2135      2134      2137      2138      2135      2134      2137      2139
      2135      2134      2137      2143      2136      2134      2137      2138
      2136      2134      2137      2139      2136      2134      2137      2143
      2138      2137      2139      2140      2138      2137      2139      2141
      2138      2137      2139      2142      2138      2137      2143      2144
      2138      2137      2143      2145      2138      2137      2143      2146
      2139      2137      2143      2144      2139      2137      2143      2145
      2139      2137      2143      2146      2140      2139      2137      2143
      2141      2139      2137      2143      2142      2139      2137      2143
      2147      2151      2154      2155      2147      2151      2154      2185
      2147      2193      2190      2185      2147      2193      2190      2191
      2147      2193      2190      2192      2148      2147      2149      2150
      2148      2147      2151      2152      2148      2147      2151      2153
      2148      2147      2151      2154      2148      2147      2193      2190
      2148      2147      2193      2194      2148      2147      2193      2195
      2149      2147      2151      2152      2149      2147      2151      2153
      2149      2147      2151      2154      2149      2147      2193      2190
      2149      2147      2193      2194      2149      2147      2193      2195
      2150      2149      2147      2151      2150      2149      2147      2193
      2151      2147      2193      2190      2151      2147      2193      2194
      2151      2147      2193      2195      2151      2154      2155      2156
      2151      2154      2155      2157      2151      2154      2185      2183
      2151      2154      2185      2186      2151      2154      2185      2190
      2152      2151      2147      2193      2152      2151      2154      2155
      2152      2151      2154      2185      2153      2151      2147      2193
      2153      2151      2154      2155      2153      2151      2154      2185
      2154      2151      2147      2193      2154      2155      2157      2158
      2154      2155      2157      2159      2154      2155      2157      2160
      2154      2185      2183      2160      2154      2185      2183      2180
      2154      2185      2183      2184      2154      2185      2186      2187
      2154      2185      2186      2188      2154      2185      2186      2189
      2154      2185      2190      2191      2154      2185      2190      2192
      2154      2185      2190      2193      2155      2154      2185      2183
      2155      2154      2185      2186      2155      2154      2185      2190
      2155      2157      2160      2161      2155      2157      2160      2162
      2155      2157      2160      2183      2156      2155      2154      2185
      2156      2155      2157      2158      2156      2155      2157      2159
      2156      2155      2157      2160      2157      2155      2154      2185
      2157      2160      2162      2163      2157      2160      2162      2164
      2157      2160      2162      2172      2157      2160      2183      2180
      2157      2160      2183      2184      2157      2160      2183      2185
      2158      2157      2160      2161      2158      2157      2160      2162
      2158      2157      2160      2183      2159      2157      2160      2161
      2159      2157      2160      2162      2159      2157      2160      2183
      2160      2162      2164      2165      2160      2162      2164      2166
      2160      2162      2164      2167      2160      2162      2172      2170
      2160      2162      2172      2173      2160      2162      2172      2177
      2160      2183      2180      2177      2160      2183      2180      2181
      2160      2183      2180      2182      2160      2183      2185      2186
      2160      2183      2185      2190      2161      2160      2162      2163
      2161      2160      2162      2164      2161      2160      2162      2172
      2161      2160      2183      2180      2161      2160      2183      2184
      2161      2160      2183      2185      2162      2160      2183      2180
      2162      2160      2183      2184      2162      2160      2183      2185
      2162      2164      2167      2168      2162      2164      2167      2169
      2162      2164      2167      2170      2162      2172      2170      2167
      2162      2172      2170      2171      2162      2172      2170      2196
      2162      2172      2173      2174      2162      2172      2173      2175
      2162      2172      2173      2176      2162      2172      2177      2178
      2162      2172      2177      2179      2162      2172      2177      2180
      2163      2162      2160      2183      2163      2162      2164      2165
      2163      2162      2164      2166      2163      2162      2164      2167
      2163      2162      2172      2170      2163      2162      2172      2173
      2163      2162      2172      2177      2164      2162      2160      2183
      2164      2162      2172      2170      2164      2162      2172      2173
      2164      2162      2172      2177      2164      2167      2170      2171
      2164      2167      2170      2172      2164      2167      2170      2196
      2165      2164      2162      2172      2165      2164      2167      2168
      2165      2164      2167      2169      2165      2164      2167      2170
      2166      2164      2162      2172      2166      2164      2167      2168
      2166      2164      2167      2169      2166      2164      2167      2170
      2167      2164      2162      2172      2167      2170      2172      2173
      2167      2170      2172      2177      2167      2170      2196      2197
      2167      2170      2196      2198      2167      2170      2196      2202
      2168      2167      2170      2171      2168      2167      2170      2172
      2168      2167      2170      2196      2169      2167      2170      2171
      2169      2167      2170      2172      2169      2167      2170      2196
      2170      2172      2173      2174      2170      2172      2173      2175
      2170      2172      2173      2176      2170      2172      2177      2178
      2170      2172      2177      2179      2170      2172      2177      2180
      2170      2196      2198      2199      2170      2196      2198      2200
      2170      2196      2198      2201      2170      2196      2202      2203
      2170      2196      2202      2204      2170      2196      2202      2205
      2171      2170      2172      2173      2171      2170      2172      2177
      2171      2170      2196      2197      2171      2170      2196      2198
      2171      2170      2196      2202      2172      2162      2160      2183
      2172      2170      2196      2197      2172      2170      2196      2198
      2172      2170      2196      2202      2172      2177      2180      2181
      2172      2177      2180      2182      2172      2177      2180      2183
      2173      2172      2170      2196      2173      2172      2177      2178
      2173      2172      2177      2179      2173      2172      2177      2180
      2174      2173      2172      2177      2175      2173      2172      2177
      2176      2173      2172      2177      2177      2172      2170      2196
      2177      2180      2183      2184      2177      2180      2183      2185
      2178      2177      2180      2181      2178      2177      2180      2182
      2178      2177      2180      2183      2179      2177      2180      2181
      2179      2177      2180      2182      2179      2177      2180      2183
      2180      2183      2185      2186      2180      2183      2185      2190
      2181      2180      2183      2184      2181      2180      2183      2185
      2182      2180      2183      2184      2182      2180      2183      2185
      2183      2185      2186      2187      2183      2185      2186      2188
      2183      2185      2186      2189      2183      2185      2190      2191
      2183      2185      2190      2192      2183      2185      2190      2193
      2184      2183      2185      2186      2184      2183      2185      2190
      2185      2190      2193      2194      2185      2190      2193      2195
      2186      2185      2190      2191      2186      2185      2190      2192
      2186      2185      2190      2193      2187      2186      2185      2190
      2188      2186      2185      2190      2189      2186      2185      2190
      2191      2190      2193      2194      2191      2190      2193      2195
      2192      2190      2193      2194      2192      2190      2193      2195
      2196      2202      2205      2206      2196      2202      2205      2207
      2196      2202      2205      2208      2197      2196      2198      2199
      2197      2196      2198      2200      2197      2196      2198      2201
      2197      2196      2202      2203      2197      2196      2202      2204
      2197      2196      2202      2205      2198      2196      2202      2203
      2198      2196      2202      2204      2198      2196      2202      2205
      2199      2198      2196      2202      2200      2198      2196      2202
      2201      2198      2196      2202      2202      2205      2208      2209
      2202      2205      2208      2210      2202      2205      2208      2211
      2203      2202      2205      2206      2203      2202      2205      2207
      2203      2202      2205      2208      2204      2202      2205      2206
      2204      2202      2205      2207      2204      2202      2205      2208
      2205      2208      2211      2212      2205      2208      2211      2213
      2205      2208      2211      2217      2206      2205      2208      2209
      2206      2205      2208      2210      2206      2205      2208      2211
      2207      2205      2208      2209      2207      2205      2208      2210
      2207      2205      2208      2211      2208      2211      2213      2214
      2208      2211      2213      2215      2208      2211      2213      2216
      2208      2211      2217      2218      2208      2211      2217      2219
      2208      2211      2217      2220      2209      2208      2211      2212
      2209      2208      2211      2213      2209      2208      2211      2217
      2210      2208      2211      2212      2210      2208      2211      2213
      2210      2208      2211      2217      2212      2211      2213      2214
      2212      2211      2213      2215      2212      2211      2213      2216
      2212      2211      2217      2218      2212      2211      2217      2219
      2212      2211      2217      2220      2213      2211      2217      2218
      2213      2211      2217      2219      2213      2211      2217      2220
      2214      2213      2211      2217      2215      2213      2211      2217
      2216      2213      2211      2217      9210      9214      9216      9217
      9210      9214      9216      9218      9210      9214      9219      9220
      9210      9214      9219      9221      9210      9214      9219      9225
      9211      9210      9214      9215      9211      9210      9214      9216
      9211      9210      9214      9219      9212      9210      9214      9215
      9212      9210      9214      9216      9212      9210      9214      9219
      9213      9210      9214      9215      9213      9210      9214      9216
      9213      9210      9214      9219      9214      9219      9225      9222
      9215      9214      9216      9217      9215      9214      9216      9218
      9215      9214      9219      9220      9215      9214      9219      9221
      9215      9214      9219      9225      9216      9214      9219      9220
      9216      9214      9219      9221      9216      9214      9219      9225
      9217      9216      9214      9219      9218      9216      9214      9219
      9219      9225      9222      9223      9219      9225      9222      9224
      9219      9225      9222      9226      9220      9219      9225      9222
      9221      9219      9225      9222      9222      9226      9227      9228
      9222      9226      9227      9229      9222      9226      9227      9230
      9223      9222      9226      9227      9224      9222      9226      9227
      9225      9222      9226      9227      9226      9227      9230      9231
      9226      9227      9230      9232      9226      9227      9230      9238
      9227      9230      9232      9233      9227      9230      9238      9239
      9227      9230      9238      9240      9227      9230      9238      9241
      9228      9227      9230      9231      9228      9227      9230      9232
      9228      9227      9230      9238      9229      9227      9230      9231
      9229      9227      9230      9232      9229      9227      9230      9238
      9230      9232      9233      9234      9230      9232      9233      9235
      9230      9238      9241      9242      9231      9230      9232      9233
      9231      9230      9238      9239      9231      9230      9238      9240
      9231      9230      9238      9241      9232      9230      9238      9239
      9232      9230      9238      9240      9232      9230      9238      9241
      9232      9233      9235      9236      9232      9233      9235      9237
      9232      9233      9235      9247      9233      9232      9230      9238
      9233      9235      9247      9248      9233      9235      9247      9249
      9233      9235      9247      9250      9234      9233      9235      9236
      9234      9233      9235      9237      9234      9233      9235      9247
      9235      9247      9250      9251      9235      9247      9250      9252
      9235      9247      9250      9253      9236      9235      9247      9248
      9236      9235      9247      9249      9236      9235      9247      9250
      9237      9235      9247      9248      9237      9235      9247      9249
      9237      9235      9247      9250      9238      9241      9242      9243
      9238      9241      9242      9244      9239      9238      9241      9242
      9240      9238      9241      9242      9241      9242      9244      9245
      9241      9242      9244      9246      9241      9242      9244      9294
      9242      9244      9294      9295      9242      9244      9294      9296
      9242      9244      9294      9297      9243      9242      9244      9245
      9243      9242      9244      9246      9243      9242      9244      9294
      9244      9294      9297      9298      9244      9294      9297      9299
      9244      9294      9297      9300      9245      9244      9294      9295
      9245      9244      9294      9296      9245      9244      9294      9297
      9246      9244      9294      9295      9246      9244      9294      9296
      9246      9244      9294      9297      9247      9250      9253      9254
      9247      9250      9253      9255      9248      9247      9250      9251
      9248      9247      9250      9252      9248      9247      9250      9253
      9249      9247      9250      9251      9249      9247      9250      9252
      9249      9247      9250      9253      9250      9253      9255      9256
      9250      9253      9255      9257      9251      9250      9253      9254
      9251      9250      9253      9255      9252      9250      9253      9254
      9252      9250      9253      9255      9253      9255      9257      9258
      9253      9255      9257      9259      9253      9255      9257      9260
      9254      9253      9255      9256      9254      9253      9255      9257
      9255      9257      9260      9261      9255      9257      9260      9262
      9256      9255      9257      9258      9256      9255      9257      9259
      9256      9255      9257      9260      9257      9260      9262      9263
      9257      9260      9262      9264      9258      9257      9260      9261
      9258      9257      9260      9262      9259      9257      9260      9261
      9259      9257      9260      9262      9260      9262      9264      9265
      9260      9262      9264      9266      9260      9262      9264      9267
      9261      9260      9262      9263      9261      9260      9262      9264
      9262      9264      9267      9268      9262      9264      9267      9269
      9263      9262      9264      9265      9263      9262      9264      9266
      9263      9262      9264      9267      9264      9267      9269      9270
      9264      9267      9269      9271      9265      9264      9267      9268
      9265      9264      9267      9269      9266      9264      9267      9268
      9266      9264      9267      9269      9267      9269      9271      9272
      9267      9269      9271      9273      9267      9269      9271      9274
      9268      9267      9269      9270      9268      9267      9269      9271
      9269      9271      9274      9275      9269      9271      9274      9276
      9270      9269      9271      9272      9270      9269      9271      9273
      9270      9269      9271      9274      9271      9274      9276      9277
      9271      9274      9276      9278      9272      9271      9274      9275
      9272      9271      9274      9276      9273      9271      9274      9275
      9273      9271      9274      9276      9274      9276      9278      9279
      9274      9276      9278      9280      9274      9276      9278      9281
      9275      9274      9276      9277      9275      9274      9276      9278
      9276      9278      9281      9282      9276      9278      9281      9283
      9276      9278      9281      9284      9277      9276      9278      9279
      9277      9276      9278      9280      9277      9276      9278      9281
      9278      9281      9284      9285      9278      9281      9284      9286
      9278      9281      9284      9287      9279      9278      9281      9282
      9279      9278      9281      9283      9279      9278      9281      9284
      9280      9278      9281      9282      9280      9278      9281      9283
      9280      9278      9281      9284      9281      9284      9287      9288
      9281      9284      9287      9289      9281      9284      9287      9290
      9282      9281      9284      9285      9282      9281      9284      9286
      9282      9281      9284      9287      9283      9281      9284      9285
      9283      9281      9284      9286      9283      9281      9284      9287
      9284      9287      9290      9291      9284      9287      9290      9292
      9284      9287      9290      9293      9285      9284      9287      9288
      9285      9284      9287      9289      9285      9284      9287      9290
      9286      9284      9287      9288      9286      9284      9287      9289
      9286      9284      9287      9290      9288      9287      9290      9291
      9288      9287      9290      9292      9288      9287      9290      9293
      9289      9287      9290      9291      9289      9287      9290      9292
      9289      9287      9290      9293      9294      9297      9300      9301
      9294      9297      9300      9302      9294      9297      9300      9303
      9295      9294      9297      9298      9295      9294      9297      9299
      9295      9294      9297      9300      9296      9294      9297      9298
      9296      9294      9297      9299      9296      9294      9297      9300
      9297      9300      9303      9304      9297      9300      9303      9305
      9297      9300      9303      9306      9298      9297      9300      9301
      9298      9297      9300      9302      9298      9297      9300      9303
      9299      9297      9300      9301      9299      9297      9300      9302
      9299      9297      9300      9303      9300      9303      9306      9307
      9300      9303      9306      9308      9300      9303      9306      9309
      9301      9300      9303      9304      9301      9300      9303      9305
      9301      9300      9303      9306      9302      9300      9303      9304
      9302      9300      9303      9305      9302      9300      9303      9306
      9303      9306      9309      9310      9303      9306      9309      9311
      9303      9306      9309      9312      9304      9303      9306      9307
      9304      9303      9306      9308      9304      9303      9306      9309
      9305      9303      9306      9307      9305      9303      9306      9308
      9305      9303      9306      9309      9306      9309      9312      9313
      9306      9309      9312      9314      9306      9309      9312      9315
      9307      9306      9309      9310      9307      9306      9309      9311
      9307      9306      9309      9312      9308      9306      9309      9310
      9308      9306      9309      9311      9308      9306      9309      9312
      9309      9312      9315      9316      9309      9312      9315      9317
      9309      9312      9315      9318      9310      9309      9312      9313
      9310      9309      9312      9314      9310      9309      9312      9315
      9311      9309      9312      9313      9311      9309      9312      9314
      9311      9309      9312      9315      9312      9315      9318      9319
      9312      9315      9318      9320      9312      9315      9318      9321
      9313      9312      9315      9316      9313      9312      9315      9317
      9313      9312      9315      9318      9314      9312      9315      9316
      9314      9312      9315      9317      9314      9312      9315      9318
      9315      9318      9321      9322      9315      9318      9321      9323
      9315      9318      9321      9324      9316      9315      9318      9319
      9316      9315      9318      9320      9316      9315      9318      9321
      9317      9315      9318      9319      9317      9315      9318      9320
      9317      9315      9318      9321      9318      9321      9324      9325
      9318      9321      9324      9326      9318      9321      9324      9327
      9319      9318      9321      9322      9319      9318      9321      9323
      9319      9318      9321      9324      9320      9318      9321      9322
      9320      9318      9321      9323      9320      9318      9321      9324
      9321      9324      9327      9328      9321      9324      9327      9329
      9321      9324      9327      9330      9322      9321      9324      9325
      9322      9321      9324      9326      9322      9321      9324      9327
      9323      9321      9324      9325      9323      9321      9324      9326
      9323      9321      9324      9327      9324      9327      9330      9331
      9324      9327      9330      9332      9324      9327      9330      9333
      9325      9324      9327      9328      9325      9324      9327      9329
      9325      9324      9327      9330      9326      9324      9327      9328
      9326      9324      9327      9329      9326      9324      9327      9330
      9327      9330      9333      9334      9327      9330      9333      9335
      9327      9330      9333      9336      9328      9327      9330      9331
      9328      9327      9330      9332      9328      9327      9330      9333
      9329      9327      9330      9331      9329      9327      9330      9332
      9329      9327      9330      9333      9330      9333      9336      9337
      9330      9333      9336      9338      9330      9333      9336      9339
      9331      9330      9333      9334      9331      9330      9333      9335
      9331      9330      9333      9336      9332      9330      9333      9334
      9332      9330      9333      9335      9332      9330      9333      9336
      9333      9336      9339      9340      9333      9336      9339      9341
      9333      9336      9339      9342      9334      9333      9336      9337
      9334      9333      9336      9338      9334      9333      9336      9339
      9335      9333      9336      9337      9335      9333      9336      9338
      9335      9333      9336      9339      9337      9336      9339      9340
      9337      9336      9339      9341      9337      9336      9339      9342
      9338      9336      9339      9340      9338      9336      9339      9341
      9338      9336      9339      9342     18001     18005     18008     18009
     18001     18005     18008     18010     18001     18005     18008     18014
     18002     18001     18005     18006     18002     18001     18005     18007
     18002     18001     18005     18008     18003     18001     18005     18006
     18003     18001     18005     18007     18003     18001     18005     18008
     18004     18001     18005     18006     18004     18001     18005     18007
     18004     18001     18005     18008     18005     18008     18014     18011
     18006     18005     18008     18009     18006     18005     18008     18010
     18006     18005     18008     18014     18007     18005     18008     18009
     18007     18005     18008     18010     18007     18005     18008     18014
     18008     18014     18011     18012     18008     18014     18011     18013
     18008     18014     18011     18015     18009     18008     18014     18011
     18010     18008     18014     18011     18011     18015     18016     18017
     18011     18015     18016     18018     18011     18015     18016     18019
     18012     18011     18015     18016     18013     18011     18015     18016
     18014     18011     18015     18016     18015     18016     18019     18020
     18015     18016     18019     18021     18015     18016     18019     18027
     18016     18019     18021     18022     18016     18019     18027     18028
     18016     18019     18027     18029     18016     18019     18027     18030
     18017     18016     18019     18020     18017     18016     18019     18021
     18017     18016     18019     18027     18018     18016     18019     18020
     18018     18016     18019     18021     18018     18016     18019     18027
     18019     18021     18022     18023     18019     18021     18022     18024
     18019     18027     18030     18031     18020     18019     18021     18022
     18020     18019     18027     18028     18020     18019     18027     18029
     18020     18019     18027     18030     18021     18019     18027     18028
     18021     18019     18027     18029     18021     18019     18027     18030
     18021     18022     18024     18025     18021     18022     18024     18026
     18021     18022     18024     18036     18022     18021     18019     18027
     18022     18024     18036     18037     18022     18024     18036     18038
     18022     18024     18036     18039     18023     18022     18024     18025
     18023     18022     18024     18026     18023     18022     18024     18036
     18024     18036     18039     18040     18024     18036     18039     18041
     18024     18036     18039     18042     18025     18024     18036     18037
     18025     18024     18036     18038     18025     18024     18036     18039
     18026     18024     18036     18037     18026     18024     18036     18038
     18026     18024     18036     18039     18027     18030     18031     18032
     18027     18030     18031     18033     18028     18027     18030     18031
     18029     18027     18030     18031     18030     18031     18033     18034
     18030     18031     18033     18035     18030     18031     18033     18083
     18031     18033     18083     18084     18031     18033     18083     18085
     18031     18033     18083     18086     18032     18031     18033     18034
     18032     18031     18033     18035     18032     18031     18033     18083
     18033     18083     18086     18087     18033     18083     18086     18088
     18033     18083     18086     18089     18034     18033     18083     18084
     18034     18033     18083     18085     18034     18033     18083     18086
     18035     18033     18083     18084     18035     18033     18083     18085
     18035     18033     18083     18086     18036     18039     18042     18043
     18036     18039     18042     18044     18037     18036     18039     18040
     18037     18036     18039     18041     18037     18036     18039     18042
     18038     18036     18039     18040     18038     18036     18039     18041
     18038     18036     18039     18042     18039     18042     18044     18045
     18039     18042     18044     18046     18040     18039     18042     18043
     18040     18039     18042     18044     18041     18039     18042     18043
     18041     18039     18042     18044     18042     18044     18046     18047
     18042     18044     18046     18048     18042     18044     18046     18049
     18043     18042     18044     18045     18043     18042     18044     18046
     18044     18046     18049     18050     18044     18046     18049     18051
     18045     18044     18046     18047     18045     18044     18046     18048
     18045     18044     18046     18049     18046     18049     18051     18052
     18046     18049     18051     18053     18047     18046     18049     18050
     18047     18046     18049     18051     18048     18046     18049     18050
     18048     18046     18049     18051     18049     18051     18053     18054
     18049     18051     18053     18055     18049     18051     18053     18056
     18050     18049     18051     18052     18050     18049     18051     18053
     18051     18053     18056     18057     18051     18053     18056     18058
     18052     18051     18053     18054     18052     18051     18053     18055
     18052     18051     18053     18056     18053     18056     18058     18059
     18053     18056     18058     18060     18054     18053     18056     18057
     18054     18053     18056     18058     18055     18053     18056     18057
     18055     18053     18056     18058     18056     18058     18060     18061
     18056     18058     18060     18062     18056     18058     18060     18063
     18057     18056     18058     18059     18057     18056     18058     18060
     18058     18060     18063     18064     18058     18060     18063     18065
     18059     18058     18060     18061     18059     18058     18060     18062
     18059     18058     18060     18063     18060     18063     18065     18066
     18060     18063     18065     18067     18061     18060     18063     18064
     18061     18060     18063     18065     18062     18060     18063     18064
     18062     18060     18063     18065     18063     18065     18067     18068
     18063     18065     18067     18069     18063     18065     18067     18070
     18064     18063     18065     18066     18064     18063     18065     18067
     18065     18067     18070     18071     18065     18067     18070     18072
     18065     18067     18070     18073     18066     18065     18067     18068
     18066     18065     18067     18069     18066     18065     18067     18070
     18067     18070     18073     18074     18067     18070     18073     18075
     18067     18070     18073     18076     18068     18067     18070     18071
     18068     18067     18070     18072     18068     18067     18070     18073
     18069     18067     18070     18071     18069     18067     18070     18072
     18069     18067     18070     18073     18070     18073     18076     18077
     18070     18073     18076     18078     18070     18073     18076     18079
     18071     18070     18073     18074     18071     18070     18073     18075
     18071     18070     18073     18076     18072     18070     18073     18074
     18072     18070     18073     18075     18072     18070     18073     18076
     18073     18076     18079     18080     18073     18076     18079     18081
     18073     18076     18079     18082     18074     18073     18076     18077
     18074     18073     18076     18078     18074     18073     18076     18079
     18075     18073     18076     18077     18075     18073     18076     18078
     18075     18073     18076     18079     18077     18076     18079     18080
     18077     18076     18079     18081     18077     18076     18079     18082
     18078     18076     18079     18080     18078     18076     18079     18081
     18078     18076     18079     18082     18083     18086     18089     18090
     18083     18086     18089     18091     18083     18086     18089     18092
     18084     18083     18086     18087     18084     18083     18086     18088
     18084     18083     18086     18089     18085     18083     18086     18087
     18085     18083     18086     18088     18085     18083     18086     18089
     18086     18089     18092     18093     18086     18089     18092     18094
     18086     18089     18092     18095     18087     18086     18089     18090
     18087     18086     18089     18091     18087     18086     18089     18092
     18088     18086     18089     18090     18088     18086     18089     18091
     18088     18086     18089     18092     18089     18092     18095     18096
     18089     18092     18095     18097     18089     18092     18095     18098
     18090     18089     18092     18093     18090     18089     18092     18094
     18090     18089     18092     18095     18091     18089     18092     18093
     18091     18089     18092     18094     18091     18089     18092     18095
     18092     18095     18098     18099     18092     18095     18098     18100
     18092     18095     18098     18101     18093     18092     18095     18096
     18093     18092     18095     18097     18093     18092     18095     18098
     18094     18092     18095     18096     18094     18092     18095     18097
     18094     18092     18095     18098     18095     18098     18101     18102
     18095     18098     18101     18103     18095     18098     18101     18104
     18096     18095     18098     18099     18096     18095     18098     18100
     18096     18095     18098     18101     18097     18095     18098     18099
     18097     18095     18098     18100     18097     18095     18098     18101
     18098     18101     18104     18105     18098     18101     18104     18106
     18098     18101     18104     18107     18099     18098     18101     18102
     18099     18098     18101     18103     18099     18098     18101     18104
     18100     18098     18101     18102     18100     18098     18101     18103
     18100     18098     18101     18104     18101     18104     18107     18108
     18101     18104     18107     18109     18101     18104     18107     18110
     18102     18101     18104     18105     18102     18101     18104     18106
     18102     18101     18104     18107     18103     18101     18104     18105
     18103     18101     18104     18106     18103     18101     18104     18107
     18104     18107     18110     18111     18104     18107     18110     18112
     18104     18107     18110     18113     18105     18104     18107     18108
     18105     18104     18107     18109     18105     18104     18107     18110
     18106     18104     18107     18108     18106     18104     18107     18109
     18106     18104     18107     18110     18107     18110     18113     18114
     18107     18110     18113     18115     18107     18110     18113     18116
     18108     18107     18110     18111     18108     18107     18110     18112
     18108     18107     18110     18113     18109     18107     18110     18111
     18109     18107     18110     18112     18109     18107     18110     18113
     18110     18113     18116     18117     18110     18113     18116     18118
     18110     18113     18116     18119     18111     18110     18113     18114
     18111     18110     18113     18115     18111     18110     18113     18116
     18112     18110     18113     18114     18112     18110     18113     18115
     18112     18110     18113     18116     18113     18116     18119     18120
     18113     18116     18119     18121     18113     18116     18119     18122
     18114     18113     18116     18117     18114     18113     18116     18118
     18114     18113     18116     18119     18115     18113     18116     18117
     18115     18113     18116     18118     18115     18113     18116     18119
     18116     18119     18122     18123     18116     18119     18122     18124
     18116     18119     18122     18125     18117     18116     18119     18120
     18117     18116     18119     18121     18117     18116     18119     18122
     18118     18116     18119     18120     18118     18116     18119     18121
     18118     18116     18119     18122     18119     18122     18125     18126
     18119     18122     18125     18127     18119     18122     18125     18128
     18120     18119     18122     18123     18120     18119     18122     18124
     18120     18119     18122     18125     18121     18119     18122     18123
     18121     18119     18122     18124     18121     18119     18122     18125
     18122     18125     18128     18129     18122     18125     18128     18130
     18122     18125     18128     18131     18123     18122     18125     18126
     18123     18122     18125     18127     18123     18122     18125     18128
     18124     18122     18125     18126     18124     18122     18125     18127
     18124     18122     18125     18128     18126     18125     18128     18129
     18126     18125     18128     18130     18126     18125     18128     18131
     18127     18125     18128     18129     18127     18125     18128     18130
     18127     18125     18128     18131      2221      2225      2228      2229
      2221      2225      2228      2259      2221      2267      2264      2259
      2221      2267      2264      2265      2221      2267      2264      2266
      2222      2221      2223      2224      2222      2221      2225      2226
      2222      2221      2225      2227      2222      2221      2225      2228
      2222      2221      2267      2264      2222      2221      2267      2268
      2222      2221      2267      2269      2223      2221      2225      2226
      2223      2221      2225      2227      2223      2221      2225      2228
      2223      2221      2267      2264      2223      2221      2267      2268
      2223      2221      2267      2269      2224      2223      2221      2225
      2224      2223      2221      2267      2225      2221      2267      2264
      2225      2221      2267      2268      2225      2221      2267      2269
      2225      2228      2229      2230      2225      2228      2229      2231
      2225      2228      2259      2257      2225      2228      2259      2260
      2225      2228      2259      2264      2226      2225      2221      2267
      2226      2225      2228      2229      2226      2225      2228      2259
      2227      2225      2221      2267      2227      2225      2228      2229
      2227      2225      2228      2259      2228      2225      2221      2267
      2228      2229      2231      2232      2228      2229      2231      2233
      2228      2229      2231      2234      2228      2259      2257      2234
      2228      2259      2257      2254      2228      2259      2257      2258
      2228      2259      2260      2261      2228      2259      2260      2262
      2228      2259      2260      2263      2228      2259      2264      2265
      2228      2259      2264      2266      2228      2259      2264      2267
      2229      2228      2259      2257      2229      2228      2259      2260
      2229      2228      2259      2264      2229      2231      2234      2235
      2229      2231      2234      2236      2229      2231      2234      2257
      2230      2229      2228      2259      2230      2229      2231      2232
      2230      2229      2231      2233      2230      2229      2231      2234
      2231      2229      2228      2259      2231      2234      2236      2237
      2231      2234      2236      2238      2231      2234      2236      2246
      2231      2234      2257      2254      2231      2234      2257      2258
      2231      2234      2257      2259      2232      2231      2234      2235
      2232      2231      2234      2236      2232      2231      2234      2257
      2233      2231      2234      2235      2233      2231      2234      2236
      2233      2231      2234      2257      2234      2236      2238      2239
      2234      2236      2238      2240      2234      2236      2238      2241
      2234      2236      2246      2244      2234      2236      2246      2247
      2234      2236      2246      2251      2234      2257      2254      2251
      2234      2257      2254      2255      2234      2257      2254      2256
      2234      2257      2259      2260      2234      2257      2259      2264
      2235      2234      2236      2237      2235      2234      2236      2238
      2235      2234      2236      2246      2235      2234      2257      2254
      2235      2234      2257      2258      2235      2234      2257      2259
      2236      2234      2257      2254      2236      2234      2257      2258
      2236      2234      2257      2259      2236      2238      2241      2242
      2236      2238      2241      2243      2236      2238      2241      2244
      2236      2246      2244      2241      2236      2246      2244      2245
      2236      2246      2244      2270      2236      2246      2247      2248
      2236      2246      2247      2249      2236      2246      2247      2250
      2236      2246      2251      2252      2236      2246      2251      2253
      2236      2246      2251      2254      2237      2236      2234      2257
      2237      2236      2238      2239      2237      2236      2238      2240
      2237      2236      2238      2241      2237      2236      2246      2244
      2237      2236      2246      2247      2237      2236      2246      2251
      2238      2236      2234      2257      2238      2236      2246      2244
      2238      2236      2246      2247      2238      2236      2246      2251
      2238      2241      2244      2245      2238      2241      2244      2246
      2238      2241      2244      2270      2239      2238      2236      2246
      2239      2238      2241      2242      2239      2238      2241      2243
      2239      2238      2241      2244      2240      2238      2236      2246
      2240      2238      2241      2242      2240      2238      2241      2243
      2240      2238      2241      2244      2241      2238      2236      2246
      2241      2244      2246      2247      2241      2244      2246      2251
      2241      2244      2270      2271      2241      2244      2270      2272
      2241      2244      2270      2276      2242      2241      2244      2245
      2242      2241      2244      2246      2242      2241      2244      2270
      2243      2241      2244      2245      2243      2241      2244      2246
      2243      2241      2244      2270      2244      2246      2247      2248
      2244      2246      2247      2249      2244      2246      2247      2250
      2244      2246      2251      2252      2244      2246      2251      2253
      2244      2246      2251      2254      2244      2270      2272      2273
      2244      2270      2272      2274      2244      2270      2272      2275
      2244      2270      2276      2277      2244      2270      2276      2278
      2244      2270      2276      2279      2245      2244      2246      2247
      2245      2244      2246      2251      2245      2244      2270      2271
      2245      2244      2270      2272      2245      2244      2270      2276
      2246      2236      2234      2257      2246      2244      2270      2271
      2246      2244      2270      2272      2246      2244      2270      2276
      2246      2251      2254      2255      2246      2251      2254      2256
      2246      2251      2254      2257      2247      2246      2244      2270
      2247      2246      2251      2252      2247      2246      2251      2253
      2247      2246      2251      2254      2248      2247      2246      2251
      2249      2247      2246      2251      2250      2247      2246      2251
      2251      2246      2244      2270      2251      2254      2257      2258
      2251      2254      2257      2259      2252      2251      2254      2255
      2252      2251      2254      2256      2252      2251      2254      2257
      2253      2251      2254      2255      2253      2251      2254      2256
      2253      2251      2254      2257      2254      2257      2259      2260
      2254      2257      2259      2264      2255      2254      2257      2258
      2255      2254      2257      2259      2256      2254      2257      2258
      2256      2254      2257      2259      2257      2259      2260      2261
      2257      2259      2260      2262      2257      2259      2260      2263
      2257      2259      2264      2265      2257      2259      2264      2266
      2257      2259      2264      2267      2258      2257      2259      2260
      2258      2257      2259      2264      2259      2264      2267      2268
      2259      2264      2267      2269      2260      2259      2264      2265
      2260      2259      2264      2266      2260      2259      2264      2267
      2261      2260      2259      2264      2262      2260      2259      2264
      2263      2260      2259      2264      2265      2264      2267      2268
      2265      2264      2267      2269      2266      2264      2267      2268
      2266      2264      2267      2269      2270      2276      2279      2280
      2270      2276      2279      2281      2270      2276      2279      2282
      2271      2270      2272      2273      2271      2270      2272      2274
      2271      2270      2272      2275      2271      2270      2276      2277
      2271      2270      2276      2278      2271      2270      2276      2279
      2272      2270      2276      2277      2272      2270      2276      2278
      2272      2270      2276      2279      2273      2272      2270      2276
      2274      2272      2270      2276      2275      2272      2270      2276
      2276      2279      2282      2283      2276      2279      2282      2284
      2276      2279      2282      2285      2277      2276      2279      2280
      2277      2276      2279      2281      2277      2276      2279      2282
      2278      2276      2279      2280      2278      2276      2279      2281
      2278      2276      2279      2282      2279      2282      2285      2286
      2279      2282      2285      2287      2279      2282      2285      2291
      2280      2279      2282      2283      2280      2279      2282      2284
      2280      2279      2282      2285      2281      2279      2282      2283
      2281      2279      2282      2284      2281      2279      2282      2285
      2282      2285      2287      2288      2282      2285      2287      2289
      2282      2285      2287      2290      2282      2285      2291      2292
      2282      2285      2291      2293      2282      2285      2291      2294
      2283      2282      2285      2286      2283      2282      2285      2287
      2283      2282      2285      2291      2284      2282      2285      2286
      2284      2282      2285      2287      2284      2282      2285      2291
      2286      2285      2287      2288      2286      2285      2287      2289
      2286      2285      2287      2290      2286      2285      2291      2292
      2286      2285      2291      2293      2286      2285      2291      2294
      2287      2285      2291      2292      2287      2285      2291      2293
      2287      2285      2291      2294      2288      2287      2285      2291
      2289      2287      2285      2291      2290      2287      2285      2291
      2295      2299      2302      2303      2295      2299      2302      2333
      2295      2341      2338      2333      2295      2341      2338      2339
      2295      2341      2338      2340      2296      2295      2297      2298
      2296      2295      2299      2300      2296      2295      2299      2301
      2296      2295      2299      2302      2296      2295      2341      2338
      2296      2295      2341      2342      2296      2295      2341      2343
      2297      2295      2299      2300      2297      2295      2299      2301
      2297      2295      2299      2302      2297      2295      2341      2338
      2297      2295      2341      2342      2297      2295      2341      2343
      2298      2297      2295      2299      2298      2297      2295      2341
      2299      2295      2341      2338      2299      2295      2341      2342
      2299      2295      2341      2343      2299      2302      2303      2304
      2299      2302      2303      2305      2299      2302      2333      2331
      2299      2302      2333      2334      2299      2302      2333      2338
      2300      2299      2295      2341      2300      2299      2302      2303
      2300      2299      2302      2333      2301      2299      2295      2341
      2301      2299      2302      2303      2301      2299      2302      2333
      2302      2299      2295      2341      2302      2303      2305      2306
      2302      2303      2305      2307      2302      2303      2305      2308
      2302      2333      2331      2308      2302      2333      2331      2328
      2302      2333      2331      2332      2302      2333      2334      2335
      2302      2333      2334      2336      2302      2333      2334      2337
      2302      2333      2338      2339      2302      2333      2338      2340
      2302      2333      2338      2341      2303      2302      2333      2331
      2303      2302      2333      2334      2303      2302      2333      2338
      2303      2305      2308      2309      2303      2305      2308      2310
      2303      2305      2308      2331      2304      2303      2302      2333
      2304      2303      2305      2306      2304      2303      2305      2307
      2304      2303      2305      2308      2305      2303      2302      2333
      2305      2308      2310      2311      2305      2308      2310      2312
      2305      2308      2310      2320      2305      2308      2331      2328
      2305      2308      2331      2332      2305      2308      2331      2333
      2306      2305      2308      2309      2306      2305      2308      2310
      2306      2305      2308      2331      2307      2305      2308      2309
      2307      2305      2308      2310      2307      2305      2308      2331
      2308      2310      2312      2313      2308      2310      2312      2314
      2308      2310      2312      2315      2308      2310      2320      2318
      2308      2310      2320      2321      2308      2310      2320      2325
      2308      2331      2328      2325      2308      2331      2328      2329
      2308      2331      2328      2330      2308      2331      2333      2334
      2308      2331      2333      2338      2309      2308      2310      2311
      2309      2308      2310      2312      2309      2308      2310      2320
      2309      2308      2331      2328      2309      2308      2331      2332
      2309      2308      2331      2333      2310      2308      2331      2328
      2310      2308      2331      2332      2310      2308      2331      2333
      2310      2312      2315      2316      2310      2312      2315      2317
      2310      2312      2315      2318      2310      2320      2318      2315
      2310      2320      2318      2319      2310      2320      2318      2344
      2310      2320      2321      2322      2310      2320      2321      2323
      2310      2320      2321      2324      2310      2320      2325      2326
      2310      2320      2325      2327      2310      2320      2325      2328
      2311      2310      2308      2331      2311      2310      2312      2313
      2311      2310      2312      2314      2311      2310      2312      2315
      2311      2310      2320      2318      2311      2310      2320      2321
      2311      2310      2320      2325      2312      2310      2308      2331
      2312      2310      2320      2318      2312      2310      2320      2321
      2312      2310      2320      2325      2312      2315      2318      2319
      2312      2315      2318      2320      2312      2315      2318      2344
      2313      2312      2310      2320      2313      2312      2315      2316
      2313      2312      2315      2317      2313      2312      2315      2318
      2314      2312      2310      2320      2314      2312      2315      2316
      2314      2312      2315      2317      2314      2312      2315      2318
      2315      2312      2310      2320      2315      2318      2320      2321
      2315      2318      2320      2325      2315      2318      2344      2345
      2315      2318      2344      2346      2315      2318      2344      2350
      2316      2315      2318      2319      2316      2315      2318      2320
      2316      2315      2318      2344      2317      2315      2318      2319
      2317      2315      2318      2320      2317      2315      2318      2344
      2318      2320      2321      2322      2318      2320      2321      2323
      2318      2320      2321      2324      2318      2320      2325      2326
      2318      2320      2325      2327      2318      2320      2325      2328
      2318      2344      2346      2347      2318      2344      2346      2348
      2318      2344      2346      2349      2318      2344      2350      2351
      2318      2344      2350      2352      2318      2344      2350      2353
      2319      2318      2320      2321      2319      2318      2320      2325
      2319      2318      2344      2345      2319      2318      2344      2346
      2319      2318      2344      2350      2320      2310      2308      2331
      2320      2318      2344      2345      2320      2318      2344      2346
      2320      2318      2344      2350      2320      2325      2328      2329
      2320      2325      2328      2330      2320      2325      2328      2331
      2321      2320      2318      2344      2321      2320      2325      2326
      2321      2320      2325      2327      2321      2320      2325      2328
      2322      2321      2320      2325      2323      2321      2320      2325
      2324      2321      2320      2325      2325      2320      2318      2344
      2325      2328      2331      2332      2325      2328      2331      2333
      2326      2325      2328      2329      2326      2325      2328      2330
      2326      2325      2328      2331      2327      2325      2328      2329
      2327      2325      2328      2330      2327      2325      2328      2331
      2328      2331      2333      2334      2328      2331      2333      2338
      2329      2328      2331      2332      2329      2328      2331      2333
      2330      2328      2331      2332      2330      2328      2331      2333
      2331      2333      2334      2335      2331      2333      2334      2336
      2331      2333      2334      2337      2331      2333      2338      2339
      2331      2333      2338      2340      2331      2333      2338      2341
      2332      2331      2333      2334      2332      2331      2333      2338
      2333      2338      2341      2342      2333      2338      2341      2343
      2334      2333      2338      2339      2334      2333      2338      2340
      2334      2333      2338      2341      2335      2334      2333      2338
      2336      2334      2333      2338      2337      2334      2333      2338
      2339      2338      2341      2342      2339      2338      2341      2343
      2340      2338      2341      2342      2340      2338      2341      2343
      2344      2350      2353      2354      2344      2350      2353      2355
      2344      2350      2353      2356      2345      2344      2346      2347
      2345      2344      2346      2348      2345      2344      2346      2349
      2345      2344      2350      2351      2345      2344      2350      2352
      2345      2344      2350      2353      2346      2344      2350      2351
      2346      2344      2350      2352      2346      2344      2350      2353
      2347      2346      2344      2350      2348      2346      2344      2350
      2349      2346      2344      2350      2350      2353      2356      2357
      2350      2353      2356      2358      2350      2353      2356      2359
      2351      2350      2353      2354      2351      2350      2353      2355
      2351      2350      2353      2356      2352      2350      2353      2354
      2352      2350      2353      2355      2352      2350      2353      2356
      2353      2356      2359      2360      2353      2356      2359      2361
      2353      2356      2359      2365      2354      2353      2356      2357
      2354      2353      2356      2358      2354      2353      2356      2359
      2355      2353      2356      2357      2355      2353      2356      2358
      2355      2353      2356      2359      2356      2359      2361      2362
      2356      2359      2361      2363      2356      2359      2361      2364
      2356      2359      2365      2366      2356      2359      2365      2367
      2356      2359      2365      2368      2357      2356      2359      2360
      2357      2356      2359      2361      2357      2356      2359      2365
      2358      2356      2359      2360      2358      2356      2359      2361
      2358      2356      2359      2365      2360      2359      2361      2362
      2360      2359      2361      2363      2360      2359      2361      2364
      2360      2359      2365      2366      2360      2359      2365      2367
      2360      2359      2365      2368      2361      2359      2365      2366
      2361      2359      2365      2367      2361      2359      2365      2368
      2362      2361      2359      2365      2363      2361      2359      2365
      2364      2361      2359      2365      2369      2373      2376      2377
      2369      2373      2376      2407      2369      2415      2412      2407
      2369      2415      2412      2413      2369      2415      2412      2414
      2370      2369      2371      2372      2370      2369      2373      2374
      2370      2369      2373      2375      2370      2369      2373      2376
      2370      2369      2415      2412      2370      2369      2415      2416
      2370      2369      2415      2417      2371      2369      2373      2374
      2371      2369      2373      2375      2371      2369      2373      2376
      2371      2369      2415      2412      2371      2369      2415      2416
      2371      2369      2415      2417      2372      2371      2369      2373
      2372      2371      2369      2415      2373      2369      2415      2412
      2373      2369      2415      2416      2373      2369      2415      2417
      2373      2376      2377      2378      2373      2376      2377      2379
      2373      2376      2407      2405      2373      2376      2407      2408
      2373      2376      2407      2412      2374      2373      2369      2415
      2374      2373      2376      2377      2374      2373      2376      2407
      2375      2373      2369      2415      2375      2373      2376      2377
      2375      2373      2376      2407      2376      2373      2369      2415
      2376      2377      2379      2380      2376      2377      2379      2381
      2376      2377      2379      2382      2376      2407      2405      2382
      2376      2407      2405      2402      2376      2407      2405      2406
      2376      2407      2408      2409      2376      2407      2408      2410
      2376      2407      2408      2411      2376      2407      2412      2413
      2376      2407      2412      2414      2376      2407      2412      2415
      2377      2376      2407      2405      2377      2376      2407      2408
      2377      2376      2407      2412      2377      2379      2382      2383
      2377      2379      2382      2384      2377      2379      2382      2405
      2378      2377      2376      2407      2378      2377      2379      2380
      2378      2377      2379      2381      2378      2377      2379      2382
      2379      2377      2376      2407      2379      2382      2384      2385
      2379      2382      2384      2386      2379      2382      2384      2394
      2379      2382      2405      2402      2379      2382      2405      2406
      2379      2382      2405      2407      2380      2379      2382      2383
      2380      2379      2382      2384      2380      2379      2382      2405
      2381      2379      2382      2383      2381      2379      2382      2384
      2381      2379      2382      2405      2382      2384      2386      2387
      2382      2384      2386      2388      2382      2384      2386      2389
      2382      2384      2394      2392      2382      2384      2394      2395
      2382      2384      2394      2399      2382      2405      2402      2399
      2382      2405      2402      2403      2382      2405      2402      2404
      2382      2405      2407      2408      2382      2405      2407      2412
      2383      2382      2384      2385      2383      2382      2384      2386
      2383      2382      2384      2394      2383      2382      2405      2402
      2383      2382      2405      2406      2383      2382      2405      2407
      2384      2382      2405      2402      2384      2382      2405      2406
      2384      2382      2405      2407      2384      2386      2389      2390
      2384      2386      2389      2391      2384      2386      2389      2392
      2384      2394      2392      2389      2384      2394      2392      2393
      2384      2394      2392      2418      2384      2394      2395      2396
      2384      2394      2395      2397      2384      2394      2395      2398
      2384      2394      2399      2400      2384      2394      2399      2401
      2384      2394      2399      2402      2385      2384      2382      2405
      2385      2384      2386      2387      2385      2384      2386      2388
      2385      2384      2386      2389      2385      2384      2394      2392
      2385      2384      2394      2395      2385      2384      2394      2399
      2386      2384      2382      2405      2386      2384      2394      2392
      2386      2384      2394      2395      2386      2384      2394      2399
      2386      2389      2392      2393      2386      2389      2392      2394
      2386      2389      2392      2418      2387      2386      2384      2394
      2387      2386      2389      2390      2387      2386      2389      2391
      2387      2386      2389      2392      2388      2386      2384      2394
      2388      2386      2389      2390      2388      2386      2389      2391
      2388      2386      2389      2392      2389      2386      2384      2394
      2389      2392      2394      2395      2389      2392      2394      2399
      2389      2392      2418      2419      2389      2392      2418      2420
      2389      2392      2418      2424      2390      2389      2392      2393
      2390      2389      2392      2394      2390      2389      2392      2418
      2391      2389      2392      2393      2391      2389      2392      2394
      2391      2389      2392      2418      2392      2394      2395      2396
      2392      2394      2395      2397      2392      2394      2395      2398
      2392      2394      2399      2400      2392      2394      2399      2401
      2392      2394      2399      2402      2392      2418      2420      2421
      2392      2418      2420      2422      2392      2418      2420      2423
      2392      2418      2424      2425      2392      2418      2424      2426
      2392      2418      2424      2427      2393      2392      2394      2395
      2393      2392      2394      2399      2393      2392      2418      2419
      2393      2392      2418      2420      2393      2392      2418      2424
      2394      2384      2382      2405      2394      2392      2418      2419
      2394      2392      2418      2420      2394      2392      2418      2424
      2394      2399      2402      2403      2394      2399      2402      2404
      2394      2399      2402      2405      2395      2394      2392      2418
      2395      2394      2399      2400      2395      2394      2399      2401
      2395      2394      2399      2402      2396      2395      2394      2399
      2397      2395      2394      2399      2398      2395      2394      2399
      2399      2394      2392      2418      2399      2402      2405      2406
      2399      2402      2405      2407      2400      2399      2402      2403
      2400      2399      2402      2404      2400      2399      2402      2405
      2401      2399      2402      2403      2401      2399      2402      2404
      2401      2399      2402      2405      2402      2405      2407      2408
      2402      2405      2407      2412      2403      2402      2405      2406
      2403      2402      2405      2407      2404      2402      2405      2406
      2404      2402      2405      2407      2405      2407      2408      2409
      2405      2407      2408      2410      2405      2407      2408      2411
      2405      2407      2412      2413      2405      2407      2412      2414
      2405      2407      2412      2415      2406      2405      2407      2408
      2406      2405      2407      2412      2407      2412      2415      2416
      2407      2412      2415      2417      2408      2407      2412      2413
      2408      2407      2412      2414      2408      2407      2412      2415
      2409      2408      2407      2412      2410      2408      2407      2412
      2411      2408      2407      2412      2413      2412      2415      2416
      2413      2412      2415      2417      2414      2412      2415      2416
      2414      2412      2415      2417      2418      2424      2427      2428
      2418      2424      2427      2429      2418      2424      2427      2430
      2419      2418      2420      2421      2419      2418      2420      2422
      2419      2418      2420      2423      2419      2418      2424      2425
      2419      2418      2424      2426      2419      2418      2424      2427
      2420      2418      2424      2425      2420      2418      2424      2426
      2420      2418      2424      2427      2421      2420      2418      2424
      2422      2420      2418      2424      2423      2420      2418      2424
      2424      2427      2430      2431      2424      2427      2430      2432
      2424      2427      2430      2433      2425      2424      2427      2428
      2425      2424      2427      2429      2425      2424      2427      2430
      2426      2424      2427      2428      2426      2424      2427      2429
      2426      2424      2427      2430      2427      2430      2433      2434
      2427      2430      2433      2435      2427      2430      2433      2439
      2428      2427      2430      2431      2428      2427      2430      2432
      2428      2427      2430      2433      2429      2427      2430      2431
      2429      2427      2430      2432      2429      2427      2430      2433
      2430      2433      2435      2436      2430      2433      2435      2437
      2430      2433      2435      2438      2430      2433      2439      2440
      2430      2433      2439      2441      2430      2433      2439      2442
      2431      2430      2433      2434      2431      2430      2433      2435
      2431      2430      2433      2439      2432      2430      2433      2434
      2432      2430      2433      2435      2432      2430      2433      2439
      2434      2433      2435      2436      2434      2433      2435      2437
      2434      2433      2435      2438      2434      2433      2439      2440
      2434      2433      2439      2441      2434      2433      2439      2442
      2435      2433      2439      2440      2435      2433      2439      2441
      2435      2433      2439      2442      2436      2435      2433      2439
      2437      2435      2433      2439      2438      2435      2433      2439
      2443      2447      2450      2451      2443      2447      2450      2481
      2443      2489      2486      2481      2443      2489      2486      2487
      2443      2489      2486      2488      2444      2443      2445      2446
      2444      2443      2447      2448      2444      2443      2447      2449
      2444      2443      2447      2450      2444      2443      2489      2486
      2444      2443      2489      2490      2444      2443      2489      2491
      2445      2443      2447      2448      2445      2443      2447      2449
      2445      2443      2447      2450      2445      2443      2489      2486
      2445      2443      2489      2490      2445      2443      2489      2491
      2446      2445      2443      2447      2446      2445      2443      2489
      2447      2443      2489      2486      2447      2443      2489      2490
      2447      2443      2489      2491      2447      2450      2451      2452
      2447      2450      2451      2453      2447      2450      2481      2479
      2447      2450      2481      2482      2447      2450      2481      2486
      2448      2447      2443      2489      2448      2447      2450      2451
      2448      2447      2450      2481      2449      2447      2443      2489
      2449      2447      2450      2451      2449      2447      2450      2481
      2450      2447      2443      2489      2450      2451      2453      2454
      2450      2451      2453      2455      2450      2451      2453      2456
      2450      2481      2479      2456      2450      2481      2479      2476
      2450      2481      2479      2480      2450      2481      2482      2483
      2450      2481      2482      2484      2450      2481      2482      2485
      2450      2481      2486      2487      2450      2481      2486      2488
      2450      2481      2486      2489      2451      2450      2481      2479
      2451      2450      2481      2482      2451      2450      2481      2486
      2451      2453      2456      2457      2451      2453      2456      2458
      2451      2453      2456      2479      2452      2451      2450      2481
      2452      2451      2453      2454      2452      2451      2453      2455
      2452      2451      2453      2456      2453      2451      2450      2481
      2453      2456      2458      2459      2453      2456      2458      2460
      2453      2456      2458      2468      2453      2456      2479      2476
      2453      2456      2479      2480      2453      2456      2479      2481
      2454      2453      2456      2457      2454      2453      2456      2458
      2454      2453      2456      2479      2455      2453      2456      2457
      2455      2453      2456      2458      2455      2453      2456      2479
      2456      2458      2460      2461      2456      2458      2460      2462
      2456      2458      2460      2463      2456      2458      2468      2466
      2456      2458      2468      2469      2456      2458      2468      2473
      2456      2479      2476      2473      2456      2479      2476      2477
      2456      2479      2476      2478      2456      2479      2481      2482
      2456      2479      2481      2486      2457      2456      2458      2459
      2457      2456      2458      2460      2457      2456      2458      2468
      2457      2456      2479      2476      2457      2456      2479      2480
      2457      2456      2479      2481      2458      2456      2479      2476
      2458      2456      2479      2480      2458      2456      2479      2481
      2458      2460      2463      2464      2458      2460      2463      2465
      2458      2460      2463      2466      2458      2468      2466      2463
      2458      2468      2466      2467      2458      2468      2466      2492
      2458      2468      2469      2470      2458      2468      2469      2471
      2458      2468      2469      2472      2458      2468      2473      2474
      2458      2468      2473      2475      2458      2468      2473      2476
      2459      2458      2456      2479      2459      2458      2460      2461
      2459      2458      2460      2462      2459      2458      2460      2463
      2459      2458      2468      2466      2459      2458      2468      2469
      2459      2458      2468      2473      2460      2458      2456      2479
      2460      2458      2468      2466      2460      2458      2468      2469
      2460      2458      2468      2473      2460      2463      2466      2467
      2460      2463      2466      2468      2460      2463      2466      2492
      2461      2460      2458      2468      2461      2460      2463      2464
      2461      2460      2463      2465      2461      2460      2463      2466
      2462      2460      2458      2468      2462      2460      2463      2464
      2462      2460      2463      2465      2462      2460      2463      2466
      2463      2460      2458      2468      2463      2466      2468      2469
      2463      2466      2468      2473      2463      2466      2492      2493
      2463      2466      2492      2494      2463      2466      2492      2498
      2464      2463      2466      2467      2464      2463      2466      2468
      2464      2463      2466      2492      2465      2463      2466      2467
      2465      2463      2466      2468      2465      2463      2466      2492
      2466      2468      2469      2470      2466      2468      2469      2471
      2466      2468      2469      2472      2466      2468      2473      2474
      2466      2468      2473      2475      2466      2468      2473      2476
      2466      2492      2494      2495      2466      2492      2494      2496
      2466      2492      2494      2497      2466      2492      2498      2499
      2466      2492      2498      2500      2466      2492      2498      2501
      2467      2466      2468      2469      2467      2466      2468      2473
      2467      2466      2492      2493      2467      2466      2492      2494
      2467      2466      2492      2498      2468      2458      2456      2479
      2468      2466      2492      2493      2468      2466      2492      2494
      2468      2466      2492      2498      2468      2473      2476      2477
      2468      2473      2476      2478      2468      2473      2476      2479
      2469      2468      2466      2492      2469      2468      2473      2474
      2469      2468      2473      2475      2469      2468      2473      2476
      2470      2469      2468      2473      2471      2469      2468      2473
      2472      2469      2468      2473      2473      2468      2466      2492
      2473      2476      2479      2480      2473      2476      2479      2481
      2474      2473      2476      2477      2474      2473      2476      2478
      2474      2473      2476      2479      2475      2473      2476      2477
      2475      2473      2476      2478      2475      2473      2476      2479
      2476      2479      2481      2482      2476      2479      2481      2486
      2477      2476      2479      2480      2477      2476      2479      2481
      2478      2476      2479      2480      2478      2476      2479      2481
      2479      2481      2482      2483      2479      2481      2482      2484
      2479      2481      2482      2485      2479      2481      2486      2487
      2479      2481      2486      2488      2479      2481      2486      2489
      2480      2479      2481      2482      2480      2479      2481      2486
      2481      2486      2489      2490      2481      2486      2489      2491
      2482      2481      2486      2487      2482      2481      2486      2488
      2482      2481      2486      2489      2483      2482      2481      2486
      2484      2482      2481      2486      2485      2482      2481      2486
      2487      2486      2489      2490      2487      2486      2489      2491
      2488      2486      2489      2490      2488      2486      2489      2491
      2492      2498      2501      2502      2492      2498      2501      2503
      2492      2498      2501      2504      2493      2492      2494      2495
      2493      2492      2494      2496      2493      2492      2494      2497
      2493      2492      2498      2499      2493      2492      2498      2500
      2493      2492      2498      2501      2494      2492      2498      2499
      2494      2492      2498      2500      2494      2492      2498      2501
      2495      2494      2492      2498      2496      2494      2492      2498
      2497      2494      2492      2498      2498      2501      2504      2505
      2498      2501      2504      2506      2498      2501      2504      2507
      2499      2498      2501      2502      2499      2498      2501      2503
      2499      2498      2501      2504      2500      2498      2501      2502
      2500      2498      2501      2503      2500      2498      2501      2504
      2501      2504      2507      2508      2501      2504      2507      2509
      2501      2504      2507      2513      2502      2501      2504      2505
      2502      2501      2504      2506      2502      2501      2504      2507
      2503      2501      2504      2505      2503      2501      2504      2506
      2503      2501      2504      2507      2504      2507      2509      2510
      2504      2507      2509      2511      2504      2507      2509      2512
      2504      2507      2513      2514      2504      2507      2513      2515
      2504      2507      2513      2516      2505      2504      2507      2508
      2505      2504      2507      2509      2505      2504      2507      2513
      2506      2504      2507      2508      2506      2504      2507      2509
      2506      2504      2507      2513      2508      2507      2509      2510
      2508      2507      2509      2511      2508      2507      2509      2512
      2508      2507      2513      2514      2508      2507      2513      2515
      2508      2507      2513      2516      2509      2507      2513      2514
      2509      2507      2513      2515      2509      2507      2513      2516
      2510      2509      2507      2513      2511      2509      2507      2513
      2512      2509      2507      2513     18132     18136     18139     18140
     18132     18136     18139     18141     18132     18136     18139     18145
     18133     18132     18136     18137     18133     18132     18136     18138
     18133     18132     18136     18139     18134     18132     18136     18137
     18134     18132     18136     18138     18134     18132     18136     18139
     18135     18132     18136     18137     18135     18132     18136     18138
     18135     18132     18136     18139     18136     18139     18145     18142
     18137     18136     18139     18140     18137     18136     18139     18141
     18137     18136     18139     18145     18138     18136     18139     18140
     18138     18136     18139     18141     18138     18136     18139     18145
     18139     18145     18142     18143     18139     18145     18142     18144
     18139     18145     18142     18146     18140     18139     18145     18142
     18141     18139     18145     18142     18142     18146     18147     18148
     18142     18146     18147     18149     18142     18146     18147     18150
     18143     18142     18146     18147     18144     18142     18146     18147
     18145     18142     18146     18147     18146     18147     18150     18151
     18146     18147     18150     18152     18146     18147     18150     18158
     18147     18150     18152     18153     18147     18150     18158     18159
     18147     18150     18158     18160     18147     18150     18158     18161
     18148     18147     18150     18151     18148     18147     18150     18152
     18148     18147     18150     18158     18149     18147     18150     18151
     18149     18147     18150     18152     18149     18147     18150     18158
     18150     18152     18153     18154     18150     18152     18153     18155
     18150     18158     18161     18162     18151     18150     18152     18153
     18151     18150     18158     18159     18151     18150     18158     18160
     18151     18150     18158     18161     18152     18150     18158     18159
     18152     18150     18158     18160     18152     18150     18158     18161
     18152     18153     18155     18156     18152     18153     18155     18157
     18152     18153     18155     18167     18153     18152     18150     18158
     18153     18155     18167     18168     18153     18155     18167     18169
     18153     18155     18167     18170     18154     18153     18155     18156
     18154     18153     18155     18157     18154     18153     18155     18167
     18155     18167     18170     18171     18155     18167     18170     18172
     18155     18167     18170     18173     18156     18155     18167     18168
     18156     18155     18167     18169     18156     18155     18167     18170
     18157     18155     18167     18168     18157     18155     18167     18169
     18157     18155     18167     18170     18158     18161     18162     18163
     18158     18161     18162     18164     18159     18158     18161     18162
     18160     18158     18161     18162     18161     18162     18164     18165
     18161     18162     18164     18166     18161     18162     18164     18214
     18162     18164     18214     18215     18162     18164     18214     18216
     18162     18164     18214     18217     18163     18162     18164     18165
     18163     18162     18164     18166     18163     18162     18164     18214
     18164     18214     18217     18218     18164     18214     18217     18219
     18164     18214     18217     18220     18165     18164     18214     18215
     18165     18164     18214     18216     18165     18164     18214     18217
     18166     18164     18214     18215     18166     18164     18214     18216
     18166     18164     18214     18217     18167     18170     18173     18174
     18167     18170     18173     18175     18168     18167     18170     18171
     18168     18167     18170     18172     18168     18167     18170     18173
     18169     18167     18170     18171     18169     18167     18170     18172
     18169     18167     18170     18173     18170     18173     18175     18176
     18170     18173     18175     18177     18171     18170     18173     18174
     18171     18170     18173     18175     18172     18170     18173     18174
     18172     18170     18173     18175     18173     18175     18177     18178
     18173     18175     18177     18179     18173     18175     18177     18180
     18174     18173     18175     18176     18174     18173     18175     18177
     18175     18177     18180     18181     18175     18177     18180     18182
     18176     18175     18177     18178     18176     18175     18177     18179
     18176     18175     18177     18180     18177     18180     18182     18183
     18177     18180     18182     18184     18178     18177     18180     18181
     18178     18177     18180     18182     18179     18177     18180     18181
     18179     18177     18180     18182     18180     18182     18184     18185
     18180     18182     18184     18186     18180     18182     18184     18187
     18181     18180     18182     18183     18181     18180     18182     18184
     18182     18184     18187     18188     18182     18184     18187     18189
     18183     18182     18184     18185     18183     18182     18184     18186
     18183     18182     18184     18187     18184     18187     18189     18190
     18184     18187     18189     18191     18185     18184     18187     18188
     18185     18184     18187     18189     18186     18184     18187     18188
     18186     18184     18187     18189     18187     18189     18191     18192
     18187     18189     18191     18193     18187     18189     18191     18194
     18188     18187     18189     18190     18188     18187     18189     18191
     18189     18191     18194     18195     18189     18191     18194     18196
     18190     18189     18191     18192     18190     18189     18191     18193
     18190     18189     18191     18194     18191     18194     18196     18197
     18191     18194     18196     18198     18192     18191     18194     18195
     18192     18191     18194     18196     18193     18191     18194     18195
     18193     18191     18194     18196     18194     18196     18198     18199
     18194     18196     18198     18200     18194     18196     18198     18201
     18195     18194     18196     18197     18195     18194     18196     18198
     18196     18198     18201     18202     18196     18198     18201     18203
     18196     18198     18201     18204     18197     18196     18198     18199
     18197     18196     18198     18200     18197     18196     18198     18201
     18198     18201     18204     18205     18198     18201     18204     18206
     18198     18201     18204     18207     18199     18198     18201     18202
     18199     18198     18201     18203     18199     18198     18201     18204
     18200     18198     18201     18202     18200     18198     18201     18203
     18200     18198     18201     18204     18201     18204     18207     18208
     18201     18204     18207     18209     18201     18204     18207     18210
     18202     18201     18204     18205     18202     18201     18204     18206
     18202     18201     18204     18207     18203     18201     18204     18205
     18203     18201     18204     18206     18203     18201     18204     18207
     18204     18207     18210     18211     18204     18207     18210     18212
     18204     18207     18210     18213     18205     18204     18207     18208
     18205     18204     18207     18209     18205     18204     18207     18210
     18206     18204     18207     18208     18206     18204     18207     18209
     18206     18204     18207     18210     18208     18207     18210     18211
     18208     18207     18210     18212     18208     18207     18210     18213
     18209     18207     18210     18211     18209     18207     18210     18212
     18209     18207     18210     18213     18214     18217     18220     18221
     18214     18217     18220     18222     18214     18217     18220     18223
     18215     18214     18217     18218     18215     18214     18217     18219
     18215     18214     18217     18220     18216     18214     18217     18218
     18216     18214     18217     18219     18216     18214     18217     18220
     18217     18220     18223     18224     18217     18220     18223     18225
     18217     18220     18223     18226     18218     18217     18220     18221
     18218     18217     18220     18222     18218     18217     18220     18223
     18219     18217     18220     18221     18219     18217     18220     18222
     18219     18217     18220     18223     18220     18223     18226     18227
     18220     18223     18226     18228     18220     18223     18226     18229
     18221     18220     18223     18224     18221     18220     18223     18225
     18221     18220     18223     18226     18222     18220     18223     18224
     18222     18220     18223     18225     18222     18220     18223     18226
     18223     18226     18229     18230     18223     18226     18229     18231
     18223     18226     18229     18232     18224     18223     18226     18227
     18224     18223     18226     18228     18224     18223     18226     18229
     18225     18223     18226     18227     18225     18223     18226     18228
     18225     18223     18226     18229     18226     18229     18232     18233
     18226     18229     18232     18234     18226     18229     18232     18235
     18227     18226     18229     18230     18227     18226     18229     18231
     18227     18226     18229     18232     18228     18226     18229     18230
     18228     18226     18229     18231     18228     18226     18229     18232
     18229     18232     18235     18236     18229     18232     18235     18237
     18229     18232     18235     18238     18230     18229     18232     18233
     18230     18229     18232     18234     18230     18229     18232     18235
     18231     18229     18232     18233     18231     18229     18232     18234
     18231     18229     18232     18235     18232     18235     18238     18239
     18232     18235     18238     18240     18232     18235     18238     18241
     18233     18232     18235     18236     18233     18232     18235     18237
     18233     18232     18235     18238     18234     18232     18235     18236
     18234     18232     18235     18237     18234     18232     18235     18238
     18235     18238     18241     18242     18235     18238     18241     18243
     18235     18238     18241     18244     18236     18235     18238     18239
     18236     18235     18238     18240     18236     18235     18238     18241
     18237     18235     18238     18239     18237     18235     18238     18240
     18237     18235     18238     18241     18238     18241     18244     18245
     18238     18241     18244     18246     18238     18241     18244     18247
     18239     18238     18241     18242     18239     18238     18241     18243
     18239     18238     18241     18244     18240     18238     18241     18242
     18240     18238     18241     18243     18240     18238     18241     18244
     18241     18244     18247     18248     18241     18244     18247     18249
     18241     18244     18247     18250     18242     18241     18244     18245
     18242     18241     18244     18246     18242     18241     18244     18247
     18243     18241     18244     18245     18243     18241     18244     18246
     18243     18241     18244     18247     18244     18247     18250     18251
     18244     18247     18250     18252     18244     18247     18250     18253
     18245     18244     18247     18248     18245     18244     18247     18249
     18245     18244     18247     18250     18246     18244     18247     18248
     18246     18244     18247     18249     18246     18244     18247     18250
     18247     18250     18253     18254     18247     18250     18253     18255
     18247     18250     18253     18256     18248     18247     18250     18251
     18248     18247     18250     18252     18248     18247     18250     18253
     18249     18247     18250     18251     18249     18247     18250     18252
     18249     18247     18250     18253     18250     18253     18256     18257
     18250     18253     18256     18258     18250     18253     18256     18259
     18251     18250     18253     18254     18251     18250     18253     18255
     18251     18250     18253     18256     18252     18250     18253     18254
     18252     18250     18253     18255     18252     18250     18253     18256
     18253     18256     18259     18260     18253     18256     18259     18261
     18253     18256     18259     18262     18254     18253     18256     18257
     18254     18253     18256     18258     18254     18253     18256     18259
     18255     18253     18256     18257     18255     18253     18256     18258
     18255     18253     18256     18259     18257     18256     18259     18260
     18257     18256     18259     18261     18257     18256     18259     18262
     18258     18256     18259     18260     18258     18256     18259     18261
     18258     18256     18259     18262     13154     13167     13170     13171
     13154     13167     13170     13172     13154     13167     13170     13177
     13155     13154     13159     13160     13155     13154     13159     13161
     13155     13154     13159     13162     13155     13154     13163     13164
     13155     13154     13163     13165     13155     13154     13163     13166
     13155     13154     13167     13168     13155     13154     13167     13169
     13155     13154     13167     13170     13156     13155     13154     13159
     13156     13155     13154     13163     13156     13155     13154     13167
     13157     13155     13154     13159     13157     13155     13154     13163
     13157     13155     13154     13167     13158     13155     13154     13159
     13158     13155     13154     13163     13158     13155     13154     13167
     13159     13154     13163     13164     13159     13154     13163     13165
     13159     13154     13163     13166     13159     13154     13167     13168
     13159     13154     13167     13169     13159     13154     13167     13170
     13160     13159     13154     13163     13160     13159     13154     13167
     13161     13159     13154     13163     13161     13159     13154     13167
     13162     13159     13154     13163     13162     13159     13154     13167
     13163     13154     13167     13168     13163     13154     13167     13169
     13163     13154     13167     13170     13164     13163     13154     13167
     13165     13163     13154     13167     13166     13163     13154     13167
     13167     13170     13177     13173     13168     13167     13170     13171
     13168     13167     13170     13172     13168     13167     13170     13177
     13169     13167     13170     13171     13169     13167     13170     13172
     13169     13167     13170     13177     13170     13177     13173     13174
     13170     13177     13173     13175     13170     13177     13173     13176
     13171     13170     13177     13173     13172     13170     13177     13173
     13173     13176     13178     13179     13173     13176     13178     13180
     13173     13176     13178     13183     13174     13173     13176     13178
     13175     13173     13176     13178     13176     13178     13183     13181
     13176     13178     13183     13184     13176     13178     13183     13185
     13177     13173     13176     13178     13178     13183     13181     13182
     13178     13183     13181     13233     13178     13183     13185     13186
     13178     13183     13185     13187     13178     13183     13185     13189
     13179     13178     13183     13181     13179     13178     13183     13184
     13179     13178     13183     13185     13180     13178     13183     13181
     13180     13178     13183     13184     13180     13178     13183     13185
     13181     13183     13185     13186     13181     13183     13185     13187
     13181     13183     13185     13189     13181     13233     13235     13236
     13181     13233     13235     13237     13181     13233     13235     13238
     13182     13181     13183     13184     13182     13181     13183     13185
     13182     13181     13233     13234     13182     13181     13233     13235
     13183     13181     13233     13234     13183     13181     13233     13235
     13183     13185     13187     13188     13183     13185     13189     13190
     13183     13185     13189     13191     13184     13183     13181     13233
     13184     13183     13185     13186     13184     13183     13185     13187
     13184     13183     13185     13189     13185     13183     13181     13233
     13185     13189     13191     13192     13185     13189     13191     13193
     13186     13185     13187     13188     13186     13185     13189     13190
     13186     13185     13189     13191     13187     13185     13189     13190
     13187     13185     13189     13191     13188     13187     13185     13189
     13189     13191     13193     13194     13189     13191     13193     13195
     13189     13191     13193     13196     13190     13189     13191     13192
     13190     13189     13191     13193     13191     13193     13196     13197
     13191     13193     13196     13198     13191     13193     13196     13199
     13192     13191     13193     13194     13192     13191     13193     13195
     13192     13191     13193     13196     13193     13196     13199     13200
     13193     13196     13199     13201     13193     13196     13199     13202
     13194     13193     13196     13197     13194     13193     13196     13198
     13194     13193     13196     13199     13195     13193     13196     13197
     13195     13193     13196     13198     13195     13193     13196     13199
     13196     13199     13202     13203     13196     13199     13202     13204
     13196     13199     13202     13205     13197     13196     13199     13200
     13197     13196     13199     13201     13197     13196     13199     13202
     13198     13196     13199     13200     13198     13196     13199     13201
     13198     13196     13199     13202     13199     13202     13205     13206
     13199     13202     13205     13207     13199     13202     13205     13208
     13200     13199     13202     13203     13200     13199     13202     13204
     13200     13199     13202     13205     13201     13199     13202     13203
     13201     13199     13202     13204     13201     13199     13202     13205
     13202     13205     13208     13209     13202     13205     13208     13210
     13202     13205     13208     13211     13203     13202     13205     13206
     13203     13202     13205     13207     13203     13202     13205     13208
     13204     13202     13205     13206     13204     13202     13205     13207
     13204     13202     13205     13208     13205     13208     13211     13212
     13205     13208     13211     13213     13205     13208     13211     13214
     13206     13205     13208     13209     13206     13205     13208     13210
     13206     13205     13208     13211     13207     13205     13208     13209
     13207     13205     13208     13210     13207     13205     13208     13211
     13208     13211     13214     13215     13208     13211     13214     13216
     13208     13211     13214     13217     13209     13208     13211     13212
     13209     13208     13211     13213     13209     13208     13211     13214
     13210     13208     13211     13212     13210     13208     13211     13213
     13210     13208     13211     13214     13211     13214     13217     13218
     13211     13214     13217     13219     13211     13214     13217     13220
     13212     13211     13214     13215     13212     13211     13214     13216
     13212     13211     13214     13217     13213     13211     13214     13215
     13213     13211     13214     13216     13213     13211     13214     13217
     13214     13217     13220     13221     13214     13217     13220     13222
     13214     13217     13220     13223     13215     13214     13217     13218
     13215     13214     13217     13219     13215     13214     13217     13220
     13216     13214     13217     13218     13216     13214     13217     13219
     13216     13214     13217     13220     13217     13220     13223     13224
     13217     13220     13223     13225     13217     13220     13223     13226
     13218     13217     13220     13221     13218     13217     13220     13222
     13218     13217     13220     13223     13219     13217     13220     13221
     13219     13217     13220     13222     13219     13217     13220     13223
     13220     13223     13226     13227     13220     13223     13226     13228
     13220     13223     13226     13229     13221     13220     13223     13224
     13221     13220     13223     13225     13221     13220     13223     13226
     13222     13220     13223     13224     13222     13220     13223     13225
     13222     13220     13223     13226     13223     13226     13229     13230
     13223     13226     13229     13231     13223     13226     13229     13232
     13224     13223     13226     13227     13224     13223     13226     13228
     13224     13223     13226     13229     13225     13223     13226     13227
     13225     13223     13226     13228     13225     13223     13226     13229
     13227     13226     13229     13230     13227     13226     13229     13231
     13227     13226     13229     13232     13228     13226     13229     13230
     13228     13226     13229     13231     13228     13226     13229     13232
     13233     13235     13238     13239     13233     13235     13238     13240
     13233     13235     13238     13241     13234     13233     13235     13236
     13234     13233     13235     13237     13234     13233     13235     13238
     13235     13238     13241     13242     13235     13238     13241     13243
     13235     13238     13241     13244     13236     13235     13238     13239
     13236     13235     13238     13240     13236     13235     13238     13241
     13237     13235     13238     13239     13237     13235     13238     13240
     13237     13235     13238     13241     13238     13241     13244     13245
     13238     13241     13244     13246     13238     13241     13244     13247
     13239     13238     13241     13242     13239     13238     13241     13243
     13239     13238     13241     13244     13240     13238     13241     13242
     13240     13238     13241     13243     13240     13238     13241     13244
     13241     13244     13247     13248     13241     13244     13247     13249
     13241     13244     13247     13250     13242     13241     13244     13245
     13242     13241     13244     13246     13242     13241     13244     13247
     13243     13241     13244     13245     13243     13241     13244     13246
     13243     13241     13244     13247     13244     13247     13250     13251
     13244     13247     13250     13252     13244     13247     13250     13253
     13245     13244     13247     13248     13245     13244     13247     13249
     13245     13244     13247     13250     13246     13244     13247     13248
     13246     13244     13247     13249     13246     13244     13247     13250
     13247     13250     13253     13254     13247     13250     13253     13255
     13247     13250     13253     13256     13248     13247     13250     13251
     13248     13247     13250     13252     13248     13247     13250     13253
     13249     13247     13250     13251     13249     13247     13250     13252
     13249     13247     13250     13253     13250     13253     13256     13257
     13250     13253     13256     13258     13251     13250     13253     13254
     13251     13250     13253     13255     13251     13250     13253     13256
     13252     13250     13253     13254     13252     13250     13253     13255
     13252     13250     13253     13256     13253     13256     13258     13259
     13253     13256     13258     13260     13254     13253     13256     13257
     13254     13253     13256     13258     13255     13253     13256     13257
     13255     13253     13256     13258     13256     13258     13260     13261
     13256     13258     13260     13262     13256     13258     13260     13263
     13257     13256     13258     13259     13257     13256     13258     13260
     13258     13260     13263     13264     13258     13260     13263     13265
     13258     13260     13263     13266     13259     13258     13260     13261
     13259     13258     13260     13262     13259     13258     13260     13263
     13260     13263     13266     13267     13260     13263     13266     13268
     13260     13263     13266     13269     13261     13260     13263     13264
     13261     13260     13263     13265     13261     13260     13263     13266
     13262     13260     13263     13264     13262     13260     13263     13265
     13262     13260     13263     13266     13263     13266     13269     13270
     13263     13266     13269     13271     13263     13266     13269     13272
     13264     13263     13266     13267     13264     13263     13266     13268
     13264     13263     13266     13269     13265     13263     13266     13267
     13265     13263     13266     13268     13265     13263     13266     13269
     13266     13269     13272     13273     13266     13269     13272     13274
     13266     13269     13272     13275     13267     13266     13269     13270
     13267     13266     13269     13271     13267     13266     13269     13272
     13268     13266     13269     13270     13268     13266     13269     13271
     13268     13266     13269     13272     13269     13272     13275     13276
     13269     13272     13275     13277     13269     13272     13275     13278
     13270     13269     13272     13273     13270     13269     13272     13274
     13270     13269     13272     13275     13271     13269     13272     13273
     13271     13269     13272     13274     13271     13269     13272     13275
     13272     13275     13278     13279     13272     13275     13278     13280
     13272     13275     13278     13281     13273     13272     13275     13276
     13273     13272     13275     13277     13273     13272     13275     13278
     13274     13272     13275     13276     13274     13272     13275     13277
     13274     13272     13275     13278     13275     13278     13281     13282
     13275     13278     13281     13283     13275     13278     13281     13284
     13276     13275     13278     13279     13276     13275     13278     13280
     13276     13275     13278     13281     13277     13275     13278     13279
     13277     13275     13278     13280     13277     13275     13278     13281
     13279     13278     13281     13282     13279     13278     13281     13283
     13279     13278     13281     13284     13280     13278     13281     13282
     13280     13278     13281     13283     13280     13278     13281     13284
     13285     13298     13301     13302     13285     13298     13301     13303
     13285     13298     13301     13308     13286     13285     13290     13291
     13286     13285     13290     13292     13286     13285     13290     13293
     13286     13285     13294     13295     13286     13285     13294     13296
     13286     13285     13294     13297     13286     13285     13298     13299
     13286     13285     13298     13300     13286     13285     13298     13301
     13287     13286     13285     13290     13287     13286     13285     13294
     13287     13286     13285     13298     13288     13286     13285     13290
     13288     13286     13285     13294     13288     13286     13285     13298
     13289     13286     13285     13290     13289     13286     13285     13294
     13289     13286     13285     13298     13290     13285     13294     13295
     13290     13285     13294     13296     13290     13285     13294     13297
     13290     13285     13298     13299     13290     13285     13298     13300
     13290     13285     13298     13301     13291     13290     13285     13294
     13291     13290     13285     13298     13292     13290     13285     13294
     13292     13290     13285     13298     13293     13290     13285     13294
     13293     13290     13285     13298     13294     13285     13298     13299
     13294     13285     13298     13300     13294     13285     13298     13301
     13295     13294     13285     13298     13296     13294     13285     13298
     13297     13294     13285     13298     13298     13301     13308     13304
     13299     13298     13301     13302     13299     13298     13301     13303
     13299     13298     13301     13308     13300     13298     13301     13302
     13300     13298     13301     13303     13300     13298     13301     13308
     13301     13308     13304     13305     13301     13308     13304     13306
     13301     13308     13304     13307     13302     13301     13308     13304
     13303     13301     13308     13304     13304     13307     13309     13310
     13304     13307     13309     13311     13304     13307     13309     13314
     13305     13304     13307     13309     13306     13304     13307     13309
     13307     13309     13314     13312     13307     13309     13314     13315
     13307     13309     13314     13316     13308     13304     13307     13309
     13309     13314     13312     13313     13309     13314     13312     13364
     13309     13314     13316     13317     13309     13314     13316     13318
     13309     13314     13316     13320     13310     13309     13314     13312
     13310     13309     13314     13315     13310     13309     13314     13316
     13311     13309     13314     13312     13311     13309     13314     13315
     13311     13309     13314     13316     13312     13314     13316     13317
     13312     13314     13316     13318     13312     13314     13316     13320
     13312     13364     13366     13367     13312     13364     13366     13368
     13312     13364     13366     13369     13313     13312     13314     13315
     13313     13312     13314     13316     13313     13312     13364     13365
     13313     13312     13364     13366     13314     13312     13364     13365
     13314     13312     13364     13366     13314     13316     13318     13319
     13314     13316     13320     13321     13314     13316     13320     13322
     13315     13314     13312     13364     13315     13314     13316     13317
     13315     13314     13316     13318     13315     13314     13316     13320
     13316     13314     13312     13364     13316     13320     13322     13323
     13316     13320     13322     13324     13317     13316     13318     13319
     13317     13316     13320     13321     13317     13316     13320     13322
     13318     13316     13320     13321     13318     13316     13320     13322
     13319     13318     13316     13320     13320     13322     13324     13325
     13320     13322     13324     13326     13320     13322     13324     13327
     13321     13320     13322     13323     13321     13320     13322     13324
     13322     13324     13327     13328     13322     13324     13327     13329
     13322     13324     13327     13330     13323     13322     13324     13325
     13323     13322     13324     13326     13323     13322     13324     13327
     13324     13327     13330     13331     13324     13327     13330     13332
     13324     13327     13330     13333     13325     13324     13327     13328
     13325     13324     13327     13329     13325     13324     13327     13330
     13326     13324     13327     13328     13326     13324     13327     13329
     13326     13324     13327     13330     13327     13330     13333     13334
     13327     13330     13333     13335     13327     13330     13333     13336
     13328     13327     13330     13331     13328     13327     13330     13332
     13328     13327     13330     13333     13329     13327     13330     13331
     13329     13327     13330     13332     13329     13327     13330     13333
     13330     13333     13336     13337     13330     13333     13336     13338
     13330     13333     13336     13339     13331     13330     13333     13334
     13331     13330     13333     13335     13331     13330     13333     13336
     13332     13330     13333     13334     13332     13330     13333     13335
     13332     13330     13333     13336     13333     13336     13339     13340
     13333     13336     13339     13341     13333     13336     13339     13342
     13334     13333     13336     13337     13334     13333     13336     13338
     13334     13333     13336     13339     13335     13333     13336     13337
     13335     13333     13336     13338     13335     13333     13336     13339
     13336     13339     13342     13343     13336     13339     13342     13344
     13336     13339     13342     13345     13337     13336     13339     13340
     13337     13336     13339     13341     13337     13336     13339     13342
     13338     13336     13339     13340     13338     13336     13339     13341
     13338     13336     13339     13342     13339     13342     13345     13346
     13339     13342     13345     13347     13339     13342     13345     13348
     13340     13339     13342     13343     13340     13339     13342     13344
     13340     13339     13342     13345     13341     13339     13342     13343
     13341     13339     13342     13344     13341     13339     13342     13345
     13342     13345     13348     13349     13342     13345     13348     13350
     13342     13345     13348     13351     13343     13342     13345     13346
     13343     13342     13345     13347     13343     13342     13345     13348
     13344     13342     13345     13346     13344     13342     13345     13347
     13344     13342     13345     13348     13345     13348     13351     13352
     13345     13348     13351     13353     13345     13348     13351     13354
     13346     13345     13348     13349     13346     13345     13348     13350
     13346     13345     13348     13351     13347     13345     13348     13349
     13347     13345     13348     13350     13347     13345     13348     13351
     13348     13351     13354     13355     13348     13351     13354     13356
     13348     13351     13354     13357     13349     13348     13351     13352
     13349     13348     13351     13353     13349     13348     13351     13354
     13350     13348     13351     13352     13350     13348     13351     13353
     13350     13348     13351     13354     13351     13354     13357     13358
     13351     13354     13357     13359     13351     13354     13357     13360
     13352     13351     13354     13355     13352     13351     13354     13356
     13352     13351     13354     13357     13353     13351     13354     13355
     13353     13351     13354     13356     13353     13351     13354     13357
     13354     13357     13360     13361     13354     13357     13360     13362
     13354     13357     13360     13363     13355     13354     13357     13358
     13355     13354     13357     13359     13355     13354     13357     13360
     13356     13354     13357     13358     13356     13354     13357     13359
     13356     13354     13357     13360     13358     13357     13360     13361
     13358     13357     13360     13362     13358     13357     13360     13363
     13359     13357     13360     13361     13359     13357     13360     13362
     13359     13357     13360     13363     13364     13366     13369     13370
     13364     13366     13369     13371     13364     13366     13369     13372
     13365     13364     13366     13367     13365     13364     13366     13368
     13365     13364     13366     13369     13366     13369     13372     13373
     13366     13369     13372     13374     13366     13369     13372     13375
     13367     13366     13369     13370     13367     13366     13369     13371
     13367     13366     13369     13372     13368     13366     13369     13370
     13368     13366     13369     13371     13368     13366     13369     13372
     13369     13372     13375     13376     13369     13372     13375     13377
     13369     13372     13375     13378     13370     13369     13372     13373
     13370     13369     13372     13374     13370     13369     13372     13375
     13371     13369     13372     13373     13371     13369     13372     13374
     13371     13369     13372     13375     13372     13375     13378     13379
     13372     13375     13378     13380     13372     13375     13378     13381
     13373     13372     13375     13376     13373     13372     13375     13377
     13373     13372     13375     13378     13374     13372     13375     13376
     13374     13372     13375     13377     13374     13372     13375     13378
     13375     13378     13381     13382     13375     13378     13381     13383
     13375     13378     13381     13384     13376     13375     13378     13379
     13376     13375     13378     13380     13376     13375     13378     13381
     13377     13375     13378     13379     13377     13375     13378     13380
     13377     13375     13378     13381     13378     13381     13384     13385
     13378     13381     13384     13386     13378     13381     13384     13387
     13379     13378     13381     13382     13379     13378     13381     13383
     13379     13378     13381     13384     13380     13378     13381     13382
     13380     13378     13381     13383     13380     13378     13381     13384
     13381     13384     13387     13388     13381     13384     13387     13389
     13382     13381     13384     13385     13382     13381     13384     13386
     13382     13381     13384     13387     13383     13381     13384     13385
     13383     13381     13384     13386     13383     13381     13384     13387
     13384     13387     13389     13390     13384     13387     13389     13391
     13385     13384     13387     13388     13385     13384     13387     13389
     13386     13384     13387     13388     13386     13384     13387     13389
     13387     13389     13391     13392     13387     13389     13391     13393
     13387     13389     13391     13394     13388     13387     13389     13390
     13388     13387     13389     13391     13389     13391     13394     13395
     13389     13391     13394     13396     13389     13391     13394     13397
     13390     13389     13391     13392     13390     13389     13391     13393
     13390     13389     13391     13394     13391     13394     13397     13398
     13391     13394     13397     13399     13391     13394     13397     13400
     13392     13391     13394     13395     13392     13391     13394     13396
     13392     13391     13394     13397     13393     13391     13394     13395
     13393     13391     13394     13396     13393     13391     13394     13397
     13394     13397     13400     13401     13394     13397     13400     13402
     13394     13397     13400     13403     13395     13394     13397     13398
     13395     13394     13397     13399     13395     13394     13397     13400
     13396     13394     13397     13398     13396     13394     13397     13399
     13396     13394     13397     13400     13397     13400     13403     13404
     13397     13400     13403     13405     13397     13400     13403     13406
     13398     13397     13400     13401     13398     13397     13400     13402
     13398     13397     13400     13403     13399     13397     13400     13401
     13399     13397     13400     13402     13399     13397     13400     13403
     13400     13403     13406     13407     13400     13403     13406     13408
     13400     13403     13406     13409     13401     13400     13403     13404
     13401     13400     13403     13405     13401     13400     13403     13406
     13402     13400     13403     13404     13402     13400     13403     13405
     13402     13400     13403     13406     13403     13406     13409     13410
     13403     13406     13409     13411     13403     13406     13409     13412
     13404     13403     13406     13407     13404     13403     13406     13408
     13404     13403     13406     13409     13405     13403     13406     13407
     13405     13403     13406     13408     13405     13403     13406     13409
     13406     13409     13412     13413     13406     13409     13412     13414
     13406     13409     13412     13415     13407     13406     13409     13410
     13407     13406     13409     13411     13407     13406     13409     13412
     13408     13406     13409     13410     13408     13406     13409     13411
     13408     13406     13409     13412     13410     13409     13412     13413
     13410     13409     13412     13414     13410     13409     13412     13415
     13411     13409     13412     13413     13411     13409     13412     13414
     13411     13409     13412     13415     13416     13429     13432     13433
     13416     13429     13432     13434     13416     13429     13432     13439
     13417     13416     13421     13422     13417     13416     13421     13423
     13417     13416     13421     13424     13417     13416     13425     13426
     13417     13416     13425     13427     13417     13416     13425     13428
     13417     13416     13429     13430     13417     13416     13429     13431
     13417     13416     13429     13432     13418     13417     13416     13421
     13418     13417     13416     13425     13418     13417     13416     13429
     13419     13417     13416     13421     13419     13417     13416     13425
     13419     13417     13416     13429     13420     13417     13416     13421
     13420     13417     13416     13425     13420     13417     13416     13429
     13421     13416     13425     13426     13421     13416     13425     13427
     13421     13416     13425     13428     13421     13416     13429     13430
     13421     13416     13429     13431     13421     13416     13429     13432
     13422     13421     13416     13425     13422     13421     13416     13429
     13423     13421     13416     13425     13423     13421     13416     13429
     13424     13421     13416     13425     13424     13421     13416     13429
     13425     13416     13429     13430     13425     13416     13429     13431
     13425     13416     13429     13432     13426     13425     13416     13429
     13427     13425     13416     13429     13428     13425     13416     13429
     13429     13432     13439     13435     13430     13429     13432     13433
     13430     13429     13432     13434     13430     13429     13432     13439
     13431     13429     13432     13433     13431     13429     13432     13434
     13431     13429     13432     13439     13432     13439     13435     13436
     13432     13439     13435     13437     13432     13439     13435     13438
     13433     13432     13439     13435     13434     13432     13439     13435
     13435     13438     13440     13441     13435     13438     13440     13442
     13435     13438     13440     13445     13436     13435     13438     13440
     13437     13435     13438     13440     13438     13440     13445     13443
     13438     13440     13445     13446     13438     13440     13445     13447
     13439     13435     13438     13440     13440     13445     13443     13444
     13440     13445     13443     13495     13440     13445     13447     13448
     13440     13445     13447     13449     13440     13445     13447     13451
     13441     13440     13445     13443     13441     13440     13445     13446
     13441     13440     13445     13447     13442     13440     13445     13443
     13442     13440     13445     13446     13442     13440     13445     13447
     13443     13445     13447     13448     13443     13445     13447     13449
     13443     13445     13447     13451     13443     13495     13497     13498
     13443     13495     13497     13499     13443     13495     13497     13500
     13444     13443     13445     13446     13444     13443     13445     13447
     13444     13443     13495     13496     13444     13443     13495     13497
     13445     13443     13495     13496     13445     13443     13495     13497
     13445     13447     13449     13450     13445     13447     13451     13452
     13445     13447     13451     13453     13446     13445     13443     13495
     13446     13445     13447     13448     13446     13445     13447     13449
     13446     13445     13447     13451     13447     13445     13443     13495
     13447     13451     13453     13454     13447     13451     13453     13455
     13448     13447     13449     13450     13448     13447     13451     13452
     13448     13447     13451     13453     13449     13447     13451     13452
     13449     13447     13451     13453     13450     13449     13447     13451
     13451     13453     13455     13456     13451     13453     13455     13457
     13451     13453     13455     13458     13452     13451     13453     13454
     13452     13451     13453     13455     13453     13455     13458     13459
     13453     13455     13458     13460     13453     13455     13458     13461
     13454     13453     13455     13456     13454     13453     13455     13457
     13454     13453     13455     13458     13455     13458     13461     13462
     13455     13458     13461     13463     13455     13458     13461     13464
     13456     13455     13458     13459     13456     13455     13458     13460
     13456     13455     13458     13461     13457     13455     13458     13459
     13457     13455     13458     13460     13457     13455     13458     13461
     13458     13461     13464     13465     13458     13461     13464     13466
     13458     13461     13464     13467     13459     13458     13461     13462
     13459     13458     13461     13463     13459     13458     13461     13464
     13460     13458     13461     13462     13460     13458     13461     13463
     13460     13458     13461     13464     13461     13464     13467     13468
     13461     13464     13467     13469     13461     13464     13467     13470
     13462     13461     13464     13465     13462     13461     13464     13466
     13462     13461     13464     13467     13463     13461     13464     13465
     13463     13461     13464     13466     13463     13461     13464     13467
     13464     13467     13470     13471     13464     13467     13470     13472
     13464     13467     13470     13473     13465     13464     13467     13468
     13465     13464     13467     13469     13465     13464     13467     13470
     13466     13464     13467     13468     13466     13464     13467     13469
     13466     13464     13467     13470     13467     13470     13473     13474
     13467     13470     13473     13475     13467     13470     13473     13476
     13468     13467     13470     13471     13468     13467     13470     13472
     13468     13467     13470     13473     13469     13467     13470     13471
     13469     13467     13470     13472     13469     13467     13470     13473
     13470     13473     13476     13477     13470     13473     13476     13478
     13470     13473     13476     13479     13471     13470     13473     13474
     13471     13470     13473     13475     13471     13470     13473     13476
     13472     13470     13473     13474     13472     13470     13473     13475
     13472     13470     13473     13476     13473     13476     13479     13480
     13473     13476     13479     13481     13473     13476     13479     13482
     13474     13473     13476     13477     13474     13473     13476     13478
     13474     13473     13476     13479     13475     13473     13476     13477
     13475     13473     13476     13478     13475     13473     13476     13479
     13476     13479     13482     13483     13476     13479     13482     13484
     13476     13479     13482     13485     13477     13476     13479     13480
     13477     13476     13479     13481     13477     13476     13479     13482
     13478     13476     13479     13480     13478     13476     13479     13481
     13478     13476     13479     13482     13479     13482     13485     13486
     13479     13482     13485     13487     13479     13482     13485     13488
     13480     13479     13482     13483     13480     13479     13482     13484
     13480     13479     13482     13485     13481     13479     13482     13483
     13481     13479     13482     13484     13481     13479     13482     13485
     13482     13485     13488     13489     13482     13485     13488     13490
     13482     13485     13488     13491     13483     13482     13485     13486
     13483     13482     13485     13487     13483     13482     13485     13488
     13484     13482     13485     13486     13484     13482     13485     13487
     13484     13482     13485     13488     13485     13488     13491     13492
     13485     13488     13491     13493     13485     13488     13491     13494
     13486     13485     13488     13489     13486     13485     13488     13490
     13486     13485     13488     13491     13487     13485     13488     13489
     13487     13485     13488     13490     13487     13485     13488     13491
     13489     13488     13491     13492     13489     13488     13491     13493
     13489     13488     13491     13494     13490     13488     13491     13492
     13490     13488     13491     13493     13490     13488     13491     13494
     13495     13497     13500     13501     13495     13497     13500     13502
     13495     13497     13500     13503     13496     13495     13497     13498
     13496     13495     13497     13499     13496     13495     13497     13500
     13497     13500     13503     13504     13497     13500     13503     13505
     13497     13500     13503     13506     13498     13497     13500     13501
     13498     13497     13500     13502     13498     13497     13500     13503
     13499     13497     13500     13501     13499     13497     13500     13502
     13499     13497     13500     13503     13500     13503     13506     13507
     13500     13503     13506     13508     13500     13503     13506     13509
     13501     13500     13503     13504     13501     13500     13503     13505
     13501     13500     13503     13506     13502     13500     13503     13504
     13502     13500     13503     13505     13502     13500     13503     13506
     13503     13506     13509     13510     13503     13506     13509     13511
     13503     13506     13509     13512     13504     13503     13506     13507
     13504     13503     13506     13508     13504     13503     13506     13509
     13505     13503     13506     13507     13505     13503     13506     13508
     13505     13503     13506     13509     13506     13509     13512     13513
     13506     13509     13512     13514     13506     13509     13512     13515
     13507     13506     13509     13510     13507     13506     13509     13511
     13507     13506     13509     13512     13508     13506     13509     13510
     13508     13506     13509     13511     13508     13506     13509     13512
     13509     13512     13515     13516     13509     13512     13515     13517
     13509     13512     13515     13518     13510     13509     13512     13513
     13510     13509     13512     13514     13510     13509     13512     13515
     13511     13509     13512     13513     13511     13509     13512     13514
     13511     13509     13512     13515     13512     13515     13518     13519
     13512     13515     13518     13520     13513     13512     13515     13516
     13513     13512     13515     13517     13513     13512     13515     13518
     13514     13512     13515     13516     13514     13512     13515     13517
     13514     13512     13515     13518     13515     13518     13520     13521
     13515     13518     13520     13522     13516     13515     13518     13519
     13516     13515     13518     13520     13517     13515     13518     13519
     13517     13515     13518     13520     13518     13520     13522     13523
     13518     13520     13522     13524     13518     13520     13522     13525
     13519     13518     13520     13521     13519     13518     13520     13522
     13520     13522     13525     13526     13520     13522     13525     13527
     13520     13522     13525     13528     13521     13520     13522     13523
     13521     13520     13522     13524     13521     13520     13522     13525
     13522     13525     13528     13529     13522     13525     13528     13530
     13522     13525     13528     13531     13523     13522     13525     13526
     13523     13522     13525     13527     13523     13522     13525     13528
     13524     13522     13525     13526     13524     13522     13525     13527
     13524     13522     13525     13528     13525     13528     13531     13532
     13525     13528     13531     13533     13525     13528     13531     13534
     13526     13525     13528     13529     13526     13525     13528     13530
     13526     13525     13528     13531     13527     13525     13528     13529
     13527     13525     13528     13530     13527     13525     13528     13531
     13528     13531     13534     13535     13528     13531     13534     13536
     13528     13531     13534     13537     13529     13528     13531     13532
     13529     13528     13531     13533     13529     13528     13531     13534
     13530     13528     13531     13532     13530     13528     13531     13533
     13530     13528     13531     13534     13531     13534     13537     13538
     13531     13534     13537     13539     13531     13534     13537     13540
     13532     13531     13534     13535     13532     13531     13534     13536
     13532     13531     13534     13537     13533     13531     13534     13535
     13533     13531     13534     13536     13533     13531     13534     13537
     13534     13537     13540     13541     13534     13537     13540     13542
     13534     13537     13540     13543     13535     13534     13537     13538
     13535     13534     13537     13539     13535     13534     13537     13540
     13536     13534     13537     13538     13536     13534     13537     13539
     13536     13534     13537     13540     13537     13540     13543     13544
     13537     13540     13543     13545     13537     13540     13543     13546
     13538     13537     13540     13541     13538     13537     13540     13542
     13538     13537     13540     13543     13539     13537     13540     13541
     13539     13537     13540     13542     13539     13537     13540     13543
     13541     13540     13543     13544     13541     13540     13543     13545
     13541     13540     13543     13546     13542     13540     13543     13544
     13542     13540     13543     13545     13542     13540     13543     13546
      2517      2521      2524      2525      2517      2521      2524      2555
      2517      2563      2560      2555      2517      2563      2560      2561
      2517      2563      2560      2562      2518      2517      2519      2520
      2518      2517      2521      2522      2518      2517      2521      2523
      2518      2517      2521      2524      2518      2517      2563      2560
      2518      2517      2563      2564      2518      2517      2563      2565
      2519      2517      2521      2522      2519      2517      2521      2523
      2519      2517      2521      2524      2519      2517      2563      2560
      2519      2517      2563      2564      2519      2517      2563      2565
      2520      2519      2517      2521      2520      2519      2517      2563
      2521      2517      2563      2560      2521      2517      2563      2564
      2521      2517      2563      2565      2521      2524      2525      2526
      2521      2524      2525      2527      2521      2524      2555      2553
      2521      2524      2555      2556      2521      2524      2555      2560
      2522      2521      2517      2563      2522      2521      2524      2525
      2522      2521      2524      2555      2523      2521      2517      2563
      2523      2521      2524      2525      2523      2521      2524      2555
      2524      2521      2517      2563      2524      2525      2527      2528
      2524      2525      2527      2529      2524      2525      2527      2530
      2524      2555      2553      2530      2524      2555      2553      2550
      2524      2555      2553      2554      2524      2555      2556      2557
      2524      2555      2556      2558      2524      2555      2556      2559
      2524      2555      2560      2561      2524      2555      2560      2562
      2524      2555      2560      2563      2525      2524      2555      2553
      2525      2524      2555      2556      2525      2524      2555      2560
      2525      2527      2530      2531      2525      2527      2530      2532
      2525      2527      2530      2553      2526      2525      2524      2555
      2526      2525      2527      2528      2526      2525      2527      2529
      2526      2525      2527      2530      2527      2525      2524      2555
      2527      2530      2532      2533      2527      2530      2532      2534
      2527      2530      2532      2542      2527      2530      2553      2550
      2527      2530      2553      2554      2527      2530      2553      2555
      2528      2527      2530      2531      2528      2527      2530      2532
      2528      2527      2530      2553      2529      2527      2530      2531
      2529      2527      2530      2532      2529      2527      2530      2553
      2530      2532      2534      2535      2530      2532      2534      2536
      2530      2532      2534      2537      2530      2532      2542      2540
      2530      2532      2542      2543      2530      2532      2542      2547
      2530      2553      2550      2547      2530      2553      2550      2551
      2530      2553      2550      2552      2530      2553      2555      2556
      2530      2553      2555      2560      2531      2530      2532      2533
      2531      2530      2532      2534      2531      2530      2532      2542
      2531      2530      2553      2550      2531      2530      2553      2554
      2531      2530      2553      2555      2532      2530      2553      2550
      2532      2530      2553      2554      2532      2530      2553      2555
      2532      2534      2537      2538      2532      2534      2537      2539
      2532      2534      2537      2540      2532      2542      2540      2537
      2532      2542      2540      2541      2532      2542      2540      2566
      2532      2542      2543      2544      2532      2542      2543      2545
      2532      2542      2543      2546      2532      2542      2547      2548
      2532      2542      2547      2549      2532      2542      2547      2550
      2533      2532      2530      2553      2533      2532      2534      2535
      2533      2532      2534      2536      2533      2532      2534      2537
      2533      2532      2542      2540      2533      2532      2542      2543
      2533      2532      2542      2547      2534      2532      2530      2553
      2534      2532      2542      2540      2534      2532      2542      2543
      2534      2532      2542      2547      2534      2537      2540      2541
      2534      2537      2540      2542      2534      2537      2540      2566
      2535      2534      2532      2542      2535      2534      2537      2538
      2535      2534      2537      2539      2535      2534      2537      2540
      2536      2534      2532      2542      2536      2534      2537      2538
      2536      2534      2537      2539      2536      2534      2537      2540
      2537      2534      2532      2542      2537      2540      2542      2543
      2537      2540      2542      2547      2537      2540      2566      2567
      2537      2540      2566      2568      2537      2540      2566      2572
      2538      2537      2540      2541      2538      2537      2540      2542
      2538      2537      2540      2566      2539      2537      2540      2541
      2539      2537      2540      2542      2539      2537      2540      2566
      2540      2542      2543      2544      2540      2542      2543      2545
      2540      2542      2543      2546      2540      2542      2547      2548
      2540      2542      2547      2549      2540      2542      2547      2550
      2540      2566      2568      2569      2540      2566      2568      2570
      2540      2566      2568      2571      2540      2566      2572      2573
      2540      2566      2572      2574      2540      2566      2572      2575
      2541      2540      2542      2543      2541      2540      2542      2547
      2541      2540      2566      2567      2541      2540      2566      2568
      2541      2540      2566      2572      2542      2532      2530      2553
      2542      2540      2566      2567      2542      2540      2566      2568
      2542      2540      2566      2572      2542      2547      2550      2551
      2542      2547      2550      2552      2542      2547      2550      2553
      2543      2542      2540      2566      2543      2542      2547      2548
      2543      2542      2547      2549      2543      2542      2547      2550
      2544      2543      2542      2547      2545      2543      2542      2547
      2546      2543      2542      2547      2547      2542      2540      2566
      2547      2550      2553      2554      2547      2550      2553      2555
      2548      2547      2550      2551      2548      2547      2550      2552
      2548      2547      2550      2553      2549      2547      2550      2551
      2549      2547      2550      2552      2549      2547      2550      2553
      2550      2553      2555      2556      2550      2553      2555      2560
      2551      2550      2553      2554      2551      2550      2553      2555
      2552      2550      2553      2554      2552      2550      2553      2555
      2553      2555      2556      2557      2553      2555      2556      2558
      2553      2555      2556      2559      2553      2555      2560      2561
      2553      2555      2560      2562      2553      2555      2560      2563
      2554      2553      2555      2556      2554      2553      2555      2560
      2555      2560      2563      2564      2555      2560      2563      2565
      2556      2555      2560      2561      2556      2555      2560      2562
      2556      2555      2560      2563      2557      2556      2555      2560
      2558      2556      2555      2560      2559      2556      2555      2560
      2561      2560      2563      2564      2561      2560      2563      2565
      2562      2560      2563      2564      2562      2560      2563      2565
      2566      2572      2575      2576      2566      2572      2575      2577
      2566      2572      2575      2578      2567      2566      2568      2569
      2567      2566      2568      2570      2567      2566      2568      2571
      2567      2566      2572      2573      2567      2566      2572      2574
      2567      2566      2572      2575      2568      2566      2572      2573
      2568      2566      2572      2574      2568      2566      2572      2575
      2569      2568      2566      2572      2570      2568      2566      2572
      2571      2568      2566      2572      2572      2575      2578      2579
      2572      2575      2578      2580      2572      2575      2578      2581
      2573      2572      2575      2576      2573      2572      2575      2577
      2573      2572      2575      2578      2574      2572      2575      2576
      2574      2572      2575      2577      2574      2572      2575      2578
      2575      2578      2581      2582      2575      2578      2581      2583
      2575      2578      2581      2587      2576      2575      2578      2579
      2576      2575      2578      2580      2576      2575      2578      2581
      2577      2575      2578      2579      2577      2575      2578      2580
      2577      2575      2578      2581      2578      2581      2583      2584
      2578      2581      2583      2585      2578      2581      2583      2586
      2578      2581      2587      2588      2578      2581      2587      2589
      2578      2581      2587      2590      2579      2578      2581      2582
      2579      2578      2581      2583      2579      2578      2581      2587
      2580      2578      2581      2582      2580      2578      2581      2583
      2580      2578      2581      2587      2582      2581      2583      2584
      2582      2581      2583      2585      2582      2581      2583      2586
      2582      2581      2587      2588      2582      2581      2587      2589
      2582      2581      2587      2590      2583      2581      2587      2588
      2583      2581      2587      2589      2583      2581      2587      2590
      2584      2583      2581      2587      2585      2583      2581      2587
      2586      2583      2581      2587     13547     13560     13563     13564
     13547     13560     13563     13565     13547     13560     13563     13570
     13548     13547     13552     13553     13548     13547     13552     13554
     13548     13547     13552     13555     13548     13547     13556     13557
     13548     13547     13556     13558     13548     13547     13556     13559
     13548     13547     13560     13561     13548     13547     13560     13562
     13548     13547     13560     13563     13549     13548     13547     13552
     13549     13548     13547     13556     13549     13548     13547     13560
     13550     13548     13547     13552     13550     13548     13547     13556
     13550     13548     13547     13560     13551     13548     13547     13552
     13551     13548     13547     13556     13551     13548     13547     13560
     13552     13547     13556     13557     13552     13547     13556     13558
     13552     13547     13556     13559     13552     13547     13560     13561
     13552     13547     13560     13562     13552     13547     13560     13563
     13553     13552     13547     13556     13553     13552     13547     13560
     13554     13552     13547     13556     13554     13552     13547     13560
     13555     13552     13547     13556     13555     13552     13547     13560
     13556     13547     13560     13561     13556     13547     13560     13562
     13556     13547     13560     13563     13557     13556     13547     13560
     13558     13556     13547     13560     13559     13556     13547     13560
     13560     13563     13570     13566     13561     13560     13563     13564
     13561     13560     13563     13565     13561     13560     13563     13570
     13562     13560     13563     13564     13562     13560     13563     13565
     13562     13560     13563     13570     13563     13570     13566     13567
     13563     13570     13566     13568     13563     13570     13566     13569
     13564     13563     13570     13566     13565     13563     13570     13566
     13566     13569     13571     13572     13566     13569     13571     13573
     13566     13569     13571     13576     13567     13566     13569     13571
     13568     13566     13569     13571     13569     13571     13576     13574
     13569     13571     13576     13577     13569     13571     13576     13578
     13570     13566     13569     13571     13571     13576     13574     13575
     13571     13576     13574     13626     13571     13576     13578     13579
     13571     13576     13578     13580     13571     13576     13578     13582
     13572     13571     13576     13574     13572     13571     13576     13577
     13572     13571     13576     13578     13573     13571     13576     13574
     13573     13571     13576     13577     13573     13571     13576     13578
     13574     13576     13578     13579     13574     13576     13578     13580
     13574     13576     13578     13582     13574     13626     13628     13629
     13574     13626     13628     13630     13574     13626     13628     13631
     13575     13574     13576     13577     13575     13574     13576     13578
     13575     13574     13626     13627     13575     13574     13626     13628
     13576     13574     13626     13627     13576     13574     13626     13628
     13576     13578     13580     13581     13576     13578     13582     13583
     13576     13578     13582     13584     13577     13576     13574     13626
     13577     13576     13578     13579     13577     13576     13578     13580
     13577     13576     13578     13582     13578     13576     13574     13626
     13578     13582     13584     13585     13578     13582     13584     13586
     13579     13578     13580     13581     13579     13578     13582     13583
     13579     13578     13582     13584     13580     13578     13582     13583
     13580     13578     13582     13584     13581     13580     13578     13582
     13582     13584     13586     13587     13582     13584     13586     13588
     13582     13584     13586     13589     13583     13582     13584     13585
     13583     13582     13584     13586     13584     13586     13589     13590
     13584     13586     13589     13591     13584     13586     13589     13592
     13585     13584     13586     13587     13585     13584     13586     13588
     13585     13584     13586     13589     13586     13589     13592     13593
     13586     13589     13592     13594     13586     13589     13592     13595
     13587     13586     13589     13590     13587     13586     13589     13591
     13587     13586     13589     13592     13588     13586     13589     13590
     13588     13586     13589     13591     13588     13586     13589     13592
     13589     13592     13595     13596     13589     13592     13595     13597
     13589     13592     13595     13598     13590     13589     13592     13593
     13590     13589     13592     13594     13590     13589     13592     13595
     13591     13589     13592     13593     13591     13589     13592     13594
     13591     13589     13592     13595     13592     13595     13598     13599
     13592     13595     13598     13600     13592     13595     13598     13601
     13593     13592     13595     13596     13593     13592     13595     13597
     13593     13592     13595     13598     13594     13592     13595     13596
     13594     13592     13595     13597     13594     13592     13595     13598
     13595     13598     13601     13602     13595     13598     13601     13603
     13595     13598     13601     13604     13596     13595     13598     13599
     13596     13595     13598     13600     13596     13595     13598     13601
     13597     13595     13598     13599     13597     13595     13598     13600
     13597     13595     13598     13601     13598     13601     13604     13605
     13598     13601     13604     13606     13598     13601     13604     13607
     13599     13598     13601     13602     13599     13598     13601     13603
     13599     13598     13601     13604     13600     13598     13601     13602
     13600     13598     13601     13603     13600     13598     13601     13604
     13601     13604     13607     13608     13601     13604     13607     13609
     13601     13604     13607     13610     13602     13601     13604     13605
     13602     13601     13604     13606     13602     13601     13604     13607
     13603     13601     13604     13605     13603     13601     13604     13606
     13603     13601     13604     13607     13604     13607     13610     13611
     13604     13607     13610     13612     13604     13607     13610     13613
     13605     13604     13607     13608     13605     13604     13607     13609
     13605     13604     13607     13610     13606     13604     13607     13608
     13606     13604     13607     13609     13606     13604     13607     13610
     13607     13610     13613     13614     13607     13610     13613     13615
     13607     13610     13613     13616     13608     13607     13610     13611
     13608     13607     13610     13612     13608     13607     13610     13613
     13609     13607     13610     13611     13609     13607     13610     13612
     13609     13607     13610     13613     13610     13613     13616     13617
     13610     13613     13616     13618     13610     13613     13616     13619
     13611     13610     13613     13614     13611     13610     13613     13615
     13611     13610     13613     13616     13612     13610     13613     13614
     13612     13610     13613     13615     13612     13610     13613     13616
     13613     13616     13619     13620     13613     13616     13619     13621
     13613     13616     13619     13622     13614     13613     13616     13617
     13614     13613     13616     13618     13614     13613     13616     13619
     13615     13613     13616     13617     13615     13613     13616     13618
     13615     13613     13616     13619     13616     13619     13622     13623
     13616     13619     13622     13624     13616     13619     13622     13625
     13617     13616     13619     13620     13617     13616     13619     13621
     13617     13616     13619     13622     13618     13616     13619     13620
     13618     13616     13619     13621     13618     13616     13619     13622
     13620     13619     13622     13623     13620     13619     13622     13624
     13620     13619     13622     13625     13621     13619     13622     13623
     13621     13619     13622     13624     13621     13619     13622     13625
     13626     13628     13631     13632     13626     13628     13631     13633
     13626     13628     13631     13634     13627     13626     13628     13629
     13627     13626     13628     13630     13627     13626     13628     13631
     13628     13631     13634     13635     13628     13631     13634     13636
     13628     13631     13634     13637     13629     13628     13631     13632
     13629     13628     13631     13633     13629     13628     13631     13634
     13630     13628     13631     13632     13630     13628     13631     13633
     13630     13628     13631     13634     13631     13634     13637     13638
     13631     13634     13637     13639     13631     13634     13637     13640
     13632     13631     13634     13635     13632     13631     13634     13636
     13632     13631     13634     13637     13633     13631     13634     13635
     13633     13631     13634     13636     13633     13631     13634     13637
     13634     13637     13640     13641     13634     13637     13640     13642
     13634     13637     13640     13643     13635     13634     13637     13638
     13635     13634     13637     13639     13635     13634     13637     13640
     13636     13634     13637     13638     13636     13634     13637     13639
     13636     13634     13637     13640     13637     13640     13643     13644
     13637     13640     13643     13645     13637     13640     13643     13646
     13638     13637     13640     13641     13638     13637     13640     13642
     13638     13637     13640     13643     13639     13637     13640     13641
     13639     13637     13640     13642     13639     13637     13640     13643
     13640     13643     13646     13647     13640     13643     13646     13648
     13640     13643     13646     13649     13641     13640     13643     13644
     13641     13640     13643     13645     13641     13640     13643     13646
     13642     13640     13643     13644     13642     13640     13643     13645
     13642     13640     13643     13646     13643     13646     13649     13650
     13643     13646     13649     13651     13644     13643     13646     13647
     13644     13643     13646     13648     13644     13643     13646     13649
     13645     13643     13646     13647     13645     13643     13646     13648
     13645     13643     13646     13649     13646     13649     13651     13652
     13646     13649     13651     13653     13647     13646     13649     13650
     13647     13646     13649     13651     13648     13646     13649     13650
     13648     13646     13649     13651     13649     13651     13653     13654
     13649     13651     13653     13655     13649     13651     13653     13656
     13650     13649     13651     13652     13650     13649     13651     13653
     13651     13653     13656     13657     13651     13653     13656     13658
     13651     13653     13656     13659     13652     13651     13653     13654
     13652     13651     13653     13655     13652     13651     13653     13656
     13653     13656     13659     13660     13653     13656     13659     13661
     13653     13656     13659     13662     13654     13653     13656     13657
     13654     13653     13656     13658     13654     13653     13656     13659
     13655     13653     13656     13657     13655     13653     13656     13658
     13655     13653     13656     13659     13656     13659     13662     13663
     13656     13659     13662     13664     13656     13659     13662     13665
     13657     13656     13659     13660     13657     13656     13659     13661
     13657     13656     13659     13662     13658     13656     13659     13660
     13658     13656     13659     13661     13658     13656     13659     13662
     13659     13662     13665     13666     13659     13662     13665     13667
     13659     13662     13665     13668     13660     13659     13662     13663
     13660     13659     13662     13664     13660     13659     13662     13665
     13661     13659     13662     13663     13661     13659     13662     13664
     13661     13659     13662     13665     13662     13665     13668     13669
     13662     13665     13668     13670     13662     13665     13668     13671
     13663     13662     13665     13666     13663     13662     13665     13667
     13663     13662     13665     13668     13664     13662     13665     13666
     13664     13662     13665     13667     13664     13662     13665     13668
     13665     13668     13671     13672     13665     13668     13671     13673
     13665     13668     13671     13674     13666     13665     13668     13669
     13666     13665     13668     13670     13666     13665     13668     13671
     13667     13665     13668     13669     13667     13665     13668     13670
     13667     13665     13668     13671     13668     13671     13674     13675
     13668     13671     13674     13676     13668     13671     13674     13677
     13669     13668     13671     13672     13669     13668     13671     13673
     13669     13668     13671     13674     13670     13668     13671     13672
     13670     13668     13671     13673     13670     13668     13671     13674
     13672     13671     13674     13675     13672     13671     13674     13676
     13672     13671     13674     13677     13673     13671     13674     13675
     13673     13671     13674     13676     13673     13671     13674     13677
     13678     13691     13694     13695     13678     13691     13694     13696
     13678     13691     13694     13701     13679     13678     13683     13684
     13679     13678     13683     13685     13679     13678     13683     13686
     13679     13678     13687     13688     13679     13678     13687     13689
     13679     13678     13687     13690     13679     13678     13691     13692
     13679     13678     13691     13693     13679     13678     13691     13694
     13680     13679     13678     13683     13680     13679     13678     13687
     13680     13679     13678     13691     13681     13679     13678     13683
     13681     13679     13678     13687     13681     13679     13678     13691
     13682     13679     13678     13683     13682     13679     13678     13687
     13682     13679     13678     13691     13683     13678     13687     13688
     13683     13678     13687     13689     13683     13678     13687     13690
     13683     13678     13691     13692     13683     13678     13691     13693
     13683     13678     13691     13694     13684     13683     13678     13687
     13684     13683     13678     13691     13685     13683     13678     13687
     13685     13683     13678     13691     13686     13683     13678     13687
     13686     13683     13678     13691     13687     13678     13691     13692
     13687     13678     13691     13693     13687     13678     13691     13694
     13688     13687     13678     13691     13689     13687     13678     13691
     13690     13687     13678     13691     13691     13694     13701     13697
     13692     13691     13694     13695     13692     13691     13694     13696
     13692     13691     13694     13701     13693     13691     13694     13695
     13693     13691     13694     13696     13693     13691     13694     13701
     13694     13701     13697     13698     13694     13701     13697     13699
     13694     13701     13697     13700     13695     13694     13701     13697
     13696     13694     13701     13697     13697     13700     13702     13703
     13697     13700     13702     13704     13697     13700     13702     13707
     13698     13697     13700     13702     13699     13697     13700     13702
     13700     13702     13707     13705     13700     13702     13707     13708
     13700     13702     13707     13709     13701     13697     13700     13702
     13702     13707     13705     13706     13702     13707     13705     13757
     13702     13707     13709     13710     13702     13707     13709     13711
     13702     13707     13709     13713     13703     13702     13707     13705
     13703     13702     13707     13708     13703     13702     13707     13709
     13704     13702     13707     13705     13704     13702     13707     13708
     13704     13702     13707     13709     13705     13707     13709     13710
     13705     13707     13709     13711     13705     13707     13709     13713
     13705     13757     13759     13760     13705     13757     13759     13761
     13705     13757     13759     13762     13706     13705     13707     13708
     13706     13705     13707     13709     13706     13705     13757     13758
     13706     13705     13757     13759     13707     13705     13757     13758
     13707     13705     13757     13759     13707     13709     13711     13712
     13707     13709     13713     13714     13707     13709     13713     13715
     13708     13707     13705     13757     13708     13707     13709     13710
     13708     13707     13709     13711     13708     13707     13709     13713
     13709     13707     13705     13757     13709     13713     13715     13716
     13709     13713     13715     13717     13710     13709     13711     13712
     13710     13709     13713     13714     13710     13709     13713     13715
     13711     13709     13713     13714     13711     13709     13713     13715
     13712     13711     13709     13713     13713     13715     13717     13718
     13713     13715     13717     13719     13713     13715     13717     13720
     13714     13713     13715     13716     13714     13713     13715     13717
     13715     13717     13720     13721     13715     13717     13720     13722
     13715     13717     13720     13723     13716     13715     13717     13718
     13716     13715     13717     13719     13716     13715     13717     13720
     13717     13720     13723     13724     13717     13720     13723     13725
     13717     13720     13723     13726     13718     13717     13720     13721
     13718     13717     13720     13722     13718     13717     13720     13723
     13719     13717     13720     13721     13719     13717     13720     13722
     13719     13717     13720     13723     13720     13723     13726     13727
     13720     13723     13726     13728     13720     13723     13726     13729
     13721     13720     13723     13724     13721     13720     13723     13725
     13721     13720     13723     13726     13722     13720     13723     13724
     13722     13720     13723     13725     13722     13720     13723     13726
     13723     13726     13729     13730     13723     13726     13729     13731
     13723     13726     13729     13732     13724     13723     13726     13727
     13724     13723     13726     13728     13724     13723     13726     13729
     13725     13723     13726     13727     13725     13723     13726     13728
     13725     13723     13726     13729     13726     13729     13732     13733
     13726     13729     13732     13734     13726     13729     13732     13735
     13727     13726     13729     13730     13727     13726     13729     13731
     13727     13726     13729     13732     13728     13726     13729     13730
     13728     13726     13729     13731     13728     13726     13729     13732
     13729     13732     13735     13736     13729     13732     13735     13737
     13729     13732     13735     13738     13730     13729     13732     13733
     13730     13729     13732     13734     13730     13729     13732     13735
     13731     13729     13732     13733     13731     13729     13732     13734
     13731     13729     13732     13735     13732     13735     13738     13739
     13732     13735     13738     13740     13732     13735     13738     13741
     13733     13732     13735     13736     13733     13732     13735     13737
     13733     13732     13735     13738     13734     13732     13735     13736
     13734     13732     13735     13737     13734     13732     13735     13738
     13735     13738     13741     13742     13735     13738     13741     13743
     13735     13738     13741     13744     13736     13735     13738     13739
     13736     13735     13738     13740     13736     13735     13738     13741
     13737     13735     13738     13739     13737     13735     13738     13740
     13737     13735     13738     13741     13738     13741     13744     13745
     13738     13741     13744     13746     13738     13741     13744     13747
     13739     13738     13741     13742     13739     13738     13741     13743
     13739     13738     13741     13744     13740     13738     13741     13742
     13740     13738     13741     13743     13740     13738     13741     13744
     13741     13744     13747     13748     13741     13744     13747     13749
     13741     13744     13747     13750     13742     13741     13744     13745
     13742     13741     13744     13746     13742     13741     13744     13747
     13743     13741     13744     13745     13743     13741     13744     13746
     13743     13741     13744     13747     13744     13747     13750     13751
     13744     13747     13750     13752     13744     13747     13750     13753
     13745     13744     13747     13748     13745     13744     13747     13749
     13745     13744     13747     13750     13746     13744     13747     13748
     13746     13744     13747     13749     13746     13744     13747     13750
     13747     13750     13753     13754     13747     13750     13753     13755
     13747     13750     13753     13756     13748     13747     13750     13751
     13748     13747     13750     13752     13748     13747     13750     13753
     13749     13747     13750     13751     13749     13747     13750     13752
     13749     13747     13750     13753     13751     13750     13753     13754
     13751     13750     13753     13755     13751     13750     13753     13756
     13752     13750     13753     13754     13752     13750     13753     13755
     13752     13750     13753     13756     13757     13759     13762     13763
     13757     13759     13762     13764     13757     13759     13762     13765
     13758     13757     13759     13760     13758     13757     13759     13761
     13758     13757     13759     13762     13759     13762     13765     13766
     13759     13762     13765     13767     13759     13762     13765     13768
     13760     13759     13762     13763     13760     13759     13762     13764
     13760     13759     13762     13765     13761     13759     13762     13763
     13761     13759     13762     13764     13761     13759     13762     13765
     13762     13765     13768     13769     13762     13765     13768     13770
     13762     13765     13768     13771     13763     13762     13765     13766
     13763     13762     13765     13767     13763     13762     13765     13768
     13764     13762     13765     13766     13764     13762     13765     13767
     13764     13762     13765     13768     13765     13768     13771     13772
     13765     13768     13771     13773     13765     13768     13771     13774
     13766     13765     13768     13769     13766     13765     13768     13770
     13766     13765     13768     13771     13767     13765     13768     13769
     13767     13765     13768     13770     13767     13765     13768     13771
     13768     13771     13774     13775     13768     13771     13774     13776
     13768     13771     13774     13777     13769     13768     13771     13772
     13769     13768     13771     13773     13769     13768     13771     13774
     13770     13768     13771     13772     13770     13768     13771     13773
     13770     13768     13771     13774     13771     13774     13777     13778
     13771     13774     13777     13779     13771     13774     13777     13780
     13772     13771     13774     13775     13772     13771     13774     13776
     13772     13771     13774     13777     13773     13771     13774     13775
     13773     13771     13774     13776     13773     13771     13774     13777
     13774     13777     13780     13781     13774     13777     13780     13782
     13775     13774     13777     13778     13775     13774     13777     13779
     13775     13774     13777     13780     13776     13774     13777     13778
     13776     13774     13777     13779     13776     13774     13777     13780
     13777     13780     13782     13783     13777     13780     13782     13784
     13778     13777     13780     13781     13778     13777     13780     13782
     13779     13777     13780     13781     13779     13777     13780     13782
     13780     13782     13784     13785     13780     13782     13784     13786
     13780     13782     13784     13787     13781     13780     13782     13783
     13781     13780     13782     13784     13782     13784     13787     13788
     13782     13784     13787     13789     13782     13784     13787     13790
     13783     13782     13784     13785     13783     13782     13784     13786
     13783     13782     13784     13787     13784     13787     13790     13791
     13784     13787     13790     13792     13784     13787     13790     13793
     13785     13784     13787     13788     13785     13784     13787     13789
     13785     13784     13787     13790     13786     13784     13787     13788
     13786     13784     13787     13789     13786     13784     13787     13790
     13787     13790     13793     13794     13787     13790     13793     13795
     13787     13790     13793     13796     13788     13787     13790     13791
     13788     13787     13790     13792     13788     13787     13790     13793
     13789     13787     13790     13791     13789     13787     13790     13792
     13789     13787     13790     13793     13790     13793     13796     13797
     13790     13793     13796     13798     13790     13793     13796     13799
     13791     13790     13793     13794     13791     13790     13793     13795
     13791     13790     13793     13796     13792     13790     13793     13794
     13792     13790     13793     13795     13792     13790     13793     13796
     13793     13796     13799     13800     13793     13796     13799     13801
     13793     13796     13799     13802     13794     13793     13796     13797
     13794     13793     13796     13798     13794     13793     13796     13799
     13795     13793     13796     13797     13795     13793     13796     13798
     13795     13793     13796     13799     13796     13799     13802     13803
     13796     13799     13802     13804     13796     13799     13802     13805
     13797     13796     13799     13800     13797     13796     13799     13801
     13797     13796     13799     13802     13798     13796     13799     13800
     13798     13796     13799     13801     13798     13796     13799     13802
     13799     13802     13805     13806     13799     13802     13805     13807
     13799     13802     13805     13808     13800     13799     13802     13803
     13800     13799     13802     13804     13800     13799     13802     13805
     13801     13799     13802     13803     13801     13799     13802     13804
     13801     13799     13802     13805     13803     13802     13805     13806
     13803     13802     13805     13807     13803     13802     13805     13808
     13804     13802     13805     13806     13804     13802     13805     13807
     13804     13802     13805     13808     13809     13822     13825     13826
     13809     13822     13825     13827     13809     13822     13825     13832
     13810     13809     13814     13815     13810     13809     13814     13816
     13810     13809     13814     13817     13810     13809     13818     13819
     13810     13809     13818     13820     13810     13809     13818     13821
     13810     13809     13822     13823     13810     13809     13822     13824
     13810     13809     13822     13825     13811     13810     13809     13814
     13811     13810     13809     13818     13811     13810     13809     13822
     13812     13810     13809     13814     13812     13810     13809     13818
     13812     13810     13809     13822     13813     13810     13809     13814
     13813     13810     13809     13818     13813     13810     13809     13822
     13814     13809     13818     13819     13814     13809     13818     13820
     13814     13809     13818     13821     13814     13809     13822     13823
     13814     13809     13822     13824     13814     13809     13822     13825
     13815     13814     13809     13818     13815     13814     13809     13822
     13816     13814     13809     13818     13816     13814     13809     13822
     13817     13814     13809     13818     13817     13814     13809     13822
     13818     13809     13822     13823     13818     13809     13822     13824
     13818     13809     13822     13825     13819     13818     13809     13822
     13820     13818     13809     13822     13821     13818     13809     13822
     13822     13825     13832     13828     13823     13822     13825     13826
     13823     13822     13825     13827     13823     13822     13825     13832
     13824     13822     13825     13826     13824     13822     13825     13827
     13824     13822     13825     13832     13825     13832     13828     13829
     13825     13832     13828     13830     13825     13832     13828     13831
     13826     13825     13832     13828     13827     13825     13832     13828
     13828     13831     13833     13834     13828     13831     13833     13835
     13828     13831     13833     13838     13829     13828     13831     13833
     13830     13828     13831     13833     13831     13833     13838     13836
     13831     13833     13838     13839     13831     13833     13838     13840
     13832     13828     13831     13833     13833     13838     13836     13837
     13833     13838     13836     13888     13833     13838     13840     13841
     13833     13838     13840     13842     13833     13838     13840     13844
     13834     13833     13838     13836     13834     13833     13838     13839
     13834     13833     13838     13840     13835     13833     13838     13836
     13835     13833     13838     13839     13835     13833     13838     13840
     13836     13838     13840     13841     13836     13838     13840     13842
     13836     13838     13840     13844     13836     13888     13890     13891
     13836     13888     13890     13892     13836     13888     13890     13893
     13837     13836     13838     13839     13837     13836     13838     13840
     13837     13836     13888     13889     13837     13836     13888     13890
     13838     13836     13888     13889     13838     13836     13888     13890
     13838     13840     13842     13843     13838     13840     13844     13845
     13838     13840     13844     13846     13839     13838     13836     13888
     13839     13838     13840     13841     13839     13838     13840     13842
     13839     13838     13840     13844     13840     13838     13836     13888
     13840     13844     13846     13847     13840     13844     13846     13848
     13841     13840     13842     13843     13841     13840     13844     13845
     13841     13840     13844     13846     13842     13840     13844     13845
     13842     13840     13844     13846     13843     13842     13840     13844
     13844     13846     13848     13849     13844     13846     13848     13850
     13844     13846     13848     13851     13845     13844     13846     13847
     13845     13844     13846     13848     13846     13848     13851     13852
     13846     13848     13851     13853     13846     13848     13851     13854
     13847     13846     13848     13849     13847     13846     13848     13850
     13847     13846     13848     13851     13848     13851     13854     13855
     13848     13851     13854     13856     13848     13851     13854     13857
     13849     13848     13851     13852     13849     13848     13851     13853
     13849     13848     13851     13854     13850     13848     13851     13852
     13850     13848     13851     13853     13850     13848     13851     13854
     13851     13854     13857     13858     13851     13854     13857     13859
     13851     13854     13857     13860     13852     13851     13854     13855
     13852     13851     13854     13856     13852     13851     13854     13857
     13853     13851     13854     13855     13853     13851     13854     13856
     13853     13851     13854     13857     13854     13857     13860     13861
     13854     13857     13860     13862     13854     13857     13860     13863
     13855     13854     13857     13858     13855     13854     13857     13859
     13855     13854     13857     13860     13856     13854     13857     13858
     13856     13854     13857     13859     13856     13854     13857     13860
     13857     13860     13863     13864     13857     13860     13863     13865
     13857     13860     13863     13866     13858     13857     13860     13861
     13858     13857     13860     13862     13858     13857     13860     13863
     13859     13857     13860     13861     13859     13857     13860     13862
     13859     13857     13860     13863     13860     13863     13866     13867
     13860     13863     13866     13868     13860     13863     13866     13869
     13861     13860     13863     13864     13861     13860     13863     13865
     13861     13860     13863     13866     13862     13860     13863     13864
     13862     13860     13863     13865     13862     13860     13863     13866
     13863     13866     13869     13870     13863     13866     13869     13871
     13863     13866     13869     13872     13864     13863     13866     13867
     13864     13863     13866     13868     13864     13863     13866     13869
     13865     13863     13866     13867     13865     13863     13866     13868
     13865     13863     13866     13869     13866     13869     13872     13873
     13866     13869     13872     13874     13866     13869     13872     13875
     13867     13866     13869     13870     13867     13866     13869     13871
     13867     13866     13869     13872     13868     13866     13869     13870
     13868     13866     13869     13871     13868     13866     13869     13872
     13869     13872     13875     13876     13869     13872     13875     13877
     13869     13872     13875     13878     13870     13869     13872     13873
     13870     13869     13872     13874     13870     13869     13872     13875
     13871     13869     13872     13873     13871     13869     13872     13874
     13871     13869     13872     13875     13872     13875     13878     13879
     13872     13875     13878     13880     13872     13875     13878     13881
     13873     13872     13875     13876     13873     13872     13875     13877
     13873     13872     13875     13878     13874     13872     13875     13876
     13874     13872     13875     13877     13874     13872     13875     13878
     13875     13878     13881     13882     13875     13878     13881     13883
     13875     13878     13881     13884     13876     13875     13878     13879
     13876     13875     13878     13880     13876     13875     13878     13881
     13877     13875     13878     13879     13877     13875     13878     13880
     13877     13875     13878     13881     13878     13881     13884     13885
     13878     13881     13884     13886     13878     13881     13884     13887
     13879     13878     13881     13882     13879     13878     13881     13883
     13879     13878     13881     13884     13880     13878     13881     13882
     13880     13878     13881     13883     13880     13878     13881     13884
     13882     13881     13884     13885     13882     13881     13884     13886
     13882     13881     13884     13887     13883     13881     13884     13885
     13883     13881     13884     13886     13883     13881     13884     13887
     13888     13890     13893     13894     13888     13890     13893     13895
     13888     13890     13893     13896     13889     13888     13890     13891
     13889     13888     13890     13892     13889     13888     13890     13893
     13890     13893     13896     13897     13890     13893     13896     13898
     13890     13893     13896     13899     13891     13890     13893     13894
     13891     13890     13893     13895     13891     13890     13893     13896
     13892     13890     13893     13894     13892     13890     13893     13895
     13892     13890     13893     13896     13893     13896     13899     13900
     13893     13896     13899     13901     13893     13896     13899     13902
     13894     13893     13896     13897     13894     13893     13896     13898
     13894     13893     13896     13899     13895     13893     13896     13897
     13895     13893     13896     13898     13895     13893     13896     13899
     13896     13899     13902     13903     13896     13899     13902     13904
     13896     13899     13902     13905     13897     13896     13899     13900
     13897     13896     13899     13901     13897     13896     13899     13902
     13898     13896     13899     13900     13898     13896     13899     13901
     13898     13896     13899     13902     13899     13902     13905     13906
     13899     13902     13905     13907     13899     13902     13905     13908
     13900     13899     13902     13903     13900     13899     13902     13904
     13900     13899     13902     13905     13901     13899     13902     13903
     13901     13899     13902     13904     13901     13899     13902     13905
     13902     13905     13908     13909     13902     13905     13908     13910
     13902     13905     13908     13911     13903     13902     13905     13906
     13903     13902     13905     13907     13903     13902     13905     13908
     13904     13902     13905     13906     13904     13902     13905     13907
     13904     13902     13905     13908     13905     13908     13911     13912
     13905     13908     13911     13913     13906     13905     13908     13909
     13906     13905     13908     13910     13906     13905     13908     13911
     13907     13905     13908     13909     13907     13905     13908     13910
     13907     13905     13908     13911     13908     13911     13913     13914
     13908     13911     13913     13915     13909     13908     13911     13912
     13909     13908     13911     13913     13910     13908     13911     13912
     13910     13908     13911     13913     13911     13913     13915     13916
     13911     13913     13915     13917     13911     13913     13915     13918
     13912     13911     13913     13914     13912     13911     13913     13915
     13913     13915     13918     13919     13913     13915     13918     13920
     13913     13915     13918     13921     13914     13913     13915     13916
     13914     13913     13915     13917     13914     13913     13915     13918
     13915     13918     13921     13922     13915     13918     13921     13923
     13915     13918     13921     13924     13916     13915     13918     13919
     13916     13915     13918     13920     13916     13915     13918     13921
     13917     13915     13918     13919     13917     13915     13918     13920
     13917     13915     13918     13921     13918     13921     13924     13925
     13918     13921     13924     13926     13918     13921     13924     13927
     13919     13918     13921     13922     13919     13918     13921     13923
     13919     13918     13921     13924     13920     13918     13921     13922
     13920     13918     13921     13923     13920     13918     13921     13924
     13921     13924     13927     13928     13921     13924     13927     13929
     13921     13924     13927     13930     13922     13921     13924     13925
     13922     13921     13924     13926     13922     13921     13924     13927
     13923     13921     13924     13925     13923     13921     13924     13926
     13923     13921     13924     13927     13924     13927     13930     13931
     13924     13927     13930     13932     13924     13927     13930     13933
     13925     13924     13927     13928     13925     13924     13927     13929
     13925     13924     13927     13930     13926     13924     13927     13928
     13926     13924     13927     13929     13926     13924     13927     13930
     13927     13930     13933     13934     13927     13930     13933     13935
     13927     13930     13933     13936     13928     13927     13930     13931
     13928     13927     13930     13932     13928     13927     13930     13933
     13929     13927     13930     13931     13929     13927     13930     13932
     13929     13927     13930     13933     13930     13933     13936     13937
     13930     13933     13936     13938     13930     13933     13936     13939
     13931     13930     13933     13934     13931     13930     13933     13935
     13931     13930     13933     13936     13932     13930     13933     13934
     13932     13930     13933     13935     13932     13930     13933     13936
     13934     13933     13936     13937     13934     13933     13936     13938
     13934     13933     13936     13939     13935     13933     13936     13937
     13935     13933     13936     13938     13935     13933     13936     13939
     13940     13953     13956     13957     13940     13953     13956     13958
     13940     13953     13956     13963     13941     13940     13945     13946
     13941     13940     13945     13947     13941     13940     13945     13948
     13941     13940     13949     13950     13941     13940     13949     13951
     13941     13940     13949     13952     13941     13940     13953     13954
     13941     13940     13953     13955     13941     13940     13953     13956
     13942     13941     13940     13945     13942     13941     13940     13949
     13942     13941     13940     13953     13943     13941     13940     13945
     13943     13941     13940     13949     13943     13941     13940     13953
     13944     13941     13940     13945     13944     13941     13940     13949
     13944     13941     13940     13953     13945     13940     13949     13950
     13945     13940     13949     13951     13945     13940     13949     13952
     13945     13940     13953     13954     13945     13940     13953     13955
     13945     13940     13953     13956     13946     13945     13940     13949
     13946     13945     13940     13953     13947     13945     13940     13949
     13947     13945     13940     13953     13948     13945     13940     13949
     13948     13945     13940     13953     13949     13940     13953     13954
     13949     13940     13953     13955     13949     13940     13953     13956
     13950     13949     13940     13953     13951     13949     13940     13953
     13952     13949     13940     13953     13953     13956     13963     13959
     13954     13953     13956     13957     13954     13953     13956     13958
     13954     13953     13956     13963     13955     13953     13956     13957
     13955     13953     13956     13958     13955     13953     13956     13963
     13956     13963     13959     13960     13956     13963     13959     13961
     13956     13963     13959     13962     13957     13956     13963     13959
     13958     13956     13963     13959     13959     13962     13964     13965
     13959     13962     13964     13966     13959     13962     13964     13969
     13960     13959     13962     13964     13961     13959     13962     13964
     13962     13964     13969     13967     13962     13964     13969     13970
     13962     13964     13969     13971     13963     13959     13962     13964
     13964     13969     13967     13968     13964     13969     13967     14019
     13964     13969     13971     13972     13964     13969     13971     13973
     13964     13969     13971     13975     13965     13964     13969     13967
     13965     13964     13969     13970     13965     13964     13969     13971
     13966     13964     13969     13967     13966     13964     13969     13970
     13966     13964     13969     13971     13967     13969     13971     13972
     13967     13969     13971     13973     13967     13969     13971     13975
     13967     14019     14021     14022     13967     14019     14021     14023
     13967     14019     14021     14024     13968     13967     13969     13970
     13968     13967     13969     13971     13968     13967     14019     14020
     13968     13967     14019     14021     13969     13967     14019     14020
     13969     13967     14019     14021     13969     13971     13973     13974
     13969     13971     13975     13976     13969     13971     13975     13977
     13970     13969     13967     14019     13970     13969     13971     13972
     13970     13969     13971     13973     13970     13969     13971     13975
     13971     13969     13967     14019     13971     13975     13977     13978
     13971     13975     13977     13979     13972     13971     13973     13974
     13972     13971     13975     13976     13972     13971     13975     13977
     13973     13971     13975     13976     13973     13971     13975     13977
     13974     13973     13971     13975     13975     13977     13979     13980
     13975     13977     13979     13981     13975     13977     13979     13982
     13976     13975     13977     13978     13976     13975     13977     13979
     13977     13979     13982     13983     13977     13979     13982     13984
     13977     13979     13982     13985     13978     13977     13979     13980
     13978     13977     13979     13981     13978     13977     13979     13982
     13979     13982     13985     13986     13979     13982     13985     13987
     13979     13982     13985     13988     13980     13979     13982     13983
     13980     13979     13982     13984     13980     13979     13982     13985
     13981     13979     13982     13983     13981     13979     13982     13984
     13981     13979     13982     13985     13982     13985     13988     13989
     13982     13985     13988     13990     13982     13985     13988     13991
     13983     13982     13985     13986     13983     13982     13985     13987
     13983     13982     13985     13988     13984     13982     13985     13986
     13984     13982     13985     13987     13984     13982     13985     13988
     13985     13988     13991     13992     13985     13988     13991     13993
     13985     13988     13991     13994     13986     13985     13988     13989
     13986     13985     13988     13990     13986     13985     13988     13991
     13987     13985     13988     13989     13987     13985     13988     13990
     13987     13985     13988     13991     13988     13991     13994     13995
     13988     13991     13994     13996     13988     13991     13994     13997
     13989     13988     13991     13992     13989     13988     13991     13993
     13989     13988     13991     13994     13990     13988     13991     13992
     13990     13988     13991     13993     13990     13988     13991     13994
     13991     13994     13997     13998     13991     13994     13997     13999
     13991     13994     13997     14000     13992     13991     13994     13995
     13992     13991     13994     13996     13992     13991     13994     13997
     13993     13991     13994     13995     13993     13991     13994     13996
     13993     13991     13994     13997     13994     13997     14000     14001
     13994     13997     14000     14002     13994     13997     14000     14003
     13995     13994     13997     13998     13995     13994     13997     13999
     13995     13994     13997     14000     13996     13994     13997     13998
     13996     13994     13997     13999     13996     13994     13997     14000
     13997     14000     14003     14004     13997     14000     14003     14005
     13997     14000     14003     14006     13998     13997     14000     14001
     13998     13997     14000     14002     13998     13997     14000     14003
     13999     13997     14000     14001     13999     13997     14000     14002
     13999     13997     14000     14003     14000     14003     14006     14007
     14000     14003     14006     14008     14000     14003     14006     14009
     14001     14000     14003     14004     14001     14000     14003     14005
     14001     14000     14003     14006     14002     14000     14003     14004
     14002     14000     14003     14005     14002     14000     14003     14006
     14003     14006     14009     14010     14003     14006     14009     14011
     14003     14006     14009     14012     14004     14003     14006     14007
     14004     14003     14006     14008     14004     14003     14006     14009
     14005     14003     14006     14007     14005     14003     14006     14008
     14005     14003     14006     14009     14006     14009     14012     14013
     14006     14009     14012     14014     14006     14009     14012     14015
     14007     14006     14009     14010     14007     14006     14009     14011
     14007     14006     14009     14012     14008     14006     14009     14010
     14008     14006     14009     14011     14008     14006     14009     14012
     14009     14012     14015     14016     14009     14012     14015     14017
     14009     14012     14015     14018     14010     14009     14012     14013
     14010     14009     14012     14014     14010     14009     14012     14015
     14011     14009     14012     14013     14011     14009     14012     14014
     14011     14009     14012     14015     14013     14012     14015     14016
     14013     14012     14015     14017     14013     14012     14015     14018
     14014     14012     14015     14016     14014     14012     14015     14017
     14014     14012     14015     14018     14019     14021     14024     14025
     14019     14021     14024     14026     14019     14021     14024     14027
     14020     14019     14021     14022     14020     14019     14021     14023
     14020     14019     14021     14024     14021     14024     14027     14028
     14021     14024     14027     14029     14021     14024     14027     14030
     14022     14021     14024     14025     14022     14021     14024     14026
     14022     14021     14024     14027     14023     14021     14024     14025
     14023     14021     14024     14026     14023     14021     14024     14027
     14024     14027     14030     14031     14024     14027     14030     14032
     14024     14027     14030     14033     14025     14024     14027     14028
     14025     14024     14027     14029     14025     14024     14027     14030
     14026     14024     14027     14028     14026     14024     14027     14029
     14026     14024     14027     14030     14027     14030     14033     14034
     14027     14030     14033     14035     14027     14030     14033     14036
     14028     14027     14030     14031     14028     14027     14030     14032
     14028     14027     14030     14033     14029     14027     14030     14031
     14029     14027     14030     14032     14029     14027     14030     14033
     14030     14033     14036     14037     14030     14033     14036     14038
     14030     14033     14036     14039     14031     14030     14033     14034
     14031     14030     14033     14035     14031     14030     14033     14036
     14032     14030     14033     14034     14032     14030     14033     14035
     14032     14030     14033     14036     14033     14036     14039     14040
     14033     14036     14039     14041     14033     14036     14039     14042
     14034     14033     14036     14037     14034     14033     14036     14038
     14034     14033     14036     14039     14035     14033     14036     14037
     14035     14033     14036     14038     14035     14033     14036     14039
     14036     14039     14042     14043     14036     14039     14042     14044
     14037     14036     14039     14040     14037     14036     14039     14041
     14037     14036     14039     14042     14038     14036     14039     14040
     14038     14036     14039     14041     14038     14036     14039     14042
     14039     14042     14044     14045     14039     14042     14044     14046
     14040     14039     14042     14043     14040     14039     14042     14044
     14041     14039     14042     14043     14041     14039     14042     14044
     14042     14044     14046     14047     14042     14044     14046     14048
     14042     14044     14046     14049     14043     14042     14044     14045
     14043     14042     14044     14046     14044     14046     14049     14050
     14044     14046     14049     14051     14044     14046     14049     14052
     14045     14044     14046     14047     14045     14044     14046     14048
     14045     14044     14046     14049     14046     14049     14052     14053
     14046     14049     14052     14054     14046     14049     14052     14055
     14047     14046     14049     14050     14047     14046     14049     14051
     14047     14046     14049     14052     14048     14046     14049     14050
     14048     14046     14049     14051     14048     14046     14049     14052
     14049     14052     14055     14056     14049     14052     14055     14057
     14049     14052     14055     14058     14050     14049     14052     14053
     14050     14049     14052     14054     14050     14049     14052     14055
     14051     14049     14052     14053     14051     14049     14052     14054
     14051     14049     14052     14055     14052     14055     14058     14059
     14052     14055     14058     14060     14052     14055     14058     14061
     14053     14052     14055     14056     14053     14052     14055     14057
     14053     14052     14055     14058     14054     14052     14055     14056
     14054     14052     14055     14057     14054     14052     14055     14058
     14055     14058     14061     14062     14055     14058     14061     14063
     14055     14058     14061     14064     14056     14055     14058     14059
     14056     14055     14058     14060     14056     14055     14058     14061
     14057     14055     14058     14059     14057     14055     14058     14060
     14057     14055     14058     14061     14058     14061     14064     14065
     14058     14061     14064     14066     14058     14061     14064     14067
     14059     14058     14061     14062     14059     14058     14061     14063
     14059     14058     14061     14064     14060     14058     14061     14062
     14060     14058     14061     14063     14060     14058     14061     14064
     14061     14064     14067     14068     14061     14064     14067     14069
     14061     14064     14067     14070     14062     14061     14064     14065
     14062     14061     14064     14066     14062     14061     14064     14067
     14063     14061     14064     14065     14063     14061     14064     14066
     14063     14061     14064     14067     14065     14064     14067     14068
     14065     14064     14067     14069     14065     14064     14067     14070
     14066     14064     14067     14068     14066     14064     14067     14069
     14066     14064     14067     14070      2591      2595      2598      2599
      2591      2595      2598      2629      2591      2637      2634      2629
      2591      2637      2634      2635      2591      2637      2634      2636
      2592      2591      2593      2594      2592      2591      2595      2596
      2592      2591      2595      2597      2592      2591      2595      2598
      2592      2591      2637      2634      2592      2591      2637      2638
      2592      2591      2637      2639      2593      2591      2595      2596
      2593      2591      2595      2597      2593      2591      2595      2598
      2593      2591      2637      2634      2593      2591      2637      2638
      2593      2591      2637      2639      2594      2593      2591      2595
      2594      2593      2591      2637      2595      2591      2637      2634
      2595      2591      2637      2638      2595      2591      2637      2639
      2595      2598      2599      2600      2595      2598      2599      2601
      2595      2598      2629      2627      2595      2598      2629      2630
      2595      2598      2629      2634      2596      2595      2591      2637
      2596      2595      2598      2599      2596      2595      2598      2629
      2597      2595      2591      2637      2597      2595      2598      2599
      2597      2595      2598      2629      2598      2595      2591      2637
      2598      2599      2601      2602      2598      2599      2601      2603
      2598      2599      2601      2604      2598      2629      2627      2604
      2598      2629      2627      2624      2598      2629      2627      2628
      2598      2629      2630      2631      2598      2629      2630      2632
      2598      2629      2630      2633      2598      2629      2634      2635
      2598      2629      2634      2636      2598      2629      2634      2637
      2599      2598      2629      2627      2599      2598      2629      2630
      2599      2598      2629      2634      2599      2601      2604      2605
      2599      2601      2604      2606      2599      2601      2604      2627
      2600      2599      2598      2629      2600      2599      2601      2602
      2600      2599      2601      2603      2600      2599      2601      2604
      2601      2599      2598      2629      2601      2604      2606      2607
      2601      2604      2606      2608      2601      2604      2606      2616
      2601      2604      2627      2624      2601      2604      2627      2628
      2601      2604      2627      2629      2602      2601      2604      2605
      2602      2601      2604      2606      2602      2601      2604      2627
      2603      2601      2604      2605      2603      2601      2604      2606
      2603      2601      2604      2627      2604      2606      2608      2609
      2604      2606      2608      2610      2604      2606      2608      2611
      2604      2606      2616      2614      2604      2606      2616      2617
      2604      2606      2616      2621      2604      2627      2624      2621
      2604      2627      2624      2625      2604      2627      2624      2626
      2604      2627      2629      2630      2604      2627      2629      2634
      2605      2604      2606      2607      2605      2604      2606      2608
      2605      2604      2606      2616      2605      2604      2627      2624
      2605      2604      2627      2628      2605      2604      2627      2629
      2606      2604      2627      2624      2606      2604      2627      2628
      2606      2604      2627      2629      2606      2608      2611      2612
      2606      2608      2611      2613      2606      2608      2611      2614
      2606      2616      2614      2611      2606      2616      2614      2615
      2606      2616      2614      2640      2606      2616      2617      2618
      2606      2616      2617      2619      2606      2616      2617      2620
      2606      2616      2621      2622      2606      2616      2621      2623
      2606      2616      2621      2624      2607      2606      2604      2627
      2607      2606      2608      2609      2607      2606      2608      2610
      2607      2606      2608      2611      2607      2606      2616      2614
      2607      2606      2616      2617      2607      2606      2616      2621
      2608      2606      2604      2627      2608      2606      2616      2614
      2608      2606      2616      2617      2608      2606      2616      2621
      2608      2611      2614      2615      2608      2611      2614      2616
      2608      2611      2614      2640      2609      2608      2606      2616
      2609      2608      2611      2612      2609      2608      2611      2613
      2609      2608      2611      2614      2610      2608      2606      2616
      2610      2608      2611      2612      2610      2608      2611      2613
      2610      2608      2611      2614      2611      2608      2606      2616
      2611      2614      2616      2617      2611      2614      2616      2621
      2611      2614      2640      2641      2611      2614      2640      2642
      2611      2614      2640      2646      2612      2611      2614      2615
      2612      2611      2614      2616      2612      2611      2614      2640
      2613      2611      2614      2615      2613      2611      2614      2616
      2613      2611      2614      2640      2614      2616      2617      2618
      2614      2616      2617      2619      2614      2616      2617      2620
      2614      2616      2621      2622      2614      2616      2621      2623
      2614      2616      2621      2624      2614      2640      2642      2643
      2614      2640      2642      2644      2614      2640      2642      2645
      2614      2640      2646      2647      2614      2640      2646      2648
      2614      2640      2646      2649      2615      2614      2616      2617
      2615      2614      2616      2621      2615      2614      2640      2641
      2615      2614      2640      2642      2615      2614      2640      2646
      2616      2606      2604      2627      2616      2614      2640      2641
      2616      2614      2640      2642      2616      2614      2640      2646
      2616      2621      2624      2625      2616      2621      2624      2626
      2616      2621      2624      2627      2617      2616      2614      2640
      2617      2616      2621      2622      2617      2616      2621      2623
      2617      2616      2621      2624      2618      2617      2616      2621
      2619      2617      2616      2621      2620      2617      2616      2621
      2621      2616      2614      2640      2621      2624      2627      2628
      2621      2624      2627      2629      2622      2621      2624      2625
      2622      2621      2624      2626      2622      2621      2624      2627
      2623      2621      2624      2625      2623      2621      2624      2626
      2623      2621      2624      2627      2624      2627      2629      2630
      2624      2627      2629      2634      2625      2624      2627      2628
      2625      2624      2627      2629      2626      2624      2627      2628
      2626      2624      2627      2629      2627      2629      2630      2631
      2627      2629      2630      2632      2627      2629      2630      2633
      2627      2629      2634      2635      2627      2629      2634      2636
      2627      2629      2634      2637      2628      2627      2629      2630
      2628      2627      2629      2634      2629      2634      2637      2638
      2629      2634      2637      2639      2630      2629      2634      2635
      2630      2629      2634      2636      2630      2629      2634      2637
      2631      2630      2629      2634      2632      2630      2629      2634
      2633      2630      2629      2634      2635      2634      2637      2638
      2635      2634      2637      2639      2636      2634      2637      2638
      2636      2634      2637      2639      2640      2646      2649      2650
      2640      2646      2649      2651      2640      2646      2649      2652
      2641      2640      2642      2643      2641      2640      2642      2644
      2641      2640      2642      2645      2641      2640      2646      2647
      2641      2640      2646      2648      2641      2640      2646      2649
      2642      2640      2646      2647      2642      2640      2646      2648
      2642      2640      2646      2649      2643      2642      2640      2646
      2644      2642      2640      2646      2645      2642      2640      2646
      2646      2649      2652      2653      2646      2649      2652      2654
      2646      2649      2652      2655      2647      2646      2649      2650
      2647      2646      2649      2651      2647      2646      2649      2652
      2648      2646      2649      2650      2648      2646      2649      2651
      2648      2646      2649      2652      2649      2652      2655      2656
      2649      2652      2655      2657      2649      2652      2655      2661
      2650      2649      2652      2653      2650      2649      2652      2654
      2650      2649      2652      2655      2651      2649      2652      2653
      2651      2649      2652      2654      2651      2649      2652      2655
      2652      2655      2657      2658      2652      2655      2657      2659
      2652      2655      2657      2660      2652      2655      2661      2662
      2652      2655      2661      2663      2652      2655      2661      2664
      2653      2652      2655      2656      2653      2652      2655      2657
      2653      2652      2655      2661      2654      2652      2655      2656
      2654      2652      2655      2657      2654      2652      2655      2661
      2656      2655      2657      2658      2656      2655      2657      2659
      2656      2655      2657      2660      2656      2655      2661      2662
      2656      2655      2661      2663      2656      2655      2661      2664
      2657      2655      2661      2662      2657      2655      2661      2663
      2657      2655      2661      2664      2658      2657      2655      2661
      2659      2657      2655      2661      2660      2657      2655      2661
      2665      2669      2672      2673      2665      2669      2672      2703
      2665      2711      2708      2703      2665      2711      2708      2709
      2665      2711      2708      2710      2666      2665      2667      2668
      2666      2665      2669      2670      2666      2665      2669      2671
      2666      2665      2669      2672      2666      2665      2711      2708
      2666      2665      2711      2712      2666      2665      2711      2713
      2667      2665      2669      2670      2667      2665      2669      2671
      2667      2665      2669      2672      2667      2665      2711      2708
      2667      2665      2711      2712      2667      2665      2711      2713
      2668      2667      2665      2669      2668      2667      2665      2711
      2669      2665      2711      2708      2669      2665      2711      2712
      2669      2665      2711      2713      2669      2672      2673      2674
      2669      2672      2673      2675      2669      2672      2703      2701
      2669      2672      2703      2704      2669      2672      2703      2708
      2670      2669      2665      2711      2670      2669      2672      2673
      2670      2669      2672      2703      2671      2669      2665      2711
      2671      2669      2672      2673      2671      2669      2672      2703
      2672      2669      2665      2711      2672      2673      2675      2676
      2672      2673      2675      2677      2672      2673      2675      2678
      2672      2703      2701      2678      2672      2703      2701      2698
      2672      2703      2701      2702      2672      2703      2704      2705
      2672      2703      2704      2706      2672      2703      2704      2707
      2672      2703      2708      2709      2672      2703      2708      2710
      2672      2703      2708      2711      2673      2672      2703      2701
      2673      2672      2703      2704      2673      2672      2703      2708
      2673      2675      2678      2679      2673      2675      2678      2680
      2673      2675      2678      2701      2674      2673      2672      2703
      2674      2673      2675      2676      2674      2673      2675      2677
      2674      2673      2675      2678      2675      2673      2672      2703
      2675      2678      2680      2681      2675      2678      2680      2682
      2675      2678      2680      2690      2675      2678      2701      2698
      2675      2678      2701      2702      2675      2678      2701      2703
      2676      2675      2678      2679      2676      2675      2678      2680
      2676      2675      2678      2701      2677      2675      2678      2679
      2677      2675      2678      2680      2677      2675      2678      2701
      2678      2680      2682      2683      2678      2680      2682      2684
      2678      2680      2682      2685      2678      2680      2690      2688
      2678      2680      2690      2691      2678      2680      2690      2695
      2678      2701      2698      2695      2678      2701      2698      2699
      2678      2701      2698      2700      2678      2701      2703      2704
      2678      2701      2703      2708      2679      2678      2680      2681
      2679      2678      2680      2682      2679      2678      2680      2690
      2679      2678      2701      2698      2679      2678      2701      2702
      2679      2678      2701      2703      2680      2678      2701      2698
      2680      2678      2701      2702      2680      2678      2701      2703
      2680      2682      2685      2686      2680      2682      2685      2687
      2680      2682      2685      2688      2680      2690      2688      2685
      2680      2690      2688      2689      2680      2690      2688      2714
      2680      2690      2691      2692      2680      2690      2691      2693
      2680      2690      2691      2694      2680      2690      2695      2696
      2680      2690      2695      2697      2680      2690      2695      2698
      2681      2680      2678      2701      2681      2680      2682      2683
      2681      2680      2682      2684      2681      2680      2682      2685
      2681      2680      2690      2688      2681      2680      2690      2691
      2681      2680      2690      2695      2682      2680      2678      2701
      2682      2680      2690      2688      2682      2680      2690      2691
      2682      2680      2690      2695      2682      2685      2688      2689
      2682      2685      2688      2690      2682      2685      2688      2714
      2683      2682      2680      2690      2683      2682      2685      2686
      2683      2682      2685      2687      2683      2682      2685      2688
      2684      2682      2680      2690      2684      2682      2685      2686
      2684      2682      2685      2687      2684      2682      2685      2688
      2685      2682      2680      2690      2685      2688      2690      2691
      2685      2688      2690      2695      2685      2688      2714      2715
      2685      2688      2714      2716      2685      2688      2714      2720
      2686      2685      2688      2689      2686      2685      2688      2690
      2686      2685      2688      2714      2687      2685      2688      2689
      2687      2685      2688      2690      2687      2685      2688      2714
      2688      2690      2691      2692      2688      2690      2691      2693
      2688      2690      2691      2694      2688      2690      2695      2696
      2688      2690      2695      2697      2688      2690      2695      2698
      2688      2714      2716      2717      2688      2714      2716      2718
      2688      2714      2716      2719      2688      2714      2720      2721
      2688      2714      2720      2722      2688      2714      2720      2723
      2689      2688      2690      2691      2689      2688      2690      2695
      2689      2688      2714      2715      2689      2688      2714      2716
      2689      2688      2714      2720      2690      2680      2678      2701
      2690      2688      2714      2715      2690      2688      2714      2716
      2690      2688      2714      2720      2690      2695      2698      2699
      2690      2695      2698      2700      2690      2695      2698      2701
      2691      2690      2688      2714      2691      2690      2695      2696
      2691      2690      2695      2697      2691      2690      2695      2698
      2692      2691      2690      2695      2693      2691      2690      2695
      2694      2691      2690      2695      2695      2690      2688      2714
      2695      2698      2701      2702      2695      2698      2701      2703
      2696      2695      2698      2699      2696      2695      2698      2700
      2696      2695      2698      2701      2697      2695      2698      2699
      2697      2695      2698      2700      2697      2695      2698      2701
      2698      2701      2703      2704      2698      2701      2703      2708
      2699      2698      2701      2702      2699      2698      2701      2703
      2700      2698      2701      2702      2700      2698      2701      2703
      2701      2703      2704      2705      2701      2703      2704      2706
      2701      2703      2704      2707      2701      2703      2708      2709
      2701      2703      2708      2710      2701      2703      2708      2711
      2702      2701      2703      2704      2702      2701      2703      2708
      2703      2708      2711      2712      2703      2708      2711      2713
      2704      2703      2708      2709      2704      2703      2708      2710
      2704      2703      2708      2711      2705      2704      2703      2708
      2706      2704      2703      2708      2707      2704      2703      2708
      2709      2708      2711      2712      2709      2708      2711      2713
      2710      2708      2711      2712      2710      2708      2711      2713
      2714      2720      2723      2724      2714      2720      2723      2725
      2714      2720      2723      2726      2715      2714      2716      2717
      2715      2714      2716      2718      2715      2714      2716      2719
      2715      2714      2720      2721      2715      2714      2720      2722
      2715      2714      2720      2723      2716      2714      2720      2721
      2716      2714      2720      2722      2716      2714      2720      2723
      2717      2716      2714      2720      2718      2716      2714      2720
      2719      2716      2714      2720      2720      2723      2726      2727
      2720      2723      2726      2728      2720      2723      2726      2729
      2721      2720      2723      2724      2721      2720      2723      2725
      2721      2720      2723      2726      2722      2720      2723      2724
      2722      2720      2723      2725      2722      2720      2723      2726
      2723      2726      2729      2730      2723      2726      2729      2731
      2723      2726      2729      2735      2724      2723      2726      2727
      2724      2723      2726      2728      2724      2723      2726      2729
      2725      2723      2726      2727      2725      2723      2726      2728
      2725      2723      2726      2729      2726      2729      2731      2732
      2726      2729      2731      2733      2726      2729      2731      2734
      2726      2729      2735      2736      2726      2729      2735      2737
      2726      2729      2735      2738      2727      2726      2729      2730
      2727      2726      2729      2731      2727      2726      2729      2735
      2728      2726      2729      2730      2728      2726      2729      2731
      2728      2726      2729      2735      2730      2729      2731      2732
      2730      2729      2731      2733      2730      2729      2731      2734
      2730      2729      2735      2736      2730      2729      2735      2737
      2730      2729      2735      2738      2731      2729      2735      2736
      2731      2729      2735      2737      2731      2729      2735      2738
      2732      2731      2729      2735      2733      2731      2729      2735
      2734      2731      2729      2735     14071     14084     14087     14088
     14071     14084     14087     14089     14071     14084     14087     14094
     14072     14071     14076     14077     14072     14071     14076     14078
     14072     14071     14076     14079     14072     14071     14080     14081
     14072     14071     14080     14082     14072     14071     14080     14083
     14072     14071     14084     14085     14072     14071     14084     14086
     14072     14071     14084     14087     14073     14072     14071     14076
     14073     14072     14071     14080     14073     14072     14071     14084
     14074     14072     14071     14076     14074     14072     14071     14080
     14074     14072     14071     14084     14075     14072     14071     14076
     14075     14072     14071     14080     14075     14072     14071     14084
     14076     14071     14080     14081     14076     14071     14080     14082
     14076     14071     14080     14083     14076     14071     14084     14085
     14076     14071     14084     14086     14076     14071     14084     14087
     14077     14076     14071     14080     14077     14076     14071     14084
     14078     14076     14071     14080     14078     14076     14071     14084
     14079     14076     14071     14080     14079     14076     14071     14084
     14080     14071     14084     14085     14080     14071     14084     14086
     14080     14071     14084     14087     14081     14080     14071     14084
     14082     14080     14071     14084     14083     14080     14071     14084
     14084     14087     14094     14090     14085     14084     14087     14088
     14085     14084     14087     14089     14085     14084     14087     14094
     14086     14084     14087     14088     14086     14084     14087     14089
     14086     14084     14087     14094     14087     14094     14090     14091
     14087     14094     14090     14092     14087     14094     14090     14093
     14088     14087     14094     14090     14089     14087     14094     14090
     14090     14093     14095     14096     14090     14093     14095     14097
     14090     14093     14095     14100     14091     14090     14093     14095
     14092     14090     14093     14095     14093     14095     14100     14098
     14093     14095     14100     14101     14093     14095     14100     14102
     14094     14090     14093     14095     14095     14100     14098     14099
     14095     14100     14098     14150     14095     14100     14102     14103
     14095     14100     14102     14104     14095     14100     14102     14106
     14096     14095     14100     14098     14096     14095     14100     14101
     14096     14095     14100     14102     14097     14095     14100     14098
     14097     14095     14100     14101     14097     14095     14100     14102
     14098     14100     14102     14103     14098     14100     14102     14104
     14098     14100     14102     14106     14098     14150     14152     14153
     14098     14150     14152     14154     14098     14150     14152     14155
     14099     14098     14100     14101     14099     14098     14100     14102
     14099     14098     14150     14151     14099     14098     14150     14152
     14100     14098     14150     14151     14100     14098     14150     14152
     14100     14102     14104     14105     14100     14102     14106     14107
     14100     14102     14106     14108     14101     14100     14098     14150
     14101     14100     14102     14103     14101     14100     14102     14104
     14101     14100     14102     14106     14102     14100     14098     14150
     14102     14106     14108     14109     14102     14106     14108     14110
     14103     14102     14104     14105     14103     14102     14106     14107
     14103     14102     14106     14108     14104     14102     14106     14107
     14104     14102     14106     14108     14105     14104     14102     14106
     14106     14108     14110     14111     14106     14108     14110     14112
     14106     14108     14110     14113     14107     14106     14108     14109
     14107     14106     14108     14110     14108     14110     14113     14114
     14108     14110     14113     14115     14108     14110     14113     14116
     14109     14108     14110     14111     14109     14108     14110     14112
     14109     14108     14110     14113     14110     14113     14116     14117
     14110     14113     14116     14118     14110     14113     14116     14119
     14111     14110     14113     14114     14111     14110     14113     14115
     14111     14110     14113     14116     14112     14110     14113     14114
     14112     14110     14113     14115     14112     14110     14113     14116
     14113     14116     14119     14120     14113     14116     14119     14121
     14113     14116     14119     14122     14114     14113     14116     14117
     14114     14113     14116     14118     14114     14113     14116     14119
     14115     14113     14116     14117     14115     14113     14116     14118
     14115     14113     14116     14119     14116     14119     14122     14123
     14116     14119     14122     14124     14116     14119     14122     14125
     14117     14116     14119     14120     14117     14116     14119     14121
     14117     14116     14119     14122     14118     14116     14119     14120
     14118     14116     14119     14121     14118     14116     14119     14122
     14119     14122     14125     14126     14119     14122     14125     14127
     14119     14122     14125     14128     14120     14119     14122     14123
     14120     14119     14122     14124     14120     14119     14122     14125
     14121     14119     14122     14123     14121     14119     14122     14124
     14121     14119     14122     14125     14122     14125     14128     14129
     14122     14125     14128     14130     14122     14125     14128     14131
     14123     14122     14125     14126     14123     14122     14125     14127
     14123     14122     14125     14128     14124     14122     14125     14126
     14124     14122     14125     14127     14124     14122     14125     14128
     14125     14128     14131     14132     14125     14128     14131     14133
     14125     14128     14131     14134     14126     14125     14128     14129
     14126     14125     14128     14130     14126     14125     14128     14131
     14127     14125     14128     14129     14127     14125     14128     14130
     14127     14125     14128     14131     14128     14131     14134     14135
     14128     14131     14134     14136     14128     14131     14134     14137
     14129     14128     14131     14132     14129     14128     14131     14133
     14129     14128     14131     14134     14130     14128     14131     14132
     14130     14128     14131     14133     14130     14128     14131     14134
     14131     14134     14137     14138     14131     14134     14137     14139
     14131     14134     14137     14140     14132     14131     14134     14135
     14132     14131     14134     14136     14132     14131     14134     14137
     14133     14131     14134     14135     14133     14131     14134     14136
     14133     14131     14134     14137     14134     14137     14140     14141
     14134     14137     14140     14142     14134     14137     14140     14143
     14135     14134     14137     14138     14135     14134     14137     14139
     14135     14134     14137     14140     14136     14134     14137     14138
     14136     14134     14137     14139     14136     14134     14137     14140
     14137     14140     14143     14144     14137     14140     14143     14145
     14137     14140     14143     14146     14138     14137     14140     14141
     14138     14137     14140     14142     14138     14137     14140     14143
     14139     14137     14140     14141     14139     14137     14140     14142
     14139     14137     14140     14143     14140     14143     14146     14147
     14140     14143     14146     14148     14140     14143     14146     14149
     14141     14140     14143     14144     14141     14140     14143     14145
     14141     14140     14143     14146     14142     14140     14143     14144
     14142     14140     14143     14145     14142     14140     14143     14146
     14144     14143     14146     14147     14144     14143     14146     14148
     14144     14143     14146     14149     14145     14143     14146     14147
     14145     14143     14146     14148     14145     14143     14146     14149
     14150     14152     14155     14156     14150     14152     14155     14157
     14150     14152     14155     14158     14151     14150     14152     14153
     14151     14150     14152     14154     14151     14150     14152     14155
     14152     14155     14158     14159     14152     14155     14158     14160
     14152     14155     14158     14161     14153     14152     14155     14156
     14153     14152     14155     14157     14153     14152     14155     14158
     14154     14152     14155     14156     14154     14152     14155     14157
     14154     14152     14155     14158     14155     14158     14161     14162
     14155     14158     14161     14163     14155     14158     14161     14164
     14156     14155     14158     14159     14156     14155     14158     14160
     14156     14155     14158     14161     14157     14155     14158     14159
     14157     14155     14158     14160     14157     14155     14158     14161
     14158     14161     14164     14165     14158     14161     14164     14166
     14158     14161     14164     14167     14159     14158     14161     14162
     14159     14158     14161     14163     14159     14158     14161     14164
     14160     14158     14161     14162     14160     14158     14161     14163
     14160     14158     14161     14164     14161     14164     14167     14168
     14161     14164     14167     14169     14161     14164     14167     14170
     14162     14161     14164     14165     14162     14161     14164     14166
     14162     14161     14164     14167     14163     14161     14164     14165
     14163     14161     14164     14166     14163     14161     14164     14167
     14164     14167     14170     14171     14164     14167     14170     14172
     14164     14167     14170     14173     14165     14164     14167     14168
     14165     14164     14167     14169     14165     14164     14167     14170
     14166     14164     14167     14168     14166     14164     14167     14169
     14166     14164     14167     14170     14167     14170     14173     14174
     14167     14170     14173     14175     14168     14167     14170     14171
     14168     14167     14170     14172     14168     14167     14170     14173
     14169     14167     14170     14171     14169     14167     14170     14172
     14169     14167     14170     14173     14170     14173     14175     14176
     14170     14173     14175     14177     14171     14170     14173     14174
     14171     14170     14173     14175     14172     14170     14173     14174
     14172     14170     14173     14175     14173     14175     14177     14178
     14173     14175     14177     14179     14173     14175     14177     14180
     14174     14173     14175     14176     14174     14173     14175     14177
     14175     14177     14180     14181     14175     14177     14180     14182
     14175     14177     14180     14183     14176     14175     14177     14178
     14176     14175     14177     14179     14176     14175     14177     14180
     14177     14180     14183     14184     14177     14180     14183     14185
     14177     14180     14183     14186     14178     14177     14180     14181
     14178     14177     14180     14182     14178     14177     14180     14183
     14179     14177     14180     14181     14179     14177     14180     14182
     14179     14177     14180     14183     14180     14183     14186     14187
     14180     14183     14186     14188     14180     14183     14186     14189
     14181     14180     14183     14184     14181     14180     14183     14185
     14181     14180     14183     14186     14182     14180     14183     14184
     14182     14180     14183     14185     14182     14180     14183     14186
     14183     14186     14189     14190     14183     14186     14189     14191
     14183     14186     14189     14192     14184     14183     14186     14187
     14184     14183     14186     14188     14184     14183     14186     14189
     14185     14183     14186     14187     14185     14183     14186     14188
     14185     14183     14186     14189     14186     14189     14192     14193
     14186     14189     14192     14194     14186     14189     14192     14195
     14187     14186     14189     14190     14187     14186     14189     14191
     14187     14186     14189     14192     14188     14186     14189     14190
     14188     14186     14189     14191     14188     14186     14189     14192
     14189     14192     14195     14196     14189     14192     14195     14197
     14189     14192     14195     14198     14190     14189     14192     14193
     14190     14189     14192     14194     14190     14189     14192     14195
     14191     14189     14192     14193     14191     14189     14192     14194
     14191     14189     14192     14195     14192     14195     14198     14199
     14192     14195     14198     14200     14192     14195     14198     14201
     14193     14192     14195     14196     14193     14192     14195     14197
     14193     14192     14195     14198     14194     14192     14195     14196
     14194     14192     14195     14197     14194     14192     14195     14198
     14196     14195     14198     14199     14196     14195     14198     14200
     14196     14195     14198     14201     14197     14195     14198     14199
     14197     14195     14198     14200     14197     14195     14198     14201
      2739      2743      2746      2747      2739      2743      2746      2777
      2739      2785      2782      2777      2739      2785      2782      2783
      2739      2785      2782      2784      2740      2739      2741      2742
      2740      2739      2743      2744      2740      2739      2743      2745
      2740      2739      2743      2746      2740      2739      2785      2782
      2740      2739      2785      2786      2740      2739      2785      2787
      2741      2739      2743      2744      2741      2739      2743      2745
      2741      2739      2743      2746      2741      2739      2785      2782
      2741      2739      2785      2786      2741      2739      2785      2787
      2742      2741      2739      2743      2742      2741      2739      2785
      2743      2739      2785      2782      2743      2739      2785      2786
      2743      2739      2785      2787      2743      2746      2747      2748
      2743      2746      2747      2749      2743      2746      2777      2775
      2743      2746      2777      2778      2743      2746      2777      2782
      2744      2743      2739      2785      2744      2743      2746      2747
      2744      2743      2746      2777      2745      2743      2739      2785
      2745      2743      2746      2747      2745      2743      2746      2777
      2746      2743      2739      2785      2746      2747      2749      2750
      2746      2747      2749      2751      2746      2747      2749      2752
      2746      2777      2775      2752      2746      2777      2775      2772
      2746      2777      2775      2776      2746      2777      2778      2779
      2746      2777      2778      2780      2746      2777      2778      2781
      2746      2777      2782      2783      2746      2777      2782      2784
      2746      2777      2782      2785      2747      2746      2777      2775
      2747      2746      2777      2778      2747      2746      2777      2782
      2747      2749      2752      2753      2747      2749      2752      2754
      2747      2749      2752      2775      2748      2747      2746      2777
      2748      2747      2749      2750      2748      2747      2749      2751
      2748      2747      2749      2752      2749      2747      2746      2777
      2749      2752      2754      2755      2749      2752      2754      2756
      2749      2752      2754      2764      2749      2752      2775      2772
      2749      2752      2775      2776      2749      2752      2775      2777
      2750      2749      2752      2753      2750      2749      2752      2754
      2750      2749      2752      2775      2751      2749      2752      2753
      2751      2749      2752      2754      2751      2749      2752      2775
      2752      2754      2756      2757      2752      2754      2756      2758
      2752      2754      2756      2759      2752      2754      2764      2762
      2752      2754      2764      2765      2752      2754      2764      2769
      2752      2775      2772      2769      2752      2775      2772      2773
      2752      2775      2772      2774      2752      2775      2777      2778
      2752      2775      2777      2782      2753      2752      2754      2755
      2753      2752      2754      2756      2753      2752      2754      2764
      2753      2752      2775      2772      2753      2752      2775      2776
      2753      2752      2775      2777      2754      2752      2775      2772
      2754      2752      2775      2776      2754      2752      2775      2777
      2754      2756      2759      2760      2754      2756      2759      2761
      2754      2756      2759      2762      2754      2764      2762      2759
      2754      2764      2762      2763      2754      2764      2762      2788
      2754      2764      2765      2766      2754      2764      2765      2767
      2754      2764      2765      2768      2754      2764      2769      2770
      2754      2764      2769      2771      2754      2764      2769      2772
      2755      2754      2752      2775      2755      2754      2756      2757
      2755      2754      2756      2758      2755      2754      2756      2759
      2755      2754      2764      2762      2755      2754      2764      2765
      2755      2754      2764      2769      2756      2754      2752      2775
      2756      2754      2764      2762      2756      2754      2764      2765
      2756      2754      2764      2769      2756      2759      2762      2763
      2756      2759      2762      2764      2756      2759      2762      2788
      2757      2756      2754      2764      2757      2756      2759      2760
      2757      2756      2759      2761      2757      2756      2759      2762
      2758      2756      2754      2764      2758      2756      2759      2760
      2758      2756      2759      2761      2758      2756      2759      2762
      2759      2756      2754      2764      2759      2762      2764      2765
      2759      2762      2764      2769      2759      2762      2788      2789
      2759      2762      2788      2790      2759      2762      2788      2794
      2760      2759      2762      2763      2760      2759      2762      2764
      2760      2759      2762      2788      2761      2759      2762      2763
      2761      2759      2762      2764      2761      2759      2762      2788
      2762      2764      2765      2766      2762      2764      2765      2767
      2762      2764      2765      2768      2762      2764      2769      2770
      2762      2764      2769      2771      2762      2764      2769      2772
      2762      2788      2790      2791      2762      2788      2790      2792
      2762      2788      2790      2793      2762      2788      2794      2795
      2762      2788      2794      2796      2762      2788      2794      2797
      2763      2762      2764      2765      2763      2762      2764      2769
      2763      2762      2788      2789      2763      2762      2788      2790
      2763      2762      2788      2794      2764      2754      2752      2775
      2764      2762      2788      2789      2764      2762      2788      2790
      2764      2762      2788      2794      2764      2769      2772      2773
      2764      2769      2772      2774      2764      2769      2772      2775
      2765      2764      2762      2788      2765      2764      2769      2770
      2765      2764      2769      2771      2765      2764      2769      2772
      2766      2765      2764      2769      2767      2765      2764      2769
      2768      2765      2764      2769      2769      2764      2762      2788
      2769      2772      2775      2776      2769      2772      2775      2777
      2770      2769      2772      2773      2770      2769      2772      2774
      2770      2769      2772      2775      2771      2769      2772      2773
      2771      2769      2772      2774      2771      2769      2772      2775
      2772      2775      2777      2778      2772      2775      2777      2782
      2773      2772      2775      2776      2773      2772      2775      2777
      2774      2772      2775      2776      2774      2772      2775      2777
      2775      2777      2778      2779      2775      2777      2778      2780
      2775      2777      2778      2781      2775      2777      2782      2783
      2775      2777      2782      2784      2775      2777      2782      2785
      2776      2775      2777      2778      2776      2775      2777      2782
      2777      2782      2785      2786      2777      2782      2785      2787
      2778      2777      2782      2783      2778      2777      2782      2784
      2778      2777      2782      2785      2779      2778      2777      2782
      2780      2778      2777      2782      2781      2778      2777      2782
      2783      2782      2785      2786      2783      2782      2785      2787
      2784      2782      2785      2786      2784      2782      2785      2787
      2788      2794      2797      2798      2788      2794      2797      2799
      2788      2794      2797      2800      2789      2788      2790      2791
      2789      2788      2790      2792      2789      2788      2790      2793
      2789      2788      2794      2795      2789      2788      2794      2796
      2789      2788      2794      2797      2790      2788      2794      2795
      2790      2788      2794      2796      2790      2788      2794      2797
      2791      2790      2788      2794      2792      2790      2788      2794
      2793      2790      2788      2794      2794      2797      2800      2801
      2794      2797      2800      2802      2794      2797      2800      2803
      2795      2794      2797      2798      2795      2794      2797      2799
      2795      2794      2797      2800      2796      2794      2797      2798
      2796      2794      2797      2799      2796      2794      2797      2800
      2797      2800      2803      2804      2797      2800      2803      2805
      2797      2800      2803      2809      2798      2797      2800      2801
      2798      2797      2800      2802      2798      2797      2800      2803
      2799      2797      2800      2801      2799      2797      2800      2802
      2799      2797      2800      2803      2800      2803      2805      2806
      2800      2803      2805      2807      2800      2803      2805      2808
      2800      2803      2809      2810      2800      2803      2809      2811
      2800      2803      2809      2812      2801      2800      2803      2804
      2801      2800      2803      2805      2801      2800      2803      2809
      2802      2800      2803      2804      2802      2800      2803      2805
      2802      2800      2803      2809      2804      2803      2805      2806
      2804      2803      2805      2807      2804      2803      2805      2808
      2804      2803      2809      2810      2804      2803      2809      2811
      2804      2803      2809      2812      2805      2803      2809      2810
      2805      2803      2809      2811      2805      2803      2809      2812
      2806      2805      2803      2809      2807      2805      2803      2809
      2808      2805      2803      2809      2813      2817      2820      2821
      2813      2817      2820      2851      2813      2859      2856      2851
      2813      2859      2856      2857      2813      2859      2856      2858
      2814      2813      2815      2816      2814      2813      2817      2818
      2814      2813      2817      2819      2814      2813      2817      2820
      2814      2813      2859      2856      2814      2813      2859      2860
      2814      2813      2859      2861      2815      2813      2817      2818
      2815      2813      2817      2819      2815      2813      2817      2820
      2815      2813      2859      2856      2815      2813      2859      2860
      2815      2813      2859      2861      2816      2815      2813      2817
      2816      2815      2813      2859      2817      2813      2859      2856
      2817      2813      2859      2860      2817      2813      2859      2861
      2817      2820      2821      2822      2817      2820      2821      2823
      2817      2820      2851      2849      2817      2820      2851      2852
      2817      2820      2851      2856      2818      2817      2813      2859
      2818      2817      2820      2821      2818      2817      2820      2851
      2819      2817      2813      2859      2819      2817      2820      2821
      2819      2817      2820      2851      2820      2817      2813      2859
      2820      2821      2823      2824      2820      2821      2823      2825
      2820      2821      2823      2826      2820      2851      2849      2826
      2820      2851      2849      2846      2820      2851      2849      2850
      2820      2851      2852      2853      2820      2851      2852      2854
      2820      2851      2852      2855      2820      2851      2856      2857
      2820      2851      2856      2858      2820      2851      2856      2859
      2821      2820      2851      2849      2821      2820      2851      2852
      2821      2820      2851      2856      2821      2823      2826      2827
      2821      2823      2826      2828      2821      2823      2826      2849
      2822      2821      2820      2851      2822      2821      2823      2824
      2822      2821      2823      2825      2822      2821      2823      2826
      2823      2821      2820      2851      2823      2826      2828      2829
      2823      2826      2828      2830      2823      2826      2828      2838
      2823      2826      2849      2846      2823      2826      2849      2850
      2823      2826      2849      2851      2824      2823      2826      2827
      2824      2823      2826      2828      2824      2823      2826      2849
      2825      2823      2826      2827      2825      2823      2826      2828
      2825      2823      2826      2849      2826      2828      2830      2831
      2826      2828      2830      2832      2826      2828      2830      2833
      2826      2828      2838      2836      2826      2828      2838      2839
      2826      2828      2838      2843      2826      2849      2846      2843
      2826      2849      2846      2847      2826      2849      2846      2848
      2826      2849      2851      2852      2826      2849      2851      2856
      2827      2826      2828      2829      2827      2826      2828      2830
      2827      2826      2828      2838      2827      2826      2849      2846
      2827      2826      2849      2850      2827      2826      2849      2851
      2828      2826      2849      2846      2828      2826      2849      2850
      2828      2826      2849      2851      2828      2830      2833      2834
      2828      2830      2833      2835      2828      2830      2833      2836
      2828      2838      2836      2833      2828      2838      2836      2837
      2828      2838      2836      2862      2828      2838      2839      2840
      2828      2838      2839      2841      2828      2838      2839      2842
      2828      2838      2843      2844      2828      2838      2843      2845
      2828      2838      2843      2846      2829      2828      2826      2849
      2829      2828      2830      2831      2829      2828      2830      2832
      2829      2828      2830      2833      2829      2828      2838      2836
      2829      2828      2838      2839      2829      2828      2838      2843
      2830      2828      2826      2849      2830      2828      2838      2836
      2830      2828      2838      2839      2830      2828      2838      2843
      2830      2833      2836      2837      2830      2833      2836      2838
      2830      2833      2836      2862      2831      2830      2828      2838
      2831      2830      2833      2834      2831      2830      2833      2835
      2831      2830      2833      2836      2832      2830      2828      2838
      2832      2830      2833      2834      2832      2830      2833      2835
      2832      2830      2833      2836      2833      2830      2828      2838
      2833      2836      2838      2839      2833      2836      2838      2843
      2833      2836      2862      2863      2833      2836      2862      2864
      2833      2836      2862      2868      2834      2833      2836      2837
      2834      2833      2836      2838      2834      2833      2836      2862
      2835      2833      2836      2837      2835      2833      2836      2838
      2835      2833      2836      2862      2836      2838      2839      2840
      2836      2838      2839      2841      2836      2838      2839      2842
      2836      2838      2843      2844      2836      2838      2843      2845
      2836      2838      2843      2846      2836      2862      2864      2865
      2836      2862      2864      2866      2836      2862      2864      2867
      2836      2862      2868      2869      2836      2862      2868      2870
      2836      2862      2868      2871      2837      2836      2838      2839
      2837      2836      2838      2843      2837      2836      2862      2863
      2837      2836      2862      2864      2837      2836      2862      2868
      2838      2828      2826      2849      2838      2836      2862      2863
      2838      2836      2862      2864      2838      2836      2862      2868
      2838      2843      2846      2847      2838      2843      2846      2848
      2838      2843      2846      2849      2839      2838      2836      2862
      2839      2838      2843      2844      2839      2838      2843      2845
      2839      2838      2843      2846      2840      2839      2838      2843
      2841      2839      2838      2843      2842      2839      2838      2843
      2843      2838      2836      2862      2843      2846      2849      2850
      2843      2846      2849      2851      2844      2843      2846      2847
      2844      2843      2846      2848      2844      2843      2846      2849
      2845      2843      2846      2847      2845      2843      2846      2848
      2845      2843      2846      2849      2846      2849      2851      2852
      2846      2849      2851      2856      2847      2846      2849      2850
      2847      2846      2849      2851      2848      2846      2849      2850
      2848      2846      2849      2851      2849      2851      2852      2853
      2849      2851      2852      2854      2849      2851      2852      2855
      2849      2851      2856      2857      2849      2851      2856      2858
      2849      2851      2856      2859      2850      2849      2851      2852
      2850      2849      2851      2856      2851      2856      2859      2860
      2851      2856      2859      2861      2852      2851      2856      2857
      2852      2851      2856      2858      2852      2851      2856      2859
      2853      2852      2851      2856      2854      2852      2851      2856
      2855      2852      2851      2856      2857      2856      2859      2860
      2857      2856      2859      2861      2858      2856      2859      2860
      2858      2856      2859      2861      2862      2868      2871      2872
      2862      2868      2871      2873      2862      2868      2871      2874
      2863      2862      2864      2865      2863      2862      2864      2866
      2863      2862      2864      2867      2863      2862      2868      2869
      2863      2862      2868      2870      2863      2862      2868      2871
      2864      2862      2868      2869      2864      2862      2868      2870
      2864      2862      2868      2871      2865      2864      2862      2868
      2866      2864      2862      2868      2867      2864      2862      2868
      2868      2871      2874      2875      2868      2871      2874      2876
      2868      2871      2874      2877      2869      2868      2871      2872
      2869      2868      2871      2873      2869      2868      2871      2874
      2870      2868      2871      2872      2870      2868      2871      2873
      2870      2868      2871      2874      2871      2874      2877      2878
      2871      2874      2877      2879      2871      2874      2877      2883
      2872      2871      2874      2875      2872      2871      2874      2876
      2872      2871      2874      2877      2873      2871      2874      2875
      2873      2871      2874      2876      2873      2871      2874      2877
      2874      2877      2879      2880      2874      2877      2879      2881
      2874      2877      2879      2882      2874      2877      2883      2884
      2874      2877      2883      2885      2874      2877      2883      2886
      2875      2874      2877      2878      2875      2874      2877      2879
      2875      2874      2877      2883      2876      2874      2877      2878
      2876      2874      2877      2879      2876      2874      2877      2883
      2878      2877      2879      2880      2878      2877      2879      2881
      2878      2877      2879      2882      2878      2877      2883      2884
      2878      2877      2883      2885      2878      2877      2883      2886
      2879      2877      2883      2884      2879      2877      2883      2885
      2879      2877      2883      2886      2880      2879      2877      2883
      2881      2879      2877      2883      2882      2879      2877      2883
      2887      2891      2894      2895      2887      2891      2894      2925
      2887      2933      2930      2925      2887      2933      2930      2931
      2887      2933      2930      2932      2888      2887      2889      2890
      2888      2887      2891      2892      2888      2887      2891      2893
      2888      2887      2891      2894      2888      2887      2933      2930
      2888      2887      2933      2934      2888      2887      2933      2935
      2889      2887      2891      2892      2889      2887      2891      2893
      2889      2887      2891      2894      2889      2887      2933      2930
      2889      2887      2933      2934      2889      2887      2933      2935
      2890      2889      2887      2891      2890      2889      2887      2933
      2891      2887      2933      2930      2891      2887      2933      2934
      2891      2887      2933      2935      2891      2894      2895      2896
      2891      2894      2895      2897      2891      2894      2925      2923
      2891      2894      2925      2926      2891      2894      2925      2930
      2892      2891      2887      2933      2892      2891      2894      2895
      2892      2891      2894      2925      2893      2891      2887      2933
      2893      2891      2894      2895      2893      2891      2894      2925
      2894      2891      2887      2933      2894      2895      2897      2898
      2894      2895      2897      2899      2894      2895      2897      2900
      2894      2925      2923      2900      2894      2925      2923      2920
      2894      2925      2923      2924      2894      2925      2926      2927
      2894      2925      2926      2928      2894      2925      2926      2929
      2894      2925      2930      2931      2894      2925      2930      2932
      2894      2925      2930      2933      2895      2894      2925      2923
      2895      2894      2925      2926      2895      2894      2925      2930
      2895      2897      2900      2901      2895      2897      2900      2902
      2895      2897      2900      2923      2896      2895      2894      2925
      2896      2895      2897      2898      2896      2895      2897      2899
      2896      2895      2897      2900      2897      2895      2894      2925
      2897      2900      2902      2903      2897      2900      2902      2904
      2897      2900      2902      2912      2897      2900      2923      2920
      2897      2900      2923      2924      2897      2900      2923      2925
      2898      2897      2900      2901      2898      2897      2900      2902
      2898      2897      2900      2923      2899      2897      2900      2901
      2899      2897      2900      2902      2899      2897      2900      2923
      2900      2902      2904      2905      2900      2902      2904      2906
      2900      2902      2904      2907      2900      2902      2912      2910
      2900      2902      2912      2913      2900      2902      2912      2917
      2900      2923      2920      2917      2900      2923      2920      2921
      2900      2923      2920      2922      2900      2923      2925      2926
      2900      2923      2925      2930      2901      2900      2902      2903
      2901      2900      2902      2904      2901      2900      2902      2912
      2901      2900      2923      2920      2901      2900      2923      2924
      2901      2900      2923      2925      2902      2900      2923      2920
      2902      2900      2923      2924      2902      2900      2923      2925
      2902      2904      2907      2908      2902      2904      2907      2909
      2902      2904      2907      2910      2902      2912      2910      2907
      2902      2912      2910      2911      2902      2912      2910      2936
      2902      2912      2913      2914      2902      2912      2913      2915
      2902      2912      2913      2916      2902      2912      2917      2918
      2902      2912      2917      2919      2902      2912      2917      2920
      2903      2902      2900      2923      2903      2902      2904      2905
      2903      2902      2904      2906      2903      2902      2904      2907
      2903      2902      2912      2910      2903      2902      2912      2913
      2903      2902      2912      2917      2904      2902      2900      2923
      2904      2902      2912      2910      2904      2902      2912      2913
      2904      2902      2912      2917      2904      2907      2910      2911
      2904      2907      2910      2912      2904      2907      2910      2936
      2905      2904      2902      2912      2905      2904      2907      2908
      2905      2904      2907      2909      2905      2904      2907      2910
      2906      2904      2902      2912      2906      2904      2907      2908
      2906      2904      2907      2909      2906      2904      2907      2910
      2907      2904      2902      2912      2907      2910      2912      2913
      2907      2910      2912      2917      2907      2910      2936      2937
      2907      2910      2936      2938      2907      2910      2936      2942
      2908      2907      2910      2911      2908      2907      2910      2912
      2908      2907      2910      2936      2909      2907      2910      2911
      2909      2907      2910      2912      2909      2907      2910      2936
      2910      2912      2913      2914      2910      2912      2913      2915
      2910      2912      2913      2916      2910      2912      2917      2918
      2910      2912      2917      2919      2910      2912      2917      2920
      2910      2936      2938      2939      2910      2936      2938      2940
      2910      2936      2938      2941      2910      2936      2942      2943
      2910      2936      2942      2944      2910      2936      2942      2945
      2911      2910      2912      2913      2911      2910      2912      2917
      2911      2910      2936      2937      2911      2910      2936      2938
      2911      2910      2936      2942      2912      2902      2900      2923
      2912      2910      2936      2937      2912      2910      2936      2938
      2912      2910      2936      2942      2912      2917      2920      2921
      2912      2917      2920      2922      2912      2917      2920      2923
      2913      2912      2910      2936      2913      2912      2917      2918
      2913      2912      2917      2919      2913      2912      2917      2920
      2914      2913      2912      2917      2915      2913      2912      2917
      2916      2913      2912      2917      2917      2912      2910      2936
      2917      2920      2923      2924      2917      2920      2923      2925
      2918      2917      2920      2921      2918      2917      2920      2922
      2918      2917      2920      2923      2919      2917      2920      2921
      2919      2917      2920      2922      2919      2917      2920      2923
      2920      2923      2925      2926      2920      2923      2925      2930
      2921      2920      2923      2924      2921      2920      2923      2925
      2922      2920      2923      2924      2922      2920      2923      2925
      2923      2925      2926      2927      2923      2925      2926      2928
      2923      2925      2926      2929      2923      2925      2930      2931
      2923      2925      2930      2932      2923      2925      2930      2933
      2924      2923      2925      2926      2924      2923      2925      2930
      2925      2930      2933      2934      2925      2930      2933      2935
      2926      2925      2930      2931      2926      2925      2930      2932
      2926      2925      2930      2933      2927      2926      2925      2930
      2928      2926      2925      2930      2929      2926      2925      2930
      2931      2930      2933      2934      2931      2930      2933      2935
      2932      2930      2933      2934      2932      2930      2933      2935
      2936      2942      2945      2946      2936      2942      2945      2947
      2936      2942      2945      2948      2937      2936      2938      2939
      2937      2936      2938      2940      2937      2936      2938      2941
      2937      2936      2942      2943      2937      2936      2942      2944
      2937      2936      2942      2945      2938      2936      2942      2943
      2938      2936      2942      2944      2938      2936      2942      2945
      2939      2938      2936      2942      2940      2938      2936      2942
      2941      2938      2936      2942      2942      2945      2948      2949
      2942      2945      2948      2950      2942      2945      2948      2951
      2943      2942      2945      2946      2943      2942      2945      2947
      2943      2942      2945      2948      2944      2942      2945      2946
      2944      2942      2945      2947      2944      2942      2945      2948
      2945      2948      2951      2952      2945      2948      2951      2953
      2945      2948      2951      2957      2946      2945      2948      2949
      2946      2945      2948      2950      2946      2945      2948      2951
      2947      2945      2948      2949      2947      2945      2948      2950
      2947      2945      2948      2951      2948      2951      2953      2954
      2948      2951      2953      2955      2948      2951      2953      2956
      2948      2951      2957      2958      2948      2951      2957      2959
      2948      2951      2957      2960      2949      2948      2951      2952
      2949      2948      2951      2953      2949      2948      2951      2957
      2950      2948      2951      2952      2950      2948      2951      2953
      2950      2948      2951      2957      2952      2951      2953      2954
      2952      2951      2953      2955      2952      2951      2953      2956
      2952      2951      2957      2958      2952      2951      2957      2959
      2952      2951      2957      2960      2953      2951      2957      2958
      2953      2951      2957      2959      2953      2951      2957      2960
      2954      2953      2951      2957      2955      2953      2951      2957
      2956      2953      2951      2957     18263     18267     18270     18271
     18263     18267     18270     18272     18263     18267     18270     18276
     18264     18263     18267     18268     18264     18263     18267     18269
     18264     18263     18267     18270     18265     18263     18267     18268
     18265     18263     18267     18269     18265     18263     18267     18270
     18266     18263     18267     18268     18266     18263     18267     18269
     18266     18263     18267     18270     18267     18270     18276     18273
     18268     18267     18270     18271     18268     18267     18270     18272
     18268     18267     18270     18276     18269     18267     18270     18271
     18269     18267     18270     18272     18269     18267     18270     18276
     18270     18276     18273     18274     18270     18276     18273     18275
     18270     18276     18273     18277     18271     18270     18276     18273
     18272     18270     18276     18273     18273     18277     18278     18279
     18273     18277     18278     18280     18273     18277     18278     18281
     18274     18273     18277     18278     18275     18273     18277     18278
     18276     18273     18277     18278     18277     18278     18281     18282
     18277     18278     18281     18283     18277     18278     18281     18289
     18278     18281     18283     18284     18278     18281     18289     18290
     18278     18281     18289     18291     18278     18281     18289     18292
     18279     18278     18281     18282     18279     18278     18281     18283
     18279     18278     18281     18289     18280     18278     18281     18282
     18280     18278     18281     18283     18280     18278     18281     18289
     18281     18283     18284     18285     18281     18283     18284     18286
     18281     18289     18292     18293     18282     18281     18283     18284
     18282     18281     18289     18290     18282     18281     18289     18291
     18282     18281     18289     18292     18283     18281     18289     18290
     18283     18281     18289     18291     18283     18281     18289     18292
     18283     18284     18286     18287     18283     18284     18286     18288
     18283     18284     18286     18298     18284     18283     18281     18289
     18284     18286     18298     18299     18284     18286     18298     18300
     18284     18286     18298     18301     18285     18284     18286     18287
     18285     18284     18286     18288     18285     18284     18286     18298
     18286     18298     18301     18302     18286     18298     18301     18303
     18286     18298     18301     18304     18287     18286     18298     18299
     18287     18286     18298     18300     18287     18286     18298     18301
     18288     18286     18298     18299     18288     18286     18298     18300
     18288     18286     18298     18301     18289     18292     18293     18294
     18289     18292     18293     18295     18290     18289     18292     18293
     18291     18289     18292     18293     18292     18293     18295     18296
     18292     18293     18295     18297     18292     18293     18295     18345
     18293     18295     18345     18346     18293     18295     18345     18347
     18293     18295     18345     18348     18294     18293     18295     18296
     18294     18293     18295     18297     18294     18293     18295     18345
     18295     18345     18348     18349     18295     18345     18348     18350
     18295     18345     18348     18351     18296     18295     18345     18346
     18296     18295     18345     18347     18296     18295     18345     18348
     18297     18295     18345     18346     18297     18295     18345     18347
     18297     18295     18345     18348     18298     18301     18304     18305
     18298     18301     18304     18306     18299     18298     18301     18302
     18299     18298     18301     18303     18299     18298     18301     18304
     18300     18298     18301     18302     18300     18298     18301     18303
     18300     18298     18301     18304     18301     18304     18306     18307
     18301     18304     18306     18308     18302     18301     18304     18305
     18302     18301     18304     18306     18303     18301     18304     18305
     18303     18301     18304     18306     18304     18306     18308     18309
     18304     18306     18308     18310     18304     18306     18308     18311
     18305     18304     18306     18307     18305     18304     18306     18308
     18306     18308     18311     18312     18306     18308     18311     18313
     18307     18306     18308     18309     18307     18306     18308     18310
     18307     18306     18308     18311     18308     18311     18313     18314
     18308     18311     18313     18315     18309     18308     18311     18312
     18309     18308     18311     18313     18310     18308     18311     18312
     18310     18308     18311     18313     18311     18313     18315     18316
     18311     18313     18315     18317     18311     18313     18315     18318
     18312     18311     18313     18314     18312     18311     18313     18315
     18313     18315     18318     18319     18313     18315     18318     18320
     18314     18313     18315     18316     18314     18313     18315     18317
     18314     18313     18315     18318     18315     18318     18320     18321
     18315     18318     18320     18322     18316     18315     18318     18319
     18316     18315     18318     18320     18317     18315     18318     18319
     18317     18315     18318     18320     18318     18320     18322     18323
     18318     18320     18322     18324     18318     18320     18322     18325
     18319     18318     18320     18321     18319     18318     18320     18322
     18320     18322     18325     18326     18320     18322     18325     18327
     18321     18320     18322     18323     18321     18320     18322     18324
     18321     18320     18322     18325     18322     18325     18327     18328
     18322     18325     18327     18329     18323     18322     18325     18326
     18323     18322     18325     18327     18324     18322     18325     18326
     18324     18322     18325     18327     18325     18327     18329     18330
     18325     18327     18329     18331     18325     18327     18329     18332
     18326     18325     18327     18328     18326     18325     18327     18329
     18327     18329     18332     18333     18327     18329     18332     18334
     18327     18329     18332     18335     18328     18327     18329     18330
     18328     18327     18329     18331     18328     18327     18329     18332
     18329     18332     18335     18336     18329     18332     18335     18337
     18329     18332     18335     18338     18330     18329     18332     18333
     18330     18329     18332     18334     18330     18329     18332     18335
     18331     18329     18332     18333     18331     18329     18332     18334
     18331     18329     18332     18335     18332     18335     18338     18339
     18332     18335     18338     18340     18332     18335     18338     18341
     18333     18332     18335     18336     18333     18332     18335     18337
     18333     18332     18335     18338     18334     18332     18335     18336
     18334     18332     18335     18337     18334     18332     18335     18338
     18335     18338     18341     18342     18335     18338     18341     18343
     18335     18338     18341     18344     18336     18335     18338     18339
     18336     18335     18338     18340     18336     18335     18338     18341
     18337     18335     18338     18339     18337     18335     18338     18340
     18337     18335     18338     18341     18339     18338     18341     18342
     18339     18338     18341     18343     18339     18338     18341     18344
     18340     18338     18341     18342     18340     18338     18341     18343
     18340     18338     18341     18344     18345     18348     18351     18352
     18345     18348     18351     18353     18345     18348     18351     18354
     18346     18345     18348     18349     18346     18345     18348     18350
     18346     18345     18348     18351     18347     18345     18348     18349
     18347     18345     18348     18350     18347     18345     18348     18351
     18348     18351     18354     18355     18348     18351     18354     18356
     18348     18351     18354     18357     18349     18348     18351     18352
     18349     18348     18351     18353     18349     18348     18351     18354
     18350     18348     18351     18352     18350     18348     18351     18353
     18350     18348     18351     18354     18351     18354     18357     18358
     18351     18354     18357     18359     18351     18354     18357     18360
     18352     18351     18354     18355     18352     18351     18354     18356
     18352     18351     18354     18357     18353     18351     18354     18355
     18353     18351     18354     18356     18353     18351     18354     18357
     18354     18357     18360     18361     18354     18357     18360     18362
     18354     18357     18360     18363     18355     18354     18357     18358
     18355     18354     18357     18359     18355     18354     18357     18360
     18356     18354     18357     18358     18356     18354     18357     18359
     18356     18354     18357     18360     18357     18360     18363     18364
     18357     18360     18363     18365     18357     18360     18363     18366
     18358     18357     18360     18361     18358     18357     18360     18362
     18358     18357     18360     18363     18359     18357     18360     18361
     18359     18357     18360     18362     18359     18357     18360     18363
     18360     18363     18366     18367     18360     18363     18366     18368
     18360     18363     18366     18369     18361     18360     18363     18364
     18361     18360     18363     18365     18361     18360     18363     18366
     18362     18360     18363     18364     18362     18360     18363     18365
     18362     18360     18363     18366     18363     18366     18369     18370
     18363     18366     18369     18371     18363     18366     18369     18372
     18364     18363     18366     18367     18364     18363     18366     18368
     18364     18363     18366     18369     18365     18363     18366     18367
     18365     18363     18366     18368     18365     18363     18366     18369
     18366     18369     18372     18373     18366     18369     18372     18374
     18366     18369     18372     18375     18367     18366     18369     18370
     18367     18366     18369     18371     18367     18366     18369     18372
     18368     18366     18369     18370     18368     18366     18369     18371
     18368     18366     18369     18372     18369     18372     18375     18376
     18369     18372     18375     18377     18369     18372     18375     18378
     18370     18369     18372     18373     18370     18369     18372     18374
     18370     18369     18372     18375     18371     18369     18372     18373
     18371     18369     18372     18374     18371     18369     18372     18375
     18372     18375     18378     18379     18372     18375     18378     18380
     18372     18375     18378     18381     18373     18372     18375     18376
     18373     18372     18375     18377     18373     18372     18375     18378
     18374     18372     18375     18376     18374     18372     18375     18377
     18374     18372     18375     18378     18375     18378     18381     18382
     18375     18378     18381     18383     18375     18378     18381     18384
     18376     18375     18378     18379     18376     18375     18378     18380
     18376     18375     18378     18381     18377     18375     18378     18379
     18377     18375     18378     18380     18377     18375     18378     18381
     18378     18381     18384     18385     18378     18381     18384     18386
     18378     18381     18384     18387     18379     18378     18381     18382
     18379     18378     18381     18383     18379     18378     18381     18384
     18380     18378     18381     18382     18380     18378     18381     18383
     18380     18378     18381     18384     18381     18384     18387     18388
     18381     18384     18387     18389     18381     18384     18387     18390
     18382     18381     18384     18385     18382     18381     18384     18386
     18382     18381     18384     18387     18383     18381     18384     18385
     18383     18381     18384     18386     18383     18381     18384     18387
     18384     18387     18390     18391     18384     18387     18390     18392
     18384     18387     18390     18393     18385     18384     18387     18388
     18385     18384     18387     18389     18385     18384     18387     18390
     18386     18384     18387     18388     18386     18384     18387     18389
     18386     18384     18387     18390     18388     18387     18390     18391
     18388     18387     18390     18392     18388     18387     18390     18393
     18389     18387     18390     18391     18389     18387     18390     18392
     18389     18387     18390     18393      2961      2965      2968      2969
      2961      2965      2968      2999      2961      3007      3004      2999
      2961      3007      3004      3005      2961      3007      3004      3006
      2962      2961      2963      2964      2962      2961      2965      2966
      2962      2961      2965      2967      2962      2961      2965      2968
      2962      2961      3007      3004      2962      2961      3007      3008
      2962      2961      3007      3009      2963      2961      2965      2966
      2963      2961      2965      2967      2963      2961      2965      2968
      2963      2961      3007      3004      2963      2961      3007      3008
      2963      2961      3007      3009      2964      2963      2961      2965
      2964      2963      2961      3007      2965      2961      3007      3004
      2965      2961      3007      3008      2965      2961      3007      3009
      2965      2968      2969      2970      2965      2968      2969      2971
      2965      2968      2999      2997      2965      2968      2999      3000
      2965      2968      2999      3004      2966      2965      2961      3007
      2966      2965      2968      2969      2966      2965      2968      2999
      2967      2965      2961      3007      2967      2965      2968      2969
      2967      2965      2968      2999      2968      2965      2961      3007
      2968      2969      2971      2972      2968      2969      2971      2973
      2968      2969      2971      2974      2968      2999      2997      2974
      2968      2999      2997      2994      2968      2999      2997      2998
      2968      2999      3000      3001      2968      2999      3000      3002
      2968      2999      3000      3003      2968      2999      3004      3005
      2968      2999      3004      3006      2968      2999      3004      3007
      2969      2968      2999      2997      2969      2968      2999      3000
      2969      2968      2999      3004      2969      2971      2974      2975
      2969      2971      2974      2976      2969      2971      2974      2997
      2970      2969      2968      2999      2970      2969      2971      2972
      2970      2969      2971      2973      2970      2969      2971      2974
      2971      2969      2968      2999      2971      2974      2976      2977
      2971      2974      2976      2978      2971      2974      2976      2986
      2971      2974      2997      2994      2971      2974      2997      2998
      2971      2974      2997      2999      2972      2971      2974      2975
      2972      2971      2974      2976      2972      2971      2974      2997
      2973      2971      2974      2975      2973      2971      2974      2976
      2973      2971      2974      2997      2974      2976      2978      2979
      2974      2976      2978      2980      2974      2976      2978      2981
      2974      2976      2986      2984      2974      2976      2986      2987
      2974      2976      2986      2991      2974      2997      2994      2991
      2974      2997      2994      2995      2974      2997      2994      2996
      2974      2997      2999      3000      2974      2997      2999      3004
      2975      2974      2976      2977      2975      2974      2976      2978
      2975      2974      2976      2986      2975      2974      2997      2994
      2975      2974      2997      2998      2975      2974      2997      2999
      2976      2974      2997      2994      2976      2974      2997      2998
      2976      2974      2997      2999      2976      2978      2981      2982
      2976      2978      2981      2983      2976      2978      2981      2984
      2976      2986      2984      2981      2976      2986      2984      2985
      2976      2986      2984      3010      2976      2986      2987      2988
      2976      2986      2987      2989      2976      2986      2987      2990
      2976      2986      2991      2992      2976      2986      2991      2993
      2976      2986      2991      2994      2977      2976      2974      2997
      2977      2976      2978      2979      2977      2976      2978      2980
      2977      2976      2978      2981      2977      2976      2986      2984
      2977      2976      2986      2987      2977      2976      2986      2991
      2978      2976      2974      2997      2978      2976      2986      2984
      2978      2976      2986      2987      2978      2976      2986      2991
      2978      2981      2984      2985      2978      2981      2984      2986
      2978      2981      2984      3010      2979      2978      2976      2986
      2979      2978      2981      2982      2979      2978      2981      2983
      2979      2978      2981      2984      2980      2978      2976      2986
      2980      2978      2981      2982      2980      2978      2981      2983
      2980      2978      2981      2984      2981      2978      2976      2986
      2981      2984      2986      2987      2981      2984      2986      2991
      2981      2984      3010      3011      2981      2984      3010      3012
      2981      2984      3010      3016      2982      2981      2984      2985
      2982      2981      2984      2986      2982      2981      2984      3010
      2983      2981      2984      2985      2983      2981      2984      2986
      2983      2981      2984      3010      2984      2986      2987      2988
      2984      2986      2987      2989      2984      2986      2987      2990
      2984      2986      2991      2992      2984      2986      2991      2993
      2984      2986      2991      2994      2984      3010      3012      3013
      2984      3010      3012      3014      2984      3010      3012      3015
      2984      3010      3016      3017      2984      3010      3016      3018
      2984      3010      3016      3019      2985      2984      2986      2987
      2985      2984      2986      2991      2985      2984      3010      3011
      2985      2984      3010      3012      2985      2984      3010      3016
      2986      2976      2974      2997      2986      2984      3010      3011
      2986      2984      3010      3012      2986      2984      3010      3016
      2986      2991      2994      2995      2986      2991      2994      2996
      2986      2991      2994      2997      2987      2986      2984      3010
      2987      2986      2991      2992      2987      2986      2991      2993
      2987      2986      2991      2994      2988      2987      2986      2991
      2989      2987      2986      2991      2990      2987      2986      2991
      2991      2986      2984      3010      2991      2994      2997      2998
      2991      2994      2997      2999      2992      2991      2994      2995
      2992      2991      2994      2996      2992      2991      2994      2997
      2993      2991      2994      2995      2993      2991      2994      2996
      2993      2991      2994      2997      2994      2997      2999      3000
      2994      2997      2999      3004      2995      2994      2997      2998
      2995      2994      2997      2999      2996      2994      2997      2998
      2996      2994      2997      2999      2997      2999      3000      3001
      2997      2999      3000      3002      2997      2999      3000      3003
      2997      2999      3004      3005      2997      2999      3004      3006
      2997      2999      3004      3007      2998      2997      2999      3000
      2998      2997      2999      3004      2999      3004      3007      3008
      2999      3004      3007      3009      3000      2999      3004      3005
      3000      2999      3004      3006      3000      2999      3004      3007
      3001      3000      2999      3004      3002      3000      2999      3004
      3003      3000      2999      3004      3005      3004      3007      3008
      3005      3004      3007      3009      3006      3004      3007      3008
      3006      3004      3007      3009      3010      3016      3019      3020
      3010      3016      3019      3021      3010      3016      3019      3022
      3011      3010      3012      3013      3011      3010      3012      3014
      3011      3010      3012      3015      3011      3010      3016      3017
      3011      3010      3016      3018      3011      3010      3016      3019
      3012      3010      3016      3017      3012      3010      3016      3018
      3012      3010      3016      3019      3013      3012      3010      3016
      3014      3012      3010      3016      3015      3012      3010      3016
      3016      3019      3022      3023      3016      3019      3022      3024
      3016      3019      3022      3025      3017      3016      3019      3020
      3017      3016      3019      3021      3017      3016      3019      3022
      3018      3016      3019      3020      3018      3016      3019      3021
      3018      3016      3019      3022      3019      3022      3025      3026
      3019      3022      3025      3027      3019      3022      3025      3031
      3020      3019      3022      3023      3020      3019      3022      3024
      3020      3019      3022      3025      3021      3019      3022      3023
      3021      3019      3022      3024      3021      3019      3022      3025
      3022      3025      3027      3028      3022      3025      3027      3029
      3022      3025      3027      3030      3022      3025      3031      3032
      3022      3025      3031      3033      3022      3025      3031      3034
      3023      3022      3025      3026      3023      3022      3025      3027
      3023      3022      3025      3031      3024      3022      3025      3026
      3024      3022      3025      3027      3024      3022      3025      3031
      3026      3025      3027      3028      3026      3025      3027      3029
      3026      3025      3027      3030      3026      3025      3031      3032
      3026      3025      3031      3033      3026      3025      3031      3034
      3027      3025      3031      3032      3027      3025      3031      3033
      3027      3025      3031      3034      3028      3027      3025      3031
      3029      3027      3025      3031      3030      3027      3025      3031
      9343      9347      9349      9350      9343      9347      9349      9351
      9343      9347      9352      9353      9343      9347      9352      9354
      9343      9347      9352      9358      9344      9343      9347      9348
      9344      9343      9347      9349      9344      9343      9347      9352
      9345      9343      9347      9348      9345      9343      9347      9349
      9345      9343      9347      9352      9346      9343      9347      9348
      9346      9343      9347      9349      9346      9343      9347      9352
      9347      9352      9358      9355      9348      9347      9349      9350
      9348      9347      9349      9351      9348      9347      9352      9353
      9348      9347      9352      9354      9348      9347      9352      9358
      9349      9347      9352      9353      9349      9347      9352      9354
      9349      9347      9352      9358      9350      9349      9347      9352
      9351      9349      9347      9352      9352      9358      9355      9356
      9352      9358      9355      9357      9352      9358      9355      9359
      9353      9352      9358      9355      9354      9352      9358      9355
      9355      9359      9360      9361      9355      9359      9360      9362
      9355      9359      9360      9363      9356      9355      9359      9360
      9357      9355      9359      9360      9358      9355      9359      9360
      9359      9360      9363      9364      9359      9360      9363      9365
      9359      9360      9363      9371      9360      9363      9365      9366
      9360      9363      9371      9372      9360      9363      9371      9373
      9360      9363      9371      9374      9361      9360      9363      9364
      9361      9360      9363      9365      9361      9360      9363      9371
      9362      9360      9363      9364      9362      9360      9363      9365
      9362      9360      9363      9371      9363      9365      9366      9367
      9363      9365      9366      9368      9363      9371      9374      9375
      9364      9363      9365      9366      9364      9363      9371      9372
      9364      9363      9371      9373      9364      9363      9371      9374
      9365      9363      9371      9372      9365      9363      9371      9373
      9365      9363      9371      9374      9365      9366      9368      9369
      9365      9366      9368      9370      9365      9366      9368      9380
      9366      9365      9363      9371      9366      9368      9380      9381
      9366      9368      9380      9382      9366      9368      9380      9383
      9367      9366      9368      9369      9367      9366      9368      9370
      9367      9366      9368      9380      9368      9380      9383      9384
      9368      9380      9383      9385      9368      9380      9383      9386
      9369      9368      9380      9381      9369      9368      9380      9382
      9369      9368      9380      9383      9370      9368      9380      9381
      9370      9368      9380      9382      9370      9368      9380      9383
      9371      9374      9375      9376      9371      9374      9375      9377
      9372      9371      9374      9375      9373      9371      9374      9375
      9374      9375      9377      9378      9374      9375      9377      9379
      9374      9375      9377      9427      9375      9377      9427      9428
      9375      9377      9427      9429      9375      9377      9427      9430
      9376      9375      9377      9378      9376      9375      9377      9379
      9376      9375      9377      9427      9377      9427      9430      9431
      9377      9427      9430      9432      9377      9427      9430      9433
      9378      9377      9427      9428      9378      9377      9427      9429
      9378      9377      9427      9430      9379      9377      9427      9428
      9379      9377      9427      9429      9379      9377      9427      9430
      9380      9383      9386      9387      9380      9383      9386      9388
      9381      9380      9383      9384      9381      9380      9383      9385
      9381      9380      9383      9386      9382      9380      9383      9384
      9382      9380      9383      9385      9382      9380      9383      9386
      9383      9386      9388      9389      9383      9386      9388      9390
      9384      9383      9386      9387      9384      9383      9386      9388
      9385      9383      9386      9387      9385      9383      9386      9388
      9386      9388      9390      9391      9386      9388      9390      9392
      9386      9388      9390      9393      9387      9386      9388      9389
      9387      9386      9388      9390      9388      9390      9393      9394
      9388      9390      9393      9395      9389      9388      9390      9391
      9389      9388      9390      9392      9389      9388      9390      9393
      9390      9393      9395      9396      9390      9393      9395      9397
      9391      9390      9393      9394      9391      9390      9393      9395
      9392      9390      9393      9394      9392      9390      9393      9395
      9393      9395      9397      9398      9393      9395      9397      9399
      9393      9395      9397      9400      9394      9393      9395      9396
      9394      9393      9395      9397      9395      9397      9400      9401
      9395      9397      9400      9402      9396      9395      9397      9398
      9396      9395      9397      9399      9396      9395      9397      9400
      9397      9400      9402      9403      9397      9400      9402      9404
      9398      9397      9400      9401      9398      9397      9400      9402
      9399      9397      9400      9401      9399      9397      9400      9402
      9400      9402      9404      9405      9400      9402      9404      9406
      9400      9402      9404      9407      9401      9400      9402      9403
      9401      9400      9402      9404      9402      9404      9407      9408
      9402      9404      9407      9409      9403      9402      9404      9405
      9403      9402      9404      9406      9403      9402      9404      9407
      9404      9407      9409      9410      9404      9407      9409      9411
      9405      9404      9407      9408      9405      9404      9407      9409
      9406      9404      9407      9408      9406      9404      9407      9409
      9407      9409      9411      9412      9407      9409      9411      9413
      9407      9409      9411      9414      9408      9407      9409      9410
      9408      9407      9409      9411      9409      9411      9414      9415
      9409      9411      9414      9416      9409      9411      9414      9417
      9410      9409      9411      9412      9410      9409      9411      9413
      9410      9409      9411      9414      9411      9414      9417      9418
      9411      9414      9417      9419      9411      9414      9417      9420
      9412      9411      9414      9415      9412      9411      9414      9416
      9412      9411      9414      9417      9413      9411      9414      9415
      9413      9411      9414      9416      9413      9411      9414      9417
      9414      9417      9420      9421      9414      9417      9420      9422
      9414      9417      9420      9423      9415      9414      9417      9418
      9415      9414      9417      9419      9415      9414      9417      9420
      9416      9414      9417      9418      9416      9414      9417      9419
      9416      9414      9417      9420      9417      9420      9423      9424
      9417      9420      9423      9425      9417      9420      9423      9426
      9418      9417      9420      9421      9418      9417      9420      9422
      9418      9417      9420      9423      9419      9417      9420      9421
      9419      9417      9420      9422      9419      9417      9420      9423
      9421      9420      9423      9424      9421      9420      9423      9425
      9421      9420      9423      9426      9422      9420      9423      9424
      9422      9420      9423      9425      9422      9420      9423      9426
      9427      9430      9433      9434      9427      9430      9433      9435
      9427      9430      9433      9436      9428      9427      9430      9431
      9428      9427      9430      9432      9428      9427      9430      9433
      9429      9427      9430      9431      9429      9427      9430      9432
      9429      9427      9430      9433      9430      9433      9436      9437
      9430      9433      9436      9438      9430      9433      9436      9439
      9431      9430      9433      9434      9431      9430      9433      9435
      9431      9430      9433      9436      9432      9430      9433      9434
      9432      9430      9433      9435      9432      9430      9433      9436
      9433      9436      9439      9440      9433      9436      9439      9441
      9433      9436      9439      9442      9434      9433      9436      9437
      9434      9433      9436      9438      9434      9433      9436      9439
      9435      9433      9436      9437      9435      9433      9436      9438
      9435      9433      9436      9439      9436      9439      9442      9443
      9436      9439      9442      9444      9436      9439      9442      9445
      9437      9436      9439      9440      9437      9436      9439      9441
      9437      9436      9439      9442      9438      9436      9439      9440
      9438      9436      9439      9441      9438      9436      9439      9442
      9439      9442      9445      9446      9439      9442      9445      9447
      9439      9442      9445      9448      9440      9439      9442      9443
      9440      9439      9442      9444      9440      9439      9442      9445
      9441      9439      9442      9443      9441      9439      9442      9444
      9441      9439      9442      9445      9442      9445      9448      9449
      9442      9445      9448      9450      9442      9445      9448      9451
      9443      9442      9445      9446      9443      9442      9445      9447
      9443      9442      9445      9448      9444      9442      9445      9446
      9444      9442      9445      9447      9444      9442      9445      9448
      9445      9448      9451      9452      9445      9448      9451      9453
      9445      9448      9451      9454      9446      9445      9448      9449
      9446      9445      9448      9450      9446      9445      9448      9451
      9447      9445      9448      9449      9447      9445      9448      9450
      9447      9445      9448      9451      9448      9451      9454      9455
      9448      9451      9454      9456      9448      9451      9454      9457
      9449      9448      9451      9452      9449      9448      9451      9453
      9449      9448      9451      9454      9450      9448      9451      9452
      9450      9448      9451      9453      9450      9448      9451      9454
      9451      9454      9457      9458      9451      9454      9457      9459
      9451      9454      9457      9460      9452      9451      9454      9455
      9452      9451      9454      9456      9452      9451      9454      9457
      9453      9451      9454      9455      9453      9451      9454      9456
      9453      9451      9454      9457      9454      9457      9460      9461
      9454      9457      9460      9462      9454      9457      9460      9463
      9455      9454      9457      9458      9455      9454      9457      9459
      9455      9454      9457      9460      9456      9454      9457      9458
      9456      9454      9457      9459      9456      9454      9457      9460
      9457      9460      9463      9464      9457      9460      9463      9465
      9457      9460      9463      9466      9458      9457      9460      9461
      9458      9457      9460      9462      9458      9457      9460      9463
      9459      9457      9460      9461      9459      9457      9460      9462
      9459      9457      9460      9463      9460      9463      9466      9467
      9460      9463      9466      9468      9460      9463      9466      9469
      9461      9460      9463      9464      9461      9460      9463      9465
      9461      9460      9463      9466      9462      9460      9463      9464
      9462      9460      9463      9465      9462      9460      9463      9466
      9463      9466      9469      9470      9463      9466      9469      9471
      9463      9466      9469      9472      9464      9463      9466      9467
      9464      9463      9466      9468      9464      9463      9466      9469
      9465      9463      9466      9467      9465      9463      9466      9468
      9465      9463      9466      9469      9466      9469      9472      9473
      9466      9469      9472      9474      9466      9469      9472      9475
      9467      9466      9469      9470      9467      9466      9469      9471
      9467      9466      9469      9472      9468      9466      9469      9470
      9468      9466      9469      9471      9468      9466      9469      9472
      9470      9469      9472      9473      9470      9469      9472      9474
      9470      9469      9472      9475      9471      9469      9472      9473
      9471      9469      9472      9474      9471      9469      9472      9475
     14202     14215     14218     14219     14202     14215     14218     14220
     14202     14215     14218     14225     14203     14202     14207     14208
     14203     14202     14207     14209     14203     14202     14207     14210
     14203     14202     14211     14212     14203     14202     14211     14213
     14203     14202     14211     14214     14203     14202     14215     14216
     14203     14202     14215     14217     14203     14202     14215     14218
     14204     14203     14202     14207     14204     14203     14202     14211
     14204     14203     14202     14215     14205     14203     14202     14207
     14205     14203     14202     14211     14205     14203     14202     14215
     14206     14203     14202     14207     14206     14203     14202     14211
     14206     14203     14202     14215     14207     14202     14211     14212
     14207     14202     14211     14213     14207     14202     14211     14214
     14207     14202     14215     14216     14207     14202     14215     14217
     14207     14202     14215     14218     14208     14207     14202     14211
     14208     14207     14202     14215     14209     14207     14202     14211
     14209     14207     14202     14215     14210     14207     14202     14211
     14210     14207     14202     14215     14211     14202     14215     14216
     14211     14202     14215     14217     14211     14202     14215     14218
     14212     14211     14202     14215     14213     14211     14202     14215
     14214     14211     14202     14215     14215     14218     14225     14221
     14216     14215     14218     14219     14216     14215     14218     14220
     14216     14215     14218     14225     14217     14215     14218     14219
     14217     14215     14218     14220     14217     14215     14218     14225
     14218     14225     14221     14222     14218     14225     14221     14223
     14218     14225     14221     14224     14219     14218     14225     14221
     14220     14218     14225     14221     14221     14224     14226     14227
     14221     14224     14226     14228     14221     14224     14226     14231
     14222     14221     14224     14226     14223     14221     14224     14226
     14224     14226     14231     14229     14224     14226     14231     14232
     14224     14226     14231     14233     14225     14221     14224     14226
     14226     14231     14229     14230     14226     14231     14229     14281
     14226     14231     14233     14234     14226     14231     14233     14235
     14226     14231     14233     14237     14227     14226     14231     14229
     14227     14226     14231     14232     14227     14226     14231     14233
     14228     14226     14231     14229     14228     14226     14231     14232
     14228     14226     14231     14233     14229     14231     14233     14234
     14229     14231     14233     14235     14229     14231     14233     14237
     14229     14281     14283     14284     14229     14281     14283     14285
     14229     14281     14283     14286     14230     14229     14231     14232
     14230     14229     14231     14233     14230     14229     14281     14282
     14230     14229     14281     14283     14231     14229     14281     14282
     14231     14229     14281     14283     14231     14233     14235     14236
     14231     14233     14237     14238     14231     14233     14237     14239
     14232     14231     14229     14281     14232     14231     14233     14234
     14232     14231     14233     14235     14232     14231     14233     14237
     14233     14231     14229     14281     14233     14237     14239     14240
     14233     14237     14239     14241     14234     14233     14235     14236
     14234     14233     14237     14238     14234     14233     14237     14239
     14235     14233     14237     14238     14235     14233     14237     14239
     14236     14235     14233     14237     14237     14239     14241     14242
     14237     14239     14241     14243     14237     14239     14241     14244
     14238     14237     14239     14240     14238     14237     14239     14241
     14239     14241     14244     14245     14239     14241     14244     14246
     14239     14241     14244     14247     14240     14239     14241     14242
     14240     14239     14241     14243     14240     14239     14241     14244
     14241     14244     14247     14248     14241     14244     14247     14249
     14241     14244     14247     14250     14242     14241     14244     14245
     14242     14241     14244     14246     14242     14241     14244     14247
     14243     14241     14244     14245     14243     14241     14244     14246
     14243     14241     14244     14247     14244     14247     14250     14251
     14244     14247     14250     14252     14244     14247     14250     14253
     14245     14244     14247     14248     14245     14244     14247     14249
     14245     14244     14247     14250     14246     14244     14247     14248
     14246     14244     14247     14249     14246     14244     14247     14250
     14247     14250     14253     14254     14247     14250     14253     14255
     14247     14250     14253     14256     14248     14247     14250     14251
     14248     14247     14250     14252     14248     14247     14250     14253
     14249     14247     14250     14251     14249     14247     14250     14252
     14249     14247     14250     14253     14250     14253     14256     14257
     14250     14253     14256     14258     14250     14253     14256     14259
     14251     14250     14253     14254     14251     14250     14253     14255
     14251     14250     14253     14256     14252     14250     14253     14254
     14252     14250     14253     14255     14252     14250     14253     14256
     14253     14256     14259     14260     14253     14256     14259     14261
     14253     14256     14259     14262     14254     14253     14256     14257
     14254     14253     14256     14258     14254     14253     14256     14259
     14255     14253     14256     14257     14255     14253     14256     14258
     14255     14253     14256     14259     14256     14259     14262     14263
     14256     14259     14262     14264     14256     14259     14262     14265
     14257     14256     14259     14260     14257     14256     14259     14261
     14257     14256     14259     14262     14258     14256     14259     14260
     14258     14256     14259     14261     14258     14256     14259     14262
     14259     14262     14265     14266     14259     14262     14265     14267
     14259     14262     14265     14268     14260     14259     14262     14263
     14260     14259     14262     14264     14260     14259     14262     14265
     14261     14259     14262     14263     14261     14259     14262     14264
     14261     14259     14262     14265     14262     14265     14268     14269
     14262     14265     14268     14270     14262     14265     14268     14271
     14263     14262     14265     14266     14263     14262     14265     14267
     14263     14262     14265     14268     14264     14262     14265     14266
     14264     14262     14265     14267     14264     14262     14265     14268
     14265     14268     14271     14272     14265     14268     14271     14273
     14265     14268     14271     14274     14266     14265     14268     14269
     14266     14265     14268     14270     14266     14265     14268     14271
     14267     14265     14268     14269     14267     14265     14268     14270
     14267     14265     14268     14271     14268     14271     14274     14275
     14268     14271     14274     14276     14268     14271     14274     14277
     14269     14268     14271     14272     14269     14268     14271     14273
     14269     14268     14271     14274     14270     14268     14271     14272
     14270     14268     14271     14273     14270     14268     14271     14274
     14271     14274     14277     14278     14271     14274     14277     14279
     14271     14274     14277     14280     14272     14271     14274     14275
     14272     14271     14274     14276     14272     14271     14274     14277
     14273     14271     14274     14275     14273     14271     14274     14276
     14273     14271     14274     14277     14275     14274     14277     14278
     14275     14274     14277     14279     14275     14274     14277     14280
     14276     14274     14277     14278     14276     14274     14277     14279
     14276     14274     14277     14280     14281     14283     14286     14287
     14281     14283     14286     14288     14281     14283     14286     14289
     14282     14281     14283     14284     14282     14281     14283     14285
     14282     14281     14283     14286     14283     14286     14289     14290
     14283     14286     14289     14291     14283     14286     14289     14292
     14284     14283     14286     14287     14284     14283     14286     14288
     14284     14283     14286     14289     14285     14283     14286     14287
     14285     14283     14286     14288     14285     14283     14286     14289
     14286     14289     14292     14293     14286     14289     14292     14294
     14286     14289     14292     14295     14287     14286     14289     14290
     14287     14286     14289     14291     14287     14286     14289     14292
     14288     14286     14289     14290     14288     14286     14289     14291
     14288     14286     14289     14292     14289     14292     14295     14296
     14289     14292     14295     14297     14289     14292     14295     14298
     14290     14289     14292     14293     14290     14289     14292     14294
     14290     14289     14292     14295     14291     14289     14292     14293
     14291     14289     14292     14294     14291     14289     14292     14295
     14292     14295     14298     14299     14292     14295     14298     14300
     14292     14295     14298     14301     14293     14292     14295     14296
     14293     14292     14295     14297     14293     14292     14295     14298
     14294     14292     14295     14296     14294     14292     14295     14297
     14294     14292     14295     14298     14295     14298     14301     14302
     14295     14298     14301     14303     14295     14298     14301     14304
     14296     14295     14298     14299     14296     14295     14298     14300
     14296     14295     14298     14301     14297     14295     14298     14299
     14297     14295     14298     14300     14297     14295     14298     14301
     14298     14301     14304     14305     14298     14301     14304     14306
     14299     14298     14301     14302     14299     14298     14301     14303
     14299     14298     14301     14304     14300     14298     14301     14302
     14300     14298     14301     14303     14300     14298     14301     14304
     14301     14304     14306     14307     14301     14304     14306     14308
     14302     14301     14304     14305     14302     14301     14304     14306
     14303     14301     14304     14305     14303     14301     14304     14306
     14304     14306     14308     14309     14304     14306     14308     14310
     14304     14306     14308     14311     14305     14304     14306     14307
     14305     14304     14306     14308     14306     14308     14311     14312
     14306     14308     14311     14313     14306     14308     14311     14314
     14307     14306     14308     14309     14307     14306     14308     14310
     14307     14306     14308     14311     14308     14311     14314     14315
     14308     14311     14314     14316     14308     14311     14314     14317
     14309     14308     14311     14312     14309     14308     14311     14313
     14309     14308     14311     14314     14310     14308     14311     14312
     14310     14308     14311     14313     14310     14308     14311     14314
     14311     14314     14317     14318     14311     14314     14317     14319
     14311     14314     14317     14320     14312     14311     14314     14315
     14312     14311     14314     14316     14312     14311     14314     14317
     14313     14311     14314     14315     14313     14311     14314     14316
     14313     14311     14314     14317     14314     14317     14320     14321
     14314     14317     14320     14322     14314     14317     14320     14323
     14315     14314     14317     14318     14315     14314     14317     14319
     14315     14314     14317     14320     14316     14314     14317     14318
     14316     14314     14317     14319     14316     14314     14317     14320
     14317     14320     14323     14324     14317     14320     14323     14325
     14317     14320     14323     14326     14318     14317     14320     14321
     14318     14317     14320     14322     14318     14317     14320     14323
     14319     14317     14320     14321     14319     14317     14320     14322
     14319     14317     14320     14323     14320     14323     14326     14327
     14320     14323     14326     14328     14320     14323     14326     14329
     14321     14320     14323     14324     14321     14320     14323     14325
     14321     14320     14323     14326     14322     14320     14323     14324
     14322     14320     14323     14325     14322     14320     14323     14326
     14323     14326     14329     14330     14323     14326     14329     14331
     14323     14326     14329     14332     14324     14323     14326     14327
     14324     14323     14326     14328     14324     14323     14326     14329
     14325     14323     14326     14327     14325     14323     14326     14328
     14325     14323     14326     14329     14327     14326     14329     14330
     14327     14326     14329     14331     14327     14326     14329     14332
     14328     14326     14329     14330     14328     14326     14329     14331
     14328     14326     14329     14332     14333     14346     14349     14350
     14333     14346     14349     14351     14333     14346     14349     14356
     14334     14333     14338     14339     14334     14333     14338     14340
     14334     14333     14338     14341     14334     14333     14342     14343
     14334     14333     14342     14344     14334     14333     14342     14345
     14334     14333     14346     14347     14334     14333     14346     14348
     14334     14333     14346     14349     14335     14334     14333     14338
     14335     14334     14333     14342     14335     14334     14333     14346
     14336     14334     14333     14338     14336     14334     14333     14342
     14336     14334     14333     14346     14337     14334     14333     14338
     14337     14334     14333     14342     14337     14334     14333     14346
     14338     14333     14342     14343     14338     14333     14342     14344
     14338     14333     14342     14345     14338     14333     14346     14347
     14338     14333     14346     14348     14338     14333     14346     14349
     14339     14338     14333     14342     14339     14338     14333     14346
     14340     14338     14333     14342     14340     14338     14333     14346
     14341     14338     14333     14342     14341     14338     14333     14346
     14342     14333     14346     14347     14342     14333     14346     14348
     14342     14333     14346     14349     14343     14342     14333     14346
     14344     14342     14333     14346     14345     14342     14333     14346
     14346     14349     14356     14352     14347     14346     14349     14350
     14347     14346     14349     14351     14347     14346     14349     14356
     14348     14346     14349     14350     14348     14346     14349     14351
     14348     14346     14349     14356     14349     14356     14352     14353
     14349     14356     14352     14354     14349     14356     14352     14355
     14350     14349     14356     14352     14351     14349     14356     14352
     14352     14355     14357     14358     14352     14355     14357     14359
     14352     14355     14357     14362     14353     14352     14355     14357
     14354     14352     14355     14357     14355     14357     14362     14360
     14355     14357     14362     14363     14355     14357     14362     14364
     14356     14352     14355     14357     14357     14362     14360     14361
     14357     14362     14360     14412     14357     14362     14364     14365
     14357     14362     14364     14366     14357     14362     14364     14368
     14358     14357     14362     14360     14358     14357     14362     14363
     14358     14357     14362     14364     14359     14357     14362     14360
     14359     14357     14362     14363     14359     14357     14362     14364
     14360     14362     14364     14365     14360     14362     14364     14366
     14360     14362     14364     14368     14360     14412     14414     14415
     14360     14412     14414     14416     14360     14412     14414     14417
     14361     14360     14362     14363     14361     14360     14362     14364
     14361     14360     14412     14413     14361     14360     14412     14414
     14362     14360     14412     14413     14362     14360     14412     14414
     14362     14364     14366     14367     14362     14364     14368     14369
     14362     14364     14368     14370     14363     14362     14360     14412
     14363     14362     14364     14365     14363     14362     14364     14366
     14363     14362     14364     14368     14364     14362     14360     14412
     14364     14368     14370     14371     14364     14368     14370     14372
     14365     14364     14366     14367     14365     14364     14368     14369
     14365     14364     14368     14370     14366     14364     14368     14369
     14366     14364     14368     14370     14367     14366     14364     14368
     14368     14370     14372     14373     14368     14370     14372     14374
     14368     14370     14372     14375     14369     14368     14370     14371
     14369     14368     14370     14372     14370     14372     14375     14376
     14370     14372     14375     14377     14370     14372     14375     14378
     14371     14370     14372     14373     14371     14370     14372     14374
     14371     14370     14372     14375     14372     14375     14378     14379
     14372     14375     14378     14380     14372     14375     14378     14381
     14373     14372     14375     14376     14373     14372     14375     14377
     14373     14372     14375     14378     14374     14372     14375     14376
     14374     14372     14375     14377     14374     14372     14375     14378
     14375     14378     14381     14382     14375     14378     14381     14383
     14375     14378     14381     14384     14376     14375     14378     14379
     14376     14375     14378     14380     14376     14375     14378     14381
     14377     14375     14378     14379     14377     14375     14378     14380
     14377     14375     14378     14381     14378     14381     14384     14385
     14378     14381     14384     14386     14378     14381     14384     14387
     14379     14378     14381     14382     14379     14378     14381     14383
     14379     14378     14381     14384     14380     14378     14381     14382
     14380     14378     14381     14383     14380     14378     14381     14384
     14381     14384     14387     14388     14381     14384     14387     14389
     14381     14384     14387     14390     14382     14381     14384     14385
     14382     14381     14384     14386     14382     14381     14384     14387
     14383     14381     14384     14385     14383     14381     14384     14386
     14383     14381     14384     14387     14384     14387     14390     14391
     14384     14387     14390     14392     14384     14387     14390     14393
     14385     14384     14387     14388     14385     14384     14387     14389
     14385     14384     14387     14390     14386     14384     14387     14388
     14386     14384     14387     14389     14386     14384     14387     14390
     14387     14390     14393     14394     14387     14390     14393     14395
     14387     14390     14393     14396     14388     14387     14390     14391
     14388     14387     14390     14392     14388     14387     14390     14393
     14389     14387     14390     14391     14389     14387     14390     14392
     14389     14387     14390     14393     14390     14393     14396     14397
     14390     14393     14396     14398     14390     14393     14396     14399
     14391     14390     14393     14394     14391     14390     14393     14395
     14391     14390     14393     14396     14392     14390     14393     14394
     14392     14390     14393     14395     14392     14390     14393     14396
     14393     14396     14399     14400     14393     14396     14399     14401
     14393     14396     14399     14402     14394     14393     14396     14397
     14394     14393     14396     14398     14394     14393     14396     14399
     14395     14393     14396     14397     14395     14393     14396     14398
     14395     14393     14396     14399     14396     14399     14402     14403
     14396     14399     14402     14404     14396     14399     14402     14405
     14397     14396     14399     14400     14397     14396     14399     14401
     14397     14396     14399     14402     14398     14396     14399     14400
     14398     14396     14399     14401     14398     14396     14399     14402
     14399     14402     14405     14406     14399     14402     14405     14407
     14399     14402     14405     14408     14400     14399     14402     14403
     14400     14399     14402     14404     14400     14399     14402     14405
     14401     14399     14402     14403     14401     14399     14402     14404
     14401     14399     14402     14405     14402     14405     14408     14409
     14402     14405     14408     14410     14402     14405     14408     14411
     14403     14402     14405     14406     14403     14402     14405     14407
     14403     14402     14405     14408     14404     14402     14405     14406
     14404     14402     14405     14407     14404     14402     14405     14408
     14406     14405     14408     14409     14406     14405     14408     14410
     14406     14405     14408     14411     14407     14405     14408     14409
     14407     14405     14408     14410     14407     14405     14408     14411
     14412     14414     14417     14418     14412     14414     14417     14419
     14412     14414     14417     14420     14413     14412     14414     14415
     14413     14412     14414     14416     14413     14412     14414     14417
     14414     14417     14420     14421     14414     14417     14420     14422
     14414     14417     14420     14423     14415     14414     14417     14418
     14415     14414     14417     14419     14415     14414     14417     14420
     14416     14414     14417     14418     14416     14414     14417     14419
     14416     14414     14417     14420     14417     14420     14423     14424
     14417     14420     14423     14425     14417     14420     14423     14426
     14418     14417     14420     14421     14418     14417     14420     14422
     14418     14417     14420     14423     14419     14417     14420     14421
     14419     14417     14420     14422     14419     14417     14420     14423
     14420     14423     14426     14427     14420     14423     14426     14428
     14420     14423     14426     14429     14421     14420     14423     14424
     14421     14420     14423     14425     14421     14420     14423     14426
     14422     14420     14423     14424     14422     14420     14423     14425
     14422     14420     14423     14426     14423     14426     14429     14430
     14423     14426     14429     14431     14423     14426     14429     14432
     14424     14423     14426     14427     14424     14423     14426     14428
     14424     14423     14426     14429     14425     14423     14426     14427
     14425     14423     14426     14428     14425     14423     14426     14429
     14426     14429     14432     14433     14426     14429     14432     14434
     14426     14429     14432     14435     14427     14426     14429     14430
     14427     14426     14429     14431     14427     14426     14429     14432
     14428     14426     14429     14430     14428     14426     14429     14431
     14428     14426     14429     14432     14429     14432     14435     14436
     14429     14432     14435     14437     14430     14429     14432     14433
     14430     14429     14432     14434     14430     14429     14432     14435
     14431     14429     14432     14433     14431     14429     14432     14434
     14431     14429     14432     14435     14432     14435     14437     14438
     14432     14435     14437     14439     14433     14432     14435     14436
     14433     14432     14435     14437     14434     14432     14435     14436
     14434     14432     14435     14437     14435     14437     14439     14440
     14435     14437     14439     14441     14435     14437     14439     14442
     14436     14435     14437     14438     14436     14435     14437     14439
     14437     14439     14442     14443     14437     14439     14442     14444
     14437     14439     14442     14445     14438     14437     14439     14440
     14438     14437     14439     14441     14438     14437     14439     14442
     14439     14442     14445     14446     14439     14442     14445     14447
     14439     14442     14445     14448     14440     14439     14442     14443
     14440     14439     14442     14444     14440     14439     14442     14445
     14441     14439     14442     14443     14441     14439     14442     14444
     14441     14439     14442     14445     14442     14445     14448     14449
     14442     14445     14448     14450     14442     14445     14448     14451
     14443     14442     14445     14446     14443     14442     14445     14447
     14443     14442     14445     14448     14444     14442     14445     14446
     14444     14442     14445     14447     14444     14442     14445     14448
     14445     14448     14451     14452     14445     14448     14451     14453
     14445     14448     14451     14454     14446     14445     14448     14449
     14446     14445     14448     14450     14446     14445     14448     14451
     14447     14445     14448     14449     14447     14445     14448     14450
     14447     14445     14448     14451     14448     14451     14454     14455
     14448     14451     14454     14456     14448     14451     14454     14457
     14449     14448     14451     14452     14449     14448     14451     14453
     14449     14448     14451     14454     14450     14448     14451     14452
     14450     14448     14451     14453     14450     14448     14451     14454
     14451     14454     14457     14458     14451     14454     14457     14459
     14451     14454     14457     14460     14452     14451     14454     14455
     14452     14451     14454     14456     14452     14451     14454     14457
     14453     14451     14454     14455     14453     14451     14454     14456
     14453     14451     14454     14457     14454     14457     14460     14461
     14454     14457     14460     14462     14454     14457     14460     14463
     14455     14454     14457     14458     14455     14454     14457     14459
     14455     14454     14457     14460     14456     14454     14457     14458
     14456     14454     14457     14459     14456     14454     14457     14460
     14458     14457     14460     14461     14458     14457     14460     14462
     14458     14457     14460     14463     14459     14457     14460     14461
     14459     14457     14460     14462     14459     14457     14460     14463
      6653      6666      6669      6670      6653      6666      6669      6671
      6653      6666      6669      6675      6654      6653      6658      6659
      6654      6653      6658      6660      6654      6653      6658      6661
      6654      6653      6662      6663      6654      6653      6662      6664
      6654      6653      6662      6665      6654      6653      6666      6667
      6654      6653      6666      6668      6654      6653      6666      6669
      6655      6654      6653      6658      6655      6654      6653      6662
      6655      6654      6653      6666      6656      6654      6653      6658
      6656      6654      6653      6662      6656      6654      6653      6666
      6657      6654      6653      6658      6657      6654      6653      6662
      6657      6654      6653      6666      6658      6653      6662      6663
      6658      6653      6662      6664      6658      6653      6662      6665
      6658      6653      6666      6667      6658      6653      6666      6668
      6658      6653      6666      6669      6659      6658      6653      6662
      6659      6658      6653      6666      6660      6658      6653      6662
      6660      6658      6653      6666      6661      6658      6653      6662
      6661      6658      6653      6666      6662      6653      6666      6667
      6662      6653      6666      6668      6662      6653      6666      6669
      6663      6662      6653      6666      6664      6662      6653      6666
      6665      6662      6653      6666      6666      6669      6675      6672
      6667      6666      6669      6670      6667      6666      6669      6671
      6667      6666      6669      6675      6668      6666      6669      6670
      6668      6666      6669      6671      6668      6666      6669      6675
      6669      6675      6672      6673      6669      6675      6672      6674
      6669      6675      6672      6676      6670      6669      6675      6672
      6671      6669      6675      6672      6672      6676      6677      6678
      6672      6676      6677      6679      6672      6676      6677      6680
      6673      6672      6676      6677      6674      6672      6676      6677
      6675      6672      6676      6677      6676      6677      6680      6681
      6676      6677      6680      6682      6676      6677      6680      6688
      6677      6680      6682      6683      6677      6680      6688      6689
      6677      6680      6688      6690      6677      6680      6688      6691
      6678      6677      6680      6681      6678      6677      6680      6682
      6678      6677      6680      6688      6679      6677      6680      6681
      6679      6677      6680      6682      6679      6677      6680      6688
      6680      6682      6683      6684      6680      6682      6683      6685
      6680      6688      6691      6692      6681      6680      6682      6683
      6681      6680      6688      6689      6681      6680      6688      6690
      6681      6680      6688      6691      6682      6680      6688      6689
      6682      6680      6688      6690      6682      6680      6688      6691
      6682      6683      6685      6686      6682      6683      6685      6687
      6682      6683      6685      6697      6683      6682      6680      6688
      6683      6685      6697      6698      6683      6685      6697      6699
      6683      6685      6697      6700      6684      6683      6685      6686
      6684      6683      6685      6687      6684      6683      6685      6697
      6685      6697      6700      6701      6685      6697      6700      6702
      6685      6697      6700      6703      6686      6685      6697      6698
      6686      6685      6697      6699      6686      6685      6697      6700
      6687      6685      6697      6698      6687      6685      6697      6699
      6687      6685      6697      6700      6688      6691      6692      6693
      6688      6691      6692      6694      6689      6688      6691      6692
      6690      6688      6691      6692      6691      6692      6694      6695
      6691      6692      6694      6696      6691      6692      6694      6742
      6692      6694      6742      6743      6692      6694      6742      6744
      6692      6694      6742      6745      6693      6692      6694      6695
      6693      6692      6694      6696      6693      6692      6694      6742
      6694      6742      6745      6746      6694      6742      6745      6747
      6694      6742      6745      6748      6695      6694      6742      6743
      6695      6694      6742      6744      6695      6694      6742      6745
      6696      6694      6742      6743      6696      6694      6742      6744
      6696      6694      6742      6745      6697      6700      6703      6704
      6697      6700      6703      6705      6697      6700      6703      6706
      6698      6697      6700      6701      6698      6697      6700      6702
      6698      6697      6700      6703      6699      6697      6700      6701
      6699      6697      6700      6702      6699      6697      6700      6703
      6700      6703      6706      6707      6700      6703      6706      6708
      6700      6703      6706      6709      6701      6700      6703      6704
      6701      6700      6703      6705      6701      6700      6703      6706
      6702      6700      6703      6704      6702      6700      6703      6705
      6702      6700      6703      6706      6703      6706      6709      6710
      6703      6706      6709      6711      6703      6706      6709      6712
      6704      6703      6706      6707      6704      6703      6706      6708
      6704      6703      6706      6709      6705      6703      6706      6707
      6705      6703      6706      6708      6705      6703      6706      6709
      6706      6709      6712      6713      6706      6709      6712      6714
      6706      6709      6712      6715      6707      6706      6709      6710
      6707      6706      6709      6711      6707      6706      6709      6712
      6708      6706      6709      6710      6708      6706      6709      6711
      6708      6706      6709      6712      6709      6712      6715      6716
      6709      6712      6715      6717      6710      6709      6712      6713
      6710      6709      6712      6714      6710      6709      6712      6715
      6711      6709      6712      6713      6711      6709      6712      6714
      6711      6709      6712      6715      6712      6715      6717      6718
      6712      6715      6717      6719      6713      6712      6715      6716
      6713      6712      6715      6717      6714      6712      6715      6716
      6714      6712      6715      6717      6715      6717      6719      6720
      6715      6717      6719      6721      6715      6717      6719      6722
      6716      6715      6717      6718      6716      6715      6717      6719
      6717      6719      6722      6723      6717      6719      6722      6724
      6718      6717      6719      6720      6718      6717      6719      6721
      6718      6717      6719      6722      6719      6722      6724      6725
      6719      6722      6724      6726      6720      6719      6722      6723
      6720      6719      6722      6724      6721      6719      6722      6723
      6721      6719      6722      6724      6722      6724      6726      6727
      6722      6724      6726      6728      6722      6724      6726      6729
      6723      6722      6724      6725      6723      6722      6724      6726
      6724      6726      6729      6730      6724      6726      6729      6731
      6724      6726      6729      6732      6725      6724      6726      6727
      6725      6724      6726      6728      6725      6724      6726      6729
      6726      6729      6732      6733      6726      6729      6732      6734
      6726      6729      6732      6735      6727      6726      6729      6730
      6727      6726      6729      6731      6727      6726      6729      6732
      6728      6726      6729      6730      6728      6726      6729      6731
      6728      6726      6729      6732      6729      6732      6735      6736
      6729      6732      6735      6737      6729      6732      6735      6738
      6730      6729      6732      6733      6730      6729      6732      6734
      6730      6729      6732      6735      6731      6729      6732      6733
      6731      6729      6732      6734      6731      6729      6732      6735
      6732      6735      6738      6739      6732      6735      6738      6740
      6732      6735      6738      6741      6733      6732      6735      6736
      6733      6732      6735      6737      6733      6732      6735      6738
      6734      6732      6735      6736      6734      6732      6735      6737
      6734      6732      6735      6738      6736      6735      6738      6739
      6736      6735      6738      6740      6736      6735      6738      6741
      6737      6735      6738      6739      6737      6735      6738      6740
      6737      6735      6738      6741      6742      6745      6748      6749
      6742      6745      6748      6750      6742      6745      6748      6751
      6743      6742      6745      6746      6743      6742      6745      6747
      6743      6742      6745      6748      6744      6742      6745      6746
      6744      6742      6745      6747      6744      6742      6745      6748
      6745      6748      6751      6752      6745      6748      6751      6753
      6745      6748      6751      6754      6746      6745      6748      6749
      6746      6745      6748      6750      6746      6745      6748      6751
      6747      6745      6748      6749      6747      6745      6748      6750
      6747      6745      6748      6751      6748      6751      6754      6755
      6748      6751      6754      6756      6748      6751      6754      6757
      6749      6748      6751      6752      6749      6748      6751      6753
      6749      6748      6751      6754      6750      6748      6751      6752
      6750      6748      6751      6753      6750      6748      6751      6754
      6751      6754      6757      6758      6751      6754      6757      6759
      6751      6754      6757      6760      6752      6751      6754      6755
      6752      6751      6754      6756      6752      6751      6754      6757
      6753      6751      6754      6755      6753      6751      6754      6756
      6753      6751      6754      6757      6754      6757      6760      6761
      6754      6757      6760      6762      6754      6757      6760      6763
      6755      6754      6757      6758      6755      6754      6757      6759
      6755      6754      6757      6760      6756      6754      6757      6758
      6756      6754      6757      6759      6756      6754      6757      6760
      6757      6760      6763      6764      6757      6760      6763      6765
      6757      6760      6763      6766      6758      6757      6760      6761
      6758      6757      6760      6762      6758      6757      6760      6763
      6759      6757      6760      6761      6759      6757      6760      6762
      6759      6757      6760      6763      6760      6763      6766      6767
      6760      6763      6766      6768      6760      6763      6766      6769
      6761      6760      6763      6764      6761      6760      6763      6765
      6761      6760      6763      6766      6762      6760      6763      6764
      6762      6760      6763      6765      6762      6760      6763      6766
      6763      6766      6769      6770      6763      6766      6769      6771
      6763      6766      6769      6772      6764      6763      6766      6767
      6764      6763      6766      6768      6764      6763      6766      6769
      6765      6763      6766      6767      6765      6763      6766      6768
      6765      6763      6766      6769      6766      6769      6772      6773
      6766      6769      6772      6774      6766      6769      6772      6775
      6767      6766      6769      6770      6767      6766      6769      6771
      6767      6766      6769      6772      6768      6766      6769      6770
      6768      6766      6769      6771      6768      6766      6769      6772
      6769      6772      6775      6776      6769      6772      6775      6777
      6769      6772      6775      6778      6770      6769      6772      6773
      6770      6769      6772      6774      6770      6769      6772      6775
      6771      6769      6772      6773      6771      6769      6772      6774
      6771      6769      6772      6775      6772      6775      6778      6779
      6772      6775      6778      6780      6772      6775      6778      6781
      6773      6772      6775      6776      6773      6772      6775      6777
      6773      6772      6775      6778      6774      6772      6775      6776
      6774      6772      6775      6777      6774      6772      6775      6778
      6775      6778      6781      6782      6775      6778      6781      6783
      6775      6778      6781      6784      6776      6775      6778      6779
      6776      6775      6778      6780      6776      6775      6778      6781
      6777      6775      6778      6779      6777      6775      6778      6780
      6777      6775      6778      6781      6778      6781      6784      6785
      6778      6781      6784      6786      6778      6781      6784      6787
      6779      6778      6781      6782      6779      6778      6781      6783
      6779      6778      6781      6784      6780      6778      6781      6782
      6780      6778      6781      6783      6780      6778      6781      6784
      6781      6784      6787      6788      6781      6784      6787      6789
      6781      6784      6787      6790      6782      6781      6784      6785
      6782      6781      6784      6786      6782      6781      6784      6787
      6783      6781      6784      6785      6783      6781      6784      6786
      6783      6781      6784      6787      6785      6784      6787      6788
      6785      6784      6787      6789      6785      6784      6787      6790
      6786      6784      6787      6788      6786      6784      6787      6789
      6786      6784      6787      6790     14464     14477     14480     14481
     14464     14477     14480     14482     14464     14477     14480     14487
     14465     14464     14469     14470     14465     14464     14469     14471
     14465     14464     14469     14472     14465     14464     14473     14474
     14465     14464     14473     14475     14465     14464     14473     14476
     14465     14464     14477     14478     14465     14464     14477     14479
     14465     14464     14477     14480     14466     14465     14464     14469
     14466     14465     14464     14473     14466     14465     14464     14477
     14467     14465     14464     14469     14467     14465     14464     14473
     14467     14465     14464     14477     14468     14465     14464     14469
     14468     14465     14464     14473     14468     14465     14464     14477
     14469     14464     14473     14474     14469     14464     14473     14475
     14469     14464     14473     14476     14469     14464     14477     14478
     14469     14464     14477     14479     14469     14464     14477     14480
     14470     14469     14464     14473     14470     14469     14464     14477
     14471     14469     14464     14473     14471     14469     14464     14477
     14472     14469     14464     14473     14472     14469     14464     14477
     14473     14464     14477     14478     14473     14464     14477     14479
     14473     14464     14477     14480     14474     14473     14464     14477
     14475     14473     14464     14477     14476     14473     14464     14477
     14477     14480     14487     14483     14478     14477     14480     14481
     14478     14477     14480     14482     14478     14477     14480     14487
     14479     14477     14480     14481     14479     14477     14480     14482
     14479     14477     14480     14487     14480     14487     14483     14484
     14480     14487     14483     14485     14480     14487     14483     14486
     14481     14480     14487     14483     14482     14480     14487     14483
     14483     14486     14488     14489     14483     14486     14488     14490
     14483     14486     14488     14493     14484     14483     14486     14488
     14485     14483     14486     14488     14486     14488     14493     14491
     14486     14488     14493     14494     14486     14488     14493     14495
     14487     14483     14486     14488     14488     14493     14491     14492
     14488     14493     14491     14543     14488     14493     14495     14496
     14488     14493     14495     14497     14488     14493     14495     14499
     14489     14488     14493     14491     14489     14488     14493     14494
     14489     14488     14493     14495     14490     14488     14493     14491
     14490     14488     14493     14494     14490     14488     14493     14495
     14491     14493     14495     14496     14491     14493     14495     14497
     14491     14493     14495     14499     14491     14543     14545     14546
     14491     14543     14545     14547     14491     14543     14545     14548
     14492     14491     14493     14494     14492     14491     14493     14495
     14492     14491     14543     14544     14492     14491     14543     14545
     14493     14491     14543     14544     14493     14491     14543     14545
     14493     14495     14497     14498     14493     14495     14499     14500
     14493     14495     14499     14501     14494     14493     14491     14543
     14494     14493     14495     14496     14494     14493     14495     14497
     14494     14493     14495     14499     14495     14493     14491     14543
     14495     14499     14501     14502     14495     14499     14501     14503
     14496     14495     14497     14498     14496     14495     14499     14500
     14496     14495     14499     14501     14497     14495     14499     14500
     14497     14495     14499     14501     14498     14497     14495     14499
     14499     14501     14503     14504     14499     14501     14503     14505
     14499     14501     14503     14506     14500     14499     14501     14502
     14500     14499     14501     14503     14501     14503     14506     14507
     14501     14503     14506     14508     14501     14503     14506     14509
     14502     14501     14503     14504     14502     14501     14503     14505
     14502     14501     14503     14506     14503     14506     14509     14510
     14503     14506     14509     14511     14503     14506     14509     14512
     14504     14503     14506     14507     14504     14503     14506     14508
     14504     14503     14506     14509     14505     14503     14506     14507
     14505     14503     14506     14508     14505     14503     14506     14509
     14506     14509     14512     14513     14506     14509     14512     14514
     14506     14509     14512     14515     14507     14506     14509     14510
     14507     14506     14509     14511     14507     14506     14509     14512
     14508     14506     14509     14510     14508     14506     14509     14511
     14508     14506     14509     14512     14509     14512     14515     14516
     14509     14512     14515     14517     14509     14512     14515     14518
     14510     14509     14512     14513     14510     14509     14512     14514
     14510     14509     14512     14515     14511     14509     14512     14513
     14511     14509     14512     14514     14511     14509     14512     14515
     14512     14515     14518     14519     14512     14515     14518     14520
     14512     14515     14518     14521     14513     14512     14515     14516
     14513     14512     14515     14517     14513     14512     14515     14518
     14514     14512     14515     14516     14514     14512     14515     14517
     14514     14512     14515     14518     14515     14518     14521     14522
     14515     14518     14521     14523     14515     14518     14521     14524
     14516     14515     14518     14519     14516     14515     14518     14520
     14516     14515     14518     14521     14517     14515     14518     14519
     14517     14515     14518     14520     14517     14515     14518     14521
     14518     14521     14524     14525     14518     14521     14524     14526
     14518     14521     14524     14527     14519     14518     14521     14522
     14519     14518     14521     14523     14519     14518     14521     14524
     14520     14518     14521     14522     14520     14518     14521     14523
     14520     14518     14521     14524     14521     14524     14527     14528
     14521     14524     14527     14529     14521     14524     14527     14530
     14522     14521     14524     14525     14522     14521     14524     14526
     14522     14521     14524     14527     14523     14521     14524     14525
     14523     14521     14524     14526     14523     14521     14524     14527
     14524     14527     14530     14531     14524     14527     14530     14532
     14524     14527     14530     14533     14525     14524     14527     14528
     14525     14524     14527     14529     14525     14524     14527     14530
     14526     14524     14527     14528     14526     14524     14527     14529
     14526     14524     14527     14530     14527     14530     14533     14534
     14527     14530     14533     14535     14527     14530     14533     14536
     14528     14527     14530     14531     14528     14527     14530     14532
     14528     14527     14530     14533     14529     14527     14530     14531
     14529     14527     14530     14532     14529     14527     14530     14533
     14530     14533     14536     14537     14530     14533     14536     14538
     14530     14533     14536     14539     14531     14530     14533     14534
     14531     14530     14533     14535     14531     14530     14533     14536
     14532     14530     14533     14534     14532     14530     14533     14535
     14532     14530     14533     14536     14533     14536     14539     14540
     14533     14536     14539     14541     14533     14536     14539     14542
     14534     14533     14536     14537     14534     14533     14536     14538
     14534     14533     14536     14539     14535     14533     14536     14537
     14535     14533     14536     14538     14535     14533     14536     14539
     14537     14536     14539     14540     14537     14536     14539     14541
     14537     14536     14539     14542     14538     14536     14539     14540
     14538     14536     14539     14541     14538     14536     14539     14542
     14543     14545     14548     14549     14543     14545     14548     14550
     14543     14545     14548     14551     14544     14543     14545     14546
     14544     14543     14545     14547     14544     14543     14545     14548
     14545     14548     14551     14552     14545     14548     14551     14553
     14545     14548     14551     14554     14546     14545     14548     14549
     14546     14545     14548     14550     14546     14545     14548     14551
     14547     14545     14548     14549     14547     14545     14548     14550
     14547     14545     14548     14551     14548     14551     14554     14555
     14548     14551     14554     14556     14548     14551     14554     14557
     14549     14548     14551     14552     14549     14548     14551     14553
     14549     14548     14551     14554     14550     14548     14551     14552
     14550     14548     14551     14553     14550     14548     14551     14554
     14551     14554     14557     14558     14551     14554     14557     14559
     14551     14554     14557     14560     14552     14551     14554     14555
     14552     14551     14554     14556     14552     14551     14554     14557
     14553     14551     14554     14555     14553     14551     14554     14556
     14553     14551     14554     14557     14554     14557     14560     14561
     14554     14557     14560     14562     14554     14557     14560     14563
     14555     14554     14557     14558     14555     14554     14557     14559
     14555     14554     14557     14560     14556     14554     14557     14558
     14556     14554     14557     14559     14556     14554     14557     14560
     14557     14560     14563     14564     14557     14560     14563     14565
     14557     14560     14563     14566     14558     14557     14560     14561
     14558     14557     14560     14562     14558     14557     14560     14563
     14559     14557     14560     14561     14559     14557     14560     14562
     14559     14557     14560     14563     14560     14563     14566     14567
     14560     14563     14566     14568     14561     14560     14563     14564
     14561     14560     14563     14565     14561     14560     14563     14566
     14562     14560     14563     14564     14562     14560     14563     14565
     14562     14560     14563     14566     14563     14566     14568     14569
     14563     14566     14568     14570     14564     14563     14566     14567
     14564     14563     14566     14568     14565     14563     14566     14567
     14565     14563     14566     14568     14566     14568     14570     14571
     14566     14568     14570     14572     14566     14568     14570     14573
     14567     14566     14568     14569     14567     14566     14568     14570
     14568     14570     14573     14574     14568     14570     14573     14575
     14568     14570     14573     14576     14569     14568     14570     14571
     14569     14568     14570     14572     14569     14568     14570     14573
     14570     14573     14576     14577     14570     14573     14576     14578
     14570     14573     14576     14579     14571     14570     14573     14574
     14571     14570     14573     14575     14571     14570     14573     14576
     14572     14570     14573     14574     14572     14570     14573     14575
     14572     14570     14573     14576     14573     14576     14579     14580
     14573     14576     14579     14581     14573     14576     14579     14582
     14574     14573     14576     14577     14574     14573     14576     14578
     14574     14573     14576     14579     14575     14573     14576     14577
     14575     14573     14576     14578     14575     14573     14576     14579
     14576     14579     14582     14583     14576     14579     14582     14584
     14576     14579     14582     14585     14577     14576     14579     14580
     14577     14576     14579     14581     14577     14576     14579     14582
     14578     14576     14579     14580     14578     14576     14579     14581
     14578     14576     14579     14582     14579     14582     14585     14586
     14579     14582     14585     14587     14579     14582     14585     14588
     14580     14579     14582     14583     14580     14579     14582     14584
     14580     14579     14582     14585     14581     14579     14582     14583
     14581     14579     14582     14584     14581     14579     14582     14585
     14582     14585     14588     14589     14582     14585     14588     14590
     14582     14585     14588     14591     14583     14582     14585     14586
     14583     14582     14585     14587     14583     14582     14585     14588
     14584     14582     14585     14586     14584     14582     14585     14587
     14584     14582     14585     14588     14585     14588     14591     14592
     14585     14588     14591     14593     14585     14588     14591     14594
     14586     14585     14588     14589     14586     14585     14588     14590
     14586     14585     14588     14591     14587     14585     14588     14589
     14587     14585     14588     14590     14587     14585     14588     14591
     14589     14588     14591     14592     14589     14588     14591     14593
     14589     14588     14591     14594     14590     14588     14591     14592
     14590     14588     14591     14593     14590     14588     14591     14594
      5125      5126      5141      5142      5125      5126      5141      5143
      5125      5126      5141      5147      5126      5125      5129      5130
      5126      5125      5129      5131      5126      5125      5129      5132
      5126      5125      5133      5134      5126      5125      5133      5135
      5126      5125      5133      5136      5126      5125      5137      5138
      5126      5125      5137      5139      5126      5125      5137      5140
      5126      5141      5147      5144      5127      5126      5125      5129
      5127      5126      5125      5133      5127      5126      5125      5137
      5127      5126      5141      5142      5127      5126      5141      5143
      5127      5126      5141      5147      5128      5126      5125      5129
      5128      5126      5125      5133      5128      5126      5125      5137
      5128      5126      5141      5142      5128      5126      5141      5143
      5128      5126      5141      5147      5129      5125      5126      5141
      5129      5125      5133      5134      5129      5125      5133      5135
      5129      5125      5133      5136      5129      5125      5137      5138
      5129      5125      5137      5139      5129      5125      5137      5140
      5130      5129      5125      5133      5130      5129      5125      5137
      5131      5129      5125      5133      5131      5129      5125      5137
      5132      5129      5125      5133      5132      5129      5125      5137
      5133      5125      5126      5141      5133      5125      5137      5138
      5133      5125      5137      5139      5133      5125      5137      5140
      5134      5133      5125      5137      5135      5133      5125      5137
      5136      5133      5125      5137      5137      5125      5126      5141
      5141      5147      5144      5145      5141      5147      5144      5146
      5141      5147      5144      5148      5142      5141      5147      5144
      5143      5141      5147      5144      5144      5148      5149      5150
      5144      5148      5149      5151      5144      5148      5149      5152
      5145      5144      5148      5149      5146      5144      5148      5149
      5147      5144      5148      5149      5148      5149      5152      5153
      5148      5149      5152      5154      5148      5149      5152      5160
      5149      5152      5154      5155      5149      5152      5160      5161
      5149      5152      5160      5162      5149      5152      5160      5163
      5150      5149      5152      5153      5150      5149      5152      5154
      5150      5149      5152      5160      5151      5149      5152      5153
      5151      5149      5152      5154      5151      5149      5152      5160
      5152      5154      5155      5156      5152      5154      5155      5157
      5152      5160      5163      5164      5153      5152      5154      5155
      5153      5152      5160      5161      5153      5152      5160      5162
      5153      5152      5160      5163      5154      5152      5160      5161
      5154      5152      5160      5162      5154      5152      5160      5163
      5154      5155      5157      5158      5154      5155      5157      5159
      5154      5155      5157      5169      5155      5154      5152      5160
      5155      5157      5169      5170      5155      5157      5169      5171
      5155      5157      5169      5172      5156      5155      5157      5158
      5156      5155      5157      5159      5156      5155      5157      5169
      5157      5169      5172      5173      5157      5169      5172      5174
      5157      5169      5172      5175      5158      5157      5169      5170
      5158      5157      5169      5171      5158      5157      5169      5172
      5159      5157      5169      5170      5159      5157      5169      5171
      5159      5157      5169      5172      5160      5163      5164      5165
      5160      5163      5164      5166      5161      5160      5163      5164
      5162      5160      5163      5164      5163      5164      5166      5167
      5163      5164      5166      5168      5163      5164      5166      5216
      5164      5166      5216      5217      5164      5166      5216      5218
      5164      5166      5216      5219      5165      5164      5166      5167
      5165      5164      5166      5168      5165      5164      5166      5216
      5166      5216      5219      5220      5166      5216      5219      5221
      5166      5216      5219      5222      5167      5166      5216      5217
      5167      5166      5216      5218      5167      5166      5216      5219
      5168      5166      5216      5217      5168      5166      5216      5218
      5168      5166      5216      5219      5169      5172      5175      5176
      5169      5172      5175      5177      5170      5169      5172      5173
      5170      5169      5172      5174      5170      5169      5172      5175
      5171      5169      5172      5173      5171      5169      5172      5174
      5171      5169      5172      5175      5172      5175      5177      5178
      5172      5175      5177      5179      5173      5172      5175      5176
      5173      5172      5175      5177      5174      5172      5175      5176
      5174      5172      5175      5177      5175      5177      5179      5180
      5175      5177      5179      5181      5175      5177      5179      5182
      5176      5175      5177      5178      5176      5175      5177      5179
      5177      5179      5182      5183      5177      5179      5182      5184
      5178      5177      5179      5180      5178      5177      5179      5181
      5178      5177      5179      5182      5179      5182      5184      5185
      5179      5182      5184      5186      5180      5179      5182      5183
      5180      5179      5182      5184      5181      5179      5182      5183
      5181      5179      5182      5184      5182      5184      5186      5187
      5182      5184      5186      5188      5182      5184      5186      5189
      5183      5182      5184      5185      5183      5182      5184      5186
      5184      5186      5189      5190      5184      5186      5189      5191
      5185      5184      5186      5187      5185      5184      5186      5188
      5185      5184      5186      5189      5186      5189      5191      5192
      5186      5189      5191      5193      5187      5186      5189      5190
      5187      5186      5189      5191      5188      5186      5189      5190
      5188      5186      5189      5191      5189      5191      5193      5194
      5189      5191      5193      5195      5189      5191      5193      5196
      5190      5189      5191      5192      5190      5189      5191      5193
      5191      5193      5196      5197      5191      5193      5196      5198
      5192      5191      5193      5194      5192      5191      5193      5195
      5192      5191      5193      5196      5193      5196      5198      5199
      5193      5196      5198      5200      5194      5193      5196      5197
      5194      5193      5196      5198      5195      5193      5196      5197
      5195      5193      5196      5198      5196      5198      5200      5201
      5196      5198      5200      5202      5196      5198      5200      5203
      5197      5196      5198      5199      5197      5196      5198      5200
      5198      5200      5203      5204      5198      5200      5203      5205
      5198      5200      5203      5206      5199      5198      5200      5201
      5199      5198      5200      5202      5199      5198      5200      5203
      5200      5203      5206      5207      5200      5203      5206      5208
      5200      5203      5206      5209      5201      5200      5203      5204
      5201      5200      5203      5205      5201      5200      5203      5206
      5202      5200      5203      5204      5202      5200      5203      5205
      5202      5200      5203      5206      5203      5206      5209      5210
      5203      5206      5209      5211      5203      5206      5209      5212
      5204      5203      5206      5207      5204      5203      5206      5208
      5204      5203      5206      5209      5205      5203      5206      5207
      5205      5203      5206      5208      5205      5203      5206      5209
      5206      5209      5212      5213      5206      5209      5212      5214
      5206      5209      5212      5215      5207      5206      5209      5210
      5207      5206      5209      5211      5207      5206      5209      5212
      5208      5206      5209      5210      5208      5206      5209      5211
      5208      5206      5209      5212      5210      5209      5212      5213
      5210      5209      5212      5214      5210      5209      5212      5215
      5211      5209      5212      5213      5211      5209      5212      5214
      5211      5209      5212      5215      5216      5219      5222      5223
      5216      5219      5222      5224      5216      5219      5222      5225
      5217      5216      5219      5220      5217      5216      5219      5221
      5217      5216      5219      5222      5218      5216      5219      5220
      5218      5216      5219      5221      5218      5216      5219      5222
      5219      5222      5225      5226      5219      5222      5225      5227
      5219      5222      5225      5228      5220      5219      5222      5223
      5220      5219      5222      5224      5220      5219      5222      5225
      5221      5219      5222      5223      5221      5219      5222      5224
      5221      5219      5222      5225      5222      5225      5228      5229
      5222      5225      5228      5230      5222      5225      5228      5231
      5223      5222      5225      5226      5223      5222      5225      5227
      5223      5222      5225      5228      5224      5222      5225      5226
      5224      5222      5225      5227      5224      5222      5225      5228
      5225      5228      5231      5232      5225      5228      5231      5233
      5225      5228      5231      5234      5226      5225      5228      5229
      5226      5225      5228      5230      5226      5225      5228      5231
      5227      5225      5228      5229      5227      5225      5228      5230
      5227      5225      5228      5231      5228      5231      5234      5235
      5228      5231      5234      5236      5228      5231      5234      5237
      5229      5228      5231      5232      5229      5228      5231      5233
      5229      5228      5231      5234      5230      5228      5231      5232
      5230      5228      5231      5233      5230      5228      5231      5234
      5231      5234      5237      5238      5231      5234      5237      5239
      5231      5234      5237      5240      5232      5231      5234      5235
      5232      5231      5234      5236      5232      5231      5234      5237
      5233      5231      5234      5235      5233      5231      5234      5236
      5233      5231      5234      5237      5234      5237      5240      5241
      5234      5237      5240      5242      5234      5237      5240      5243
      5235      5234      5237      5238      5235      5234      5237      5239
      5235      5234      5237      5240      5236      5234      5237      5238
      5236      5234      5237      5239      5236      5234      5237      5240
      5237      5240      5243      5244      5237      5240      5243      5245
      5237      5240      5243      5246      5238      5237      5240      5241
      5238      5237      5240      5242      5238      5237      5240      5243
      5239      5237      5240      5241      5239      5237      5240      5242
      5239      5237      5240      5243      5240      5243      5246      5247
      5240      5243      5246      5248      5240      5243      5246      5249
      5241      5240      5243      5244      5241      5240      5243      5245
      5241      5240      5243      5246      5242      5240      5243      5244
      5242      5240      5243      5245      5242      5240      5243      5246
      5243      5246      5249      5250      5243      5246      5249      5251
      5243      5246      5249      5252      5244      5243      5246      5247
      5244      5243      5246      5248      5244      5243      5246      5249
      5245      5243      5246      5247      5245      5243      5246      5248
      5245      5243      5246      5249      5246      5249      5252      5253
      5246      5249      5252      5254      5246      5249      5252      5255
      5247      5246      5249      5250      5247      5246      5249      5251
      5247      5246      5249      5252      5248      5246      5249      5250
      5248      5246      5249      5251      5248      5246      5249      5252
      5249      5252      5255      5256      5249      5252      5255      5257
      5249      5252      5255      5258      5250      5249      5252      5253
      5250      5249      5252      5254      5250      5249      5252      5255
      5251      5249      5252      5253      5251      5249      5252      5254
      5251      5249      5252      5255      5252      5255      5258      5259
      5252      5255      5258      5260      5252      5255      5258      5261
      5253      5252      5255      5256      5253      5252      5255      5257
      5253      5252      5255      5258      5254      5252      5255      5256
      5254      5252      5255      5257      5254      5252      5255      5258
      5255      5258      5261      5262      5255      5258      5261      5263
      5255      5258      5261      5264      5256      5255      5258      5259
      5256      5255      5258      5260      5256      5255      5258      5261
      5257      5255      5258      5259      5257      5255      5258      5260
      5257      5255      5258      5261      5259      5258      5261      5262
      5259      5258      5261      5263      5259      5258      5261      5264
      5260      5258      5261      5262      5260      5258      5261      5263
      5260      5258      5261      5264      9476      9480      9482      9483
      9476      9480      9482      9484      9476      9480      9485      9486
      9476      9480      9485      9487      9476      9480      9485      9491
      9477      9476      9480      9481      9477      9476      9480      9482
      9477      9476      9480      9485      9478      9476      9480      9481
      9478      9476      9480      9482      9478      9476      9480      9485
      9479      9476      9480      9481      9479      9476      9480      9482
      9479      9476      9480      9485      9480      9485      9491      9488
      9481      9480      9482      9483      9481      9480      9482      9484
      9481      9480      9485      9486      9481      9480      9485      9487
      9481      9480      9485      9491      9482      9480      9485      9486
      9482      9480      9485      9487      9482      9480      9485      9491
      9483      9482      9480      9485      9484      9482      9480      9485
      9485      9491      9488      9489      9485      9491      9488      9490
      9485      9491      9488      9492      9486      9485      9491      9488
      9487      9485      9491      9488      9488      9492      9493      9494
      9488      9492      9493      9495      9488      9492      9493      9496
      9489      9488      9492      9493      9490      9488      9492      9493
      9491      9488      9492      9493      9492      9493      9496      9497
      9492      9493      9496      9498      9492      9493      9496      9504
      9493      9496      9498      9499      9493      9496      9504      9505
      9493      9496      9504      9506      9493      9496      9504      9507
      9494      9493      9496      9497      9494      9493      9496      9498
      9494      9493      9496      9504      9495      9493      9496      9497
      9495      9493      9496      9498      9495      9493      9496      9504
      9496      9498      9499      9500      9496      9498      9499      9501
      9496      9504      9507      9508      9497      9496      9498      9499
      9497      9496      9504      9505      9497      9496      9504      9506
      9497      9496      9504      9507      9498      9496      9504      9505
      9498      9496      9504      9506      9498      9496      9504      9507
      9498      9499      9501      9502      9498      9499      9501      9503
      9498      9499      9501      9513      9499      9498      9496      9504
      9499      9501      9513      9514      9499      9501      9513      9515
      9499      9501      9513      9516      9500      9499      9501      9502
      9500      9499      9501      9503      9500      9499      9501      9513
      9501      9513      9516      9517      9501      9513      9516      9518
      9501      9513      9516      9519      9502      9501      9513      9514
      9502      9501      9513      9515      9502      9501      9513      9516
      9503      9501      9513      9514      9503      9501      9513      9515
      9503      9501      9513      9516      9504      9507      9508      9509
      9504      9507      9508      9510      9505      9504      9507      9508
      9506      9504      9507      9508      9507      9508      9510      9511
      9507      9508      9510      9512      9507      9508      9510      9560
      9508      9510      9560      9561      9508      9510      9560      9562
      9508      9510      9560      9563      9509      9508      9510      9511
      9509      9508      9510      9512      9509      9508      9510      9560
      9510      9560      9563      9564      9510      9560      9563      9565
      9510      9560      9563      9566      9511      9510      9560      9561
      9511      9510      9560      9562      9511      9510      9560      9563
      9512      9510      9560      9561      9512      9510      9560      9562
      9512      9510      9560      9563      9513      9516      9519      9520
      9513      9516      9519      9521      9514      9513      9516      9517
      9514      9513      9516      9518      9514      9513      9516      9519
      9515      9513      9516      9517      9515      9513      9516      9518
      9515      9513      9516      9519      9516      9519      9521      9522
      9516      9519      9521      9523      9517      9516      9519      9520
      9517      9516      9519      9521      9518      9516      9519      9520
      9518      9516      9519      9521      9519      9521      9523      9524
      9519      9521      9523      9525      9519      9521      9523      9526
      9520      9519      9521      9522      9520      9519      9521      9523
      9521      9523      9526      9527      9521      9523      9526      9528
      9522      9521      9523      9524      9522      9521      9523      9525
      9522      9521      9523      9526      9523      9526      9528      9529
      9523      9526      9528      9530      9524      9523      9526      9527
      9524      9523      9526      9528      9525      9523      9526      9527
      9525      9523      9526      9528      9526      9528      9530      9531
      9526      9528      9530      9532      9526      9528      9530      9533
      9527      9526      9528      9529      9527      9526      9528      9530
      9528      9530      9533      9534      9528      9530      9533      9535
      9529      9528      9530      9531      9529      9528      9530      9532
      9529      9528      9530      9533      9530      9533      9535      9536
      9530      9533      9535      9537      9531      9530      9533      9534
      9531      9530      9533      9535      9532      9530      9533      9534
      9532      9530      9533      9535      9533      9535      9537      9538
      9533      9535      9537      9539      9533      9535      9537      9540
      9534      9533      9535      9536      9534      9533      9535      9537
      9535      9537      9540      9541      9535      9537      9540      9542
      9536      9535      9537      9538      9536      9535      9537      9539
      9536      9535      9537      9540      9537      9540      9542      9543
      9537      9540      9542      9544      9538      9537      9540      9541
      9538      9537      9540      9542      9539      9537      9540      9541
      9539      9537      9540      9542      9540      9542      9544      9545
      9540      9542      9544      9546      9540      9542      9544      9547
      9541      9540      9542      9543      9541      9540      9542      9544
      9542      9544      9547      9548      9542      9544      9547      9549
      9542      9544      9547      9550      9543      9542      9544      9545
      9543      9542      9544      9546      9543      9542      9544      9547
      9544      9547      9550      9551      9544      9547      9550      9552
      9544      9547      9550      9553      9545      9544      9547      9548
      9545      9544      9547      9549      9545      9544      9547      9550
      9546      9544      9547      9548      9546      9544      9547      9549
      9546      9544      9547      9550      9547      9550      9553      9554
      9547      9550      9553      9555      9547      9550      9553      9556
      9548      9547      9550      9551      9548      9547      9550      9552
      9548      9547      9550      9553      9549      9547      9550      9551
      9549      9547      9550      9552      9549      9547      9550      9553
      9550      9553      9556      9557      9550      9553      9556      9558
      9550      9553      9556      9559      9551      9550      9553      9554
      9551      9550      9553      9555      9551      9550      9553      9556
      9552      9550      9553      9554      9552      9550      9553      9555
      9552      9550      9553      9556      9554      9553      9556      9557
      9554      9553      9556      9558      9554      9553      9556      9559
      9555      9553      9556      9557      9555      9553      9556      9558
      9555      9553      9556      9559      9560      9563      9566      9567
      9560      9563      9566      9568      9560      9563      9566      9569
      9561      9560      9563      9564      9561      9560      9563      9565
      9561      9560      9563      9566      9562      9560      9563      9564
      9562      9560      9563      9565      9562      9560      9563      9566
      9563      9566      9569      9570      9563      9566      9569      9571
      9563      9566      9569      9572      9564      9563      9566      9567
      9564      9563      9566      9568      9564      9563      9566      9569
      9565      9563      9566      9567      9565      9563      9566      9568
      9565      9563      9566      9569      9566      9569      9572      9573
      9566      9569      9572      9574      9566      9569      9572      9575
      9567      9566      9569      9570      9567      9566      9569      9571
      9567      9566      9569      9572      9568      9566      9569      9570
      9568      9566      9569      9571      9568      9566      9569      9572
      9569      9572      9575      9576      9569      9572      9575      9577
      9569      9572      9575      9578      9570      9569      9572      9573
      9570      9569      9572      9574      9570      9569      9572      9575
      9571      9569      9572      9573      9571      9569      9572      9574
      9571      9569      9572      9575      9572      9575      9578      9579
      9572      9575      9578      9580      9572      9575      9578      9581
      9573      9572      9575      9576      9573      9572      9575      9577
      9573      9572      9575      9578      9574      9572      9575      9576
      9574      9572      9575      9577      9574      9572      9575      9578
      9575      9578      9581      9582      9575      9578      9581      9583
      9575      9578      9581      9584      9576      9575      9578      9579
      9576      9575      9578      9580      9576      9575      9578      9581
      9577      9575      9578      9579      9577      9575      9578      9580
      9577      9575      9578      9581      9578      9581      9584      9585
      9578      9581      9584      9586      9578      9581      9584      9587
      9579      9578      9581      9582      9579      9578      9581      9583
      9579      9578      9581      9584      9580      9578      9581      9582
      9580      9578      9581      9583      9580      9578      9581      9584
      9581      9584      9587      9588      9581      9584      9587      9589
      9581      9584      9587      9590      9582      9581      9584      9585
      9582      9581      9584      9586      9582      9581      9584      9587
      9583      9581      9584      9585      9583      9581      9584      9586
      9583      9581      9584      9587      9584      9587      9590      9591
      9584      9587      9590      9592      9584      9587      9590      9593
      9585      9584      9587      9588      9585      9584      9587      9589
      9585      9584      9587      9590      9586      9584      9587      9588
      9586      9584      9587      9589      9586      9584      9587      9590
      9587      9590      9593      9594      9587      9590      9593      9595
      9587      9590      9593      9596      9588      9587      9590      9591
      9588      9587      9590      9592      9588      9587      9590      9593
      9589      9587      9590      9591      9589      9587      9590      9592
      9589      9587      9590      9593      9590      9593      9596      9597
      9590      9593      9596      9598      9590      9593      9596      9599
      9591      9590      9593      9594      9591      9590      9593      9595
      9591      9590      9593      9596      9592      9590      9593      9594
      9592      9590      9593      9595      9592      9590      9593      9596
      9593      9596      9599      9600      9593      9596      9599      9601
      9593      9596      9599      9602      9594      9593      9596      9597
      9594      9593      9596      9598      9594      9593      9596      9599
      9595      9593      9596      9597      9595      9593      9596      9598
      9595      9593      9596      9599      9596      9599      9602      9603
      9596      9599      9602      9604      9596      9599      9602      9605
      9597      9596      9599      9600      9597      9596      9599      9601
      9597      9596      9599      9602      9598      9596      9599      9600
      9598      9596      9599      9601      9598      9596      9599      9602
      9599      9602      9605      9606      9599      9602      9605      9607
      9599      9602      9605      9608      9600      9599      9602      9603
      9600      9599      9602      9604      9600      9599      9602      9605
      9601      9599      9602      9603      9601      9599      9602      9604
      9601      9599      9602      9605      9603      9602      9605      9606
      9603      9602      9605      9607      9603      9602      9605      9608
      9604      9602      9605      9606      9604      9602      9605      9607
      9604      9602      9605      9608      3035      3039      3042      3043
      3035      3039      3042      3073      3035      3081      3078      3073
      3035      3081      3078      3079      3035      3081      3078      3080
      3036      3035      3037      3038      3036      3035      3039      3040
      3036      3035      3039      3041      3036      3035      3039      3042
      3036      3035      3081      3078      3036      3035      3081      3082
      3036      3035      3081      3083      3037      3035      3039      3040
      3037      3035      3039      3041      3037      3035      3039      3042
      3037      3035      3081      3078      3037      3035      3081      3082
      3037      3035      3081      3083      3038      3037      3035      3039
      3038      3037      3035      3081      3039      3035      3081      3078
      3039      3035      3081      3082      3039      3035      3081      3083
      3039      3042      3043      3044      3039      3042      3043      3045
      3039      3042      3073      3071      3039      3042      3073      3074
      3039      3042      3073      3078      3040      3039      3035      3081
      3040      3039      3042      3043      3040      3039      3042      3073
      3041      3039      3035      3081      3041      3039      3042      3043
      3041      3039      3042      3073      3042      3039      3035      3081
      3042      3043      3045      3046      3042      3043      3045      3047
      3042      3043      3045      3048      3042      3073      3071      3048
      3042      3073      3071      3068      3042      3073      3071      3072
      3042      3073      3074      3075      3042      3073      3074      3076
      3042      3073      3074      3077      3042      3073      3078      3079
      3042      3073      3078      3080      3042      3073      3078      3081
      3043      3042      3073      3071      3043      3042      3073      3074
      3043      3042      3073      3078      3043      3045      3048      3049
      3043      3045      3048      3050      3043      3045      3048      3071
      3044      3043      3042      3073      3044      3043      3045      3046
      3044      3043      3045      3047      3044      3043      3045      3048
      3045      3043      3042      3073      3045      3048      3050      3051
      3045      3048      3050      3052      3045      3048      3050      3060
      3045      3048      3071      3068      3045      3048      3071      3072
      3045      3048      3071      3073      3046      3045      3048      3049
      3046      3045      3048      3050      3046      3045      3048      3071
      3047      3045      3048      3049      3047      3045      3048      3050
      3047      3045      3048      3071      3048      3050      3052      3053
      3048      3050      3052      3054      3048      3050      3052      3055
      3048      3050      3060      3058      3048      3050      3060      3061
      3048      3050      3060      3065      3048      3071      3068      3065
      3048      3071      3068      3069      3048      3071      3068      3070
      3048      3071      3073      3074      3048      3071      3073      3078
      3049      3048      3050      3051      3049      3048      3050      3052
      3049      3048      3050      3060      3049      3048      3071      3068
      3049      3048      3071      3072      3049      3048      3071      3073
      3050      3048      3071      3068      3050      3048      3071      3072
      3050      3048      3071      3073      3050      3052      3055      3056
      3050      3052      3055      3057      3050      3052      3055      3058
      3050      3060      3058      3055      3050      3060      3058      3059
      3050      3060      3058      3084      3050      3060      3061      3062
      3050      3060      3061      3063      3050      3060      3061      3064
      3050      3060      3065      3066      3050      3060      3065      3067
      3050      3060      3065      3068      3051      3050      3048      3071
      3051      3050      3052      3053      3051      3050      3052      3054
      3051      3050      3052      3055      3051      3050      3060      3058
      3051      3050      3060      3061      3051      3050      3060      3065
      3052      3050      3048      3071      3052      3050      3060      3058
      3052      3050      3060      3061      3052      3050      3060      3065
      3052      3055      3058      3059      3052      3055      3058      3060
      3052      3055      3058      3084      3053      3052      3050      3060
      3053      3052      3055      3056      3053      3052      3055      3057
      3053      3052      3055      3058      3054      3052      3050      3060
      3054      3052      3055      3056      3054      3052      3055      3057
      3054      3052      3055      3058      3055      3052      3050      3060
      3055      3058      3060      3061      3055      3058      3060      3065
      3055      3058      3084      3085      3055      3058      3084      3086
      3055      3058      3084      3090      3056      3055      3058      3059
      3056      3055      3058      3060      3056      3055      3058      3084
      3057      3055      3058      3059      3057      3055      3058      3060
      3057      3055      3058      3084      3058      3060      3061      3062
      3058      3060      3061      3063      3058      3060      3061      3064
      3058      3060      3065      3066      3058      3060      3065      3067
      3058      3060      3065      3068      3058      3084      3086      3087
      3058      3084      3086      3088      3058      3084      3086      3089
      3058      3084      3090      3091      3058      3084      3090      3092
      3058      3084      3090      3093      3059      3058      3060      3061
      3059      3058      3060      3065      3059      3058      3084      3085
      3059      3058      3084      3086      3059      3058      3084      3090
      3060      3050      3048      3071      3060      3058      3084      3085
      3060      3058      3084      3086      3060      3058      3084      3090
      3060      3065      3068      3069      3060      3065      3068      3070
      3060      3065      3068      3071      3061      3060      3058      3084
      3061      3060      3065      3066      3061      3060      3065      3067
      3061      3060      3065      3068      3062      3061      3060      3065
      3063      3061      3060      3065      3064      3061      3060      3065
      3065      3060      3058      3084      3065      3068      3071      3072
      3065      3068      3071      3073      3066      3065      3068      3069
      3066      3065      3068      3070      3066      3065      3068      3071
      3067      3065      3068      3069      3067      3065      3068      3070
      3067      3065      3068      3071      3068      3071      3073      3074
      3068      3071      3073      3078      3069      3068      3071      3072
      3069      3068      3071      3073      3070      3068      3071      3072
      3070      3068      3071      3073      3071      3073      3074      3075
      3071      3073      3074      3076      3071      3073      3074      3077
      3071      3073      3078      3079      3071      3073      3078      3080
      3071      3073      3078      3081      3072      3071      3073      3074
      3072      3071      3073      3078      3073      3078      3081      3082
      3073      3078      3081      3083      3074      3073      3078      3079
      3074      3073      3078      3080      3074      3073      3078      3081
      3075      3074      3073      3078      3076      3074      3073      3078
      3077      3074      3073      3078      3079      3078      3081      3082
      3079      3078      3081      3083      3080      3078      3081      3082
      3080      3078      3081      3083      3084      3090      3093      3094
      3084      3090      3093      3095      3084      3090      3093      3096
      3085      3084      3086      3087      3085      3084      3086      3088
      3085      3084      3086      3089      3085      3084      3090      3091
      3085      3084      3090      3092      3085      3084      3090      3093
      3086      3084      3090      3091      3086      3084      3090      3092
      3086      3084      3090      3093      3087      3086      3084      3090
      3088      3086      3084      3090      3089      3086      3084      3090
      3090      3093      3096      3097      3090      3093      3096      3098
      3090      3093      3096      3099      3091      3090      3093      3094
      3091      3090      3093      3095      3091      3090      3093      3096
      3092      3090      3093      3094      3092      3090      3093      3095
      3092      3090      3093      3096      3093      3096      3099      3100
      3093      3096      3099      3101      3093      3096      3099      3105
      3094      3093      3096      3097      3094      3093      3096      3098
      3094      3093      3096      3099      3095      3093      3096      3097
      3095      3093      3096      3098      3095      3093      3096      3099
      3096      3099      3101      3102      3096      3099      3101      3103
      3096      3099      3101      3104      3096      3099      3105      3106
      3096      3099      3105      3107      3096      3099      3105      3108
      3097      3096      3099      3100      3097      3096      3099      3101
      3097      3096      3099      3105      3098      3096      3099      3100
      3098      3096      3099      3101      3098      3096      3099      3105
      3100      3099      3101      3102      3100      3099      3101      3103
      3100      3099      3101      3104      3100      3099      3105      3106
      3100      3099      3105      3107      3100      3099      3105      3108
      3101      3099      3105      3106      3101      3099      3105      3107
      3101      3099      3105      3108      3102      3101      3099      3105
      3103      3101      3099      3105      3104      3101      3099      3105
     20490     20494     20497     20498     20490     20494     20497     20499
     20490     20494     20497     20503     20491     20490     20494     20495
     20491     20490     20494     20496     20491     20490     20494     20497
     20492     20490     20494     20495     20492     20490     20494     20496
     20492     20490     20494     20497     20493     20490     20494     20495
     20493     20490     20494     20496     20493     20490     20494     20497
     20494     20497     20503     20500     20495     20494     20497     20498
     20495     20494     20497     20499     20495     20494     20497     20503
     20496     20494     20497     20498     20496     20494     20497     20499
     20496     20494     20497     20503     20497     20503     20500     20501
     20497     20503     20500     20502     20497     20503     20500     20504
     20498     20497     20503     20500     20499     20497     20503     20500
     20500     20504     20505     20506     20500     20504     20505     20507
     20500     20504     20505     20508     20501     20500     20504     20505
     20502     20500     20504     20505     20503     20500     20504     20505
     20504     20505     20508     20509     20504     20505     20508     20510
     20504     20505     20508     20516     20505     20508     20510     20511
     20505     20508     20516     20517     20505     20508     20516     20518
     20505     20508     20516     20519     20506     20505     20508     20509
     20506     20505     20508     20510     20506     20505     20508     20516
     20507     20505     20508     20509     20507     20505     20508     20510
     20507     20505     20508     20516     20508     20510     20511     20512
     20508     20510     20511     20513     20508     20516     20519     20520
     20509     20508     20510     20511     20509     20508     20516     20517
     20509     20508     20516     20518     20509     20508     20516     20519
     20510     20508     20516     20517     20510     20508     20516     20518
     20510     20508     20516     20519     20510     20511     20513     20514
     20510     20511     20513     20515     20510     20511     20513     20525
     20511     20510     20508     20516     20511     20513     20525     20526
     20511     20513     20525     20527     20511     20513     20525     20528
     20512     20511     20513     20514     20512     20511     20513     20515
     20512     20511     20513     20525     20513     20525     20528     20529
     20513     20525     20528     20530     20513     20525     20528     20531
     20514     20513     20525     20526     20514     20513     20525     20527
     20514     20513     20525     20528     20515     20513     20525     20526
     20515     20513     20525     20527     20515     20513     20525     20528
     20516     20519     20520     20521     20516     20519     20520     20522
     20517     20516     20519     20520     20518     20516     20519     20520
     20519     20520     20522     20523     20519     20520     20522     20524
     20519     20520     20522     20572     20520     20522     20572     20573
     20520     20522     20572     20574     20520     20522     20572     20575
     20521     20520     20522     20523     20521     20520     20522     20524
     20521     20520     20522     20572     20522     20572     20575     20576
     20522     20572     20575     20577     20522     20572     20575     20578
     20523     20522     20572     20573     20523     20522     20572     20574
     20523     20522     20572     20575     20524     20522     20572     20573
     20524     20522     20572     20574     20524     20522     20572     20575
     20525     20528     20531     20532     20525     20528     20531     20533
     20525     20528     20531     20534     20526     20525     20528     20529
     20526     20525     20528     20530     20526     20525     20528     20531
     20527     20525     20528     20529     20527     20525     20528     20530
     20527     20525     20528     20531     20528     20531     20534     20535
     20528     20531     20534     20536     20528     20531     20534     20537
     20529     20528     20531     20532     20529     20528     20531     20533
     20529     20528     20531     20534     20530     20528     20531     20532
     20530     20528     20531     20533     20530     20528     20531     20534
     20531     20534     20537     20538     20531     20534     20537     20539
     20531     20534     20537     20540     20532     20531     20534     20535
     20532     20531     20534     20536     20532     20531     20534     20537
     20533     20531     20534     20535     20533     20531     20534     20536
     20533     20531     20534     20537     20534     20537     20540     20541
     20534     20537     20540     20542     20534     20537     20540     20543
     20535     20534     20537     20538     20535     20534     20537     20539
     20535     20534     20537     20540     20536     20534     20537     20538
     20536     20534     20537     20539     20536     20534     20537     20540
     20537     20540     20543     20544     20537     20540     20543     20545
     20538     20537     20540     20541     20538     20537     20540     20542
     20538     20537     20540     20543     20539     20537     20540     20541
     20539     20537     20540     20542     20539     20537     20540     20543
     20540     20543     20545     20546     20540     20543     20545     20547
     20541     20540     20543     20544     20541     20540     20543     20545
     20542     20540     20543     20544     20542     20540     20543     20545
     20543     20545     20547     20548     20543     20545     20547     20549
     20543     20545     20547     20550     20544     20543     20545     20546
     20544     20543     20545     20547     20545     20547     20550     20551
     20545     20547     20550     20552     20545     20547     20550     20553
     20546     20545     20547     20548     20546     20545     20547     20549
     20546     20545     20547     20550     20547     20550     20553     20554
     20547     20550     20553     20555     20547     20550     20553     20556
     20548     20547     20550     20551     20548     20547     20550     20552
     20548     20547     20550     20553     20549     20547     20550     20551
     20549     20547     20550     20552     20549     20547     20550     20553
     20550     20553     20556     20557     20550     20553     20556     20558
     20550     20553     20556     20559     20551     20550     20553     20554
     20551     20550     20553     20555     20551     20550     20553     20556
     20552     20550     20553     20554     20552     20550     20553     20555
     20552     20550     20553     20556     20553     20556     20559     20560
     20553     20556     20559     20561     20553     20556     20559     20562
     20554     20553     20556     20557     20554     20553     20556     20558
     20554     20553     20556     20559     20555     20553     20556     20557
     20555     20553     20556     20558     20555     20553     20556     20559
     20556     20559     20562     20563     20556     20559     20562     20564
     20556     20559     20562     20565     20557     20556     20559     20560
     20557     20556     20559     20561     20557     20556     20559     20562
     20558     20556     20559     20560     20558     20556     20559     20561
     20558     20556     20559     20562     20559     20562     20565     20566
     20559     20562     20565     20567     20559     20562     20565     20568
     20560     20559     20562     20563     20560     20559     20562     20564
     20560     20559     20562     20565     20561     20559     20562     20563
     20561     20559     20562     20564     20561     20559     20562     20565
     20562     20565     20568     20569     20562     20565     20568     20570
     20562     20565     20568     20571     20563     20562     20565     20566
     20563     20562     20565     20567     20563     20562     20565     20568
     20564     20562     20565     20566     20564     20562     20565     20567
     20564     20562     20565     20568     20566     20565     20568     20569
     20566     20565     20568     20570     20566     20565     20568     20571
     20567     20565     20568     20569     20567     20565     20568     20570
     20567     20565     20568     20571     20572     20575     20578     20579
     20572     20575     20578     20580     20572     20575     20578     20581
     20573     20572     20575     20576     20573     20572     20575     20577
     20573     20572     20575     20578     20574     20572     20575     20576
     20574     20572     20575     20577     20574     20572     20575     20578
     20575     20578     20581     20582     20575     20578     20581     20583
     20575     20578     20581     20584     20576     20575     20578     20579
     20576     20575     20578     20580     20576     20575     20578     20581
     20577     20575     20578     20579     20577     20575     20578     20580
     20577     20575     20578     20581     20578     20581     20584     20585
     20578     20581     20584     20586     20578     20581     20584     20587
     20579     20578     20581     20582     20579     20578     20581     20583
     20579     20578     20581     20584     20580     20578     20581     20582
     20580     20578     20581     20583     20580     20578     20581     20584
     20581     20584     20587     20588     20581     20584     20587     20589
     20581     20584     20587     20590     20582     20581     20584     20585
     20582     20581     20584     20586     20582     20581     20584     20587
     20583     20581     20584     20585     20583     20581     20584     20586
     20583     20581     20584     20587     20584     20587     20590     20591
     20584     20587     20590     20592     20584     20587     20590     20593
     20585     20584     20587     20588     20585     20584     20587     20589
     20585     20584     20587     20590     20586     20584     20587     20588
     20586     20584     20587     20589     20586     20584     20587     20590
     20587     20590     20593     20594     20587     20590     20593     20595
     20587     20590     20593     20596     20588     20587     20590     20591
     20588     20587     20590     20592     20588     20587     20590     20593
     20589     20587     20590     20591     20589     20587     20590     20592
     20589     20587     20590     20593     20590     20593     20596     20597
     20590     20593     20596     20598     20590     20593     20596     20599
     20591     20590     20593     20594     20591     20590     20593     20595
     20591     20590     20593     20596     20592     20590     20593     20594
     20592     20590     20593     20595     20592     20590     20593     20596
     20593     20596     20599     20600     20593     20596     20599     20601
     20593     20596     20599     20602     20594     20593     20596     20597
     20594     20593     20596     20598     20594     20593     20596     20599
     20595     20593     20596     20597     20595     20593     20596     20598
     20595     20593     20596     20599     20596     20599     20602     20603
     20596     20599     20602     20604     20596     20599     20602     20605
     20597     20596     20599     20600     20597     20596     20599     20601
     20597     20596     20599     20602     20598     20596     20599     20600
     20598     20596     20599     20601     20598     20596     20599     20602
     20599     20602     20605     20606     20599     20602     20605     20607
     20599     20602     20605     20608     20600     20599     20602     20603
     20600     20599     20602     20604     20600     20599     20602     20605
     20601     20599     20602     20603     20601     20599     20602     20604
     20601     20599     20602     20605     20602     20605     20608     20609
     20602     20605     20608     20610     20602     20605     20608     20611
     20603     20602     20605     20606     20603     20602     20605     20607
     20603     20602     20605     20608     20604     20602     20605     20606
     20604     20602     20605     20607     20604     20602     20605     20608
     20605     20608     20611     20612     20605     20608     20611     20613
     20605     20608     20611     20614     20606     20605     20608     20609
     20606     20605     20608     20610     20606     20605     20608     20611
     20607     20605     20608     20609     20607     20605     20608     20610
     20607     20605     20608     20611     20608     20611     20614     20615
     20608     20611     20614     20616     20608     20611     20614     20617
     20609     20608     20611     20612     20609     20608     20611     20613
     20609     20608     20611     20614     20610     20608     20611     20612
     20610     20608     20611     20613     20610     20608     20611     20614
     20611     20614     20617     20618     20611     20614     20617     20619
     20611     20614     20617     20620     20612     20611     20614     20615
     20612     20611     20614     20616     20612     20611     20614     20617
     20613     20611     20614     20615     20613     20611     20614     20616
     20613     20611     20614     20617     20615     20614     20617     20618
     20615     20614     20617     20619     20615     20614     20617     20620
     20616     20614     20617     20618     20616     20614     20617     20619
     20616     20614     20617     20620      3109      3113      3116      3117
      3109      3113      3116      3147      3109      3155      3152      3147
      3109      3155      3152      3153      3109      3155      3152      3154
      3110      3109      3111      3112      3110      3109      3113      3114
      3110      3109      3113      3115      3110      3109      3113      3116
      3110      3109      3155      3152      3110      3109      3155      3156
      3110      3109      3155      3157      3111      3109      3113      3114
      3111      3109      3113      3115      3111      3109      3113      3116
      3111      3109      3155      3152      3111      3109      3155      3156
      3111      3109      3155      3157      3112      3111      3109      3113
      3112      3111      3109      3155      3113      3109      3155      3152
      3113      3109      3155      3156      3113      3109      3155      3157
      3113      3116      3117      3118      3113      3116      3117      3119
      3113      3116      3147      3145      3113      3116      3147      3148
      3113      3116      3147      3152      3114      3113      3109      3155
      3114      3113      3116      3117      3114      3113      3116      3147
      3115      3113      3109      3155      3115      3113      3116      3117
      3115      3113      3116      3147      3116      3113      3109      3155
      3116      3117      3119      3120      3116      3117      3119      3121
      3116      3117      3119      3122      3116      3147      3145      3122
      3116      3147      3145      3142      3116      3147      3145      3146
      3116      3147      3148      3149      3116      3147      3148      3150
      3116      3147      3148      3151      3116      3147      3152      3153
      3116      3147      3152      3154      3116      3147      3152      3155
      3117      3116      3147      3145      3117      3116      3147      3148
      3117      3116      3147      3152      3117      3119      3122      3123
      3117      3119      3122      3124      3117      3119      3122      3145
      3118      3117      3116      3147      3118      3117      3119      3120
      3118      3117      3119      3121      3118      3117      3119      3122
      3119      3117      3116      3147      3119      3122      3124      3125
      3119      3122      3124      3126      3119      3122      3124      3134
      3119      3122      3145      3142      3119      3122      3145      3146
      3119      3122      3145      3147      3120      3119      3122      3123
      3120      3119      3122      3124      3120      3119      3122      3145
      3121      3119      3122      3123      3121      3119      3122      3124
      3121      3119      3122      3145      3122      3124      3126      3127
      3122      3124      3126      3128      3122      3124      3126      3129
      3122      3124      3134      3132      3122      3124      3134      3135
      3122      3124      3134      3139      3122      3145      3142      3139
      3122      3145      3142      3143      3122      3145      3142      3144
      3122      3145      3147      3148      3122      3145      3147      3152
      3123      3122      3124      3125      3123      3122      3124      3126
      3123      3122      3124      3134      3123      3122      3145      3142
      3123      3122      3145      3146      3123      3122      3145      3147
      3124      3122      3145      3142      3124      3122      3145      3146
      3124      3122      3145      3147      3124      3126      3129      3130
      3124      3126      3129      3131      3124      3126      3129      3132
      3124      3134      3132      3129      3124      3134      3132      3133
      3124      3134      3132      3158      3124      3134      3135      3136
      3124      3134      3135      3137      3124      3134      3135      3138
      3124      3134      3139      3140      3124      3134      3139      3141
      3124      3134      3139      3142      3125      3124      3122      3145
      3125      3124      3126      3127      3125      3124      3126      3128
      3125      3124      3126      3129      3125      3124      3134      3132
      3125      3124      3134      3135      3125      3124      3134      3139
      3126      3124      3122      3145      3126      3124      3134      3132
      3126      3124      3134      3135      3126      3124      3134      3139
      3126      3129      3132      3133      3126      3129      3132      3134
      3126      3129      3132      3158      3127      3126      3124      3134
      3127      3126      3129      3130      3127      3126      3129      3131
      3127      3126      3129      3132      3128      3126      3124      3134
      3128      3126      3129      3130      3128      3126      3129      3131
      3128      3126      3129      3132      3129      3126      3124      3134
      3129      3132      3134      3135      3129      3132      3134      3139
      3129      3132      3158      3159      3129      3132      3158      3160
      3129      3132      3158      3164      3130      3129      3132      3133
      3130      3129      3132      3134      3130      3129      3132      3158
      3131      3129      3132      3133      3131      3129      3132      3134
      3131      3129      3132      3158      3132      3134      3135      3136
      3132      3134      3135      3137      3132      3134      3135      3138
      3132      3134      3139      3140      3132      3134      3139      3141
      3132      3134      3139      3142      3132      3158      3160      3161
      3132      3158      3160      3162      3132      3158      3160      3163
      3132      3158      3164      3165      3132      3158      3164      3166
      3132      3158      3164      3167      3133      3132      3134      3135
      3133      3132      3134      3139      3133      3132      3158      3159
      3133      3132      3158      3160      3133      3132      3158      3164
      3134      3124      3122      3145      3134      3132      3158      3159
      3134      3132      3158      3160      3134      3132      3158      3164
      3134      3139      3142      3143      3134      3139      3142      3144
      3134      3139      3142      3145      3135      3134      3132      3158
      3135      3134      3139      3140      3135      3134      3139      3141
      3135      3134      3139      3142      3136      3135      3134      3139
      3137      3135      3134      3139      3138      3135      3134      3139
      3139      3134      3132      3158      3139      3142      3145      3146
      3139      3142      3145      3147      3140      3139      3142      3143
      3140      3139      3142      3144      3140      3139      3142      3145
      3141      3139      3142      3143      3141      3139      3142      3144
      3141      3139      3142      3145      3142      3145      3147      3148
      3142      3145      3147      3152      3143      3142      3145      3146
      3143      3142      3145      3147      3144      3142      3145      3146
      3144      3142      3145      3147      3145      3147      3148      3149
      3145      3147      3148      3150      3145      3147      3148      3151
      3145      3147      3152      3153      3145      3147      3152      3154
      3145      3147      3152      3155      3146      3145      3147      3148
      3146      3145      3147      3152      3147      3152      3155      3156
      3147      3152      3155      3157      3148      3147      3152      3153
      3148      3147      3152      3154      3148      3147      3152      3155
      3149      3148      3147      3152      3150      3148      3147      3152
      3151      3148      3147      3152      3153      3152      3155      3156
      3153      3152      3155      3157      3154      3152      3155      3156
      3154      3152      3155      3157      3158      3164      3167      3168
      3158      3164      3167      3169      3158      3164      3167      3170
      3159      3158      3160      3161      3159      3158      3160      3162
      3159      3158      3160      3163      3159      3158      3164      3165
      3159      3158      3164      3166      3159      3158      3164      3167
      3160      3158      3164      3165      3160      3158      3164      3166
      3160      3158      3164      3167      3161      3160      3158      3164
      3162      3160      3158      3164      3163      3160      3158      3164
      3164      3167      3170      3171      3164      3167      3170      3172
      3164      3167      3170      3173      3165      3164      3167      3168
      3165      3164      3167      3169      3165      3164      3167      3170
      3166      3164      3167      3168      3166      3164      3167      3169
      3166      3164      3167      3170      3167      3170      3173      3174
      3167      3170      3173      3175      3167      3170      3173      3179
      3168      3167      3170      3171      3168      3167      3170      3172
      3168      3167      3170      3173      3169      3167      3170      3171
      3169      3167      3170      3172      3169      3167      3170      3173
      3170      3173      3175      3176      3170      3173      3175      3177
      3170      3173      3175      3178      3170      3173      3179      3180
      3170      3173      3179      3181      3170      3173      3179      3182
      3171      3170      3173      3174      3171      3170      3173      3175
      3171      3170      3173      3179      3172      3170      3173      3174
      3172      3170      3173      3175      3172      3170      3173      3179
      3174      3173      3175      3176      3174      3173      3175      3177
      3174      3173      3175      3178      3174      3173      3179      3180
      3174      3173      3179      3181      3174      3173      3179      3182
      3175      3173      3179      3180      3175      3173      3179      3181
      3175      3173      3179      3182      3176      3175      3173      3179
      3177      3175      3173      3179      3178      3175      3173      3179
      5265      5266      5281      5282      5265      5266      5281      5283
      5265      5266      5281      5287      5266      5265      5269      5270
      5266      5265      5269      5271      5266      5265      5269      5272
      5266      5265      5273      5274      5266      5265      5273      5275
      5266      5265      5273      5276      5266      5265      5277      5278
      5266      5265      5277      5279      5266      5265      5277      5280
      5266      5281      5287      5284      5267      5266      5265      5269
      5267      5266      5265      5273      5267      5266      5265      5277
      5267      5266      5281      5282      5267      5266      5281      5283
      5267      5266      5281      5287      5268      5266      5265      5269
      5268      5266      5265      5273      5268      5266      5265      5277
      5268      5266      5281      5282      5268      5266      5281      5283
      5268      5266      5281      5287      5269      5265      5266      5281
      5269      5265      5273      5274      5269      5265      5273      5275
      5269      5265      5273      5276      5269      5265      5277      5278
      5269      5265      5277      5279      5269      5265      5277      5280
      5270      5269      5265      5273      5270      5269      5265      5277
      5271      5269      5265      5273      5271      5269      5265      5277
      5272      5269      5265      5273      5272      5269      5265      5277
      5273      5265      5266      5281      5273      5265      5277      5278
      5273      5265      5277      5279      5273      5265      5277      5280
      5274      5273      5265      5277      5275      5273      5265      5277
      5276      5273      5265      5277      5277      5265      5266      5281
      5281      5287      5284      5285      5281      5287      5284      5286
      5281      5287      5284      5288      5282      5281      5287      5284
      5283      5281      5287      5284      5284      5288      5289      5290
      5284      5288      5289      5291      5284      5288      5289      5292
      5285      5284      5288      5289      5286      5284      5288      5289
      5287      5284      5288      5289      5288      5289      5292      5293
      5288      5289      5292      5294      5288      5289      5292      5300
      5289      5292      5294      5295      5289      5292      5300      5301
      5289      5292      5300      5302      5289      5292      5300      5303
      5290      5289      5292      5293      5290      5289      5292      5294
      5290      5289      5292      5300      5291      5289      5292      5293
      5291      5289      5292      5294      5291      5289      5292      5300
      5292      5294      5295      5296      5292      5294      5295      5297
      5292      5300      5303      5304      5293      5292      5294      5295
      5293      5292      5300      5301      5293      5292      5300      5302
      5293      5292      5300      5303      5294      5292      5300      5301
      5294      5292      5300      5302      5294      5292      5300      5303
      5294      5295      5297      5298      5294      5295      5297      5299
      5294      5295      5297      5309      5295      5294      5292      5300
      5295      5297      5309      5310      5295      5297      5309      5311
      5295      5297      5309      5312      5296      5295      5297      5298
      5296      5295      5297      5299      5296      5295      5297      5309
      5297      5309      5312      5313      5297      5309      5312      5314
      5297      5309      5312      5315      5298      5297      5309      5310
      5298      5297      5309      5311      5298      5297      5309      5312
      5299      5297      5309      5310      5299      5297      5309      5311
      5299      5297      5309      5312      5300      5303      5304      5305
      5300      5303      5304      5306      5301      5300      5303      5304
      5302      5300      5303      5304      5303      5304      5306      5307
      5303      5304      5306      5308      5303      5304      5306      5356
      5304      5306      5356      5357      5304      5306      5356      5358
      5304      5306      5356      5359      5305      5304      5306      5307
      5305      5304      5306      5308      5305      5304      5306      5356
      5306      5356      5359      5360      5306      5356      5359      5361
      5306      5356      5359      5362      5307      5306      5356      5357
      5307      5306      5356      5358      5307      5306      5356      5359
      5308      5306      5356      5357      5308      5306      5356      5358
      5308      5306      5356      5359      5309      5312      5315      5316
      5309      5312      5315      5317      5310      5309      5312      5313
      5310      5309      5312      5314      5310      5309      5312      5315
      5311      5309      5312      5313      5311      5309      5312      5314
      5311      5309      5312      5315      5312      5315      5317      5318
      5312      5315      5317      5319      5313      5312      5315      5316
      5313      5312      5315      5317      5314      5312      5315      5316
      5314      5312      5315      5317      5315      5317      5319      5320
      5315      5317      5319      5321      5315      5317      5319      5322
      5316      5315      5317      5318      5316      5315      5317      5319
      5317      5319      5322      5323      5317      5319      5322      5324
      5318      5317      5319      5320      5318      5317      5319      5321
      5318      5317      5319      5322      5319      5322      5324      5325
      5319      5322      5324      5326      5320      5319      5322      5323
      5320      5319      5322      5324      5321      5319      5322      5323
      5321      5319      5322      5324      5322      5324      5326      5327
      5322      5324      5326      5328      5322      5324      5326      5329
      5323      5322      5324      5325      5323      5322      5324      5326
      5324      5326      5329      5330      5324      5326      5329      5331
      5325      5324      5326      5327      5325      5324      5326      5328
      5325      5324      5326      5329      5326      5329      5331      5332
      5326      5329      5331      5333      5327      5326      5329      5330
      5327      5326      5329      5331      5328      5326      5329      5330
      5328      5326      5329      5331      5329      5331      5333      5334
      5329      5331      5333      5335      5329      5331      5333      5336
      5330      5329      5331      5332      5330      5329      5331      5333
      5331      5333      5336      5337      5331      5333      5336      5338
      5332      5331      5333      5334      5332      5331      5333      5335
      5332      5331      5333      5336      5333      5336      5338      5339
      5333      5336      5338      5340      5334      5333      5336      5337
      5334      5333      5336      5338      5335      5333      5336      5337
      5335      5333      5336      5338      5336      5338      5340      5341
      5336      5338      5340      5342      5336      5338      5340      5343
      5337      5336      5338      5339      5337      5336      5338      5340
      5338      5340      5343      5344      5338      5340      5343      5345
      5338      5340      5343      5346      5339      5338      5340      5341
      5339      5338      5340      5342      5339      5338      5340      5343
      5340      5343      5346      5347      5340      5343      5346      5348
      5340      5343      5346      5349      5341      5340      5343      5344
      5341      5340      5343      5345      5341      5340      5343      5346
      5342      5340      5343      5344      5342      5340      5343      5345
      5342      5340      5343      5346      5343      5346      5349      5350
      5343      5346      5349      5351      5343      5346      5349      5352
      5344      5343      5346      5347      5344      5343      5346      5348
      5344      5343      5346      5349      5345      5343      5346      5347
      5345      5343      5346      5348      5345      5343      5346      5349
      5346      5349      5352      5353      5346      5349      5352      5354
      5346      5349      5352      5355      5347      5346      5349      5350
      5347      5346      5349      5351      5347      5346      5349      5352
      5348      5346      5349      5350      5348      5346      5349      5351
      5348      5346      5349      5352      5350      5349      5352      5353
      5350      5349      5352      5354      5350      5349      5352      5355
      5351      5349      5352      5353      5351      5349      5352      5354
      5351      5349      5352      5355      5356      5359      5362      5363
      5356      5359      5362      5364      5356      5359      5362      5365
      5357      5356      5359      5360      5357      5356      5359      5361
      5357      5356      5359      5362      5358      5356      5359      5360
      5358      5356      5359      5361      5358      5356      5359      5362
      5359      5362      5365      5366      5359      5362      5365      5367
      5359      5362      5365      5368      5360      5359      5362      5363
      5360      5359      5362      5364      5360      5359      5362      5365
      5361      5359      5362      5363      5361      5359      5362      5364
      5361      5359      5362      5365      5362      5365      5368      5369
      5362      5365      5368      5370      5362      5365      5368      5371
      5363      5362      5365      5366      5363      5362      5365      5367
      5363      5362      5365      5368      5364      5362      5365      5366
      5364      5362      5365      5367      5364      5362      5365      5368
      5365      5368      5371      5372      5365      5368      5371      5373
      5365      5368      5371      5374      5366      5365      5368      5369
      5366      5365      5368      5370      5366      5365      5368      5371
      5367      5365      5368      5369      5367      5365      5368      5370
      5367      5365      5368      5371      5368      5371      5374      5375
      5368      5371      5374      5376      5368      5371      5374      5377
      5369      5368      5371      5372      5369      5368      5371      5373
      5369      5368      5371      5374      5370      5368      5371      5372
      5370      5368      5371      5373      5370      5368      5371      5374
      5371      5374      5377      5378      5371      5374      5377      5379
      5371      5374      5377      5380      5372      5371      5374      5375
      5372      5371      5374      5376      5372      5371      5374      5377
      5373      5371      5374      5375      5373      5371      5374      5376
      5373      5371      5374      5377      5374      5377      5380      5381
      5374      5377      5380      5382      5374      5377      5380      5383
      5375      5374      5377      5378      5375      5374      5377      5379
      5375      5374      5377      5380      5376      5374      5377      5378
      5376      5374      5377      5379      5376      5374      5377      5380
      5377      5380      5383      5384      5377      5380      5383      5385
      5377      5380      5383      5386      5378      5377      5380      5381
      5378      5377      5380      5382      5378      5377      5380      5383
      5379      5377      5380      5381      5379      5377      5380      5382
      5379      5377      5380      5383      5380      5383      5386      5387
      5380      5383      5386      5388      5380      5383      5386      5389
      5381      5380      5383      5384      5381      5380      5383      5385
      5381      5380      5383      5386      5382      5380      5383      5384
      5382      5380      5383      5385      5382      5380      5383      5386
      5383      5386      5389      5390      5383      5386      5389      5391
      5383      5386      5389      5392      5384      5383      5386      5387
      5384      5383      5386      5388      5384      5383      5386      5389
      5385      5383      5386      5387      5385      5383      5386      5388
      5385      5383      5386      5389      5386      5389      5392      5393
      5386      5389      5392      5394      5386      5389      5392      5395
      5387      5386      5389      5390      5387      5386      5389      5391
      5387      5386      5389      5392      5388      5386      5389      5390
      5388      5386      5389      5391      5388      5386      5389      5392
      5389      5392      5395      5396      5389      5392      5395      5397
      5389      5392      5395      5398      5390      5389      5392      5393
      5390      5389      5392      5394      5390      5389      5392      5395
      5391      5389      5392      5393      5391      5389      5392      5394
      5391      5389      5392      5395      5392      5395      5398      5399
      5392      5395      5398      5400      5392      5395      5398      5401
      5393      5392      5395      5396      5393      5392      5395      5397
      5393      5392      5395      5398      5394      5392      5395      5396
      5394      5392      5395      5397      5394      5392      5395      5398
      5395      5398      5401      5402      5395      5398      5401      5403
      5395      5398      5401      5404      5396      5395      5398      5399
      5396      5395      5398      5400      5396      5395      5398      5401
      5397      5395      5398      5399      5397      5395      5398      5400
      5397      5395      5398      5401      5399      5398      5401      5402
      5399      5398      5401      5403      5399      5398      5401      5404
      5400      5398      5401      5402      5400      5398      5401      5403
      5400      5398      5401      5404      9609      9613      9615      9616
      9609      9613      9615      9617      9609      9613      9618      9619
      9609      9613      9618      9620      9609      9613      9618      9624
      9610      9609      9613      9614      9610      9609      9613      9615
      9610      9609      9613      9618      9611      9609      9613      9614
      9611      9609      9613      9615      9611      9609      9613      9618
      9612      9609      9613      9614      9612      9609      9613      9615
      9612      9609      9613      9618      9613      9618      9624      9621
      9614      9613      9615      9616      9614      9613      9615      9617
      9614      9613      9618      9619      9614      9613      9618      9620
      9614      9613      9618      9624      9615      9613      9618      9619
      9615      9613      9618      9620      9615      9613      9618      9624
      9616      9615      9613      9618      9617      9615      9613      9618
      9618      9624      9621      9622      9618      9624      9621      9623
      9618      9624      9621      9625      9619      9618      9624      9621
      9620      9618      9624      9621      9621      9625      9626      9627
      9621      9625      9626      9628      9621      9625      9626      9629
      9622      9621      9625      9626      9623      9621      9625      9626
      9624      9621      9625      9626      9625      9626      9629      9630
      9625      9626      9629      9631      9625      9626      9629      9637
      9626      9629      9631      9632      9626      9629      9637      9638
      9626      9629      9637      9639      9626      9629      9637      9640
      9627      9626      9629      9630      9627      9626      9629      9631
      9627      9626      9629      9637      9628      9626      9629      9630
      9628      9626      9629      9631      9628      9626      9629      9637
      9629      9631      9632      9633      9629      9631      9632      9634
      9629      9637      9640      9641      9630      9629      9631      9632
      9630      9629      9637      9638      9630      9629      9637      9639
      9630      9629      9637      9640      9631      9629      9637      9638
      9631      9629      9637      9639      9631      9629      9637      9640
      9631      9632      9634      9635      9631      9632      9634      9636
      9631      9632      9634      9646      9632      9631      9629      9637
      9632      9634      9646      9647      9632      9634      9646      9648
      9632      9634      9646      9649      9633      9632      9634      9635
      9633      9632      9634      9636      9633      9632      9634      9646
      9634      9646      9649      9650      9634      9646      9649      9651
      9634      9646      9649      9652      9635      9634      9646      9647
      9635      9634      9646      9648      9635      9634      9646      9649
      9636      9634      9646      9647      9636      9634      9646      9648
      9636      9634      9646      9649      9637      9640      9641      9642
      9637      9640      9641      9643      9638      9637      9640      9641
      9639      9637      9640      9641      9640      9641      9643      9644
      9640      9641      9643      9645      9640      9641      9643      9693
      9641      9643      9693      9694      9641      9643      9693      9695
      9641      9643      9693      9696      9642      9641      9643      9644
      9642      9641      9643      9645      9642      9641      9643      9693
      9643      9693      9696      9697      9643      9693      9696      9698
      9643      9693      9696      9699      9644      9643      9693      9694
      9644      9643      9693      9695      9644      9643      9693      9696
      9645      9643      9693      9694      9645      9643      9693      9695
      9645      9643      9693      9696      9646      9649      9652      9653
      9646      9649      9652      9654      9647      9646      9649      9650
      9647      9646      9649      9651      9647      9646      9649      9652
      9648      9646      9649      9650      9648      9646      9649      9651
      9648      9646      9649      9652      9649      9652      9654      9655
      9649      9652      9654      9656      9650      9649      9652      9653
      9650      9649      9652      9654      9651      9649      9652      9653
      9651      9649      9652      9654      9652      9654      9656      9657
      9652      9654      9656      9658      9652      9654      9656      9659
      9653      9652      9654      9655      9653      9652      9654      9656
      9654      9656      9659      9660      9654      9656      9659      9661
      9655      9654      9656      9657      9655      9654      9656      9658
      9655      9654      9656      9659      9656      9659      9661      9662
      9656      9659      9661      9663      9657      9656      9659      9660
      9657      9656      9659      9661      9658      9656      9659      9660
      9658      9656      9659      9661      9659      9661      9663      9664
      9659      9661      9663      9665      9659      9661      9663      9666
      9660      9659      9661      9662      9660      9659      9661      9663
      9661      9663      9666      9667      9661      9663      9666      9668
      9662      9661      9663      9664      9662      9661      9663      9665
      9662      9661      9663      9666      9663      9666      9668      9669
      9663      9666      9668      9670      9664      9663      9666      9667
      9664      9663      9666      9668      9665      9663      9666      9667
      9665      9663      9666      9668      9666      9668      9670      9671
      9666      9668      9670      9672      9666      9668      9670      9673
      9667      9666      9668      9669      9667      9666      9668      9670
      9668      9670      9673      9674      9668      9670      9673      9675
      9669      9668      9670      9671      9669      9668      9670      9672
      9669      9668      9670      9673      9670      9673      9675      9676
      9670      9673      9675      9677      9671      9670      9673      9674
      9671      9670      9673      9675      9672      9670      9673      9674
      9672      9670      9673      9675      9673      9675      9677      9678
      9673      9675      9677      9679      9673      9675      9677      9680
      9674      9673      9675      9676      9674      9673      9675      9677
      9675      9677      9680      9681      9675      9677      9680      9682
      9675      9677      9680      9683      9676      9675      9677      9678
      9676      9675      9677      9679      9676      9675      9677      9680
      9677      9680      9683      9684      9677      9680      9683      9685
      9677      9680      9683      9686      9678      9677      9680      9681
      9678      9677      9680      9682      9678      9677      9680      9683
      9679      9677      9680      9681      9679      9677      9680      9682
      9679      9677      9680      9683      9680      9683      9686      9687
      9680      9683      9686      9688      9680      9683      9686      9689
      9681      9680      9683      9684      9681      9680      9683      9685
      9681      9680      9683      9686      9682      9680      9683      9684
      9682      9680      9683      9685      9682      9680      9683      9686
      9683      9686      9689      9690      9683      9686      9689      9691
      9683      9686      9689      9692      9684      9683      9686      9687
      9684      9683      9686      9688      9684      9683      9686      9689
      9685      9683      9686      9687      9685      9683      9686      9688
      9685      9683      9686      9689      9687      9686      9689      9690
      9687      9686      9689      9691      9687      9686      9689      9692
      9688      9686      9689      9690      9688      9686      9689      9691
      9688      9686      9689      9692      9693      9696      9699      9700
      9693      9696      9699      9701      9693      9696      9699      9702
      9694      9693      9696      9697      9694      9693      9696      9698
      9694      9693      9696      9699      9695      9693      9696      9697
      9695      9693      9696      9698      9695      9693      9696      9699
      9696      9699      9702      9703      9696      9699      9702      9704
      9696      9699      9702      9705      9697      9696      9699      9700
      9697      9696      9699      9701      9697      9696      9699      9702
      9698      9696      9699      9700      9698      9696      9699      9701
      9698      9696      9699      9702      9699      9702      9705      9706
      9699      9702      9705      9707      9699      9702      9705      9708
      9700      9699      9702      9703      9700      9699      9702      9704
      9700      9699      9702      9705      9701      9699      9702      9703
      9701      9699      9702      9704      9701      9699      9702      9705
      9702      9705      9708      9709      9702      9705      9708      9710
      9702      9705      9708      9711      9703      9702      9705      9706
      9703      9702      9705      9707      9703      9702      9705      9708
      9704      9702      9705      9706      9704      9702      9705      9707
      9704      9702      9705      9708      9705      9708      9711      9712
      9705      9708      9711      9713      9705      9708      9711      9714
      9706      9705      9708      9709      9706      9705      9708      9710
      9706      9705      9708      9711      9707      9705      9708      9709
      9707      9705      9708      9710      9707      9705      9708      9711
      9708      9711      9714      9715      9708      9711      9714      9716
      9708      9711      9714      9717      9709      9708      9711      9712
      9709      9708      9711      9713      9709      9708      9711      9714
      9710      9708      9711      9712      9710      9708      9711      9713
      9710      9708      9711      9714      9711      9714      9717      9718
      9711      9714      9717      9719      9711      9714      9717      9720
      9712      9711      9714      9715      9712      9711      9714      9716
      9712      9711      9714      9717      9713      9711      9714      9715
      9713      9711      9714      9716      9713      9711      9714      9717
      9714      9717      9720      9721      9714      9717      9720      9722
      9714      9717      9720      9723      9715      9714      9717      9718
      9715      9714      9717      9719      9715      9714      9717      9720
      9716      9714      9717      9718      9716      9714      9717      9719
      9716      9714      9717      9720      9717      9720      9723      9724
      9717      9720      9723      9725      9717      9720      9723      9726
      9718      9717      9720      9721      9718      9717      9720      9722
      9718      9717      9720      9723      9719      9717      9720      9721
      9719      9717      9720      9722      9719      9717      9720      9723
      9720      9723      9726      9727      9720      9723      9726      9728
      9720      9723      9726      9729      9721      9720      9723      9724
      9721      9720      9723      9725      9721      9720      9723      9726
      9722      9720      9723      9724      9722      9720      9723      9725
      9722      9720      9723      9726      9723      9726      9729      9730
      9723      9726      9729      9731      9723      9726      9729      9732
      9724      9723      9726      9727      9724      9723      9726      9728
      9724      9723      9726      9729      9725      9723      9726      9727
      9725      9723      9726      9728      9725      9723      9726      9729
      9726      9729      9732      9733      9726      9729      9732      9734
      9726      9729      9732      9735      9727      9726      9729      9730
      9727      9726      9729      9731      9727      9726      9729      9732
      9728      9726      9729      9730      9728      9726      9729      9731
      9728      9726      9729      9732      9729      9732      9735      9736
      9729      9732      9735      9737      9729      9732      9735      9738
      9730      9729      9732      9733      9730      9729      9732      9734
      9730      9729      9732      9735      9731      9729      9732      9733
      9731      9729      9732      9734      9731      9729      9732      9735
      9732      9735      9738      9739      9732      9735      9738      9740
      9732      9735      9738      9741      9733      9732      9735      9736
      9733      9732      9735      9737      9733      9732      9735      9738
      9734      9732      9735      9736      9734      9732      9735      9737
      9734      9732      9735      9738      9736      9735      9738      9739
      9736      9735      9738      9740      9736      9735      9738      9741
      9737      9735      9738      9739      9737      9735      9738      9740
      9737      9735      9738      9741      6791      6804      6807      6808
      6791      6804      6807      6809      6791      6804      6807      6813
      6792      6791      6796      6797      6792      6791      6796      6798
      6792      6791      6796      6799      6792      6791      6800      6801
      6792      6791      6800      6802      6792      6791      6800      6803
      6792      6791      6804      6805      6792      6791      6804      6806
      6792      6791      6804      6807      6793      6792      6791      6796
      6793      6792      6791      6800      6793      6792      6791      6804
      6794      6792      6791      6796      6794      6792      6791      6800
      6794      6792      6791      6804      6795      6792      6791      6796
      6795      6792      6791      6800      6795      6792      6791      6804
      6796      6791      6800      6801      6796      6791      6800      6802
      6796      6791      6800      6803      6796      6791      6804      6805
      6796      6791      6804      6806      6796      6791      6804      6807
      6797      6796      6791      6800      6797      6796      6791      6804
      6798      6796      6791      6800      6798      6796      6791      6804
      6799      6796      6791      6800      6799      6796      6791      6804
      6800      6791      6804      6805      6800      6791      6804      6806
      6800      6791      6804      6807      6801      6800      6791      6804
      6802      6800      6791      6804      6803      6800      6791      6804
      6804      6807      6813      6810      6805      6804      6807      6808
      6805      6804      6807      6809      6805      6804      6807      6813
      6806      6804      6807      6808      6806      6804      6807      6809
      6806      6804      6807      6813      6807      6813      6810      6811
      6807      6813      6810      6812      6807      6813      6810      6814
      6808      6807      6813      6810      6809      6807      6813      6810
      6810      6814      6815      6816      6810      6814      6815      6817
      6810      6814      6815      6818      6811      6810      6814      6815
      6812      6810      6814      6815      6813      6810      6814      6815
      6814      6815      6818      6819      6814      6815      6818      6820
      6814      6815      6818      6826      6815      6818      6820      6821
      6815      6818      6826      6827      6815      6818      6826      6828
      6815      6818      6826      6829      6816      6815      6818      6819
      6816      6815      6818      6820      6816      6815      6818      6826
      6817      6815      6818      6819      6817      6815      6818      6820
      6817      6815      6818      6826      6818      6820      6821      6822
      6818      6820      6821      6823      6818      6826      6829      6830
      6819      6818      6820      6821      6819      6818      6826      6827
      6819      6818      6826      6828      6819      6818      6826      6829
      6820      6818      6826      6827      6820      6818      6826      6828
      6820      6818      6826      6829      6820      6821      6823      6824
      6820      6821      6823      6825      6820      6821      6823      6835
      6821      6820      6818      6826      6821      6823      6835      6836
      6821      6823      6835      6837      6821      6823      6835      6838
      6822      6821      6823      6824      6822      6821      6823      6825
      6822      6821      6823      6835      6823      6835      6838      6839
      6823      6835      6838      6840      6823      6835      6838      6841
      6824      6823      6835      6836      6824      6823      6835      6837
      6824      6823      6835      6838      6825      6823      6835      6836
      6825      6823      6835      6837      6825      6823      6835      6838
      6826      6829      6830      6831      6826      6829      6830      6832
      6827      6826      6829      6830      6828      6826      6829      6830
      6829      6830      6832      6833      6829      6830      6832      6834
      6829      6830      6832      6880      6830      6832      6880      6881
      6830      6832      6880      6882      6830      6832      6880      6883
      6831      6830      6832      6833      6831      6830      6832      6834
      6831      6830      6832      6880      6832      6880      6883      6884
      6832      6880      6883      6885      6832      6880      6883      6886
      6833      6832      6880      6881      6833      6832      6880      6882
      6833      6832      6880      6883      6834      6832      6880      6881
      6834      6832      6880      6882      6834      6832      6880      6883
      6835      6838      6841      6842      6835      6838      6841      6843
      6835      6838      6841      6844      6836      6835      6838      6839
      6836      6835      6838      6840      6836      6835      6838      6841
      6837      6835      6838      6839      6837      6835      6838      6840
      6837      6835      6838      6841      6838      6841      6844      6845
      6838      6841      6844      6846      6838      6841      6844      6847
      6839      6838      6841      6842      6839      6838      6841      6843
      6839      6838      6841      6844      6840      6838      6841      6842
      6840      6838      6841      6843      6840      6838      6841      6844
      6841      6844      6847      6848      6841      6844      6847      6849
      6841      6844      6847      6850      6842      6841      6844      6845
      6842      6841      6844      6846      6842      6841      6844      6847
      6843      6841      6844      6845      6843      6841      6844      6846
      6843      6841      6844      6847      6844      6847      6850      6851
      6844      6847      6850      6852      6844      6847      6850      6853
      6845      6844      6847      6848      6845      6844      6847      6849
      6845      6844      6847      6850      6846      6844      6847      6848
      6846      6844      6847      6849      6846      6844      6847      6850
      6847      6850      6853      6854      6847      6850      6853      6855
      6848      6847      6850      6851      6848      6847      6850      6852
      6848      6847      6850      6853      6849      6847      6850      6851
      6849      6847      6850      6852      6849      6847      6850      6853
      6850      6853      6855      6856      6850      6853      6855      6857
      6851      6850      6853      6854      6851      6850      6853      6855
      6852      6850      6853      6854      6852      6850      6853      6855
      6853      6855      6857      6858      6853      6855      6857      6859
      6853      6855      6857      6860      6854      6853      6855      6856
      6854      6853      6855      6857      6855      6857      6860      6861
      6855      6857      6860      6862      6856      6855      6857      6858
      6856      6855      6857      6859      6856      6855      6857      6860
      6857      6860      6862      6863      6857      6860      6862      6864
      6858      6857      6860      6861      6858      6857      6860      6862
      6859      6857      6860      6861      6859      6857      6860      6862
      6860      6862      6864      6865      6860      6862      6864      6866
      6860      6862      6864      6867      6861      6860      6862      6863
      6861      6860      6862      6864      6862      6864      6867      6868
      6862      6864      6867      6869      6862      6864      6867      6870
      6863      6862      6864      6865      6863      6862      6864      6866
      6863      6862      6864      6867      6864      6867      6870      6871
      6864      6867      6870      6872      6864      6867      6870      6873
      6865      6864      6867      6868      6865      6864      6867      6869
      6865      6864      6867      6870      6866      6864      6867      6868
      6866      6864      6867      6869      6866      6864      6867      6870
      6867      6870      6873      6874      6867      6870      6873      6875
      6867      6870      6873      6876      6868      6867      6870      6871
      6868      6867      6870      6872      6868      6867      6870      6873
      6869      6867      6870      6871      6869      6867      6870      6872
      6869      6867      6870      6873      6870      6873      6876      6877
      6870      6873      6876      6878      6870      6873      6876      6879
      6871      6870      6873      6874      6871      6870      6873      6875
      6871      6870      6873      6876      6872      6870      6873      6874
      6872      6870      6873      6875      6872      6870      6873      6876
      6874      6873      6876      6877      6874      6873      6876      6878
      6874      6873      6876      6879      6875      6873      6876      6877
      6875      6873      6876      6878      6875      6873      6876      6879
      6880      6883      6886      6887      6880      6883      6886      6888
      6880      6883      6886      6889      6881      6880      6883      6884
      6881      6880      6883      6885      6881      6880      6883      6886
      6882      6880      6883      6884      6882      6880      6883      6885
      6882      6880      6883      6886      6883      6886      6889      6890
      6883      6886      6889      6891      6883      6886      6889      6892
      6884      6883      6886      6887      6884      6883      6886      6888
      6884      6883      6886      6889      6885      6883      6886      6887
      6885      6883      6886      6888      6885      6883      6886      6889
      6886      6889      6892      6893      6886      6889      6892      6894
      6886      6889      6892      6895      6887      6886      6889      6890
      6887      6886      6889      6891      6887      6886      6889      6892
      6888      6886      6889      6890      6888      6886      6889      6891
      6888      6886      6889      6892      6889      6892      6895      6896
      6889      6892      6895      6897      6889      6892      6895      6898
      6890      6889      6892      6893      6890      6889      6892      6894
      6890      6889      6892      6895      6891      6889      6892      6893
      6891      6889      6892      6894      6891      6889      6892      6895
      6892      6895      6898      6899      6892      6895      6898      6900
      6892      6895      6898      6901      6893      6892      6895      6896
      6893      6892      6895      6897      6893      6892      6895      6898
      6894      6892      6895      6896      6894      6892      6895      6897
      6894      6892      6895      6898      6895      6898      6901      6902
      6895      6898      6901      6903      6895      6898      6901      6904
      6896      6895      6898      6899      6896      6895      6898      6900
      6896      6895      6898      6901      6897      6895      6898      6899
      6897      6895      6898      6900      6897      6895      6898      6901
      6898      6901      6904      6905      6898      6901      6904      6906
      6898      6901      6904      6907      6899      6898      6901      6902
      6899      6898      6901      6903      6899      6898      6901      6904
      6900      6898      6901      6902      6900      6898      6901      6903
      6900      6898      6901      6904      6901      6904      6907      6908
      6901      6904      6907      6909      6901      6904      6907      6910
      6902      6901      6904      6905      6902      6901      6904      6906
      6902      6901      6904      6907      6903      6901      6904      6905
      6903      6901      6904      6906      6903      6901      6904      6907
      6904      6907      6910      6911      6904      6907      6910      6912
      6904      6907      6910      6913      6905      6904      6907      6908
      6905      6904      6907      6909      6905      6904      6907      6910
      6906      6904      6907      6908      6906      6904      6907      6909
      6906      6904      6907      6910      6907      6910      6913      6914
      6907      6910      6913      6915      6907      6910      6913      6916
      6908      6907      6910      6911      6908      6907      6910      6912
      6908      6907      6910      6913      6909      6907      6910      6911
      6909      6907      6910      6912      6909      6907      6910      6913
      6910      6913      6916      6917      6910      6913      6916      6918
      6910      6913      6916      6919      6911      6910      6913      6914
      6911      6910      6913      6915      6911      6910      6913      6916
      6912      6910      6913      6914      6912      6910      6913      6915
      6912      6910      6913      6916      6913      6916      6919      6920
      6913      6916      6919      6921      6913      6916      6919      6922
      6914      6913      6916      6917      6914      6913      6916      6918
      6914      6913      6916      6919      6915      6913      6916      6917
      6915      6913      6916      6918      6915      6913      6916      6919
      6916      6919      6922      6923      6916      6919      6922      6924
      6916      6919      6922      6925      6917      6916      6919      6920
      6917      6916      6919      6921      6917      6916      6919      6922
      6918      6916      6919      6920      6918      6916      6919      6921
      6918      6916      6919      6922      6919      6922      6925      6926
      6919      6922      6925      6927      6919      6922      6925      6928
      6920      6919      6922      6923      6920      6919      6922      6924
      6920      6919      6922      6925      6921      6919      6922      6923
      6921      6919      6922      6924      6921      6919      6922      6925
      6923      6922      6925      6926      6923      6922      6925      6927
      6923      6922      6925      6928      6924      6922      6925      6926
      6924      6922      6925      6927      6924      6922      6925      6928
      3183      3187      3190      3191      3183      3187      3190      3221
      3183      3229      3226      3221      3183      3229      3226      3227
      3183      3229      3226      3228      3184      3183      3185      3186
      3184      3183      3187      3188      3184      3183      3187      3189
      3184      3183      3187      3190      3184      3183      3229      3226
      3184      3183      3229      3230      3184      3183      3229      3231
      3185      3183      3187      3188      3185      3183      3187      3189
      3185      3183      3187      3190      3185      3183      3229      3226
      3185      3183      3229      3230      3185      3183      3229      3231
      3186      3185      3183      3187      3186      3185      3183      3229
      3187      3183      3229      3226      3187      3183      3229      3230
      3187      3183      3229      3231      3187      3190      3191      3192
      3187      3190      3191      3193      3187      3190      3221      3219
      3187      3190      3221      3222      3187      3190      3221      3226
      3188      3187      3183      3229      3188      3187      3190      3191
      3188      3187      3190      3221      3189      3187      3183      3229
      3189      3187      3190      3191      3189      3187      3190      3221
      3190      3187      3183      3229      3190      3191      3193      3194
      3190      3191      3193      3195      3190      3191      3193      3196
      3190      3221      3219      3196      3190      3221      3219      3216
      3190      3221      3219      3220      3190      3221      3222      3223
      3190      3221      3222      3224      3190      3221      3222      3225
      3190      3221      3226      3227      3190      3221      3226      3228
      3190      3221      3226      3229      3191      3190      3221      3219
      3191      3190      3221      3222      3191      3190      3221      3226
      3191      3193      3196      3197      3191      3193      3196      3198
      3191      3193      3196      3219      3192      3191      3190      3221
      3192      3191      3193      3194      3192      3191      3193      3195
      3192      3191      3193      3196      3193      3191      3190      3221
      3193      3196      3198      3199      3193      3196      3198      3200
      3193      3196      3198      3208      3193      3196      3219      3216
      3193      3196      3219      3220      3193      3196      3219      3221
      3194      3193      3196      3197      3194      3193      3196      3198
      3194      3193      3196      3219      3195      3193      3196      3197
      3195      3193      3196      3198      3195      3193      3196      3219
      3196      3198      3200      3201      3196      3198      3200      3202
      3196      3198      3200      3203      3196      3198      3208      3206
      3196      3198      3208      3209      3196      3198      3208      3213
      3196      3219      3216      3213      3196      3219      3216      3217
      3196      3219      3216      3218      3196      3219      3221      3222
      3196      3219      3221      3226      3197      3196      3198      3199
      3197      3196      3198      3200      3197      3196      3198      3208
      3197      3196      3219      3216      3197      3196      3219      3220
      3197      3196      3219      3221      3198      3196      3219      3216
      3198      3196      3219      3220      3198      3196      3219      3221
      3198      3200      3203      3204      3198      3200      3203      3205
      3198      3200      3203      3206      3198      3208      3206      3203
      3198      3208      3206      3207      3198      3208      3206      3232
      3198      3208      3209      3210      3198      3208      3209      3211
      3198      3208      3209      3212      3198      3208      3213      3214
      3198      3208      3213      3215      3198      3208      3213      3216
      3199      3198      3196      3219      3199      3198      3200      3201
      3199      3198      3200      3202      3199      3198      3200      3203
      3199      3198      3208      3206      3199      3198      3208      3209
      3199      3198      3208      3213      3200      3198      3196      3219
      3200      3198      3208      3206      3200      3198      3208      3209
      3200      3198      3208      3213      3200      3203      3206      3207
      3200      3203      3206      3208      3200      3203      3206      3232
      3201      3200      3198      3208      3201      3200      3203      3204
      3201      3200      3203      3205      3201      3200      3203      3206
      3202      3200      3198      3208      3202      3200      3203      3204
      3202      3200      3203      3205      3202      3200      3203      3206
      3203      3200      3198      3208      3203      3206      3208      3209
      3203      3206      3208      3213      3203      3206      3232      3233
      3203      3206      3232      3234      3203      3206      3232      3238
      3204      3203      3206      3207      3204      3203      3206      3208
      3204      3203      3206      3232      3205      3203      3206      3207
      3205      3203      3206      3208      3205      3203      3206      3232
      3206      3208      3209      3210      3206      3208      3209      3211
      3206      3208      3209      3212      3206      3208      3213      3214
      3206      3208      3213      3215      3206      3208      3213      3216
      3206      3232      3234      3235      3206      3232      3234      3236
      3206      3232      3234      3237      3206      3232      3238      3239
      3206      3232      3238      3240      3206      3232      3238      3241
      3207      3206      3208      3209      3207      3206      3208      3213
      3207      3206      3232      3233      3207      3206      3232      3234
      3207      3206      3232      3238      3208      3198      3196      3219
      3208      3206      3232      3233      3208      3206      3232      3234
      3208      3206      3232      3238      3208      3213      3216      3217
      3208      3213      3216      3218      3208      3213      3216      3219
      3209      3208      3206      3232      3209      3208      3213      3214
      3209      3208      3213      3215      3209      3208      3213      3216
      3210      3209      3208      3213      3211      3209      3208      3213
      3212      3209      3208      3213      3213      3208      3206      3232
      3213      3216      3219      3220      3213      3216      3219      3221
      3214      3213      3216      3217      3214      3213      3216      3218
      3214      3213      3216      3219      3215      3213      3216      3217
      3215      3213      3216      3218      3215      3213      3216      3219
      3216      3219      3221      3222      3216      3219      3221      3226
      3217      3216      3219      3220      3217      3216      3219      3221
      3218      3216      3219      3220      3218      3216      3219      3221
      3219      3221      3222      3223      3219      3221      3222      3224
      3219      3221      3222      3225      3219      3221      3226      3227
      3219      3221      3226      3228      3219      3221      3226      3229
      3220      3219      3221      3222      3220      3219      3221      3226
      3221      3226      3229      3230      3221      3226      3229      3231
      3222      3221      3226      3227      3222      3221      3226      3228
      3222      3221      3226      3229      3223      3222      3221      3226
      3224      3222      3221      3226      3225      3222      3221      3226
      3227      3226      3229      3230      3227      3226      3229      3231
      3228      3226      3229      3230      3228      3226      3229      3231
      3232      3238      3241      3242      3232      3238      3241      3243
      3232      3238      3241      3244      3233      3232      3234      3235
      3233      3232      3234      3236      3233      3232      3234      3237
      3233      3232      3238      3239      3233      3232      3238      3240
      3233      3232      3238      3241      3234      3232      3238      3239
      3234      3232      3238      3240      3234      3232      3238      3241
      3235      3234      3232      3238      3236      3234      3232      3238
      3237      3234      3232      3238      3238      3241      3244      3245
      3238      3241      3244      3246      3238      3241      3244      3247
      3239      3238      3241      3242      3239      3238      3241      3243
      3239      3238      3241      3244      3240      3238      3241      3242
      3240      3238      3241      3243      3240      3238      3241      3244
      3241      3244      3247      3248      3241      3244      3247      3249
      3241      3244      3247      3253      3242      3241      3244      3245
      3242      3241      3244      3246      3242      3241      3244      3247
      3243      3241      3244      3245      3243      3241      3244      3246
      3243      3241      3244      3247      3244      3247      3249      3250
      3244      3247      3249      3251      3244      3247      3249      3252
      3244      3247      3253      3254      3244      3247      3253      3255
      3244      3247      3253      3256      3245      3244      3247      3248
      3245      3244      3247      3249      3245      3244      3247      3253
      3246      3244      3247      3248      3246      3244      3247      3249
      3246      3244      3247      3253      3248      3247      3249      3250
      3248      3247      3249      3251      3248      3247      3249      3252
      3248      3247      3253      3254      3248      3247      3253      3255
      3248      3247      3253      3256      3249      3247      3253      3254
      3249      3247      3253      3255      3249      3247      3253      3256
      3250      3249      3247      3253      3251      3249      3247      3253
      3252      3249      3247      3253      5405      5406      5421      5422
      5405      5406      5421      5423      5405      5406      5421      5427
      5406      5405      5409      5410      5406      5405      5409      5411
      5406      5405      5409      5412      5406      5405      5413      5414
      5406      5405      5413      5415      5406      5405      5413      5416
      5406      5405      5417      5418      5406      5405      5417      5419
      5406      5405      5417      5420      5406      5421      5427      5424
      5407      5406      5405      5409      5407      5406      5405      5413
      5407      5406      5405      5417      5407      5406      5421      5422
      5407      5406      5421      5423      5407      5406      5421      5427
      5408      5406      5405      5409      5408      5406      5405      5413
      5408      5406      5405      5417      5408      5406      5421      5422
      5408      5406      5421      5423      5408      5406      5421      5427
      5409      5405      5406      5421      5409      5405      5413      5414
      5409      5405      5413      5415      5409      5405      5413      5416
      5409      5405      5417      5418      5409      5405      5417      5419
      5409      5405      5417      5420      5410      5409      5405      5413
      5410      5409      5405      5417      5411      5409      5405      5413
      5411      5409      5405      5417      5412      5409      5405      5413
      5412      5409      5405      5417      5413      5405      5406      5421
      5413      5405      5417      5418      5413      5405      5417      5419
      5413      5405      5417      5420      5414      5413      5405      5417
      5415      5413      5405      5417      5416      5413      5405      5417
      5417      5405      5406      5421      5421      5427      5424      5425
      5421      5427      5424      5426      5421      5427      5424      5428
      5422      5421      5427      5424      5423      5421      5427      5424
      5424      5428      5429      5430      5424      5428      5429      5431
      5424      5428      5429      5432      5425      5424      5428      5429
      5426      5424      5428      5429      5427      5424      5428      5429
      5428      5429      5432      5433      5428      5429      5432      5434
      5428      5429      5432      5440      5429      5432      5434      5435
      5429      5432      5440      5441      5429      5432      5440      5442
      5429      5432      5440      5443      5430      5429      5432      5433
      5430      5429      5432      5434      5430      5429      5432      5440
      5431      5429      5432      5433      5431      5429      5432      5434
      5431      5429      5432      5440      5432      5434      5435      5436
      5432      5434      5435      5437      5432      5440      5443      5444
      5433      5432      5434      5435      5433      5432      5440      5441
      5433      5432      5440      5442      5433      5432      5440      5443
      5434      5432      5440      5441      5434      5432      5440      5442
      5434      5432      5440      5443      5434      5435      5437      5438
      5434      5435      5437      5439      5434      5435      5437      5449
      5435      5434      5432      5440      5435      5437      5449      5450
      5435      5437      5449      5451      5435      5437      5449      5452
      5436      5435      5437      5438      5436      5435      5437      5439
      5436      5435      5437      5449      5437      5449      5452      5453
      5437      5449      5452      5454      5437      5449      5452      5455
      5438      5437      5449      5450      5438      5437      5449      5451
      5438      5437      5449      5452      5439      5437      5449      5450
      5439      5437      5449      5451      5439      5437      5449      5452
      5440      5443      5444      5445      5440      5443      5444      5446
      5441      5440      5443      5444      5442      5440      5443      5444
      5443      5444      5446      5447      5443      5444      5446      5448
      5443      5444      5446      5496      5444      5446      5496      5497
      5444      5446      5496      5498      5444      5446      5496      5499
      5445      5444      5446      5447      5445      5444      5446      5448
      5445      5444      5446      5496      5446      5496      5499      5500
      5446      5496      5499      5501      5446      5496      5499      5502
      5447      5446      5496      5497      5447      5446      5496      5498
      5447      5446      5496      5499      5448      5446      5496      5497
      5448      5446      5496      5498      5448      5446      5496      5499
      5449      5452      5455      5456      5449      5452      5455      5457
      5450      5449      5452      5453      5450      5449      5452      5454
      5450      5449      5452      5455      5451      5449      5452      5453
      5451      5449      5452      5454      5451      5449      5452      5455
      5452      5455      5457      5458      5452      5455      5457      5459
      5453      5452      5455      5456      5453      5452      5455      5457
      5454      5452      5455      5456      5454      5452      5455      5457
      5455      5457      5459      5460      5455      5457      5459      5461
      5455      5457      5459      5462      5456      5455      5457      5458
      5456      5455      5457      5459      5457      5459      5462      5463
      5457      5459      5462      5464      5458      5457      5459      5460
      5458      5457      5459      5461      5458      5457      5459      5462
      5459      5462      5464      5465      5459      5462      5464      5466
      5460      5459      5462      5463      5460      5459      5462      5464
      5461      5459      5462      5463      5461      5459      5462      5464
      5462      5464      5466      5467      5462      5464      5466      5468
      5462      5464      5466      5469      5463      5462      5464      5465
      5463      5462      5464      5466      5464      5466      5469      5470
      5464      5466      5469      5471      5465      5464      5466      5467
      5465      5464      5466      5468      5465      5464      5466      5469
      5466      5469      5471      5472      5466      5469      5471      5473
      5467      5466      5469      5470      5467      5466      5469      5471
      5468      5466      5469      5470      5468      5466      5469      5471
      5469      5471      5473      5474      5469      5471      5473      5475
      5469      5471      5473      5476      5470      5469      5471      5472
      5470      5469      5471      5473      5471      5473      5476      5477
      5471      5473      5476      5478      5472      5471      5473      5474
      5472      5471      5473      5475      5472      5471      5473      5476
      5473      5476      5478      5479      5473      5476      5478      5480
      5474      5473      5476      5477      5474      5473      5476      5478
      5475      5473      5476      5477      5475      5473      5476      5478
      5476      5478      5480      5481      5476      5478      5480      5482
      5476      5478      5480      5483      5477      5476      5478      5479
      5477      5476      5478      5480      5478      5480      5483      5484
      5478      5480      5483      5485      5478      5480      5483      5486
      5479      5478      5480      5481      5479      5478      5480      5482
      5479      5478      5480      5483      5480      5483      5486      5487
      5480      5483      5486      5488      5480      5483      5486      5489
      5481      5480      5483      5484      5481      5480      5483      5485
      5481      5480      5483      5486      5482      5480      5483      5484
      5482      5480      5483      5485      5482      5480      5483      5486
      5483      5486      5489      5490      5483      5486      5489      5491
      5483      5486      5489      5492      5484      5483      5486      5487
      5484      5483      5486      5488      5484      5483      5486      5489
      5485      5483      5486      5487      5485      5483      5486      5488
      5485      5483      5486      5489      5486      5489      5492      5493
      5486      5489      5492      5494      5486      5489      5492      5495
      5487      5486      5489      5490      5487      5486      5489      5491
      5487      5486      5489      5492      5488      5486      5489      5490
      5488      5486      5489      5491      5488      5486      5489      5492
      5490      5489      5492      5493      5490      5489      5492      5494
      5490      5489      5492      5495      5491      5489      5492      5493
      5491      5489      5492      5494      5491      5489      5492      5495
      5496      5499      5502      5503      5496      5499      5502      5504
      5496      5499      5502      5505      5497      5496      5499      5500
      5497      5496      5499      5501      5497      5496      5499      5502
      5498      5496      5499      5500      5498      5496      5499      5501
      5498      5496      5499      5502      5499      5502      5505      5506
      5499      5502      5505      5507      5499      5502      5505      5508
      5500      5499      5502      5503      5500      5499      5502      5504
      5500      5499      5502      5505      5501      5499      5502      5503
      5501      5499      5502      5504      5501      5499      5502      5505
      5502      5505      5508      5509      5502      5505      5508      5510
      5502      5505      5508      5511      5503      5502      5505      5506
      5503      5502      5505      5507      5503      5502      5505      5508
      5504      5502      5505      5506      5504      5502      5505      5507
      5504      5502      5505      5508      5505      5508      5511      5512
      5505      5508      5511      5513      5505      5508      5511      5514
      5506      5505      5508      5509      5506      5505      5508      5510
      5506      5505      5508      5511      5507      5505      5508      5509
      5507      5505      5508      5510      5507      5505      5508      5511
      5508      5511      5514      5515      5508      5511      5514      5516
      5508      5511      5514      5517      5509      5508      5511      5512
      5509      5508      5511      5513      5509      5508      5511      5514
      5510      5508      5511      5512      5510      5508      5511      5513
      5510      5508      5511      5514      5511      5514      5517      5518
      5511      5514      5517      5519      5511      5514      5517      5520
      5512      5511      5514      5515      5512      5511      5514      5516
      5512      5511      5514      5517      5513      5511      5514      5515
      5513      5511      5514      5516      5513      5511      5514      5517
      5514      5517      5520      5521      5514      5517      5520      5522
      5514      5517      5520      5523      5515      5514      5517      5518
      5515      5514      5517      5519      5515      5514      5517      5520
      5516      5514      5517      5518      5516      5514      5517      5519
      5516      5514      5517      5520      5517      5520      5523      5524
      5517      5520      5523      5525      5517      5520      5523      5526
      5518      5517      5520      5521      5518      5517      5520      5522
      5518      5517      5520      5523      5519      5517      5520      5521
      5519      5517      5520      5522      5519      5517      5520      5523
      5520      5523      5526      5527      5520      5523      5526      5528
      5520      5523      5526      5529      5521      5520      5523      5524
      5521      5520      5523      5525      5521      5520      5523      5526
      5522      5520      5523      5524      5522      5520      5523      5525
      5522      5520      5523      5526      5523      5526      5529      5530
      5523      5526      5529      5531      5523      5526      5529      5532
      5524      5523      5526      5527      5524      5523      5526      5528
      5524      5523      5526      5529      5525      5523      5526      5527
      5525      5523      5526      5528      5525      5523      5526      5529
      5526      5529      5532      5533      5526      5529      5532      5534
      5526      5529      5532      5535      5527      5526      5529      5530
      5527      5526      5529      5531      5527      5526      5529      5532
      5528      5526      5529      5530      5528      5526      5529      5531
      5528      5526      5529      5532      5529      5532      5535      5536
      5529      5532      5535      5537      5529      5532      5535      5538
      5530      5529      5532      5533      5530      5529      5532      5534
      5530      5529      5532      5535      5531      5529      5532      5533
      5531      5529      5532      5534      5531      5529      5532      5535
      5532      5535      5538      5539      5532      5535      5538      5540
      5532      5535      5538      5541      5533      5532      5535      5536
      5533      5532      5535      5537      5533      5532      5535      5538
      5534      5532      5535      5536      5534      5532      5535      5537
      5534      5532      5535      5538      5535      5538      5541      5542
      5535      5538      5541      5543      5535      5538      5541      5544
      5536      5535      5538      5539      5536      5535      5538      5540
      5536      5535      5538      5541      5537      5535      5538      5539
      5537      5535      5538      5540      5537      5535      5538      5541
      5539      5538      5541      5542      5539      5538      5541      5543
      5539      5538      5541      5544      5540      5538      5541      5542
      5540      5538      5541      5543      5540      5538      5541      5544
     14595     14608     14611     14612     14595     14608     14611     14613
     14595     14608     14611     14618     14596     14595     14600     14601
     14596     14595     14600     14602     14596     14595     14600     14603
     14596     14595     14604     14605     14596     14595     14604     14606
     14596     14595     14604     14607     14596     14595     14608     14609
     14596     14595     14608     14610     14596     14595     14608     14611
     14597     14596     14595     14600     14597     14596     14595     14604
     14597     14596     14595     14608     14598     14596     14595     14600
     14598     14596     14595     14604     14598     14596     14595     14608
     14599     14596     14595     14600     14599     14596     14595     14604
     14599     14596     14595     14608     14600     14595     14604     14605
     14600     14595     14604     14606     14600     14595     14604     14607
     14600     14595     14608     14609     14600     14595     14608     14610
     14600     14595     14608     14611     14601     14600     14595     14604
     14601     14600     14595     14608     14602     14600     14595     14604
     14602     14600     14595     14608     14603     14600     14595     14604
     14603     14600     14595     14608     14604     14595     14608     14609
     14604     14595     14608     14610     14604     14595     14608     14611
     14605     14604     14595     14608     14606     14604     14595     14608
     14607     14604     14595     14608     14608     14611     14618     14614
     14609     14608     14611     14612     14609     14608     14611     14613
     14609     14608     14611     14618     14610     14608     14611     14612
     14610     14608     14611     14613     14610     14608     14611     14618
     14611     14618     14614     14615     14611     14618     14614     14616
     14611     14618     14614     14617     14612     14611     14618     14614
     14613     14611     14618     14614     14614     14617     14619     14620
     14614     14617     14619     14621     14614     14617     14619     14624
     14615     14614     14617     14619     14616     14614     14617     14619
     14617     14619     14624     14622     14617     14619     14624     14625
     14617     14619     14624     14626     14618     14614     14617     14619
     14619     14624     14622     14623     14619     14624     14622     14674
     14619     14624     14626     14627     14619     14624     14626     14628
     14619     14624     14626     14630     14620     14619     14624     14622
     14620     14619     14624     14625     14620     14619     14624     14626
     14621     14619     14624     14622     14621     14619     14624     14625
     14621     14619     14624     14626     14622     14624     14626     14627
     14622     14624     14626     14628     14622     14624     14626     14630
     14622     14674     14676     14677     14622     14674     14676     14678
     14622     14674     14676     14679     14623     14622     14624     14625
     14623     14622     14624     14626     14623     14622     14674     14675
     14623     14622     14674     14676     14624     14622     14674     14675
     14624     14622     14674     14676     14624     14626     14628     14629
     14624     14626     14630     14631     14624     14626     14630     14632
     14625     14624     14622     14674     14625     14624     14626     14627
     14625     14624     14626     14628     14625     14624     14626     14630
     14626     14624     14622     14674     14626     14630     14632     14633
     14626     14630     14632     14634     14627     14626     14628     14629
     14627     14626     14630     14631     14627     14626     14630     14632
     14628     14626     14630     14631     14628     14626     14630     14632
     14629     14628     14626     14630     14630     14632     14634     14635
     14630     14632     14634     14636     14630     14632     14634     14637
     14631     14630     14632     14633     14631     14630     14632     14634
     14632     14634     14637     14638     14632     14634     14637     14639
     14632     14634     14637     14640     14633     14632     14634     14635
     14633     14632     14634     14636     14633     14632     14634     14637
     14634     14637     14640     14641     14634     14637     14640     14642
     14634     14637     14640     14643     14635     14634     14637     14638
     14635     14634     14637     14639     14635     14634     14637     14640
     14636     14634     14637     14638     14636     14634     14637     14639
     14636     14634     14637     14640     14637     14640     14643     14644
     14637     14640     14643     14645     14637     14640     14643     14646
     14638     14637     14640     14641     14638     14637     14640     14642
     14638     14637     14640     14643     14639     14637     14640     14641
     14639     14637     14640     14642     14639     14637     14640     14643
     14640     14643     14646     14647     14640     14643     14646     14648
     14640     14643     14646     14649     14641     14640     14643     14644
     14641     14640     14643     14645     14641     14640     14643     14646
     14642     14640     14643     14644     14642     14640     14643     14645
     14642     14640     14643     14646     14643     14646     14649     14650
     14643     14646     14649     14651     14643     14646     14649     14652
     14644     14643     14646     14647     14644     14643     14646     14648
     14644     14643     14646     14649     14645     14643     14646     14647
     14645     14643     14646     14648     14645     14643     14646     14649
     14646     14649     14652     14653     14646     14649     14652     14654
     14646     14649     14652     14655     14647     14646     14649     14650
     14647     14646     14649     14651     14647     14646     14649     14652
     14648     14646     14649     14650     14648     14646     14649     14651
     14648     14646     14649     14652     14649     14652     14655     14656
     14649     14652     14655     14657     14649     14652     14655     14658
     14650     14649     14652     14653     14650     14649     14652     14654
     14650     14649     14652     14655     14651     14649     14652     14653
     14651     14649     14652     14654     14651     14649     14652     14655
     14652     14655     14658     14659     14652     14655     14658     14660
     14652     14655     14658     14661     14653     14652     14655     14656
     14653     14652     14655     14657     14653     14652     14655     14658
     14654     14652     14655     14656     14654     14652     14655     14657
     14654     14652     14655     14658     14655     14658     14661     14662
     14655     14658     14661     14663     14655     14658     14661     14664
     14656     14655     14658     14659     14656     14655     14658     14660
     14656     14655     14658     14661     14657     14655     14658     14659
     14657     14655     14658     14660     14657     14655     14658     14661
     14658     14661     14664     14665     14658     14661     14664     14666
     14658     14661     14664     14667     14659     14658     14661     14662
     14659     14658     14661     14663     14659     14658     14661     14664
     14660     14658     14661     14662     14660     14658     14661     14663
     14660     14658     14661     14664     14661     14664     14667     14668
     14661     14664     14667     14669     14661     14664     14667     14670
     14662     14661     14664     14665     14662     14661     14664     14666
     14662     14661     14664     14667     14663     14661     14664     14665
     14663     14661     14664     14666     14663     14661     14664     14667
     14664     14667     14670     14671     14664     14667     14670     14672
     14664     14667     14670     14673     14665     14664     14667     14668
     14665     14664     14667     14669     14665     14664     14667     14670
     14666     14664     14667     14668     14666     14664     14667     14669
     14666     14664     14667     14670     14668     14667     14670     14671
     14668     14667     14670     14672     14668     14667     14670     14673
     14669     14667     14670     14671     14669     14667     14670     14672
     14669     14667     14670     14673     14674     14676     14679     14680
     14674     14676     14679     14681     14674     14676     14679     14682
     14675     14674     14676     14677     14675     14674     14676     14678
     14675     14674     14676     14679     14676     14679     14682     14683
     14676     14679     14682     14684     14676     14679     14682     14685
     14677     14676     14679     14680     14677     14676     14679     14681
     14677     14676     14679     14682     14678     14676     14679     14680
     14678     14676     14679     14681     14678     14676     14679     14682
     14679     14682     14685     14686     14679     14682     14685     14687
     14679     14682     14685     14688     14680     14679     14682     14683
     14680     14679     14682     14684     14680     14679     14682     14685
     14681     14679     14682     14683     14681     14679     14682     14684
     14681     14679     14682     14685     14682     14685     14688     14689
     14682     14685     14688     14690     14682     14685     14688     14691
     14683     14682     14685     14686     14683     14682     14685     14687
     14683     14682     14685     14688     14684     14682     14685     14686
     14684     14682     14685     14687     14684     14682     14685     14688
     14685     14688     14691     14692     14685     14688     14691     14693
     14685     14688     14691     14694     14686     14685     14688     14689
     14686     14685     14688     14690     14686     14685     14688     14691
     14687     14685     14688     14689     14687     14685     14688     14690
     14687     14685     14688     14691     14688     14691     14694     14695
     14688     14691     14694     14696     14688     14691     14694     14697
     14689     14688     14691     14692     14689     14688     14691     14693
     14689     14688     14691     14694     14690     14688     14691     14692
     14690     14688     14691     14693     14690     14688     14691     14694
     14691     14694     14697     14698     14691     14694     14697     14699
     14692     14691     14694     14695     14692     14691     14694     14696
     14692     14691     14694     14697     14693     14691     14694     14695
     14693     14691     14694     14696     14693     14691     14694     14697
     14694     14697     14699     14700     14694     14697     14699     14701
     14695     14694     14697     14698     14695     14694     14697     14699
     14696     14694     14697     14698     14696     14694     14697     14699
     14697     14699     14701     14702     14697     14699     14701     14703
     14697     14699     14701     14704     14698     14697     14699     14700
     14698     14697     14699     14701     14699     14701     14704     14705
     14699     14701     14704     14706     14699     14701     14704     14707
     14700     14699     14701     14702     14700     14699     14701     14703
     14700     14699     14701     14704     14701     14704     14707     14708
     14701     14704     14707     14709     14701     14704     14707     14710
     14702     14701     14704     14705     14702     14701     14704     14706
     14702     14701     14704     14707     14703     14701     14704     14705
     14703     14701     14704     14706     14703     14701     14704     14707
     14704     14707     14710     14711     14704     14707     14710     14712
     14704     14707     14710     14713     14705     14704     14707     14708
     14705     14704     14707     14709     14705     14704     14707     14710
     14706     14704     14707     14708     14706     14704     14707     14709
     14706     14704     14707     14710     14707     14710     14713     14714
     14707     14710     14713     14715     14707     14710     14713     14716
     14708     14707     14710     14711     14708     14707     14710     14712
     14708     14707     14710     14713     14709     14707     14710     14711
     14709     14707     14710     14712     14709     14707     14710     14713
     14710     14713     14716     14717     14710     14713     14716     14718
     14710     14713     14716     14719     14711     14710     14713     14714
     14711     14710     14713     14715     14711     14710     14713     14716
     14712     14710     14713     14714     14712     14710     14713     14715
     14712     14710     14713     14716     14713     14716     14719     14720
     14713     14716     14719     14721     14713     14716     14719     14722
     14714     14713     14716     14717     14714     14713     14716     14718
     14714     14713     14716     14719     14715     14713     14716     14717
     14715     14713     14716     14718     14715     14713     14716     14719
     14716     14719     14722     14723     14716     14719     14722     14724
     14716     14719     14722     14725     14717     14716     14719     14720
     14717     14716     14719     14721     14717     14716     14719     14722
     14718     14716     14719     14720     14718     14716     14719     14721
     14718     14716     14719     14722     14720     14719     14722     14723
     14720     14719     14722     14724     14720     14719     14722     14725
     14721     14719     14722     14723     14721     14719     14722     14724
     14721     14719     14722     14725      3257      3261      3264      3265
      3257      3261      3264      3295      3257      3303      3300      3295
      3257      3303      3300      3301      3257      3303      3300      3302
      3258      3257      3259      3260      3258      3257      3261      3262
      3258      3257      3261      3263      3258      3257      3261      3264
      3258      3257      3303      3300      3258      3257      3303      3304
      3258      3257      3303      3305      3259      3257      3261      3262
      3259      3257      3261      3263      3259      3257      3261      3264
      3259      3257      3303      3300      3259      3257      3303      3304
      3259      3257      3303      3305      3260      3259      3257      3261
      3260      3259      3257      3303      3261      3257      3303      3300
      3261      3257      3303      3304      3261      3257      3303      3305
      3261      3264      3265      3266      3261      3264      3265      3267
      3261      3264      3295      3293      3261      3264      3295      3296
      3261      3264      3295      3300      3262      3261      3257      3303
      3262      3261      3264      3265      3262      3261      3264      3295
      3263      3261      3257      3303      3263      3261      3264      3265
      3263      3261      3264      3295      3264      3261      3257      3303
      3264      3265      3267      3268      3264      3265      3267      3269
      3264      3265      3267      3270      3264      3295      3293      3270
      3264      3295      3293      3290      3264      3295      3293      3294
      3264      3295      3296      3297      3264      3295      3296      3298
      3264      3295      3296      3299      3264      3295      3300      3301
      3264      3295      3300      3302      3264      3295      3300      3303
      3265      3264      3295      3293      3265      3264      3295      3296
      3265      3264      3295      3300      3265      3267      3270      3271
      3265      3267      3270      3272      3265      3267      3270      3293
      3266      3265      3264      3295      3266      3265      3267      3268
      3266      3265      3267      3269      3266      3265      3267      3270
      3267      3265      3264      3295      3267      3270      3272      3273
      3267      3270      3272      3274      3267      3270      3272      3282
      3267      3270      3293      3290      3267      3270      3293      3294
      3267      3270      3293      3295      3268      3267      3270      3271
      3268      3267      3270      3272      3268      3267      3270      3293
      3269      3267      3270      3271      3269      3267      3270      3272
      3269      3267      3270      3293      3270      3272      3274      3275
      3270      3272      3274      3276      3270      3272      3274      3277
      3270      3272      3282      3280      3270      3272      3282      3283
      3270      3272      3282      3287      3270      3293      3290      3287
      3270      3293      3290      3291      3270      3293      3290      3292
      3270      3293      3295      3296      3270      3293      3295      3300
      3271      3270      3272      3273      3271      3270      3272      3274
      3271      3270      3272      3282      3271      3270      3293      3290
      3271      3270      3293      3294      3271      3270      3293      3295
      3272      3270      3293      3290      3272      3270      3293      3294
      3272      3270      3293      3295      3272      3274      3277      3278
      3272      3274      3277      3279      3272      3274      3277      3280
      3272      3282      3280      3277      3272      3282      3280      3281
      3272      3282      3280      3306      3272      3282      3283      3284
      3272      3282      3283      3285      3272      3282      3283      3286
      3272      3282      3287      3288      3272      3282      3287      3289
      3272      3282      3287      3290      3273      3272      3270      3293
      3273      3272      3274      3275      3273      3272      3274      3276
      3273      3272      3274      3277      3273      3272      3282      3280
      3273      3272      3282      3283      3273      3272      3282      3287
      3274      3272      3270      3293      3274      3272      3282      3280
      3274      3272      3282      3283      3274      3272      3282      3287
      3274      3277      3280      3281      3274      3277      3280      3282
      3274      3277      3280      3306      3275      3274      3272      3282
      3275      3274      3277      3278      3275      3274      3277      3279
      3275      3274      3277      3280      3276      3274      3272      3282
      3276      3274      3277      3278      3276      3274      3277      3279
      3276      3274      3277      3280      3277      3274      3272      3282
      3277      3280      3282      3283      3277      3280      3282      3287
      3277      3280      3306      3307      3277      3280      3306      3308
      3277      3280      3306      3312      3278      3277      3280      3281
      3278      3277      3280      3282      3278      3277      3280      3306
      3279      3277      3280      3281      3279      3277      3280      3282
      3279      3277      3280      3306      3280      3282      3283      3284
      3280      3282      3283      3285      3280      3282      3283      3286
      3280      3282      3287      3288      3280      3282      3287      3289
      3280      3282      3287      3290      3280      3306      3308      3309
      3280      3306      3308      3310      3280      3306      3308      3311
      3280      3306      3312      3313      3280      3306      3312      3314
      3280      3306      3312      3315      3281      3280      3282      3283
      3281      3280      3282      3287      3281      3280      3306      3307
      3281      3280      3306      3308      3281      3280      3306      3312
      3282      3272      3270      3293      3282      3280      3306      3307
      3282      3280      3306      3308      3282      3280      3306      3312
      3282      3287      3290      3291      3282      3287      3290      3292
      3282      3287      3290      3293      3283      3282      3280      3306
      3283      3282      3287      3288      3283      3282      3287      3289
      3283      3282      3287      3290      3284      3283      3282      3287
      3285      3283      3282      3287      3286      3283      3282      3287
      3287      3282      3280      3306      3287      3290      3293      3294
      3287      3290      3293      3295      3288      3287      3290      3291
      3288      3287      3290      3292      3288      3287      3290      3293
      3289      3287      3290      3291      3289      3287      3290      3292
      3289      3287      3290      3293      3290      3293      3295      3296
      3290      3293      3295      3300      3291      3290      3293      3294
      3291      3290      3293      3295      3292      3290      3293      3294
      3292      3290      3293      3295      3293      3295      3296      3297
      3293      3295      3296      3298      3293      3295      3296      3299
      3293      3295      3300      3301      3293      3295      3300      3302
      3293      3295      3300      3303      3294      3293      3295      3296
      3294      3293      3295      3300      3295      3300      3303      3304
      3295      3300      3303      3305      3296      3295      3300      3301
      3296      3295      3300      3302      3296      3295      3300      3303
      3297      3296      3295      3300      3298      3296      3295      3300
      3299      3296      3295      3300      3301      3300      3303      3304
      3301      3300      3303      3305      3302      3300      3303      3304
      3302      3300      3303      3305      3306      3312      3315      3316
      3306      3312      3315      3317      3306      3312      3315      3318
      3307      3306      3308      3309      3307      3306      3308      3310
      3307      3306      3308      3311      3307      3306      3312      3313
      3307      3306      3312      3314      3307      3306      3312      3315
      3308      3306      3312      3313      3308      3306      3312      3314
      3308      3306      3312      3315      3309      3308      3306      3312
      3310      3308      3306      3312      3311      3308      3306      3312
      3312      3315      3318      3319      3312      3315      3318      3320
      3312      3315      3318      3321      3313      3312      3315      3316
      3313      3312      3315      3317      3313      3312      3315      3318
      3314      3312      3315      3316      3314      3312      3315      3317
      3314      3312      3315      3318      3315      3318      3321      3322
      3315      3318      3321      3323      3315      3318      3321      3327
      3316      3315      3318      3319      3316      3315      3318      3320
      3316      3315      3318      3321      3317      3315      3318      3319
      3317      3315      3318      3320      3317      3315      3318      3321
      3318      3321      3323      3324      3318      3321      3323      3325
      3318      3321      3323      3326      3318      3321      3327      3328
      3318      3321      3327      3329      3318      3321      3327      3330
      3319      3318      3321      3322      3319      3318      3321      3323
      3319      3318      3321      3327      3320      3318      3321      3322
      3320      3318      3321      3323      3320      3318      3321      3327
      3322      3321      3323      3324      3322      3321      3323      3325
      3322      3321      3323      3326      3322      3321      3327      3328
      3322      3321      3327      3329      3322      3321      3327      3330
      3323      3321      3327      3328      3323      3321      3327      3329
      3323      3321      3327      3330      3324      3323      3321      3327
      3325      3323      3321      3327      3326      3323      3321      3327
     14726     14739     14742     14743     14726     14739     14742     14744
     14726     14739     14742     14749     14727     14726     14731     14732
     14727     14726     14731     14733     14727     14726     14731     14734
     14727     14726     14735     14736     14727     14726     14735     14737
     14727     14726     14735     14738     14727     14726     14739     14740
     14727     14726     14739     14741     14727     14726     14739     14742
     14728     14727     14726     14731     14728     14727     14726     14735
     14728     14727     14726     14739     14729     14727     14726     14731
     14729     14727     14726     14735     14729     14727     14726     14739
     14730     14727     14726     14731     14730     14727     14726     14735
     14730     14727     14726     14739     14731     14726     14735     14736
     14731     14726     14735     14737     14731     14726     14735     14738
     14731     14726     14739     14740     14731     14726     14739     14741
     14731     14726     14739     14742     14732     14731     14726     14735
     14732     14731     14726     14739     14733     14731     14726     14735
     14733     14731     14726     14739     14734     14731     14726     14735
     14734     14731     14726     14739     14735     14726     14739     14740
     14735     14726     14739     14741     14735     14726     14739     14742
     14736     14735     14726     14739     14737     14735     14726     14739
     14738     14735     14726     14739     14739     14742     14749     14745
     14740     14739     14742     14743     14740     14739     14742     14744
     14740     14739     14742     14749     14741     14739     14742     14743
     14741     14739     14742     14744     14741     14739     14742     14749
     14742     14749     14745     14746     14742     14749     14745     14747
     14742     14749     14745     14748     14743     14742     14749     14745
     14744     14742     14749     14745     14745     14748     14750     14751
     14745     14748     14750     14752     14745     14748     14750     14755
     14746     14745     14748     14750     14747     14745     14748     14750
     14748     14750     14755     14753     14748     14750     14755     14756
     14748     14750     14755     14757     14749     14745     14748     14750
     14750     14755     14753     14754     14750     14755     14753     14805
     14750     14755     14757     14758     14750     14755     14757     14759
     14750     14755     14757     14761     14751     14750     14755     14753
     14751     14750     14755     14756     14751     14750     14755     14757
     14752     14750     14755     14753     14752     14750     14755     14756
     14752     14750     14755     14757     14753     14755     14757     14758
     14753     14755     14757     14759     14753     14755     14757     14761
     14753     14805     14807     14808     14753     14805     14807     14809
     14753     14805     14807     14810     14754     14753     14755     14756
     14754     14753     14755     14757     14754     14753     14805     14806
     14754     14753     14805     14807     14755     14753     14805     14806
     14755     14753     14805     14807     14755     14757     14759     14760
     14755     14757     14761     14762     14755     14757     14761     14763
     14756     14755     14753     14805     14756     14755     14757     14758
     14756     14755     14757     14759     14756     14755     14757     14761
     14757     14755     14753     14805     14757     14761     14763     14764
     14757     14761     14763     14765     14758     14757     14759     14760
     14758     14757     14761     14762     14758     14757     14761     14763
     14759     14757     14761     14762     14759     14757     14761     14763
     14760     14759     14757     14761     14761     14763     14765     14766
     14761     14763     14765     14767     14761     14763     14765     14768
     14762     14761     14763     14764     14762     14761     14763     14765
     14763     14765     14768     14769     14763     14765     14768     14770
     14763     14765     14768     14771     14764     14763     14765     14766
     14764     14763     14765     14767     14764     14763     14765     14768
     14765     14768     14771     14772     14765     14768     14771     14773
     14765     14768     14771     14774     14766     14765     14768     14769
     14766     14765     14768     14770     14766     14765     14768     14771
     14767     14765     14768     14769     14767     14765     14768     14770
     14767     14765     14768     14771     14768     14771     14774     14775
     14768     14771     14774     14776     14768     14771     14774     14777
     14769     14768     14771     14772     14769     14768     14771     14773
     14769     14768     14771     14774     14770     14768     14771     14772
     14770     14768     14771     14773     14770     14768     14771     14774
     14771     14774     14777     14778     14771     14774     14777     14779
     14771     14774     14777     14780     14772     14771     14774     14775
     14772     14771     14774     14776     14772     14771     14774     14777
     14773     14771     14774     14775     14773     14771     14774     14776
     14773     14771     14774     14777     14774     14777     14780     14781
     14774     14777     14780     14782     14774     14777     14780     14783
     14775     14774     14777     14778     14775     14774     14777     14779
     14775     14774     14777     14780     14776     14774     14777     14778
     14776     14774     14777     14779     14776     14774     14777     14780
     14777     14780     14783     14784     14777     14780     14783     14785
     14777     14780     14783     14786     14778     14777     14780     14781
     14778     14777     14780     14782     14778     14777     14780     14783
     14779     14777     14780     14781     14779     14777     14780     14782
     14779     14777     14780     14783     14780     14783     14786     14787
     14780     14783     14786     14788     14780     14783     14786     14789
     14781     14780     14783     14784     14781     14780     14783     14785
     14781     14780     14783     14786     14782     14780     14783     14784
     14782     14780     14783     14785     14782     14780     14783     14786
     14783     14786     14789     14790     14783     14786     14789     14791
     14783     14786     14789     14792     14784     14783     14786     14787
     14784     14783     14786     14788     14784     14783     14786     14789
     14785     14783     14786     14787     14785     14783     14786     14788
     14785     14783     14786     14789     14786     14789     14792     14793
     14786     14789     14792     14794     14786     14789     14792     14795
     14787     14786     14789     14790     14787     14786     14789     14791
     14787     14786     14789     14792     14788     14786     14789     14790
     14788     14786     14789     14791     14788     14786     14789     14792
     14789     14792     14795     14796     14789     14792     14795     14797
     14789     14792     14795     14798     14790     14789     14792     14793
     14790     14789     14792     14794     14790     14789     14792     14795
     14791     14789     14792     14793     14791     14789     14792     14794
     14791     14789     14792     14795     14792     14795     14798     14799
     14792     14795     14798     14800     14792     14795     14798     14801
     14793     14792     14795     14796     14793     14792     14795     14797
     14793     14792     14795     14798     14794     14792     14795     14796
     14794     14792     14795     14797     14794     14792     14795     14798
     14795     14798     14801     14802     14795     14798     14801     14803
     14795     14798     14801     14804     14796     14795     14798     14799
     14796     14795     14798     14800     14796     14795     14798     14801
     14797     14795     14798     14799     14797     14795     14798     14800
     14797     14795     14798     14801     14799     14798     14801     14802
     14799     14798     14801     14803     14799     14798     14801     14804
     14800     14798     14801     14802     14800     14798     14801     14803
     14800     14798     14801     14804     14805     14807     14810     14811
     14805     14807     14810     14812     14805     14807     14810     14813
     14806     14805     14807     14808     14806     14805     14807     14809
     14806     14805     14807     14810     14807     14810     14813     14814
     14807     14810     14813     14815     14807     14810     14813     14816
     14808     14807     14810     14811     14808     14807     14810     14812
     14808     14807     14810     14813     14809     14807     14810     14811
     14809     14807     14810     14812     14809     14807     14810     14813
     14810     14813     14816     14817     14810     14813     14816     14818
     14810     14813     14816     14819     14811     14810     14813     14814
     14811     14810     14813     14815     14811     14810     14813     14816
     14812     14810     14813     14814     14812     14810     14813     14815
     14812     14810     14813     14816     14813     14816     14819     14820
     14813     14816     14819     14821     14813     14816     14819     14822
     14814     14813     14816     14817     14814     14813     14816     14818
     14814     14813     14816     14819     14815     14813     14816     14817
     14815     14813     14816     14818     14815     14813     14816     14819
     14816     14819     14822     14823     14816     14819     14822     14824
     14816     14819     14822     14825     14817     14816     14819     14820
     14817     14816     14819     14821     14817     14816     14819     14822
     14818     14816     14819     14820     14818     14816     14819     14821
     14818     14816     14819     14822     14819     14822     14825     14826
     14819     14822     14825     14827     14819     14822     14825     14828
     14820     14819     14822     14823     14820     14819     14822     14824
     14820     14819     14822     14825     14821     14819     14822     14823
     14821     14819     14822     14824     14821     14819     14822     14825
     14822     14825     14828     14829     14822     14825     14828     14830
     14823     14822     14825     14826     14823     14822     14825     14827
     14823     14822     14825     14828     14824     14822     14825     14826
     14824     14822     14825     14827     14824     14822     14825     14828
     14825     14828     14830     14831     14825     14828     14830     14832
     14826     14825     14828     14829     14826     14825     14828     14830
     14827     14825     14828     14829     14827     14825     14828     14830
     14828     14830     14832     14833     14828     14830     14832     14834
     14828     14830     14832     14835     14829     14828     14830     14831
     14829     14828     14830     14832     14830     14832     14835     14836
     14830     14832     14835     14837     14830     14832     14835     14838
     14831     14830     14832     14833     14831     14830     14832     14834
     14831     14830     14832     14835     14832     14835     14838     14839
     14832     14835     14838     14840     14832     14835     14838     14841
     14833     14832     14835     14836     14833     14832     14835     14837
     14833     14832     14835     14838     14834     14832     14835     14836
     14834     14832     14835     14837     14834     14832     14835     14838
     14835     14838     14841     14842     14835     14838     14841     14843
     14835     14838     14841     14844     14836     14835     14838     14839
     14836     14835     14838     14840     14836     14835     14838     14841
     14837     14835     14838     14839     14837     14835     14838     14840
     14837     14835     14838     14841     14838     14841     14844     14845
     14838     14841     14844     14846     14838     14841     14844     14847
     14839     14838     14841     14842     14839     14838     14841     14843
     14839     14838     14841     14844     14840     14838     14841     14842
     14840     14838     14841     14843     14840     14838     14841     14844
     14841     14844     14847     14848     14841     14844     14847     14849
     14841     14844     14847     14850     14842     14841     14844     14845
     14842     14841     14844     14846     14842     14841     14844     14847
     14843     14841     14844     14845     14843     14841     14844     14846
     14843     14841     14844     14847     14844     14847     14850     14851
     14844     14847     14850     14852     14844     14847     14850     14853
     14845     14844     14847     14848     14845     14844     14847     14849
     14845     14844     14847     14850     14846     14844     14847     14848
     14846     14844     14847     14849     14846     14844     14847     14850
     14847     14850     14853     14854     14847     14850     14853     14855
     14847     14850     14853     14856     14848     14847     14850     14851
     14848     14847     14850     14852     14848     14847     14850     14853
     14849     14847     14850     14851     14849     14847     14850     14852
     14849     14847     14850     14853     14851     14850     14853     14854
     14851     14850     14853     14855     14851     14850     14853     14856
     14852     14850     14853     14854     14852     14850     14853     14855
     14852     14850     14853     14856     18394     18398     18401     18402
     18394     18398     18401     18403     18394     18398     18401     18407
     18395     18394     18398     18399     18395     18394     18398     18400
     18395     18394     18398     18401     18396     18394     18398     18399
     18396     18394     18398     18400     18396     18394     18398     18401
     18397     18394     18398     18399     18397     18394     18398     18400
     18397     18394     18398     18401     18398     18401     18407     18404
     18399     18398     18401     18402     18399     18398     18401     18403
     18399     18398     18401     18407     18400     18398     18401     18402
     18400     18398     18401     18403     18400     18398     18401     18407
     18401     18407     18404     18405     18401     18407     18404     18406
     18401     18407     18404     18408     18402     18401     18407     18404
     18403     18401     18407     18404     18404     18408     18409     18410
     18404     18408     18409     18411     18404     18408     18409     18412
     18405     18404     18408     18409     18406     18404     18408     18409
     18407     18404     18408     18409     18408     18409     18412     18413
     18408     18409     18412     18414     18408     18409     18412     18420
     18409     18412     18414     18415     18409     18412     18420     18421
     18409     18412     18420     18422     18409     18412     18420     18423
     18410     18409     18412     18413     18410     18409     18412     18414
     18410     18409     18412     18420     18411     18409     18412     18413
     18411     18409     18412     18414     18411     18409     18412     18420
     18412     18414     18415     18416     18412     18414     18415     18417
     18412     18420     18423     18424     18413     18412     18414     18415
     18413     18412     18420     18421     18413     18412     18420     18422
     18413     18412     18420     18423     18414     18412     18420     18421
     18414     18412     18420     18422     18414     18412     18420     18423
     18414     18415     18417     18418     18414     18415     18417     18419
     18414     18415     18417     18429     18415     18414     18412     18420
     18415     18417     18429     18430     18415     18417     18429     18431
     18415     18417     18429     18432     18416     18415     18417     18418
     18416     18415     18417     18419     18416     18415     18417     18429
     18417     18429     18432     18433     18417     18429     18432     18434
     18417     18429     18432     18435     18418     18417     18429     18430
     18418     18417     18429     18431     18418     18417     18429     18432
     18419     18417     18429     18430     18419     18417     18429     18431
     18419     18417     18429     18432     18420     18423     18424     18425
     18420     18423     18424     18426     18421     18420     18423     18424
     18422     18420     18423     18424     18423     18424     18426     18427
     18423     18424     18426     18428     18423     18424     18426     18476
     18424     18426     18476     18477     18424     18426     18476     18478
     18424     18426     18476     18479     18425     18424     18426     18427
     18425     18424     18426     18428     18425     18424     18426     18476
     18426     18476     18479     18480     18426     18476     18479     18481
     18426     18476     18479     18482     18427     18426     18476     18477
     18427     18426     18476     18478     18427     18426     18476     18479
     18428     18426     18476     18477     18428     18426     18476     18478
     18428     18426     18476     18479     18429     18432     18435     18436
     18429     18432     18435     18437     18430     18429     18432     18433
     18430     18429     18432     18434     18430     18429     18432     18435
     18431     18429     18432     18433     18431     18429     18432     18434
     18431     18429     18432     18435     18432     18435     18437     18438
     18432     18435     18437     18439     18433     18432     18435     18436
     18433     18432     18435     18437     18434     18432     18435     18436
     18434     18432     18435     18437     18435     18437     18439     18440
     18435     18437     18439     18441     18435     18437     18439     18442
     18436     18435     18437     18438     18436     18435     18437     18439
     18437     18439     18442     18443     18437     18439     18442     18444
     18438     18437     18439     18440     18438     18437     18439     18441
     18438     18437     18439     18442     18439     18442     18444     18445
     18439     18442     18444     18446     18440     18439     18442     18443
     18440     18439     18442     18444     18441     18439     18442     18443
     18441     18439     18442     18444     18442     18444     18446     18447
     18442     18444     18446     18448     18442     18444     18446     18449
     18443     18442     18444     18445     18443     18442     18444     18446
     18444     18446     18449     18450     18444     18446     18449     18451
     18445     18444     18446     18447     18445     18444     18446     18448
     18445     18444     18446     18449     18446     18449     18451     18452
     18446     18449     18451     18453     18447     18446     18449     18450
     18447     18446     18449     18451     18448     18446     18449     18450
     18448     18446     18449     18451     18449     18451     18453     18454
     18449     18451     18453     18455     18449     18451     18453     18456
     18450     18449     18451     18452     18450     18449     18451     18453
     18451     18453     18456     18457     18451     18453     18456     18458
     18452     18451     18453     18454     18452     18451     18453     18455
     18452     18451     18453     18456     18453     18456     18458     18459
     18453     18456     18458     18460     18454     18453     18456     18457
     18454     18453     18456     18458     18455     18453     18456     18457
     18455     18453     18456     18458     18456     18458     18460     18461
     18456     18458     18460     18462     18456     18458     18460     18463
     18457     18456     18458     18459     18457     18456     18458     18460
     18458     18460     18463     18464     18458     18460     18463     18465
     18458     18460     18463     18466     18459     18458     18460     18461
     18459     18458     18460     18462     18459     18458     18460     18463
     18460     18463     18466     18467     18460     18463     18466     18468
     18460     18463     18466     18469     18461     18460     18463     18464
     18461     18460     18463     18465     18461     18460     18463     18466
     18462     18460     18463     18464     18462     18460     18463     18465
     18462     18460     18463     18466     18463     18466     18469     18470
     18463     18466     18469     18471     18463     18466     18469     18472
     18464     18463     18466     18467     18464     18463     18466     18468
     18464     18463     18466     18469     18465     18463     18466     18467
     18465     18463     18466     18468     18465     18463     18466     18469
     18466     18469     18472     18473     18466     18469     18472     18474
     18466     18469     18472     18475     18467     18466     18469     18470
     18467     18466     18469     18471     18467     18466     18469     18472
     18468     18466     18469     18470     18468     18466     18469     18471
     18468     18466     18469     18472     18470     18469     18472     18473
     18470     18469     18472     18474     18470     18469     18472     18475
     18471     18469     18472     18473     18471     18469     18472     18474
     18471     18469     18472     18475     18476     18479     18482     18483
     18476     18479     18482     18484     18476     18479     18482     18485
     18477     18476     18479     18480     18477     18476     18479     18481
     18477     18476     18479     18482     18478     18476     18479     18480
     18478     18476     18479     18481     18478     18476     18479     18482
     18479     18482     18485     18486     18479     18482     18485     18487
     18479     18482     18485     18488     18480     18479     18482     18483
     18480     18479     18482     18484     18480     18479     18482     18485
     18481     18479     18482     18483     18481     18479     18482     18484
     18481     18479     18482     18485     18482     18485     18488     18489
     18482     18485     18488     18490     18482     18485     18488     18491
     18483     18482     18485     18486     18483     18482     18485     18487
     18483     18482     18485     18488     18484     18482     18485     18486
     18484     18482     18485     18487     18484     18482     18485     18488
     18485     18488     18491     18492     18485     18488     18491     18493
     18485     18488     18491     18494     18486     18485     18488     18489
     18486     18485     18488     18490     18486     18485     18488     18491
     18487     18485     18488     18489     18487     18485     18488     18490
     18487     18485     18488     18491     18488     18491     18494     18495
     18488     18491     18494     18496     18488     18491     18494     18497
     18489     18488     18491     18492     18489     18488     18491     18493
     18489     18488     18491     18494     18490     18488     18491     18492
     18490     18488     18491     18493     18490     18488     18491     18494
     18491     18494     18497     18498     18491     18494     18497     18499
     18491     18494     18497     18500     18492     18491     18494     18495
     18492     18491     18494     18496     18492     18491     18494     18497
     18493     18491     18494     18495     18493     18491     18494     18496
     18493     18491     18494     18497     18494     18497     18500     18501
     18494     18497     18500     18502     18494     18497     18500     18503
     18495     18494     18497     18498     18495     18494     18497     18499
     18495     18494     18497     18500     18496     18494     18497     18498
     18496     18494     18497     18499     18496     18494     18497     18500
     18497     18500     18503     18504     18497     18500     18503     18505
     18497     18500     18503     18506     18498     18497     18500     18501
     18498     18497     18500     18502     18498     18497     18500     18503
     18499     18497     18500     18501     18499     18497     18500     18502
     18499     18497     18500     18503     18500     18503     18506     18507
     18500     18503     18506     18508     18500     18503     18506     18509
     18501     18500     18503     18504     18501     18500     18503     18505
     18501     18500     18503     18506     18502     18500     18503     18504
     18502     18500     18503     18505     18502     18500     18503     18506
     18503     18506     18509     18510     18503     18506     18509     18511
     18503     18506     18509     18512     18504     18503     18506     18507
     18504     18503     18506     18508     18504     18503     18506     18509
     18505     18503     18506     18507     18505     18503     18506     18508
     18505     18503     18506     18509     18506     18509     18512     18513
     18506     18509     18512     18514     18506     18509     18512     18515
     18507     18506     18509     18510     18507     18506     18509     18511
     18507     18506     18509     18512     18508     18506     18509     18510
     18508     18506     18509     18511     18508     18506     18509     18512
     18509     18512     18515     18516     18509     18512     18515     18517
     18509     18512     18515     18518     18510     18509     18512     18513
     18510     18509     18512     18514     18510     18509     18512     18515
     18511     18509     18512     18513     18511     18509     18512     18514
     18511     18509     18512     18515     18512     18515     18518     18519
     18512     18515     18518     18520     18512     18515     18518     18521
     18513     18512     18515     18516     18513     18512     18515     18517
     18513     18512     18515     18518     18514     18512     18515     18516
     18514     18512     18515     18517     18514     18512     18515     18518
     18515     18518     18521     18522     18515     18518     18521     18523
     18515     18518     18521     18524     18516     18515     18518     18519
     18516     18515     18518     18520     18516     18515     18518     18521
     18517     18515     18518     18519     18517     18515     18518     18520
     18517     18515     18518     18521     18519     18518     18521     18522
     18519     18518     18521     18523     18519     18518     18521     18524
     18520     18518     18521     18522     18520     18518     18521     18523
     18520     18518     18521     18524     14857     14870     14873     14874
     14857     14870     14873     14875     14857     14870     14873     14880
     14858     14857     14862     14863     14858     14857     14862     14864
     14858     14857     14862     14865     14858     14857     14866     14867
     14858     14857     14866     14868     14858     14857     14866     14869
     14858     14857     14870     14871     14858     14857     14870     14872
     14858     14857     14870     14873     14859     14858     14857     14862
     14859     14858     14857     14866     14859     14858     14857     14870
     14860     14858     14857     14862     14860     14858     14857     14866
     14860     14858     14857     14870     14861     14858     14857     14862
     14861     14858     14857     14866     14861     14858     14857     14870
     14862     14857     14866     14867     14862     14857     14866     14868
     14862     14857     14866     14869     14862     14857     14870     14871
     14862     14857     14870     14872     14862     14857     14870     14873
     14863     14862     14857     14866     14863     14862     14857     14870
     14864     14862     14857     14866     14864     14862     14857     14870
     14865     14862     14857     14866     14865     14862     14857     14870
     14866     14857     14870     14871     14866     14857     14870     14872
     14866     14857     14870     14873     14867     14866     14857     14870
     14868     14866     14857     14870     14869     14866     14857     14870
     14870     14873     14880     14876     14871     14870     14873     14874
     14871     14870     14873     14875     14871     14870     14873     14880
     14872     14870     14873     14874     14872     14870     14873     14875
     14872     14870     14873     14880     14873     14880     14876     14877
     14873     14880     14876     14878     14873     14880     14876     14879
     14874     14873     14880     14876     14875     14873     14880     14876
     14876     14879     14881     14882     14876     14879     14881     14883
     14876     14879     14881     14886     14877     14876     14879     14881
     14878     14876     14879     14881     14879     14881     14886     14884
     14879     14881     14886     14887     14879     14881     14886     14888
     14880     14876     14879     14881     14881     14886     14884     14885
     14881     14886     14884     14936     14881     14886     14888     14889
     14881     14886     14888     14890     14881     14886     14888     14892
     14882     14881     14886     14884     14882     14881     14886     14887
     14882     14881     14886     14888     14883     14881     14886     14884
     14883     14881     14886     14887     14883     14881     14886     14888
     14884     14886     14888     14889     14884     14886     14888     14890
     14884     14886     14888     14892     14884     14936     14938     14939
     14884     14936     14938     14940     14884     14936     14938     14941
     14885     14884     14886     14887     14885     14884     14886     14888
     14885     14884     14936     14937     14885     14884     14936     14938
     14886     14884     14936     14937     14886     14884     14936     14938
     14886     14888     14890     14891     14886     14888     14892     14893
     14886     14888     14892     14894     14887     14886     14884     14936
     14887     14886     14888     14889     14887     14886     14888     14890
     14887     14886     14888     14892     14888     14886     14884     14936
     14888     14892     14894     14895     14888     14892     14894     14896
     14889     14888     14890     14891     14889     14888     14892     14893
     14889     14888     14892     14894     14890     14888     14892     14893
     14890     14888     14892     14894     14891     14890     14888     14892
     14892     14894     14896     14897     14892     14894     14896     14898
     14892     14894     14896     14899     14893     14892     14894     14895
     14893     14892     14894     14896     14894     14896     14899     14900
     14894     14896     14899     14901     14894     14896     14899     14902
     14895     14894     14896     14897     14895     14894     14896     14898
     14895     14894     14896     14899     14896     14899     14902     14903
     14896     14899     14902     14904     14896     14899     14902     14905
     14897     14896     14899     14900     14897     14896     14899     14901
     14897     14896     14899     14902     14898     14896     14899     14900
     14898     14896     14899     14901     14898     14896     14899     14902
     14899     14902     14905     14906     14899     14902     14905     14907
     14899     14902     14905     14908     14900     14899     14902     14903
     14900     14899     14902     14904     14900     14899     14902     14905
     14901     14899     14902     14903     14901     14899     14902     14904
     14901     14899     14902     14905     14902     14905     14908     14909
     14902     14905     14908     14910     14902     14905     14908     14911
     14903     14902     14905     14906     14903     14902     14905     14907
     14903     14902     14905     14908     14904     14902     14905     14906
     14904     14902     14905     14907     14904     14902     14905     14908
     14905     14908     14911     14912     14905     14908     14911     14913
     14905     14908     14911     14914     14906     14905     14908     14909
     14906     14905     14908     14910     14906     14905     14908     14911
     14907     14905     14908     14909     14907     14905     14908     14910
     14907     14905     14908     14911     14908     14911     14914     14915
     14908     14911     14914     14916     14908     14911     14914     14917
     14909     14908     14911     14912     14909     14908     14911     14913
     14909     14908     14911     14914     14910     14908     14911     14912
     14910     14908     14911     14913     14910     14908     14911     14914
     14911     14914     14917     14918     14911     14914     14917     14919
     14911     14914     14917     14920     14912     14911     14914     14915
     14912     14911     14914     14916     14912     14911     14914     14917
     14913     14911     14914     14915     14913     14911     14914     14916
     14913     14911     14914     14917     14914     14917     14920     14921
     14914     14917     14920     14922     14914     14917     14920     14923
     14915     14914     14917     14918     14915     14914     14917     14919
     14915     14914     14917     14920     14916     14914     14917     14918
     14916     14914     14917     14919     14916     14914     14917     14920
     14917     14920     14923     14924     14917     14920     14923     14925
     14917     14920     14923     14926     14918     14917     14920     14921
     14918     14917     14920     14922     14918     14917     14920     14923
     14919     14917     14920     14921     14919     14917     14920     14922
     14919     14917     14920     14923     14920     14923     14926     14927
     14920     14923     14926     14928     14920     14923     14926     14929
     14921     14920     14923     14924     14921     14920     14923     14925
     14921     14920     14923     14926     14922     14920     14923     14924
     14922     14920     14923     14925     14922     14920     14923     14926
     14923     14926     14929     14930     14923     14926     14929     14931
     14923     14926     14929     14932     14924     14923     14926     14927
     14924     14923     14926     14928     14924     14923     14926     14929
     14925     14923     14926     14927     14925     14923     14926     14928
     14925     14923     14926     14929     14926     14929     14932     14933
     14926     14929     14932     14934     14926     14929     14932     14935
     14927     14926     14929     14930     14927     14926     14929     14931
     14927     14926     14929     14932     14928     14926     14929     14930
     14928     14926     14929     14931     14928     14926     14929     14932
     14930     14929     14932     14933     14930     14929     14932     14934
     14930     14929     14932     14935     14931     14929     14932     14933
     14931     14929     14932     14934     14931     14929     14932     14935
     14936     14938     14941     14942     14936     14938     14941     14943
     14936     14938     14941     14944     14937     14936     14938     14939
     14937     14936     14938     14940     14937     14936     14938     14941
     14938     14941     14944     14945     14938     14941     14944     14946
     14938     14941     14944     14947     14939     14938     14941     14942
     14939     14938     14941     14943     14939     14938     14941     14944
     14940     14938     14941     14942     14940     14938     14941     14943
     14940     14938     14941     14944     14941     14944     14947     14948
     14941     14944     14947     14949     14941     14944     14947     14950
     14942     14941     14944     14945     14942     14941     14944     14946
     14942     14941     14944     14947     14943     14941     14944     14945
     14943     14941     14944     14946     14943     14941     14944     14947
     14944     14947     14950     14951     14944     14947     14950     14952
     14944     14947     14950     14953     14945     14944     14947     14948
     14945     14944     14947     14949     14945     14944     14947     14950
     14946     14944     14947     14948     14946     14944     14947     14949
     14946     14944     14947     14950     14947     14950     14953     14954
     14947     14950     14953     14955     14947     14950     14953     14956
     14948     14947     14950     14951     14948     14947     14950     14952
     14948     14947     14950     14953     14949     14947     14950     14951
     14949     14947     14950     14952     14949     14947     14950     14953
     14950     14953     14956     14957     14950     14953     14956     14958
     14950     14953     14956     14959     14951     14950     14953     14954
     14951     14950     14953     14955     14951     14950     14953     14956
     14952     14950     14953     14954     14952     14950     14953     14955
     14952     14950     14953     14956     14953     14956     14959     14960
     14953     14956     14959     14961     14954     14953     14956     14957
     14954     14953     14956     14958     14954     14953     14956     14959
     14955     14953     14956     14957     14955     14953     14956     14958
     14955     14953     14956     14959     14956     14959     14961     14962
     14956     14959     14961     14963     14957     14956     14959     14960
     14957     14956     14959     14961     14958     14956     14959     14960
     14958     14956     14959     14961     14959     14961     14963     14964
     14959     14961     14963     14965     14959     14961     14963     14966
     14960     14959     14961     14962     14960     14959     14961     14963
     14961     14963     14966     14967     14961     14963     14966     14968
     14961     14963     14966     14969     14962     14961     14963     14964
     14962     14961     14963     14965     14962     14961     14963     14966
     14963     14966     14969     14970     14963     14966     14969     14971
     14963     14966     14969     14972     14964     14963     14966     14967
     14964     14963     14966     14968     14964     14963     14966     14969
     14965     14963     14966     14967     14965     14963     14966     14968
     14965     14963     14966     14969     14966     14969     14972     14973
     14966     14969     14972     14974     14966     14969     14972     14975
     14967     14966     14969     14970     14967     14966     14969     14971
     14967     14966     14969     14972     14968     14966     14969     14970
     14968     14966     14969     14971     14968     14966     14969     14972
     14969     14972     14975     14976     14969     14972     14975     14977
     14969     14972     14975     14978     14970     14969     14972     14973
     14970     14969     14972     14974     14970     14969     14972     14975
     14971     14969     14972     14973     14971     14969     14972     14974
     14971     14969     14972     14975     14972     14975     14978     14979
     14972     14975     14978     14980     14972     14975     14978     14981
     14973     14972     14975     14976     14973     14972     14975     14977
     14973     14972     14975     14978     14974     14972     14975     14976
     14974     14972     14975     14977     14974     14972     14975     14978
     14975     14978     14981     14982     14975     14978     14981     14983
     14975     14978     14981     14984     14976     14975     14978     14979
     14976     14975     14978     14980     14976     14975     14978     14981
     14977     14975     14978     14979     14977     14975     14978     14980
     14977     14975     14978     14981     14978     14981     14984     14985
     14978     14981     14984     14986     14978     14981     14984     14987
     14979     14978     14981     14982     14979     14978     14981     14983
     14979     14978     14981     14984     14980     14978     14981     14982
     14980     14978     14981     14983     14980     14978     14981     14984
     14982     14981     14984     14985     14982     14981     14984     14986
     14982     14981     14984     14987     14983     14981     14984     14985
     14983     14981     14984     14986     14983     14981     14984     14987
      3331      3335      3338      3339      3331      3335      3338      3369
      3331      3377      3374      3369      3331      3377      3374      3375
      3331      3377      3374      3376      3332      3331      3333      3334
      3332      3331      3335      3336      3332      3331      3335      3337
      3332      3331      3335      3338      3332      3331      3377      3374
      3332      3331      3377      3378      3332      3331      3377      3379
      3333      3331      3335      3336      3333      3331      3335      3337
      3333      3331      3335      3338      3333      3331      3377      3374
      3333      3331      3377      3378      3333      3331      3377      3379
      3334      3333      3331      3335      3334      3333      3331      3377
      3335      3331      3377      3374      3335      3331      3377      3378
      3335      3331      3377      3379      3335      3338      3339      3340
      3335      3338      3339      3341      3335      3338      3369      3367
      3335      3338      3369      3370      3335      3338      3369      3374
      3336      3335      3331      3377      3336      3335      3338      3339
      3336      3335      3338      3369      3337      3335      3331      3377
      3337      3335      3338      3339      3337      3335      3338      3369
      3338      3335      3331      3377      3338      3339      3341      3342
      3338      3339      3341      3343      3338      3339      3341      3344
      3338      3369      3367      3344      3338      3369      3367      3364
      3338      3369      3367      3368      3338      3369      3370      3371
      3338      3369      3370      3372      3338      3369      3370      3373
      3338      3369      3374      3375      3338      3369      3374      3376
      3338      3369      3374      3377      3339      3338      3369      3367
      3339      3338      3369      3370      3339      3338      3369      3374
      3339      3341      3344      3345      3339      3341      3344      3346
      3339      3341      3344      3367      3340      3339      3338      3369
      3340      3339      3341      3342      3340      3339      3341      3343
      3340      3339      3341      3344      3341      3339      3338      3369
      3341      3344      3346      3347      3341      3344      3346      3348
      3341      3344      3346      3356      3341      3344      3367      3364
      3341      3344      3367      3368      3341      3344      3367      3369
      3342      3341      3344      3345      3342      3341      3344      3346
      3342      3341      3344      3367      3343      3341      3344      3345
      3343      3341      3344      3346      3343      3341      3344      3367
      3344      3346      3348      3349      3344      3346      3348      3350
      3344      3346      3348      3351      3344      3346      3356      3354
      3344      3346      3356      3357      3344      3346      3356      3361
      3344      3367      3364      3361      3344      3367      3364      3365
      3344      3367      3364      3366      3344      3367      3369      3370
      3344      3367      3369      3374      3345      3344      3346      3347
      3345      3344      3346      3348      3345      3344      3346      3356
      3345      3344      3367      3364      3345      3344      3367      3368
      3345      3344      3367      3369      3346      3344      3367      3364
      3346      3344      3367      3368      3346      3344      3367      3369
      3346      3348      3351      3352      3346      3348      3351      3353
      3346      3348      3351      3354      3346      3356      3354      3351
      3346      3356      3354      3355      3346      3356      3354      3380
      3346      3356      3357      3358      3346      3356      3357      3359
      3346      3356      3357      3360      3346      3356      3361      3362
      3346      3356      3361      3363      3346      3356      3361      3364
      3347      3346      3344      3367      3347      3346      3348      3349
      3347      3346      3348      3350      3347      3346      3348      3351
      3347      3346      3356      3354      3347      3346      3356      3357
      3347      3346      3356      3361      3348      3346      3344      3367
      3348      3346      3356      3354      3348      3346      3356      3357
      3348      3346      3356      3361      3348      3351      3354      3355
      3348      3351      3354      3356      3348      3351      3354      3380
      3349      3348      3346      3356      3349      3348      3351      3352
      3349      3348      3351      3353      3349      3348      3351      3354
      3350      3348      3346      3356      3350      3348      3351      3352
      3350      3348      3351      3353      3350      3348      3351      3354
      3351      3348      3346      3356      3351      3354      3356      3357
      3351      3354      3356      3361      3351      3354      3380      3381
      3351      3354      3380      3382      3351      3354      3380      3386
      3352      3351      3354      3355      3352      3351      3354      3356
      3352      3351      3354      3380      3353      3351      3354      3355
      3353      3351      3354      3356      3353      3351      3354      3380
      3354      3356      3357      3358      3354      3356      3357      3359
      3354      3356      3357      3360      3354      3356      3361      3362
      3354      3356      3361      3363      3354      3356      3361      3364
      3354      3380      3382      3383      3354      3380      3382      3384
      3354      3380      3382      3385      3354      3380      3386      3387
      3354      3380      3386      3388      3354      3380      3386      3389
      3355      3354      3356      3357      3355      3354      3356      3361
      3355      3354      3380      3381      3355      3354      3380      3382
      3355      3354      3380      3386      3356      3346      3344      3367
      3356      3354      3380      3381      3356      3354      3380      3382
      3356      3354      3380      3386      3356      3361      3364      3365
      3356      3361      3364      3366      3356      3361      3364      3367
      3357      3356      3354      3380      3357      3356      3361      3362
      3357      3356      3361      3363      3357      3356      3361      3364
      3358      3357      3356      3361      3359      3357      3356      3361
      3360      3357      3356      3361      3361      3356      3354      3380
      3361      3364      3367      3368      3361      3364      3367      3369
      3362      3361      3364      3365      3362      3361      3364      3366
      3362      3361      3364      3367      3363      3361      3364      3365
      3363      3361      3364      3366      3363      3361      3364      3367
      3364      3367      3369      3370      3364      3367      3369      3374
      3365      3364      3367      3368      3365      3364      3367      3369
      3366      3364      3367      3368      3366      3364      3367      3369
      3367      3369      3370      3371      3367      3369      3370      3372
      3367      3369      3370      3373      3367      3369      3374      3375
      3367      3369      3374      3376      3367      3369      3374      3377
      3368      3367      3369      3370      3368      3367      3369      3374
      3369      3374      3377      3378      3369      3374      3377      3379
      3370      3369      3374      3375      3370      3369      3374      3376
      3370      3369      3374      3377      3371      3370      3369      3374
      3372      3370      3369      3374      3373      3370      3369      3374
      3375      3374      3377      3378      3375      3374      3377      3379
      3376      3374      3377      3378      3376      3374      3377      3379
      3380      3386      3389      3390      3380      3386      3389      3391
      3380      3386      3389      3392      3381      3380      3382      3383
      3381      3380      3382      3384      3381      3380      3382      3385
      3381      3380      3386      3387      3381      3380      3386      3388
      3381      3380      3386      3389      3382      3380      3386      3387
      3382      3380      3386      3388      3382      3380      3386      3389
      3383      3382      3380      3386      3384      3382      3380      3386
      3385      3382      3380      3386      3386      3389      3392      3393
      3386      3389      3392      3394      3386      3389      3392      3395
      3387      3386      3389      3390      3387      3386      3389      3391
      3387      3386      3389      3392      3388      3386      3389      3390
      3388      3386      3389      3391      3388      3386      3389      3392
      3389      3392      3395      3396      3389      3392      3395      3397
      3389      3392      3395      3401      3390      3389      3392      3393
      3390      3389      3392      3394      3390      3389      3392      3395
      3391      3389      3392      3393      3391      3389      3392      3394
      3391      3389      3392      3395      3392      3395      3397      3398
      3392      3395      3397      3399      3392      3395      3397      3400
      3392      3395      3401      3402      3392      3395      3401      3403
      3392      3395      3401      3404      3393      3392      3395      3396
      3393      3392      3395      3397      3393      3392      3395      3401
      3394      3392      3395      3396      3394      3392      3395      3397
      3394      3392      3395      3401      3396      3395      3397      3398
      3396      3395      3397      3399      3396      3395      3397      3400
      3396      3395      3401      3402      3396      3395      3401      3403
      3396      3395      3401      3404      3397      3395      3401      3402
      3397      3395      3401      3403      3397      3395      3401      3404
      3398      3397      3395      3401      3399      3397      3395      3401
      3400      3397      3395      3401     14988     15001     15004     15005
     14988     15001     15004     15006     14988     15001     15004     15011
     14989     14988     14993     14994     14989     14988     14993     14995
     14989     14988     14993     14996     14989     14988     14997     14998
     14989     14988     14997     14999     14989     14988     14997     15000
     14989     14988     15001     15002     14989     14988     15001     15003
     14989     14988     15001     15004     14990     14989     14988     14993
     14990     14989     14988     14997     14990     14989     14988     15001
     14991     14989     14988     14993     14991     14989     14988     14997
     14991     14989     14988     15001     14992     14989     14988     14993
     14992     14989     14988     14997     14992     14989     14988     15001
     14993     14988     14997     14998     14993     14988     14997     14999
     14993     14988     14997     15000     14993     14988     15001     15002
     14993     14988     15001     15003     14993     14988     15001     15004
     14994     14993     14988     14997     14994     14993     14988     15001
     14995     14993     14988     14997     14995     14993     14988     15001
     14996     14993     14988     14997     14996     14993     14988     15001
     14997     14988     15001     15002     14997     14988     15001     15003
     14997     14988     15001     15004     14998     14997     14988     15001
     14999     14997     14988     15001     15000     14997     14988     15001
     15001     15004     15011     15007     15002     15001     15004     15005
     15002     15001     15004     15006     15002     15001     15004     15011
     15003     15001     15004     15005     15003     15001     15004     15006
     15003     15001     15004     15011     15004     15011     15007     15008
     15004     15011     15007     15009     15004     15011     15007     15010
     15005     15004     15011     15007     15006     15004     15011     15007
     15007     15010     15012     15013     15007     15010     15012     15014
     15007     15010     15012     15017     15008     15007     15010     15012
     15009     15007     15010     15012     15010     15012     15017     15015
     15010     15012     15017     15018     15010     15012     15017     15019
     15011     15007     15010     15012     15012     15017     15015     15016
     15012     15017     15015     15067     15012     15017     15019     15020
     15012     15017     15019     15021     15012     15017     15019     15023
     15013     15012     15017     15015     15013     15012     15017     15018
     15013     15012     15017     15019     15014     15012     15017     15015
     15014     15012     15017     15018     15014     15012     15017     15019
     15015     15017     15019     15020     15015     15017     15019     15021
     15015     15017     15019     15023     15015     15067     15069     15070
     15015     15067     15069     15071     15015     15067     15069     15072
     15016     15015     15017     15018     15016     15015     15017     15019
     15016     15015     15067     15068     15016     15015     15067     15069
     15017     15015     15067     15068     15017     15015     15067     15069
     15017     15019     15021     15022     15017     15019     15023     15024
     15017     15019     15023     15025     15018     15017     15015     15067
     15018     15017     15019     15020     15018     15017     15019     15021
     15018     15017     15019     15023     15019     15017     15015     15067
     15019     15023     15025     15026     15019     15023     15025     15027
     15020     15019     15021     15022     15020     15019     15023     15024
     15020     15019     15023     15025     15021     15019     15023     15024
     15021     15019     15023     15025     15022     15021     15019     15023
     15023     15025     15027     15028     15023     15025     15027     15029
     15023     15025     15027     15030     15024     15023     15025     15026
     15024     15023     15025     15027     15025     15027     15030     15031
     15025     15027     15030     15032     15025     15027     15030     15033
     15026     15025     15027     15028     15026     15025     15027     15029
     15026     15025     15027     15030     15027     15030     15033     15034
     15027     15030     15033     15035     15027     15030     15033     15036
     15028     15027     15030     15031     15028     15027     15030     15032
     15028     15027     15030     15033     15029     15027     15030     15031
     15029     15027     15030     15032     15029     15027     15030     15033
     15030     15033     15036     15037     15030     15033     15036     15038
     15030     15033     15036     15039     15031     15030     15033     15034
     15031     15030     15033     15035     15031     15030     15033     15036
     15032     15030     15033     15034     15032     15030     15033     15035
     15032     15030     15033     15036     15033     15036     15039     15040
     15033     15036     15039     15041     15033     15036     15039     15042
     15034     15033     15036     15037     15034     15033     15036     15038
     15034     15033     15036     15039     15035     15033     15036     15037
     15035     15033     15036     15038     15035     15033     15036     15039
     15036     15039     15042     15043     15036     15039     15042     15044
     15036     15039     15042     15045     15037     15036     15039     15040
     15037     15036     15039     15041     15037     15036     15039     15042
     15038     15036     15039     15040     15038     15036     15039     15041
     15038     15036     15039     15042     15039     15042     15045     15046
     15039     15042     15045     15047     15039     15042     15045     15048
     15040     15039     15042     15043     15040     15039     15042     15044
     15040     15039     15042     15045     15041     15039     15042     15043
     15041     15039     15042     15044     15041     15039     15042     15045
     15042     15045     15048     15049     15042     15045     15048     15050
     15042     15045     15048     15051     15043     15042     15045     15046
     15043     15042     15045     15047     15043     15042     15045     15048
     15044     15042     15045     15046     15044     15042     15045     15047
     15044     15042     15045     15048     15045     15048     15051     15052
     15045     15048     15051     15053     15045     15048     15051     15054
     15046     15045     15048     15049     15046     15045     15048     15050
     15046     15045     15048     15051     15047     15045     15048     15049
     15047     15045     15048     15050     15047     15045     15048     15051
     15048     15051     15054     15055     15048     15051     15054     15056
     15048     15051     15054     15057     15049     15048     15051     15052
     15049     15048     15051     15053     15049     15048     15051     15054
     15050     15048     15051     15052     15050     15048     15051     15053
     15050     15048     15051     15054     15051     15054     15057     15058
     15051     15054     15057     15059     15051     15054     15057     15060
     15052     15051     15054     15055     15052     15051     15054     15056
     15052     15051     15054     15057     15053     15051     15054     15055
     15053     15051     15054     15056     15053     15051     15054     15057
     15054     15057     15060     15061     15054     15057     15060     15062
     15054     15057     15060     15063     15055     15054     15057     15058
     15055     15054     15057     15059     15055     15054     15057     15060
     15056     15054     15057     15058     15056     15054     15057     15059
     15056     15054     15057     15060     15057     15060     15063     15064
     15057     15060     15063     15065     15057     15060     15063     15066
     15058     15057     15060     15061     15058     15057     15060     15062
     15058     15057     15060     15063     15059     15057     15060     15061
     15059     15057     15060     15062     15059     15057     15060     15063
     15061     15060     15063     15064     15061     15060     15063     15065
     15061     15060     15063     15066     15062     15060     15063     15064
     15062     15060     15063     15065     15062     15060     15063     15066
     15067     15069     15072     15073     15067     15069     15072     15074
     15067     15069     15072     15075     15068     15067     15069     15070
     15068     15067     15069     15071     15068     15067     15069     15072
     15069     15072     15075     15076     15069     15072     15075     15077
     15069     15072     15075     15078     15070     15069     15072     15073
     15070     15069     15072     15074     15070     15069     15072     15075
     15071     15069     15072     15073     15071     15069     15072     15074
     15071     15069     15072     15075     15072     15075     15078     15079
     15072     15075     15078     15080     15072     15075     15078     15081
     15073     15072     15075     15076     15073     15072     15075     15077
     15073     15072     15075     15078     15074     15072     15075     15076
     15074     15072     15075     15077     15074     15072     15075     15078
     15075     15078     15081     15082     15075     15078     15081     15083
     15075     15078     15081     15084     15076     15075     15078     15079
     15076     15075     15078     15080     15076     15075     15078     15081
     15077     15075     15078     15079     15077     15075     15078     15080
     15077     15075     15078     15081     15078     15081     15084     15085
     15078     15081     15084     15086     15078     15081     15084     15087
     15079     15078     15081     15082     15079     15078     15081     15083
     15079     15078     15081     15084     15080     15078     15081     15082
     15080     15078     15081     15083     15080     15078     15081     15084
     15081     15084     15087     15088     15081     15084     15087     15089
     15081     15084     15087     15090     15082     15081     15084     15085
     15082     15081     15084     15086     15082     15081     15084     15087
     15083     15081     15084     15085     15083     15081     15084     15086
     15083     15081     15084     15087     15084     15087     15090     15091
     15084     15087     15090     15092     15085     15084     15087     15088
     15085     15084     15087     15089     15085     15084     15087     15090
     15086     15084     15087     15088     15086     15084     15087     15089
     15086     15084     15087     15090     15087     15090     15092     15093
     15087     15090     15092     15094     15088     15087     15090     15091
     15088     15087     15090     15092     15089     15087     15090     15091
     15089     15087     15090     15092     15090     15092     15094     15095
     15090     15092     15094     15096     15090     15092     15094     15097
     15091     15090     15092     15093     15091     15090     15092     15094
     15092     15094     15097     15098     15092     15094     15097     15099
     15092     15094     15097     15100     15093     15092     15094     15095
     15093     15092     15094     15096     15093     15092     15094     15097
     15094     15097     15100     15101     15094     15097     15100     15102
     15094     15097     15100     15103     15095     15094     15097     15098
     15095     15094     15097     15099     15095     15094     15097     15100
     15096     15094     15097     15098     15096     15094     15097     15099
     15096     15094     15097     15100     15097     15100     15103     15104
     15097     15100     15103     15105     15097     15100     15103     15106
     15098     15097     15100     15101     15098     15097     15100     15102
     15098     15097     15100     15103     15099     15097     15100     15101
     15099     15097     15100     15102     15099     15097     15100     15103
     15100     15103     15106     15107     15100     15103     15106     15108
     15100     15103     15106     15109     15101     15100     15103     15104
     15101     15100     15103     15105     15101     15100     15103     15106
     15102     15100     15103     15104     15102     15100     15103     15105
     15102     15100     15103     15106     15103     15106     15109     15110
     15103     15106     15109     15111     15103     15106     15109     15112
     15104     15103     15106     15107     15104     15103     15106     15108
     15104     15103     15106     15109     15105     15103     15106     15107
     15105     15103     15106     15108     15105     15103     15106     15109
     15106     15109     15112     15113     15106     15109     15112     15114
     15106     15109     15112     15115     15107     15106     15109     15110
     15107     15106     15109     15111     15107     15106     15109     15112
     15108     15106     15109     15110     15108     15106     15109     15111
     15108     15106     15109     15112     15109     15112     15115     15116
     15109     15112     15115     15117     15109     15112     15115     15118
     15110     15109     15112     15113     15110     15109     15112     15114
     15110     15109     15112     15115     15111     15109     15112     15113
     15111     15109     15112     15114     15111     15109     15112     15115
     15113     15112     15115     15116     15113     15112     15115     15117
     15113     15112     15115     15118     15114     15112     15115     15116
     15114     15112     15115     15117     15114     15112     15115     15118
      9742      9746      9748      9749      9742      9746      9748      9750
      9742      9746      9751      9752      9742      9746      9751      9753
      9742      9746      9751      9757      9743      9742      9746      9747
      9743      9742      9746      9748      9743      9742      9746      9751
      9744      9742      9746      9747      9744      9742      9746      9748
      9744      9742      9746      9751      9745      9742      9746      9747
      9745      9742      9746      9748      9745      9742      9746      9751
      9746      9751      9757      9754      9747      9746      9748      9749
      9747      9746      9748      9750      9747      9746      9751      9752
      9747      9746      9751      9753      9747      9746      9751      9757
      9748      9746      9751      9752      9748      9746      9751      9753
      9748      9746      9751      9757      9749      9748      9746      9751
      9750      9748      9746      9751      9751      9757      9754      9755
      9751      9757      9754      9756      9751      9757      9754      9758
      9752      9751      9757      9754      9753      9751      9757      9754
      9754      9758      9759      9760      9754      9758      9759      9761
      9754      9758      9759      9762      9755      9754      9758      9759
      9756      9754      9758      9759      9757      9754      9758      9759
      9758      9759      9762      9763      9758      9759      9762      9764
      9758      9759      9762      9770      9759      9762      9764      9765
      9759      9762      9770      9771      9759      9762      9770      9772
      9759      9762      9770      9773      9760      9759      9762      9763
      9760      9759      9762      9764      9760      9759      9762      9770
      9761      9759      9762      9763      9761      9759      9762      9764
      9761      9759      9762      9770      9762      9764      9765      9766
      9762      9764      9765      9767      9762      9770      9773      9774
      9763      9762      9764      9765      9763      9762      9770      9771
      9763      9762      9770      9772      9763      9762      9770      9773
      9764      9762      9770      9771      9764      9762      9770      9772
      9764      9762      9770      9773      9764      9765      9767      9768
      9764      9765      9767      9769      9764      9765      9767      9779
      9765      9764      9762      9770      9765      9767      9779      9780
      9765      9767      9779      9781      9765      9767      9779      9782
      9766      9765      9767      9768      9766      9765      9767      9769
      9766      9765      9767      9779      9767      9779      9782      9783
      9767      9779      9782      9784      9767      9779      9782      9785
      9768      9767      9779      9780      9768      9767      9779      9781
      9768      9767      9779      9782      9769      9767      9779      9780
      9769      9767      9779      9781      9769      9767      9779      9782
      9770      9773      9774      9775      9770      9773      9774      9776
      9771      9770      9773      9774      9772      9770      9773      9774
      9773      9774      9776      9777      9773      9774      9776      9778
      9773      9774      9776      9826      9774      9776      9826      9827
      9774      9776      9826      9828      9774      9776      9826      9829
      9775      9774      9776      9777      9775      9774      9776      9778
      9775      9774      9776      9826      9776      9826      9829      9830
      9776      9826      9829      9831      9776      9826      9829      9832
      9777      9776      9826      9827      9777      9776      9826      9828
      9777      9776      9826      9829      9778      9776      9826      9827
      9778      9776      9826      9828      9778      9776      9826      9829
      9779      9782      9785      9786      9779      9782      9785      9787
      9780      9779      9782      9783      9780      9779      9782      9784
      9780      9779      9782      9785      9781      9779      9782      9783
      9781      9779      9782      9784      9781      9779      9782      9785
      9782      9785      9787      9788      9782      9785      9787      9789
      9783      9782      9785      9786      9783      9782      9785      9787
      9784      9782      9785      9786      9784      9782      9785      9787
      9785      9787      9789      9790      9785      9787      9789      9791
      9785      9787      9789      9792      9786      9785      9787      9788
      9786      9785      9787      9789      9787      9789      9792      9793
      9787      9789      9792      9794      9788      9787      9789      9790
      9788      9787      9789      9791      9788      9787      9789      9792
      9789      9792      9794      9795      9789      9792      9794      9796
      9790      9789      9792      9793      9790      9789      9792      9794
      9791      9789      9792      9793      9791      9789      9792      9794
      9792      9794      9796      9797      9792      9794      9796      9798
      9792      9794      9796      9799      9793      9792      9794      9795
      9793      9792      9794      9796      9794      9796      9799      9800
      9794      9796      9799      9801      9795      9794      9796      9797
      9795      9794      9796      9798      9795      9794      9796      9799
      9796      9799      9801      9802      9796      9799      9801      9803
      9797      9796      9799      9800      9797      9796      9799      9801
      9798      9796      9799      9800      9798      9796      9799      9801
      9799      9801      9803      9804      9799      9801      9803      9805
      9799      9801      9803      9806      9800      9799      9801      9802
      9800      9799      9801      9803      9801      9803      9806      9807
      9801      9803      9806      9808      9802      9801      9803      9804
      9802      9801      9803      9805      9802      9801      9803      9806
      9803      9806      9808      9809      9803      9806      9808      9810
      9804      9803      9806      9807      9804      9803      9806      9808
      9805      9803      9806      9807      9805      9803      9806      9808
      9806      9808      9810      9811      9806      9808      9810      9812
      9806      9808      9810      9813      9807      9806      9808      9809
      9807      9806      9808      9810      9808      9810      9813      9814
      9808      9810      9813      9815      9808      9810      9813      9816
      9809      9808      9810      9811      9809      9808      9810      9812
      9809      9808      9810      9813      9810      9813      9816      9817
      9810      9813      9816      9818      9810      9813      9816      9819
      9811      9810      9813      9814      9811      9810      9813      9815
      9811      9810      9813      9816      9812      9810      9813      9814
      9812      9810      9813      9815      9812      9810      9813      9816
      9813      9816      9819      9820      9813      9816      9819      9821
      9813      9816      9819      9822      9814      9813      9816      9817
      9814      9813      9816      9818      9814      9813      9816      9819
      9815      9813      9816      9817      9815      9813      9816      9818
      9815      9813      9816      9819      9816      9819      9822      9823
      9816      9819      9822      9824      9816      9819      9822      9825
      9817      9816      9819      9820      9817      9816      9819      9821
      9817      9816      9819      9822      9818      9816      9819      9820
      9818      9816      9819      9821      9818      9816      9819      9822
      9820      9819      9822      9823      9820      9819      9822      9824
      9820      9819      9822      9825      9821      9819      9822      9823
      9821      9819      9822      9824      9821      9819      9822      9825
      9826      9829      9832      9833      9826      9829      9832      9834
      9826      9829      9832      9835      9827      9826      9829      9830
      9827      9826      9829      9831      9827      9826      9829      9832
      9828      9826      9829      9830      9828      9826      9829      9831
      9828      9826      9829      9832      9829      9832      9835      9836
      9829      9832      9835      9837      9829      9832      9835      9838
      9830      9829      9832      9833      9830      9829      9832      9834
      9830      9829      9832      9835      9831      9829      9832      9833
      9831      9829      9832      9834      9831      9829      9832      9835
      9832      9835      9838      9839      9832      9835      9838      9840
      9832      9835      9838      9841      9833      9832      9835      9836
      9833      9832      9835      9837      9833      9832      9835      9838
      9834      9832      9835      9836      9834      9832      9835      9837
      9834      9832      9835      9838      9835      9838      9841      9842
      9835      9838      9841      9843      9835      9838      9841      9844
      9836      9835      9838      9839      9836      9835      9838      9840
      9836      9835      9838      9841      9837      9835      9838      9839
      9837      9835      9838      9840      9837      9835      9838      9841
      9838      9841      9844      9845      9838      9841      9844      9846
      9838      9841      9844      9847      9839      9838      9841      9842
      9839      9838      9841      9843      9839      9838      9841      9844
      9840      9838      9841      9842      9840      9838      9841      9843
      9840      9838      9841      9844      9841      9844      9847      9848
      9841      9844      9847      9849      9841      9844      9847      9850
      9842      9841      9844      9845      9842      9841      9844      9846
      9842      9841      9844      9847      9843      9841      9844      9845
      9843      9841      9844      9846      9843      9841      9844      9847
      9844      9847      9850      9851      9844      9847      9850      9852
      9844      9847      9850      9853      9845      9844      9847      9848
      9845      9844      9847      9849      9845      9844      9847      9850
      9846      9844      9847      9848      9846      9844      9847      9849
      9846      9844      9847      9850      9847      9850      9853      9854
      9847      9850      9853      9855      9847      9850      9853      9856
      9848      9847      9850      9851      9848      9847      9850      9852
      9848      9847      9850      9853      9849      9847      9850      9851
      9849      9847      9850      9852      9849      9847      9850      9853
      9850      9853      9856      9857      9850      9853      9856      9858
      9850      9853      9856      9859      9851      9850      9853      9854
      9851      9850      9853      9855      9851      9850      9853      9856
      9852      9850      9853      9854      9852      9850      9853      9855
      9852      9850      9853      9856      9853      9856      9859      9860
      9853      9856      9859      9861      9853      9856      9859      9862
      9854      9853      9856      9857      9854      9853      9856      9858
      9854      9853      9856      9859      9855      9853      9856      9857
      9855      9853      9856      9858      9855      9853      9856      9859
      9856      9859      9862      9863      9856      9859      9862      9864
      9856      9859      9862      9865      9857      9856      9859      9860
      9857      9856      9859      9861      9857      9856      9859      9862
      9858      9856      9859      9860      9858      9856      9859      9861
      9858      9856      9859      9862      9859      9862      9865      9866
      9859      9862      9865      9867      9859      9862      9865      9868
      9860      9859      9862      9863      9860      9859      9862      9864
      9860      9859      9862      9865      9861      9859      9862      9863
      9861      9859      9862      9864      9861      9859      9862      9865
      9862      9865      9868      9869      9862      9865      9868      9870
      9862      9865      9868      9871      9863      9862      9865      9866
      9863      9862      9865      9867      9863      9862      9865      9868
      9864      9862      9865      9866      9864      9862      9865      9867
      9864      9862      9865      9868      9865      9868      9871      9872
      9865      9868      9871      9873      9865      9868      9871      9874
      9866      9865      9868      9869      9866      9865      9868      9870
      9866      9865      9868      9871      9867      9865      9868      9869
      9867      9865      9868      9870      9867      9865      9868      9871
      9869      9868      9871      9872      9869      9868      9871      9873
      9869      9868      9871      9874      9870      9868      9871      9872
      9870      9868      9871      9873      9870      9868      9871      9874
     18525     18529     18532     18533     18525     18529     18532     18534
     18525     18529     18532     18538     18526     18525     18529     18530
     18526     18525     18529     18531     18526     18525     18529     18532
     18527     18525     18529     18530     18527     18525     18529     18531
     18527     18525     18529     18532     18528     18525     18529     18530
     18528     18525     18529     18531     18528     18525     18529     18532
     18529     18532     18538     18535     18530     18529     18532     18533
     18530     18529     18532     18534     18530     18529     18532     18538
     18531     18529     18532     18533     18531     18529     18532     18534
     18531     18529     18532     18538     18532     18538     18535     18536
     18532     18538     18535     18537     18532     18538     18535     18539
     18533     18532     18538     18535     18534     18532     18538     18535
     18535     18539     18540     18541     18535     18539     18540     18542
     18535     18539     18540     18543     18536     18535     18539     18540
     18537     18535     18539     18540     18538     18535     18539     18540
     18539     18540     18543     18544     18539     18540     18543     18545
     18539     18540     18543     18551     18540     18543     18545     18546
     18540     18543     18551     18552     18540     18543     18551     18553
     18540     18543     18551     18554     18541     18540     18543     18544
     18541     18540     18543     18545     18541     18540     18543     18551
     18542     18540     18543     18544     18542     18540     18543     18545
     18542     18540     18543     18551     18543     18545     18546     18547
     18543     18545     18546     18548     18543     18551     18554     18555
     18544     18543     18545     18546     18544     18543     18551     18552
     18544     18543     18551     18553     18544     18543     18551     18554
     18545     18543     18551     18552     18545     18543     18551     18553
     18545     18543     18551     18554     18545     18546     18548     18549
     18545     18546     18548     18550     18545     18546     18548     18560
     18546     18545     18543     18551     18546     18548     18560     18561
     18546     18548     18560     18562     18546     18548     18560     18563
     18547     18546     18548     18549     18547     18546     18548     18550
     18547     18546     18548     18560     18548     18560     18563     18564
     18548     18560     18563     18565     18548     18560     18563     18566
     18549     18548     18560     18561     18549     18548     18560     18562
     18549     18548     18560     18563     18550     18548     18560     18561
     18550     18548     18560     18562     18550     18548     18560     18563
     18551     18554     18555     18556     18551     18554     18555     18557
     18552     18551     18554     18555     18553     18551     18554     18555
     18554     18555     18557     18558     18554     18555     18557     18559
     18554     18555     18557     18607     18555     18557     18607     18608
     18555     18557     18607     18609     18555     18557     18607     18610
     18556     18555     18557     18558     18556     18555     18557     18559
     18556     18555     18557     18607     18557     18607     18610     18611
     18557     18607     18610     18612     18557     18607     18610     18613
     18558     18557     18607     18608     18558     18557     18607     18609
     18558     18557     18607     18610     18559     18557     18607     18608
     18559     18557     18607     18609     18559     18557     18607     18610
     18560     18563     18566     18567     18560     18563     18566     18568
     18561     18560     18563     18564     18561     18560     18563     18565
     18561     18560     18563     18566     18562     18560     18563     18564
     18562     18560     18563     18565     18562     18560     18563     18566
     18563     18566     18568     18569     18563     18566     18568     18570
     18564     18563     18566     18567     18564     18563     18566     18568
     18565     18563     18566     18567     18565     18563     18566     18568
     18566     18568     18570     18571     18566     18568     18570     18572
     18566     18568     18570     18573     18567     18566     18568     18569
     18567     18566     18568     18570     18568     18570     18573     18574
     18568     18570     18573     18575     18569     18568     18570     18571
     18569     18568     18570     18572     18569     18568     18570     18573
     18570     18573     18575     18576     18570     18573     18575     18577
     18571     18570     18573     18574     18571     18570     18573     18575
     18572     18570     18573     18574     18572     18570     18573     18575
     18573     18575     18577     18578     18573     18575     18577     18579
     18573     18575     18577     18580     18574     18573     18575     18576
     18574     18573     18575     18577     18575     18577     18580     18581
     18575     18577     18580     18582     18576     18575     18577     18578
     18576     18575     18577     18579     18576     18575     18577     18580
     18577     18580     18582     18583     18577     18580     18582     18584
     18578     18577     18580     18581     18578     18577     18580     18582
     18579     18577     18580     18581     18579     18577     18580     18582
     18580     18582     18584     18585     18580     18582     18584     18586
     18580     18582     18584     18587     18581     18580     18582     18583
     18581     18580     18582     18584     18582     18584     18587     18588
     18582     18584     18587     18589     18583     18582     18584     18585
     18583     18582     18584     18586     18583     18582     18584     18587
     18584     18587     18589     18590     18584     18587     18589     18591
     18585     18584     18587     18588     18585     18584     18587     18589
     18586     18584     18587     18588     18586     18584     18587     18589
     18587     18589     18591     18592     18587     18589     18591     18593
     18587     18589     18591     18594     18588     18587     18589     18590
     18588     18587     18589     18591     18589     18591     18594     18595
     18589     18591     18594     18596     18589     18591     18594     18597
     18590     18589     18591     18592     18590     18589     18591     18593
     18590     18589     18591     18594     18591     18594     18597     18598
     18591     18594     18597     18599     18591     18594     18597     18600
     18592     18591     18594     18595     18592     18591     18594     18596
     18592     18591     18594     18597     18593     18591     18594     18595
     18593     18591     18594     18596     18593     18591     18594     18597
     18594     18597     18600     18601     18594     18597     18600     18602
     18594     18597     18600     18603     18595     18594     18597     18598
     18595     18594     18597     18599     18595     18594     18597     18600
     18596     18594     18597     18598     18596     18594     18597     18599
     18596     18594     18597     18600     18597     18600     18603     18604
     18597     18600     18603     18605     18597     18600     18603     18606
     18598     18597     18600     18601     18598     18597     18600     18602
     18598     18597     18600     18603     18599     18597     18600     18601
     18599     18597     18600     18602     18599     18597     18600     18603
     18601     18600     18603     18604     18601     18600     18603     18605
     18601     18600     18603     18606     18602     18600     18603     18604
     18602     18600     18603     18605     18602     18600     18603     18606
     18607     18610     18613     18614     18607     18610     18613     18615
     18607     18610     18613     18616     18608     18607     18610     18611
     18608     18607     18610     18612     18608     18607     18610     18613
     18609     18607     18610     18611     18609     18607     18610     18612
     18609     18607     18610     18613     18610     18613     18616     18617
     18610     18613     18616     18618     18610     18613     18616     18619
     18611     18610     18613     18614     18611     18610     18613     18615
     18611     18610     18613     18616     18612     18610     18613     18614
     18612     18610     18613     18615     18612     18610     18613     18616
     18613     18616     18619     18620     18613     18616     18619     18621
     18613     18616     18619     18622     18614     18613     18616     18617
     18614     18613     18616     18618     18614     18613     18616     18619
     18615     18613     18616     18617     18615     18613     18616     18618
     18615     18613     18616     18619     18616     18619     18622     18623
     18616     18619     18622     18624     18616     18619     18622     18625
     18617     18616     18619     18620     18617     18616     18619     18621
     18617     18616     18619     18622     18618     18616     18619     18620
     18618     18616     18619     18621     18618     18616     18619     18622
     18619     18622     18625     18626     18619     18622     18625     18627
     18619     18622     18625     18628     18620     18619     18622     18623
     18620     18619     18622     18624     18620     18619     18622     18625
     18621     18619     18622     18623     18621     18619     18622     18624
     18621     18619     18622     18625     18622     18625     18628     18629
     18622     18625     18628     18630     18622     18625     18628     18631
     18623     18622     18625     18626     18623     18622     18625     18627
     18623     18622     18625     18628     18624     18622     18625     18626
     18624     18622     18625     18627     18624     18622     18625     18628
     18625     18628     18631     18632     18625     18628     18631     18633
     18625     18628     18631     18634     18626     18625     18628     18629
     18626     18625     18628     18630     18626     18625     18628     18631
     18627     18625     18628     18629     18627     18625     18628     18630
     18627     18625     18628     18631     18628     18631     18634     18635
     18628     18631     18634     18636     18628     18631     18634     18637
     18629     18628     18631     18632     18629     18628     18631     18633
     18629     18628     18631     18634     18630     18628     18631     18632
     18630     18628     18631     18633     18630     18628     18631     18634
     18631     18634     18637     18638     18631     18634     18637     18639
     18631     18634     18637     18640     18632     18631     18634     18635
     18632     18631     18634     18636     18632     18631     18634     18637
     18633     18631     18634     18635     18633     18631     18634     18636
     18633     18631     18634     18637     18634     18637     18640     18641
     18634     18637     18640     18642     18634     18637     18640     18643
     18635     18634     18637     18638     18635     18634     18637     18639
     18635     18634     18637     18640     18636     18634     18637     18638
     18636     18634     18637     18639     18636     18634     18637     18640
     18637     18640     18643     18644     18637     18640     18643     18645
     18637     18640     18643     18646     18638     18637     18640     18641
     18638     18637     18640     18642     18638     18637     18640     18643
     18639     18637     18640     18641     18639     18637     18640     18642
     18639     18637     18640     18643     18640     18643     18646     18647
     18640     18643     18646     18648     18640     18643     18646     18649
     18641     18640     18643     18644     18641     18640     18643     18645
     18641     18640     18643     18646     18642     18640     18643     18644
     18642     18640     18643     18645     18642     18640     18643     18646
     18643     18646     18649     18650     18643     18646     18649     18651
     18643     18646     18649     18652     18644     18643     18646     18647
     18644     18643     18646     18648     18644     18643     18646     18649
     18645     18643     18646     18647     18645     18643     18646     18648
     18645     18643     18646     18649     18646     18649     18652     18653
     18646     18649     18652     18654     18646     18649     18652     18655
     18647     18646     18649     18650     18647     18646     18649     18651
     18647     18646     18649     18652     18648     18646     18649     18650
     18648     18646     18649     18651     18648     18646     18649     18652
     18650     18649     18652     18653     18650     18649     18652     18654
     18650     18649     18652     18655     18651     18649     18652     18653
     18651     18649     18652     18654     18651     18649     18652     18655
     22119     22120     22135     22136     22119     22120     22135     22137
     22119     22120     22135     22141     22120     22119     22123     22124
     22120     22119     22123     22125     22120     22119     22123     22126
     22120     22119     22127     22128     22120     22119     22127     22129
     22120     22119     22127     22130     22120     22119     22131     22132
     22120     22119     22131     22133     22120     22119     22131     22134
     22120     22135     22141     22138     22121     22120     22119     22123
     22121     22120     22119     22127     22121     22120     22119     22131
     22121     22120     22135     22136     22121     22120     22135     22137
     22121     22120     22135     22141     22122     22120     22119     22123
     22122     22120     22119     22127     22122     22120     22119     22131
     22122     22120     22135     22136     22122     22120     22135     22137
     22122     22120     22135     22141     22123     22119     22120     22135
     22123     22119     22127     22128     22123     22119     22127     22129
     22123     22119     22127     22130     22123     22119     22131     22132
     22123     22119     22131     22133     22123     22119     22131     22134
     22124     22123     22119     22127     22124     22123     22119     22131
     22125     22123     22119     22127     22125     22123     22119     22131
     22126     22123     22119     22127     22126     22123     22119     22131
     22127     22119     22120     22135     22127     22119     22131     22132
     22127     22119     22131     22133     22127     22119     22131     22134
     22128     22127     22119     22131     22129     22127     22119     22131
     22130     22127     22119     22131     22131     22119     22120     22135
     22135     22141     22138     22139     22135     22141     22138     22140
     22135     22141     22138     22142     22136     22135     22141     22138
     22137     22135     22141     22138     22138     22142     22143     22144
     22138     22142     22143     22145     22138     22142     22143     22146
     22139     22138     22142     22143     22140     22138     22142     22143
     22141     22138     22142     22143     22142     22143     22146     22147
     22142     22143     22146     22148     22142     22143     22146     22154
     22143     22146     22148     22149     22143     22146     22154     22155
     22143     22146     22154     22156     22143     22146     22154     22157
     22144     22143     22146     22147     22144     22143     22146     22148
     22144     22143     22146     22154     22145     22143     22146     22147
     22145     22143     22146     22148     22145     22143     22146     22154
     22146     22148     22149     22150     22146     22148     22149     22151
     22146     22154     22157     22158     22147     22146     22148     22149
     22147     22146     22154     22155     22147     22146     22154     22156
     22147     22146     22154     22157     22148     22146     22154     22155
     22148     22146     22154     22156     22148     22146     22154     22157
     22148     22149     22151     22152     22148     22149     22151     22153
     22148     22149     22151     22163     22149     22148     22146     22154
     22149     22151     22163     22164     22149     22151     22163     22165
     22149     22151     22163     22166     22150     22149     22151     22152
     22150     22149     22151     22153     22150     22149     22151     22163
     22151     22163     22166     22167     22151     22163     22166     22168
     22151     22163     22166     22169     22152     22151     22163     22164
     22152     22151     22163     22165     22152     22151     22163     22166
     22153     22151     22163     22164     22153     22151     22163     22165
     22153     22151     22163     22166     22154     22157     22158     22159
     22154     22157     22158     22160     22155     22154     22157     22158
     22156     22154     22157     22158     22157     22158     22160     22161
     22157     22158     22160     22162     22157     22158     22160     22210
     22158     22160     22210     22211     22158     22160     22210     22212
     22158     22160     22210     22213     22159     22158     22160     22161
     22159     22158     22160     22162     22159     22158     22160     22210
     22160     22210     22213     22214     22160     22210     22213     22215
     22160     22210     22213     22216     22161     22160     22210     22211
     22161     22160     22210     22212     22161     22160     22210     22213
     22162     22160     22210     22211     22162     22160     22210     22212
     22162     22160     22210     22213     22163     22166     22169     22170
     22163     22166     22169     22171     22163     22166     22169     22172
     22164     22163     22166     22167     22164     22163     22166     22168
     22164     22163     22166     22169     22165     22163     22166     22167
     22165     22163     22166     22168     22165     22163     22166     22169
     22166     22169     22172     22173     22166     22169     22172     22174
     22166     22169     22172     22175     22167     22166     22169     22170
     22167     22166     22169     22171     22167     22166     22169     22172
     22168     22166     22169     22170     22168     22166     22169     22171
     22168     22166     22169     22172     22169     22172     22175     22176
     22169     22172     22175     22177     22169     22172     22175     22178
     22170     22169     22172     22173     22170     22169     22172     22174
     22170     22169     22172     22175     22171     22169     22172     22173
     22171     22169     22172     22174     22171     22169     22172     22175
     22172     22175     22178     22179     22172     22175     22178     22180
     22172     22175     22178     22181     22173     22172     22175     22176
     22173     22172     22175     22177     22173     22172     22175     22178
     22174     22172     22175     22176     22174     22172     22175     22177
     22174     22172     22175     22178     22175     22178     22181     22182
     22175     22178     22181     22183     22176     22175     22178     22179
     22176     22175     22178     22180     22176     22175     22178     22181
     22177     22175     22178     22179     22177     22175     22178     22180
     22177     22175     22178     22181     22178     22181     22183     22184
     22178     22181     22183     22185     22179     22178     22181     22182
     22179     22178     22181     22183     22180     22178     22181     22182
     22180     22178     22181     22183     22181     22183     22185     22186
     22181     22183     22185     22187     22181     22183     22185     22188
     22182     22181     22183     22184     22182     22181     22183     22185
     22183     22185     22188     22189     22183     22185     22188     22190
     22183     22185     22188     22191     22184     22183     22185     22186
     22184     22183     22185     22187     22184     22183     22185     22188
     22185     22188     22191     22192     22185     22188     22191     22193
     22185     22188     22191     22194     22186     22185     22188     22189
     22186     22185     22188     22190     22186     22185     22188     22191
     22187     22185     22188     22189     22187     22185     22188     22190
     22187     22185     22188     22191     22188     22191     22194     22195
     22188     22191     22194     22196     22188     22191     22194     22197
     22189     22188     22191     22192     22189     22188     22191     22193
     22189     22188     22191     22194     22190     22188     22191     22192
     22190     22188     22191     22193     22190     22188     22191     22194
     22191     22194     22197     22198     22191     22194     22197     22199
     22191     22194     22197     22200     22192     22191     22194     22195
     22192     22191     22194     22196     22192     22191     22194     22197
     22193     22191     22194     22195     22193     22191     22194     22196
     22193     22191     22194     22197     22194     22197     22200     22201
     22194     22197     22200     22202     22194     22197     22200     22203
     22195     22194     22197     22198     22195     22194     22197     22199
     22195     22194     22197     22200     22196     22194     22197     22198
     22196     22194     22197     22199     22196     22194     22197     22200
     22197     22200     22203     22204     22197     22200     22203     22205
     22197     22200     22203     22206     22198     22197     22200     22201
     22198     22197     22200     22202     22198     22197     22200     22203
     22199     22197     22200     22201     22199     22197     22200     22202
     22199     22197     22200     22203     22200     22203     22206     22207
     22200     22203     22206     22208     22200     22203     22206     22209
     22201     22200     22203     22204     22201     22200     22203     22205
     22201     22200     22203     22206     22202     22200     22203     22204
     22202     22200     22203     22205     22202     22200     22203     22206
     22204     22203     22206     22207     22204     22203     22206     22208
     22204     22203     22206     22209     22205     22203     22206     22207
     22205     22203     22206     22208     22205     22203     22206     22209
     22210     22213     22216     22217     22210     22213     22216     22218
     22210     22213     22216     22219     22211     22210     22213     22214
     22211     22210     22213     22215     22211     22210     22213     22216
     22212     22210     22213     22214     22212     22210     22213     22215
     22212     22210     22213     22216     22213     22216     22219     22220
     22213     22216     22219     22221     22213     22216     22219     22222
     22214     22213     22216     22217     22214     22213     22216     22218
     22214     22213     22216     22219     22215     22213     22216     22217
     22215     22213     22216     22218     22215     22213     22216     22219
     22216     22219     22222     22223     22216     22219     22222     22224
     22216     22219     22222     22225     22217     22216     22219     22220
     22217     22216     22219     22221     22217     22216     22219     22222
     22218     22216     22219     22220     22218     22216     22219     22221
     22218     22216     22219     22222     22219     22222     22225     22226
     22219     22222     22225     22227     22219     22222     22225     22228
     22220     22219     22222     22223     22220     22219     22222     22224
     22220     22219     22222     22225     22221     22219     22222     22223
     22221     22219     22222     22224     22221     22219     22222     22225
     22222     22225     22228     22229     22222     22225     22228     22230
     22222     22225     22228     22231     22223     22222     22225     22226
     22223     22222     22225     22227     22223     22222     22225     22228
     22224     22222     22225     22226     22224     22222     22225     22227
     22224     22222     22225     22228     22225     22228     22231     22232
     22225     22228     22231     22233     22225     22228     22231     22234
     22226     22225     22228     22229     22226     22225     22228     22230
     22226     22225     22228     22231     22227     22225     22228     22229
     22227     22225     22228     22230     22227     22225     22228     22231
     22228     22231     22234     22235     22228     22231     22234     22236
     22228     22231     22234     22237     22229     22228     22231     22232
     22229     22228     22231     22233     22229     22228     22231     22234
     22230     22228     22231     22232     22230     22228     22231     22233
     22230     22228     22231     22234     22231     22234     22237     22238
     22231     22234     22237     22239     22231     22234     22237     22240
     22232     22231     22234     22235     22232     22231     22234     22236
     22232     22231     22234     22237     22233     22231     22234     22235
     22233     22231     22234     22236     22233     22231     22234     22237
     22234     22237     22240     22241     22234     22237     22240     22242
     22234     22237     22240     22243     22235     22234     22237     22238
     22235     22234     22237     22239     22235     22234     22237     22240
     22236     22234     22237     22238     22236     22234     22237     22239
     22236     22234     22237     22240     22237     22240     22243     22244
     22237     22240     22243     22245     22237     22240     22243     22246
     22238     22237     22240     22241     22238     22237     22240     22242
     22238     22237     22240     22243     22239     22237     22240     22241
     22239     22237     22240     22242     22239     22237     22240     22243
     22240     22243     22246     22247     22240     22243     22246     22248
     22240     22243     22246     22249     22241     22240     22243     22244
     22241     22240     22243     22245     22241     22240     22243     22246
     22242     22240     22243     22244     22242     22240     22243     22245
     22242     22240     22243     22246     22243     22246     22249     22250
     22243     22246     22249     22251     22243     22246     22249     22252
     22244     22243     22246     22247     22244     22243     22246     22248
     22244     22243     22246     22249     22245     22243     22246     22247
     22245     22243     22246     22248     22245     22243     22246     22249
     22247     22246     22249     22250     22247     22246     22249     22251
     22247     22246     22249     22252     22248     22246     22249     22250
     22248     22246     22249     22251     22248     22246     22249     22252
     20621     20625     20628     20629     20621     20625     20628     20630
     20621     20625     20628     20634     20622     20621     20625     20626
     20622     20621     20625     20627     20622     20621     20625     20628
     20623     20621     20625     20626     20623     20621     20625     20627
     20623     20621     20625     20628     20624     20621     20625     20626
     20624     20621     20625     20627     20624     20621     20625     20628
     20625     20628     20634     20631     20626     20625     20628     20629
     20626     20625     20628     20630     20626     20625     20628     20634
     20627     20625     20628     20629     20627     20625     20628     20630
     20627     20625     20628     20634     20628     20634     20631     20632
     20628     20634     20631     20633     20628     20634     20631     20635
     20629     20628     20634     20631     20630     20628     20634     20631
     20631     20635     20636     20637     20631     20635     20636     20638
     20631     20635     20636     20639     20632     20631     20635     20636
     20633     20631     20635     20636     20634     20631     20635     20636
     20635     20636     20639     20640     20635     20636     20639     20641
     20635     20636     20639     20647     20636     20639     20641     20642
     20636     20639     20647     20648     20636     20639     20647     20649
     20636     20639     20647     20650     20637     20636     20639     20640
     20637     20636     20639     20641     20637     20636     20639     20647
     20638     20636     20639     20640     20638     20636     20639     20641
     20638     20636     20639     20647     20639     20641     20642     20643
     20639     20641     20642     20644     20639     20647     20650     20651
     20640     20639     20641     20642     20640     20639     20647     20648
     20640     20639     20647     20649     20640     20639     20647     20650
     20641     20639     20647     20648     20641     20639     20647     20649
     20641     20639     20647     20650     20641     20642     20644     20645
     20641     20642     20644     20646     20641     20642     20644     20656
     20642     20641     20639     20647     20642     20644     20656     20657
     20642     20644     20656     20658     20642     20644     20656     20659
     20643     20642     20644     20645     20643     20642     20644     20646
     20643     20642     20644     20656     20644     20656     20659     20660
     20644     20656     20659     20661     20644     20656     20659     20662
     20645     20644     20656     20657     20645     20644     20656     20658
     20645     20644     20656     20659     20646     20644     20656     20657
     20646     20644     20656     20658     20646     20644     20656     20659
     20647     20650     20651     20652     20647     20650     20651     20653
     20648     20647     20650     20651     20649     20647     20650     20651
     20650     20651     20653     20654     20650     20651     20653     20655
     20650     20651     20653     20703     20651     20653     20703     20704
     20651     20653     20703     20705     20651     20653     20703     20706
     20652     20651     20653     20654     20652     20651     20653     20655
     20652     20651     20653     20703     20653     20703     20706     20707
     20653     20703     20706     20708     20653     20703     20706     20709
     20654     20653     20703     20704     20654     20653     20703     20705
     20654     20653     20703     20706     20655     20653     20703     20704
     20655     20653     20703     20705     20655     20653     20703     20706
     20656     20659     20662     20663     20656     20659     20662     20664
     20656     20659     20662     20665     20657     20656     20659     20660
     20657     20656     20659     20661     20657     20656     20659     20662
     20658     20656     20659     20660     20658     20656     20659     20661
     20658     20656     20659     20662     20659     20662     20665     20666
     20659     20662     20665     20667     20659     20662     20665     20668
     20660     20659     20662     20663     20660     20659     20662     20664
     20660     20659     20662     20665     20661     20659     20662     20663
     20661     20659     20662     20664     20661     20659     20662     20665
     20662     20665     20668     20669     20662     20665     20668     20670
     20662     20665     20668     20671     20663     20662     20665     20666
     20663     20662     20665     20667     20663     20662     20665     20668
     20664     20662     20665     20666     20664     20662     20665     20667
     20664     20662     20665     20668     20665     20668     20671     20672
     20665     20668     20671     20673     20665     20668     20671     20674
     20666     20665     20668     20669     20666     20665     20668     20670
     20666     20665     20668     20671     20667     20665     20668     20669
     20667     20665     20668     20670     20667     20665     20668     20671
     20668     20671     20674     20675     20668     20671     20674     20676
     20669     20668     20671     20672     20669     20668     20671     20673
     20669     20668     20671     20674     20670     20668     20671     20672
     20670     20668     20671     20673     20670     20668     20671     20674
     20671     20674     20676     20677     20671     20674     20676     20678
     20672     20671     20674     20675     20672     20671     20674     20676
     20673     20671     20674     20675     20673     20671     20674     20676
     20674     20676     20678     20679     20674     20676     20678     20680
     20674     20676     20678     20681     20675     20674     20676     20677
     20675     20674     20676     20678     20676     20678     20681     20682
     20676     20678     20681     20683     20676     20678     20681     20684
     20677     20676     20678     20679     20677     20676     20678     20680
     20677     20676     20678     20681     20678     20681     20684     20685
     20678     20681     20684     20686     20678     20681     20684     20687
     20679     20678     20681     20682     20679     20678     20681     20683
     20679     20678     20681     20684     20680     20678     20681     20682
     20680     20678     20681     20683     20680     20678     20681     20684
     20681     20684     20687     20688     20681     20684     20687     20689
     20681     20684     20687     20690     20682     20681     20684     20685
     20682     20681     20684     20686     20682     20681     20684     20687
     20683     20681     20684     20685     20683     20681     20684     20686
     20683     20681     20684     20687     20684     20687     20690     20691
     20684     20687     20690     20692     20684     20687     20690     20693
     20685     20684     20687     20688     20685     20684     20687     20689
     20685     20684     20687     20690     20686     20684     20687     20688
     20686     20684     20687     20689     20686     20684     20687     20690
     20687     20690     20693     20694     20687     20690     20693     20695
     20687     20690     20693     20696     20688     20687     20690     20691
     20688     20687     20690     20692     20688     20687     20690     20693
     20689     20687     20690     20691     20689     20687     20690     20692
     20689     20687     20690     20693     20690     20693     20696     20697
     20690     20693     20696     20698     20690     20693     20696     20699
     20691     20690     20693     20694     20691     20690     20693     20695
     20691     20690     20693     20696     20692     20690     20693     20694
     20692     20690     20693     20695     20692     20690     20693     20696
     20693     20696     20699     20700     20693     20696     20699     20701
     20693     20696     20699     20702     20694     20693     20696     20697
     20694     20693     20696     20698     20694     20693     20696     20699
     20695     20693     20696     20697     20695     20693     20696     20698
     20695     20693     20696     20699     20697     20696     20699     20700
     20697     20696     20699     20701     20697     20696     20699     20702
     20698     20696     20699     20700     20698     20696     20699     20701
     20698     20696     20699     20702     20703     20706     20709     20710
     20703     20706     20709     20711     20703     20706     20709     20712
     20704     20703     20706     20707     20704     20703     20706     20708
     20704     20703     20706     20709     20705     20703     20706     20707
     20705     20703     20706     20708     20705     20703     20706     20709
     20706     20709     20712     20713     20706     20709     20712     20714
     20706     20709     20712     20715     20707     20706     20709     20710
     20707     20706     20709     20711     20707     20706     20709     20712
     20708     20706     20709     20710     20708     20706     20709     20711
     20708     20706     20709     20712     20709     20712     20715     20716
     20709     20712     20715     20717     20709     20712     20715     20718
     20710     20709     20712     20713     20710     20709     20712     20714
     20710     20709     20712     20715     20711     20709     20712     20713
     20711     20709     20712     20714     20711     20709     20712     20715
     20712     20715     20718     20719     20712     20715     20718     20720
     20712     20715     20718     20721     20713     20712     20715     20716
     20713     20712     20715     20717     20713     20712     20715     20718
     20714     20712     20715     20716     20714     20712     20715     20717
     20714     20712     20715     20718     20715     20718     20721     20722
     20715     20718     20721     20723     20715     20718     20721     20724
     20716     20715     20718     20719     20716     20715     20718     20720
     20716     20715     20718     20721     20717     20715     20718     20719
     20717     20715     20718     20720     20717     20715     20718     20721
     20718     20721     20724     20725     20718     20721     20724     20726
     20718     20721     20724     20727     20719     20718     20721     20722
     20719     20718     20721     20723     20719     20718     20721     20724
     20720     20718     20721     20722     20720     20718     20721     20723
     20720     20718     20721     20724     20721     20724     20727     20728
     20721     20724     20727     20729     20721     20724     20727     20730
     20722     20721     20724     20725     20722     20721     20724     20726
     20722     20721     20724     20727     20723     20721     20724     20725
     20723     20721     20724     20726     20723     20721     20724     20727
     20724     20727     20730     20731     20724     20727     20730     20732
     20724     20727     20730     20733     20725     20724     20727     20728
     20725     20724     20727     20729     20725     20724     20727     20730
     20726     20724     20727     20728     20726     20724     20727     20729
     20726     20724     20727     20730     20727     20730     20733     20734
     20727     20730     20733     20735     20727     20730     20733     20736
     20728     20727     20730     20731     20728     20727     20730     20732
     20728     20727     20730     20733     20729     20727     20730     20731
     20729     20727     20730     20732     20729     20727     20730     20733
     20730     20733     20736     20737     20730     20733     20736     20738
     20730     20733     20736     20739     20731     20730     20733     20734
     20731     20730     20733     20735     20731     20730     20733     20736
     20732     20730     20733     20734     20732     20730     20733     20735
     20732     20730     20733     20736     20733     20736     20739     20740
     20733     20736     20739     20741     20733     20736     20739     20742
     20734     20733     20736     20737     20734     20733     20736     20738
     20734     20733     20736     20739     20735     20733     20736     20737
     20735     20733     20736     20738     20735     20733     20736     20739
     20736     20739     20742     20743     20736     20739     20742     20744
     20736     20739     20742     20745     20737     20736     20739     20740
     20737     20736     20739     20741     20737     20736     20739     20742
     20738     20736     20739     20740     20738     20736     20739     20741
     20738     20736     20739     20742     20739     20742     20745     20746
     20739     20742     20745     20747     20739     20742     20745     20748
     20740     20739     20742     20743     20740     20739     20742     20744
     20740     20739     20742     20745     20741     20739     20742     20743
     20741     20739     20742     20744     20741     20739     20742     20745
     20742     20745     20748     20749     20742     20745     20748     20750
     20742     20745     20748     20751     20743     20742     20745     20746
     20743     20742     20745     20747     20743     20742     20745     20748
     20744     20742     20745     20746     20744     20742     20745     20747
     20744     20742     20745     20748     20746     20745     20748     20749
     20746     20745     20748     20750     20746     20745     20748     20751
     20747     20745     20748     20749     20747     20745     20748     20750
     20747     20745     20748     20751      3405      3409      3412      3413
      3405      3409      3412      3443      3405      3451      3448      3443
      3405      3451      3448      3449      3405      3451      3448      3450
      3406      3405      3407      3408      3406      3405      3409      3410
      3406      3405      3409      3411      3406      3405      3409      3412
      3406      3405      3451      3448      3406      3405      3451      3452
      3406      3405      3451      3453      3407      3405      3409      3410
      3407      3405      3409      3411      3407      3405      3409      3412
      3407      3405      3451      3448      3407      3405      3451      3452
      3407      3405      3451      3453      3408      3407      3405      3409
      3408      3407      3405      3451      3409      3405      3451      3448
      3409      3405      3451      3452      3409      3405      3451      3453
      3409      3412      3413      3414      3409      3412      3413      3415
      3409      3412      3443      3441      3409      3412      3443      3444
      3409      3412      3443      3448      3410      3409      3405      3451
      3410      3409      3412      3413      3410      3409      3412      3443
      3411      3409      3405      3451      3411      3409      3412      3413
      3411      3409      3412      3443      3412      3409      3405      3451
      3412      3413      3415      3416      3412      3413      3415      3417
      3412      3413      3415      3418      3412      3443      3441      3418
      3412      3443      3441      3438      3412      3443      3441      3442
      3412      3443      3444      3445      3412      3443      3444      3446
      3412      3443      3444      3447      3412      3443      3448      3449
      3412      3443      3448      3450      3412      3443      3448      3451
      3413      3412      3443      3441      3413      3412      3443      3444
      3413      3412      3443      3448      3413      3415      3418      3419
      3413      3415      3418      3420      3413      3415      3418      3441
      3414      3413      3412      3443      3414      3413      3415      3416
      3414      3413      3415      3417      3414      3413      3415      3418
      3415      3413      3412      3443      3415      3418      3420      3421
      3415      3418      3420      3422      3415      3418      3420      3430
      3415      3418      3441      3438      3415      3418      3441      3442
      3415      3418      3441      3443      3416      3415      3418      3419
      3416      3415      3418      3420      3416      3415      3418      3441
      3417      3415      3418      3419      3417      3415      3418      3420
      3417      3415      3418      3441      3418      3420      3422      3423
      3418      3420      3422      3424      3418      3420      3422      3425
      3418      3420      3430      3428      3418      3420      3430      3431
      3418      3420      3430      3435      3418      3441      3438      3435
      3418      3441      3438      3439      3418      3441      3438      3440
      3418      3441      3443      3444      3418      3441      3443      3448
      3419      3418      3420      3421      3419      3418      3420      3422
      3419      3418      3420      3430      3419      3418      3441      3438
      3419      3418      3441      3442      3419      3418      3441      3443
      3420      3418      3441      3438      3420      3418      3441      3442
      3420      3418      3441      3443      3420      3422      3425      3426
      3420      3422      3425      3427      3420      3422      3425      3428
      3420      3430      3428      3425      3420      3430      3428      3429
      3420      3430      3428      3454      3420      3430      3431      3432
      3420      3430      3431      3433      3420      3430      3431      3434
      3420      3430      3435      3436      3420      3430      3435      3437
      3420      3430      3435      3438      3421      3420      3418      3441
      3421      3420      3422      3423      3421      3420      3422      3424
      3421      3420      3422      3425      3421      3420      3430      3428
      3421      3420      3430      3431      3421      3420      3430      3435
      3422      3420      3418      3441      3422      3420      3430      3428
      3422      3420      3430      3431      3422      3420      3430      3435
      3422      3425      3428      3429      3422      3425      3428      3430
      3422      3425      3428      3454      3423      3422      3420      3430
      3423      3422      3425      3426      3423      3422      3425      3427
      3423      3422      3425      3428      3424      3422      3420      3430
      3424      3422      3425      3426      3424      3422      3425      3427
      3424      3422      3425      3428      3425      3422      3420      3430
      3425      3428      3430      3431      3425      3428      3430      3435
      3425      3428      3454      3455      3425      3428      3454      3456
      3425      3428      3454      3460      3426      3425      3428      3429
      3426      3425      3428      3430      3426      3425      3428      3454
      3427      3425      3428      3429      3427      3425      3428      3430
      3427      3425      3428      3454      3428      3430      3431      3432
      3428      3430      3431      3433      3428      3430      3431      3434
      3428      3430      3435      3436      3428      3430      3435      3437
      3428      3430      3435      3438      3428      3454      3456      3457
      3428      3454      3456      3458      3428      3454      3456      3459
      3428      3454      3460      3461      3428      3454      3460      3462
      3428      3454      3460      3463      3429      3428      3430      3431
      3429      3428      3430      3435      3429      3428      3454      3455
      3429      3428      3454      3456      3429      3428      3454      3460
      3430      3420      3418      3441      3430      3428      3454      3455
      3430      3428      3454      3456      3430      3428      3454      3460
      3430      3435      3438      3439      3430      3435      3438      3440
      3430      3435      3438      3441      3431      3430      3428      3454
      3431      3430      3435      3436      3431      3430      3435      3437
      3431      3430      3435      3438      3432      3431      3430      3435
      3433      3431      3430      3435      3434      3431      3430      3435
      3435      3430      3428      3454      3435      3438      3441      3442
      3435      3438      3441      3443      3436      3435      3438      3439
      3436      3435      3438      3440      3436      3435      3438      3441
      3437      3435      3438      3439      3437      3435      3438      3440
      3437      3435      3438      3441      3438      3441      3443      3444
      3438      3441      3443      3448      3439      3438      3441      3442
      3439      3438      3441      3443      3440      3438      3441      3442
      3440      3438      3441      3443      3441      3443      3444      3445
      3441      3443      3444      3446      3441      3443      3444      3447
      3441      3443      3448      3449      3441      3443      3448      3450
      3441      3443      3448      3451      3442      3441      3443      3444
      3442      3441      3443      3448      3443      3448      3451      3452
      3443      3448      3451      3453      3444      3443      3448      3449
      3444      3443      3448      3450      3444      3443      3448      3451
      3445      3444      3443      3448      3446      3444      3443      3448
      3447      3444      3443      3448      3449      3448      3451      3452
      3449      3448      3451      3453      3450      3448      3451      3452
      3450      3448      3451      3453      3454      3460      3463      3464
      3454      3460      3463      3465      3454      3460      3463      3466
      3455      3454      3456      3457      3455      3454      3456      3458
      3455      3454      3456      3459      3455      3454      3460      3461
      3455      3454      3460      3462      3455      3454      3460      3463
      3456      3454      3460      3461      3456      3454      3460      3462
      3456      3454      3460      3463      3457      3456      3454      3460
      3458      3456      3454      3460      3459      3456      3454      3460
      3460      3463      3466      3467      3460      3463      3466      3468
      3460      3463      3466      3469      3461      3460      3463      3464
      3461      3460      3463      3465      3461      3460      3463      3466
      3462      3460      3463      3464      3462      3460      3463      3465
      3462      3460      3463      3466      3463      3466      3469      3470
      3463      3466      3469      3471      3463      3466      3469      3475
      3464      3463      3466      3467      3464      3463      3466      3468
      3464      3463      3466      3469      3465      3463      3466      3467
      3465      3463      3466      3468      3465      3463      3466      3469
      3466      3469      3471      3472      3466      3469      3471      3473
      3466      3469      3471      3474      3466      3469      3475      3476
      3466      3469      3475      3477      3466      3469      3475      3478
      3467      3466      3469      3470      3467      3466      3469      3471
      3467      3466      3469      3475      3468      3466      3469      3470
      3468      3466      3469      3471      3468      3466      3469      3475
      3470      3469      3471      3472      3470      3469      3471      3473
      3470      3469      3471      3474      3470      3469      3475      3476
      3470      3469      3475      3477      3470      3469      3475      3478
      3471      3469      3475      3476      3471      3469      3475      3477
      3471      3469      3475      3478      3472      3471      3469      3475
      3473      3471      3469      3475      3474      3471      3469      3475
      6929      6942      6945      6946      6929      6942      6945      6947
      6929      6942      6945      6951      6930      6929      6934      6935
      6930      6929      6934      6936      6930      6929      6934      6937
      6930      6929      6938      6939      6930      6929      6938      6940
      6930      6929      6938      6941      6930      6929      6942      6943
      6930      6929      6942      6944      6930      6929      6942      6945
      6931      6930      6929      6934      6931      6930      6929      6938
      6931      6930      6929      6942      6932      6930      6929      6934
      6932      6930      6929      6938      6932      6930      6929      6942
      6933      6930      6929      6934      6933      6930      6929      6938
      6933      6930      6929      6942      6934      6929      6938      6939
      6934      6929      6938      6940      6934      6929      6938      6941
      6934      6929      6942      6943      6934      6929      6942      6944
      6934      6929      6942      6945      6935      6934      6929      6938
      6935      6934      6929      6942      6936      6934      6929      6938
      6936      6934      6929      6942      6937      6934      6929      6938
      6937      6934      6929      6942      6938      6929      6942      6943
      6938      6929      6942      6944      6938      6929      6942      6945
      6939      6938      6929      6942      6940      6938      6929      6942
      6941      6938      6929      6942      6942      6945      6951      6948
      6943      6942      6945      6946      6943      6942      6945      6947
      6943      6942      6945      6951      6944      6942      6945      6946
      6944      6942      6945      6947      6944      6942      6945      6951
      6945      6951      6948      6949      6945      6951      6948      6950
      6945      6951      6948      6952      6946      6945      6951      6948
      6947      6945      6951      6948      6948      6952      6953      6954
      6948      6952      6953      6955      6948      6952      6953      6956
      6949      6948      6952      6953      6950      6948      6952      6953
      6951      6948      6952      6953      6952      6953      6956      6957
      6952      6953      6956      6958      6952      6953      6956      6964
      6953      6956      6958      6959      6953      6956      6964      6965
      6953      6956      6964      6966      6953      6956      6964      6967
      6954      6953      6956      6957      6954      6953      6956      6958
      6954      6953      6956      6964      6955      6953      6956      6957
      6955      6953      6956      6958      6955      6953      6956      6964
      6956      6958      6959      6960      6956      6958      6959      6961
      6956      6964      6967      6968      6957      6956      6958      6959
      6957      6956      6964      6965      6957      6956      6964      6966
      6957      6956      6964      6967      6958      6956      6964      6965
      6958      6956      6964      6966      6958      6956      6964      6967
      6958      6959      6961      6962      6958      6959      6961      6963
      6958      6959      6961      6973      6959      6958      6956      6964
      6959      6961      6973      6974      6959      6961      6973      6975
      6959      6961      6973      6976      6960      6959      6961      6962
      6960      6959      6961      6963      6960      6959      6961      6973
      6961      6973      6976      6977      6961      6973      6976      6978
      6961      6973      6976      6979      6962      6961      6973      6974
      6962      6961      6973      6975      6962      6961      6973      6976
      6963      6961      6973      6974      6963      6961      6973      6975
      6963      6961      6973      6976      6964      6967      6968      6969
      6964      6967      6968      6970      6965      6964      6967      6968
      6966      6964      6967      6968      6967      6968      6970      6971
      6967      6968      6970      6972      6967      6968      6970      7018
      6968      6970      7018      7019      6968      6970      7018      7020
      6968      6970      7018      7021      6969      6968      6970      6971
      6969      6968      6970      6972      6969      6968      6970      7018
      6970      7018      7021      7022      6970      7018      7021      7023
      6970      7018      7021      7024      6971      6970      7018      7019
      6971      6970      7018      7020      6971      6970      7018      7021
      6972      6970      7018      7019      6972      6970      7018      7020
      6972      6970      7018      7021      6973      6976      6979      6980
      6973      6976      6979      6981      6973      6976      6979      6982
      6974      6973      6976      6977      6974      6973      6976      6978
      6974      6973      6976      6979      6975      6973      6976      6977
      6975      6973      6976      6978      6975      6973      6976      6979
      6976      6979      6982      6983      6976      6979      6982      6984
      6976      6979      6982      6985      6977      6976      6979      6980
      6977      6976      6979      6981      6977      6976      6979      6982
      6978      6976      6979      6980      6978      6976      6979      6981
      6978      6976      6979      6982      6979      6982      6985      6986
      6979      6982      6985      6987      6979      6982      6985      6988
      6980      6979      6982      6983      6980      6979      6982      6984
      6980      6979      6982      6985      6981      6979      6982      6983
      6981      6979      6982      6984      6981      6979      6982      6985
      6982      6985      6988      6989      6982      6985      6988      6990
      6982      6985      6988      6991      6983      6982      6985      6986
      6983      6982      6985      6987      6983      6982      6985      6988
      6984      6982      6985      6986      6984      6982      6985      6987
      6984      6982      6985      6988      6985      6988      6991      6992
      6985      6988      6991      6993      6986      6985      6988      6989
      6986      6985      6988      6990      6986      6985      6988      6991
      6987      6985      6988      6989      6987      6985      6988      6990
      6987      6985      6988      6991      6988      6991      6993      6994
      6988      6991      6993      6995      6989      6988      6991      6992
      6989      6988      6991      6993      6990      6988      6991      6992
      6990      6988      6991      6993      6991      6993      6995      6996
      6991      6993      6995      6997      6991      6993      6995      6998
      6992      6991      6993      6994      6992      6991      6993      6995
      6993      6995      6998      6999      6993      6995      6998      7000
      6994      6993      6995      6996      6994      6993      6995      6997
      6994      6993      6995      6998      6995      6998      7000      7001
      6995      6998      7000      7002      6996      6995      6998      6999
      6996      6995      6998      7000      6997      6995      6998      6999
      6997      6995      6998      7000      6998      7000      7002      7003
      6998      7000      7002      7004      6998      7000      7002      7005
      6999      6998      7000      7001      6999      6998      7000      7002
      7000      7002      7005      7006      7000      7002      7005      7007
      7000      7002      7005      7008      7001      7000      7002      7003
      7001      7000      7002      7004      7001      7000      7002      7005
      7002      7005      7008      7009      7002      7005      7008      7010
      7002      7005      7008      7011      7003      7002      7005      7006
      7003      7002      7005      7007      7003      7002      7005      7008
      7004      7002      7005      7006      7004      7002      7005      7007
      7004      7002      7005      7008      7005      7008      7011      7012
      7005      7008      7011      7013      7005      7008      7011      7014
      7006      7005      7008      7009      7006      7005      7008      7010
      7006      7005      7008      7011      7007      7005      7008      7009
      7007      7005      7008      7010      7007      7005      7008      7011
      7008      7011      7014      7015      7008      7011      7014      7016
      7008      7011      7014      7017      7009      7008      7011      7012
      7009      7008      7011      7013      7009      7008      7011      7014
      7010      7008      7011      7012      7010      7008      7011      7013
      7010      7008      7011      7014      7012      7011      7014      7015
      7012      7011      7014      7016      7012      7011      7014      7017
      7013      7011      7014      7015      7013      7011      7014      7016
      7013      7011      7014      7017      7018      7021      7024      7025
      7018      7021      7024      7026      7018      7021      7024      7027
      7019      7018      7021      7022      7019      7018      7021      7023
      7019      7018      7021      7024      7020      7018      7021      7022
      7020      7018      7021      7023      7020      7018      7021      7024
      7021      7024      7027      7028      7021      7024      7027      7029
      7021      7024      7027      7030      7022      7021      7024      7025
      7022      7021      7024      7026      7022      7021      7024      7027
      7023      7021      7024      7025      7023      7021      7024      7026
      7023      7021      7024      7027      7024      7027      7030      7031
      7024      7027      7030      7032      7024      7027      7030      7033
      7025      7024      7027      7028      7025      7024      7027      7029
      7025      7024      7027      7030      7026      7024      7027      7028
      7026      7024      7027      7029      7026      7024      7027      7030
      7027      7030      7033      7034      7027      7030      7033      7035
      7027      7030      7033      7036      7028      7027      7030      7031
      7028      7027      7030      7032      7028      7027      7030      7033
      7029      7027      7030      7031      7029      7027      7030      7032
      7029      7027      7030      7033      7030      7033      7036      7037
      7030      7033      7036      7038      7030      7033      7036      7039
      7031      7030      7033      7034      7031      7030      7033      7035
      7031      7030      7033      7036      7032      7030      7033      7034
      7032      7030      7033      7035      7032      7030      7033      7036
      7033      7036      7039      7040      7033      7036      7039      7041
      7033      7036      7039      7042      7034      7033      7036      7037
      7034      7033      7036      7038      7034      7033      7036      7039
      7035      7033      7036      7037      7035      7033      7036      7038
      7035      7033      7036      7039      7036      7039      7042      7043
      7036      7039      7042      7044      7036      7039      7042      7045
      7037      7036      7039      7040      7037      7036      7039      7041
      7037      7036      7039      7042      7038      7036      7039      7040
      7038      7036      7039      7041      7038      7036      7039      7042
      7039      7042      7045      7046      7039      7042      7045      7047
      7039      7042      7045      7048      7040      7039      7042      7043
      7040      7039      7042      7044      7040      7039      7042      7045
      7041      7039      7042      7043      7041      7039      7042      7044
      7041      7039      7042      7045      7042      7045      7048      7049
      7042      7045      7048      7050      7042      7045      7048      7051
      7043      7042      7045      7046      7043      7042      7045      7047
      7043      7042      7045      7048      7044      7042      7045      7046
      7044      7042      7045      7047      7044      7042      7045      7048
      7045      7048      7051      7052      7045      7048      7051      7053
      7045      7048      7051      7054      7046      7045      7048      7049
      7046      7045      7048      7050      7046      7045      7048      7051
      7047      7045      7048      7049      7047      7045      7048      7050
      7047      7045      7048      7051      7048      7051      7054      7055
      7048      7051      7054      7056      7048      7051      7054      7057
      7049      7048      7051      7052      7049      7048      7051      7053
      7049      7048      7051      7054      7050      7048      7051      7052
      7050      7048      7051      7053      7050      7048      7051      7054
      7051      7054      7057      7058      7051      7054      7057      7059
      7051      7054      7057      7060      7052      7051      7054      7055
      7052      7051      7054      7056      7052      7051      7054      7057
      7053      7051      7054      7055      7053      7051      7054      7056
      7053      7051      7054      7057      7054      7057      7060      7061
      7054      7057      7060      7062      7054      7057      7060      7063
      7055      7054      7057      7058      7055      7054      7057      7059
      7055      7054      7057      7060      7056      7054      7057      7058
      7056      7054      7057      7059      7056      7054      7057      7060
      7057      7060      7063      7064      7057      7060      7063      7065
      7057      7060      7063      7066      7058      7057      7060      7061
      7058      7057      7060      7062      7058      7057      7060      7063
      7059      7057      7060      7061      7059      7057      7060      7062
      7059      7057      7060      7063      7061      7060      7063      7064
      7061      7060      7063      7065      7061      7060      7063      7066
      7062      7060      7063      7064      7062      7060      7063      7065
      7062      7060      7063      7066     20752     20756     20759     20760
     20752     20756     20759     20761     20752     20756     20759     20765
     20753     20752     20756     20757     20753     20752     20756     20758
     20753     20752     20756     20759     20754     20752     20756     20757
     20754     20752     20756     20758     20754     20752     20756     20759
     20755     20752     20756     20757     20755     20752     20756     20758
     20755     20752     20756     20759     20756     20759     20765     20762
     20757     20756     20759     20760     20757     20756     20759     20761
     20757     20756     20759     20765     20758     20756     20759     20760
     20758     20756     20759     20761     20758     20756     20759     20765
     20759     20765     20762     20763     20759     20765     20762     20764
     20759     20765     20762     20766     20760     20759     20765     20762
     20761     20759     20765     20762     20762     20766     20767     20768
     20762     20766     20767     20769     20762     20766     20767     20770
     20763     20762     20766     20767     20764     20762     20766     20767
     20765     20762     20766     20767     20766     20767     20770     20771
     20766     20767     20770     20772     20766     20767     20770     20778
     20767     20770     20772     20773     20767     20770     20778     20779
     20767     20770     20778     20780     20767     20770     20778     20781
     20768     20767     20770     20771     20768     20767     20770     20772
     20768     20767     20770     20778     20769     20767     20770     20771
     20769     20767     20770     20772     20769     20767     20770     20778
     20770     20772     20773     20774     20770     20772     20773     20775
     20770     20778     20781     20782     20771     20770     20772     20773
     20771     20770     20778     20779     20771     20770     20778     20780
     20771     20770     20778     20781     20772     20770     20778     20779
     20772     20770     20778     20780     20772     20770     20778     20781
     20772     20773     20775     20776     20772     20773     20775     20777
     20772     20773     20775     20787     20773     20772     20770     20778
     20773     20775     20787     20788     20773     20775     20787     20789
     20773     20775     20787     20790     20774     20773     20775     20776
     20774     20773     20775     20777     20774     20773     20775     20787
     20775     20787     20790     20791     20775     20787     20790     20792
     20775     20787     20790     20793     20776     20775     20787     20788
     20776     20775     20787     20789     20776     20775     20787     20790
     20777     20775     20787     20788     20777     20775     20787     20789
     20777     20775     20787     20790     20778     20781     20782     20783
     20778     20781     20782     20784     20779     20778     20781     20782
     20780     20778     20781     20782     20781     20782     20784     20785
     20781     20782     20784     20786     20781     20782     20784     20834
     20782     20784     20834     20835     20782     20784     20834     20836
     20782     20784     20834     20837     20783     20782     20784     20785
     20783     20782     20784     20786     20783     20782     20784     20834
     20784     20834     20837     20838     20784     20834     20837     20839
     20784     20834     20837     20840     20785     20784     20834     20835
     20785     20784     20834     20836     20785     20784     20834     20837
     20786     20784     20834     20835     20786     20784     20834     20836
     20786     20784     20834     20837     20787     20790     20793     20794
     20787     20790     20793     20795     20787     20790     20793     20796
     20788     20787     20790     20791     20788     20787     20790     20792
     20788     20787     20790     20793     20789     20787     20790     20791
     20789     20787     20790     20792     20789     20787     20790     20793
     20790     20793     20796     20797     20790     20793     20796     20798
     20790     20793     20796     20799     20791     20790     20793     20794
     20791     20790     20793     20795     20791     20790     20793     20796
     20792     20790     20793     20794     20792     20790     20793     20795
     20792     20790     20793     20796     20793     20796     20799     20800
     20793     20796     20799     20801     20793     20796     20799     20802
     20794     20793     20796     20797     20794     20793     20796     20798
     20794     20793     20796     20799     20795     20793     20796     20797
     20795     20793     20796     20798     20795     20793     20796     20799
     20796     20799     20802     20803     20796     20799     20802     20804
     20796     20799     20802     20805     20797     20796     20799     20800
     20797     20796     20799     20801     20797     20796     20799     20802
     20798     20796     20799     20800     20798     20796     20799     20801
     20798     20796     20799     20802     20799     20802     20805     20806
     20799     20802     20805     20807     20800     20799     20802     20803
     20800     20799     20802     20804     20800     20799     20802     20805
     20801     20799     20802     20803     20801     20799     20802     20804
     20801     20799     20802     20805     20802     20805     20807     20808
     20802     20805     20807     20809     20803     20802     20805     20806
     20803     20802     20805     20807     20804     20802     20805     20806
     20804     20802     20805     20807     20805     20807     20809     20810
     20805     20807     20809     20811     20805     20807     20809     20812
     20806     20805     20807     20808     20806     20805     20807     20809
     20807     20809     20812     20813     20807     20809     20812     20814
     20807     20809     20812     20815     20808     20807     20809     20810
     20808     20807     20809     20811     20808     20807     20809     20812
     20809     20812     20815     20816     20809     20812     20815     20817
     20809     20812     20815     20818     20810     20809     20812     20813
     20810     20809     20812     20814     20810     20809     20812     20815
     20811     20809     20812     20813     20811     20809     20812     20814
     20811     20809     20812     20815     20812     20815     20818     20819
     20812     20815     20818     20820     20812     20815     20818     20821
     20813     20812     20815     20816     20813     20812     20815     20817
     20813     20812     20815     20818     20814     20812     20815     20816
     20814     20812     20815     20817     20814     20812     20815     20818
     20815     20818     20821     20822     20815     20818     20821     20823
     20815     20818     20821     20824     20816     20815     20818     20819
     20816     20815     20818     20820     20816     20815     20818     20821
     20817     20815     20818     20819     20817     20815     20818     20820
     20817     20815     20818     20821     20818     20821     20824     20825
     20818     20821     20824     20826     20818     20821     20824     20827
     20819     20818     20821     20822     20819     20818     20821     20823
     20819     20818     20821     20824     20820     20818     20821     20822
     20820     20818     20821     20823     20820     20818     20821     20824
     20821     20824     20827     20828     20821     20824     20827     20829
     20821     20824     20827     20830     20822     20821     20824     20825
     20822     20821     20824     20826     20822     20821     20824     20827
     20823     20821     20824     20825     20823     20821     20824     20826
     20823     20821     20824     20827     20824     20827     20830     20831
     20824     20827     20830     20832     20824     20827     20830     20833
     20825     20824     20827     20828     20825     20824     20827     20829
     20825     20824     20827     20830     20826     20824     20827     20828
     20826     20824     20827     20829     20826     20824     20827     20830
     20828     20827     20830     20831     20828     20827     20830     20832
     20828     20827     20830     20833     20829     20827     20830     20831
     20829     20827     20830     20832     20829     20827     20830     20833
     20834     20837     20840     20841     20834     20837     20840     20842
     20834     20837     20840     20843     20835     20834     20837     20838
     20835     20834     20837     20839     20835     20834     20837     20840
     20836     20834     20837     20838     20836     20834     20837     20839
     20836     20834     20837     20840     20837     20840     20843     20844
     20837     20840     20843     20845     20837     20840     20843     20846
     20838     20837     20840     20841     20838     20837     20840     20842
     20838     20837     20840     20843     20839     20837     20840     20841
     20839     20837     20840     20842     20839     20837     20840     20843
     20840     20843     20846     20847     20840     20843     20846     20848
     20840     20843     20846     20849     20841     20840     20843     20844
     20841     20840     20843     20845     20841     20840     20843     20846
     20842     20840     20843     20844     20842     20840     20843     20845
     20842     20840     20843     20846     20843     20846     20849     20850
     20843     20846     20849     20851     20843     20846     20849     20852
     20844     20843     20846     20847     20844     20843     20846     20848
     20844     20843     20846     20849     20845     20843     20846     20847
     20845     20843     20846     20848     20845     20843     20846     20849
     20846     20849     20852     20853     20846     20849     20852     20854
     20846     20849     20852     20855     20847     20846     20849     20850
     20847     20846     20849     20851     20847     20846     20849     20852
     20848     20846     20849     20850     20848     20846     20849     20851
     20848     20846     20849     20852     20849     20852     20855     20856
     20849     20852     20855     20857     20849     20852     20855     20858
     20850     20849     20852     20853     20850     20849     20852     20854
     20850     20849     20852     20855     20851     20849     20852     20853
     20851     20849     20852     20854     20851     20849     20852     20855
     20852     20855     20858     20859     20852     20855     20858     20860
     20852     20855     20858     20861     20853     20852     20855     20856
     20853     20852     20855     20857     20853     20852     20855     20858
     20854     20852     20855     20856     20854     20852     20855     20857
     20854     20852     20855     20858     20855     20858     20861     20862
     20855     20858     20861     20863     20855     20858     20861     20864
     20856     20855     20858     20859     20856     20855     20858     20860
     20856     20855     20858     20861     20857     20855     20858     20859
     20857     20855     20858     20860     20857     20855     20858     20861
     20858     20861     20864     20865     20858     20861     20864     20866
     20858     20861     20864     20867     20859     20858     20861     20862
     20859     20858     20861     20863     20859     20858     20861     20864
     20860     20858     20861     20862     20860     20858     20861     20863
     20860     20858     20861     20864     20861     20864     20867     20868
     20861     20864     20867     20869     20861     20864     20867     20870
     20862     20861     20864     20865     20862     20861     20864     20866
     20862     20861     20864     20867     20863     20861     20864     20865
     20863     20861     20864     20866     20863     20861     20864     20867
     20864     20867     20870     20871     20864     20867     20870     20872
     20864     20867     20870     20873     20865     20864     20867     20868
     20865     20864     20867     20869     20865     20864     20867     20870
     20866     20864     20867     20868     20866     20864     20867     20869
     20866     20864     20867     20870     20867     20870     20873     20874
     20867     20870     20873     20875     20867     20870     20873     20876
     20868     20867     20870     20871     20868     20867     20870     20872
     20868     20867     20870     20873     20869     20867     20870     20871
     20869     20867     20870     20872     20869     20867     20870     20873
     20870     20873     20876     20877     20870     20873     20876     20878
     20870     20873     20876     20879     20871     20870     20873     20874
     20871     20870     20873     20875     20871     20870     20873     20876
     20872     20870     20873     20874     20872     20870     20873     20875
     20872     20870     20873     20876     20873     20876     20879     20880
     20873     20876     20879     20881     20873     20876     20879     20882
     20874     20873     20876     20877     20874     20873     20876     20878
     20874     20873     20876     20879     20875     20873     20876     20877
     20875     20873     20876     20878     20875     20873     20876     20879
     20877     20876     20879     20880     20877     20876     20879     20881
     20877     20876     20879     20882     20878     20876     20879     20880
     20878     20876     20879     20881     20878     20876     20879     20882
     21431     21435     21437     21438     21431     21435     21439     21440
     21431     21435     21439     21441     21431     21435     21439     21443
     21431     21451     21447     21443     21431     21451     21447     21448
     21431     21451     21447     21449     21431     21451     21456     21453
     21432     21431     21433     21434     21432     21431     21435     21436
     21432     21431     21435     21437     21432     21431     21435     21439
     21432     21431     21451     21447     21432     21431     21451     21452
     21432     21431     21451     21456     21433     21431     21435     21436
     21433     21431     21435     21437     21433     21431     21435     21439
     21433     21431     21451     21447     21433     21431     21451     21452
     21433     21431     21451     21456     21434     21433     21431     21435
     21434     21433     21431     21451     21435     21431     21451     21447
     21435     21431     21451     21452     21435     21431     21451     21456
     21435     21439     21441     21442     21435     21439     21443     21444
     21435     21439     21443     21445     21435     21439     21443     21447
     21436     21435     21431     21451     21436     21435     21437     21438
     21436     21435     21439     21440     21436     21435     21439     21441
     21436     21435     21439     21443     21437     21435     21431     21451
     21437     21435     21439     21440     21437     21435     21439     21441
     21437     21435     21439     21443     21438     21437     21435     21439
     21439     21435     21431     21451     21439     21443     21445     21446
     21439     21443     21447     21448     21439     21443     21447     21449
     21439     21443     21447     21451     21440     21439     21441     21442
     21440     21439     21443     21444     21440     21439     21443     21445
     21440     21439     21443     21447     21441     21439     21443     21444
     21441     21439     21443     21445     21441     21439     21443     21447
     21442     21441     21439     21443     21443     21447     21449     21450
     21443     21447     21451     21452     21443     21447     21451     21456
     21444     21443     21445     21446     21444     21443     21447     21448
     21444     21443     21447     21449     21444     21443     21447     21451
     21445     21443     21447     21448     21445     21443     21447     21449
     21445     21443     21447     21451     21446     21445     21443     21447
     21447     21451     21456     21453     21448     21447     21449     21450
     21448     21447     21451     21452     21448     21447     21451     21456
     21449     21447     21451     21452     21449     21447     21451     21456
     21450     21449     21447     21451     21451     21456     21453     21454
     21451     21456     21453     21455     21451     21456     21453     21457
     21452     21451     21456     21453     21453     21457     21458     21459
     21453     21457     21458     21460     21453     21457     21458     21461
     21454     21453     21457     21458     21455     21453     21457     21458
     21456     21453     21457     21458     21457     21458     21461     21462
     21457     21458     21461     21463     21457     21458     21461     21469
     21458     21461     21463     21464     21458     21461     21469     21470
     21458     21461     21469     21471     21458     21461     21469     21472
     21459     21458     21461     21462     21459     21458     21461     21463
     21459     21458     21461     21469     21460     21458     21461     21462
     21460     21458     21461     21463     21460     21458     21461     21469
     21461     21463     21464     21465     21461     21463     21464     21466
     21461     21469     21472     21473     21462     21461     21463     21464
     21462     21461     21469     21470     21462     21461     21469     21471
     21462     21461     21469     21472     21463     21461     21469     21470
     21463     21461     21469     21471     21463     21461     21469     21472
     21463     21464     21466     21467     21463     21464     21466     21468
     21463     21464     21466     21478     21464     21463     21461     21469
     21464     21466     21478     21479     21464     21466     21478     21480
     21464     21466     21478     21481     21465     21464     21466     21467
     21465     21464     21466     21468     21465     21464     21466     21478
     21466     21478     21481     21482     21466     21478     21481     21483
     21466     21478     21481     21484     21467     21466     21478     21479
     21467     21466     21478     21480     21467     21466     21478     21481
     21468     21466     21478     21479     21468     21466     21478     21480
     21468     21466     21478     21481     21469     21472     21473     21474
     21469     21472     21473     21475     21470     21469     21472     21473
     21471     21469     21472     21473     21472     21473     21475     21476
     21472     21473     21475     21477     21472     21473     21475     21525
     21473     21475     21525     21526     21473     21475     21525     21527
     21473     21475     21525     21528     21474     21473     21475     21476
     21474     21473     21475     21477     21474     21473     21475     21525
     21475     21525     21528     21529     21475     21525     21528     21530
     21475     21525     21528     21531     21476     21475     21525     21526
     21476     21475     21525     21527     21476     21475     21525     21528
     21477     21475     21525     21526     21477     21475     21525     21527
     21477     21475     21525     21528     21478     21481     21484     21485
     21478     21481     21484     21486     21479     21478     21481     21482
     21479     21478     21481     21483     21479     21478     21481     21484
     21480     21478     21481     21482     21480     21478     21481     21483
     21480     21478     21481     21484     21481     21484     21486     21487
     21481     21484     21486     21488     21482     21481     21484     21485
     21482     21481     21484     21486     21483     21481     21484     21485
     21483     21481     21484     21486     21484     21486     21488     21489
     21484     21486     21488     21490     21484     21486     21488     21491
     21485     21484     21486     21487     21485     21484     21486     21488
     21486     21488     21491     21492     21486     21488     21491     21493
     21487     21486     21488     21489     21487     21486     21488     21490
     21487     21486     21488     21491     21488     21491     21493     21494
     21488     21491     21493     21495     21489     21488     21491     21492
     21489     21488     21491     21493     21490     21488     21491     21492
     21490     21488     21491     21493     21491     21493     21495     21496
     21491     21493     21495     21497     21491     21493     21495     21498
     21492     21491     21493     21494     21492     21491     21493     21495
     21493     21495     21498     21499     21493     21495     21498     21500
     21494     21493     21495     21496     21494     21493     21495     21497
     21494     21493     21495     21498     21495     21498     21500     21501
     21495     21498     21500     21502     21496     21495     21498     21499
     21496     21495     21498     21500     21497     21495     21498     21499
     21497     21495     21498     21500     21498     21500     21502     21503
     21498     21500     21502     21504     21498     21500     21502     21505
     21499     21498     21500     21501     21499     21498     21500     21502
     21500     21502     21505     21506     21500     21502     21505     21507
     21501     21500     21502     21503     21501     21500     21502     21504
     21501     21500     21502     21505     21502     21505     21507     21508
     21502     21505     21507     21509     21503     21502     21505     21506
     21503     21502     21505     21507     21504     21502     21505     21506
     21504     21502     21505     21507     21505     21507     21509     21510
     21505     21507     21509     21511     21505     21507     21509     21512
     21506     21505     21507     21508     21506     21505     21507     21509
     21507     21509     21512     21513     21507     21509     21512     21514
     21507     21509     21512     21515     21508     21507     21509     21510
     21508     21507     21509     21511     21508     21507     21509     21512
     21509     21512     21515     21516     21509     21512     21515     21517
     21509     21512     21515     21518     21510     21509     21512     21513
     21510     21509     21512     21514     21510     21509     21512     21515
     21511     21509     21512     21513     21511     21509     21512     21514
     21511     21509     21512     21515     21512     21515     21518     21519
     21512     21515     21518     21520     21512     21515     21518     21521
     21513     21512     21515     21516     21513     21512     21515     21517
     21513     21512     21515     21518     21514     21512     21515     21516
     21514     21512     21515     21517     21514     21512     21515     21518
     21515     21518     21521     21522     21515     21518     21521     21523
     21515     21518     21521     21524     21516     21515     21518     21519
     21516     21515     21518     21520     21516     21515     21518     21521
     21517     21515     21518     21519     21517     21515     21518     21520
     21517     21515     21518     21521     21519     21518     21521     21522
     21519     21518     21521     21523     21519     21518     21521     21524
     21520     21518     21521     21522     21520     21518     21521     21523
     21520     21518     21521     21524     21525     21528     21531     21532
     21525     21528     21531     21533     21525     21528     21531     21534
     21526     21525     21528     21529     21526     21525     21528     21530
     21526     21525     21528     21531     21527     21525     21528     21529
     21527     21525     21528     21530     21527     21525     21528     21531
     21528     21531     21534     21535     21528     21531     21534     21536
     21528     21531     21534     21537     21529     21528     21531     21532
     21529     21528     21531     21533     21529     21528     21531     21534
     21530     21528     21531     21532     21530     21528     21531     21533
     21530     21528     21531     21534     21531     21534     21537     21538
     21531     21534     21537     21539     21531     21534     21537     21540
     21532     21531     21534     21535     21532     21531     21534     21536
     21532     21531     21534     21537     21533     21531     21534     21535
     21533     21531     21534     21536     21533     21531     21534     21537
     21534     21537     21540     21541     21534     21537     21540     21542
     21534     21537     21540     21543     21535     21534     21537     21538
     21535     21534     21537     21539     21535     21534     21537     21540
     21536     21534     21537     21538     21536     21534     21537     21539
     21536     21534     21537     21540     21537     21540     21543     21544
     21537     21540     21543     21545     21537     21540     21543     21546
     21538     21537     21540     21541     21538     21537     21540     21542
     21538     21537     21540     21543     21539     21537     21540     21541
     21539     21537     21540     21542     21539     21537     21540     21543
     21540     21543     21546     21547     21540     21543     21546     21548
     21540     21543     21546     21549     21541     21540     21543     21544
     21541     21540     21543     21545     21541     21540     21543     21546
     21542     21540     21543     21544     21542     21540     21543     21545
     21542     21540     21543     21546     21543     21546     21549     21550
     21543     21546     21549     21551     21543     21546     21549     21552
     21544     21543     21546     21547     21544     21543     21546     21548
     21544     21543     21546     21549     21545     21543     21546     21547
     21545     21543     21546     21548     21545     21543     21546     21549
     21546     21549     21552     21553     21546     21549     21552     21554
     21546     21549     21552     21555     21547     21546     21549     21550
     21547     21546     21549     21551     21547     21546     21549     21552
     21548     21546     21549     21550     21548     21546     21549     21551
     21548     21546     21549     21552     21549     21552     21555     21556
     21549     21552     21555     21557     21549     21552     21555     21558
     21550     21549     21552     21553     21550     21549     21552     21554
     21550     21549     21552     21555     21551     21549     21552     21553
     21551     21549     21552     21554     21551     21549     21552     21555
     21552     21555     21558     21559     21552     21555     21558     21560
     21552     21555     21558     21561     21553     21552     21555     21556
     21553     21552     21555     21557     21553     21552     21555     21558
     21554     21552     21555     21556     21554     21552     21555     21557
     21554     21552     21555     21558     21555     21558     21561     21562
     21555     21558     21561     21563     21555     21558     21561     21564
     21556     21555     21558     21559     21556     21555     21558     21560
     21556     21555     21558     21561     21557     21555     21558     21559
     21557     21555     21558     21560     21557     21555     21558     21561
     21558     21561     21564     21565     21558     21561     21564     21566
     21558     21561     21564     21567     21559     21558     21561     21562
     21559     21558     21561     21563     21559     21558     21561     21564
     21560     21558     21561     21562     21560     21558     21561     21563
     21560     21558     21561     21564     21561     21564     21567     21568
     21561     21564     21567     21569     21561     21564     21567     21570
     21562     21561     21564     21565     21562     21561     21564     21566
     21562     21561     21564     21567     21563     21561     21564     21565
     21563     21561     21564     21566     21563     21561     21564     21567
     21564     21567     21570     21571     21564     21567     21570     21572
     21564     21567     21570     21573     21565     21564     21567     21568
     21565     21564     21567     21569     21565     21564     21567     21570
     21566     21564     21567     21568     21566     21564     21567     21569
     21566     21564     21567     21570     21568     21567     21570     21571
     21568     21567     21570     21572     21568     21567     21570     21573
     21569     21567     21570     21571     21569     21567     21570     21572
     21569     21567     21570     21573     21574     21578     21580     21581
     21574     21578     21582     21583     21574     21578     21582     21584
     21574     21578     21582     21586     21574     21594     21590     21586
     21574     21594     21590     21591     21574     21594     21590     21592
     21574     21594     21599     21596     21575     21574     21576     21577
     21575     21574     21578     21579     21575     21574     21578     21580
     21575     21574     21578     21582     21575     21574     21594     21590
     21575     21574     21594     21595     21575     21574     21594     21599
     21576     21574     21578     21579     21576     21574     21578     21580
     21576     21574     21578     21582     21576     21574     21594     21590
     21576     21574     21594     21595     21576     21574     21594     21599
     21577     21576     21574     21578     21577     21576     21574     21594
     21578     21574     21594     21590     21578     21574     21594     21595
     21578     21574     21594     21599     21578     21582     21584     21585
     21578     21582     21586     21587     21578     21582     21586     21588
     21578     21582     21586     21590     21579     21578     21574     21594
     21579     21578     21580     21581     21579     21578     21582     21583
     21579     21578     21582     21584     21579     21578     21582     21586
     21580     21578     21574     21594     21580     21578     21582     21583
     21580     21578     21582     21584     21580     21578     21582     21586
     21581     21580     21578     21582     21582     21578     21574     21594
     21582     21586     21588     21589     21582     21586     21590     21591
     21582     21586     21590     21592     21582     21586     21590     21594
     21583     21582     21584     21585     21583     21582     21586     21587
     21583     21582     21586     21588     21583     21582     21586     21590
     21584     21582     21586     21587     21584     21582     21586     21588
     21584     21582     21586     21590     21585     21584     21582     21586
     21586     21590     21592     21593     21586     21590     21594     21595
     21586     21590     21594     21599     21587     21586     21588     21589
     21587     21586     21590     21591     21587     21586     21590     21592
     21587     21586     21590     21594     21588     21586     21590     21591
     21588     21586     21590     21592     21588     21586     21590     21594
     21589     21588     21586     21590     21590     21594     21599     21596
     21591     21590     21592     21593     21591     21590     21594     21595
     21591     21590     21594     21599     21592     21590     21594     21595
     21592     21590     21594     21599     21593     21592     21590     21594
     21594     21599     21596     21597     21594     21599     21596     21598
     21594     21599     21596     21600     21595     21594     21599     21596
     21596     21600     21601     21602     21596     21600     21601     21603
     21596     21600     21601     21604     21597     21596     21600     21601
     21598     21596     21600     21601     21599     21596     21600     21601
     21600     21601     21604     21605     21600     21601     21604     21606
     21600     21601     21604     21612     21601     21604     21606     21607
     21601     21604     21612     21613     21601     21604     21612     21614
     21601     21604     21612     21615     21602     21601     21604     21605
     21602     21601     21604     21606     21602     21601     21604     21612
     21603     21601     21604     21605     21603     21601     21604     21606
     21603     21601     21604     21612     21604     21606     21607     21608
     21604     21606     21607     21609     21604     21612     21615     21616
     21605     21604     21606     21607     21605     21604     21612     21613
     21605     21604     21612     21614     21605     21604     21612     21615
     21606     21604     21612     21613     21606     21604     21612     21614
     21606     21604     21612     21615     21606     21607     21609     21610
     21606     21607     21609     21611     21606     21607     21609     21621
     21607     21606     21604     21612     21607     21609     21621     21622
     21607     21609     21621     21623     21607     21609     21621     21624
     21608     21607     21609     21610     21608     21607     21609     21611
     21608     21607     21609     21621     21609     21621     21624     21625
     21609     21621     21624     21626     21609     21621     21624     21627
     21610     21609     21621     21622     21610     21609     21621     21623
     21610     21609     21621     21624     21611     21609     21621     21622
     21611     21609     21621     21623     21611     21609     21621     21624
     21612     21615     21616     21617     21612     21615     21616     21618
     21613     21612     21615     21616     21614     21612     21615     21616
     21615     21616     21618     21619     21615     21616     21618     21620
     21615     21616     21618     21668     21616     21618     21668     21669
     21616     21618     21668     21670     21616     21618     21668     21671
     21617     21616     21618     21619     21617     21616     21618     21620
     21617     21616     21618     21668     21618     21668     21671     21672
     21618     21668     21671     21673     21618     21668     21671     21674
     21619     21618     21668     21669     21619     21618     21668     21670
     21619     21618     21668     21671     21620     21618     21668     21669
     21620     21618     21668     21670     21620     21618     21668     21671
     21621     21624     21627     21628     21621     21624     21627     21629
     21622     21621     21624     21625     21622     21621     21624     21626
     21622     21621     21624     21627     21623     21621     21624     21625
     21623     21621     21624     21626     21623     21621     21624     21627
     21624     21627     21629     21630     21624     21627     21629     21631
     21625     21624     21627     21628     21625     21624     21627     21629
     21626     21624     21627     21628     21626     21624     21627     21629
     21627     21629     21631     21632     21627     21629     21631     21633
     21627     21629     21631     21634     21628     21627     21629     21630
     21628     21627     21629     21631     21629     21631     21634     21635
     21629     21631     21634     21636     21630     21629     21631     21632
     21630     21629     21631     21633     21630     21629     21631     21634
     21631     21634     21636     21637     21631     21634     21636     21638
     21632     21631     21634     21635     21632     21631     21634     21636
     21633     21631     21634     21635     21633     21631     21634     21636
     21634     21636     21638     21639     21634     21636     21638     21640
     21634     21636     21638     21641     21635     21634     21636     21637
     21635     21634     21636     21638     21636     21638     21641     21642
     21636     21638     21641     21643     21637     21636     21638     21639
     21637     21636     21638     21640     21637     21636     21638     21641
     21638     21641     21643     21644     21638     21641     21643     21645
     21639     21638     21641     21642     21639     21638     21641     21643
     21640     21638     21641     21642     21640     21638     21641     21643
     21641     21643     21645     21646     21641     21643     21645     21647
     21641     21643     21645     21648     21642     21641     21643     21644
     21642     21641     21643     21645     21643     21645     21648     21649
     21643     21645     21648     21650     21644     21643     21645     21646
     21644     21643     21645     21647     21644     21643     21645     21648
     21645     21648     21650     21651     21645     21648     21650     21652
     21646     21645     21648     21649     21646     21645     21648     21650
     21647     21645     21648     21649     21647     21645     21648     21650
     21648     21650     21652     21653     21648     21650     21652     21654
     21648     21650     21652     21655     21649     21648     21650     21651
     21649     21648     21650     21652     21650     21652     21655     21656
     21650     21652     21655     21657     21650     21652     21655     21658
     21651     21650     21652     21653     21651     21650     21652     21654
     21651     21650     21652     21655     21652     21655     21658     21659
     21652     21655     21658     21660     21652     21655     21658     21661
     21653     21652     21655     21656     21653     21652     21655     21657
     21653     21652     21655     21658     21654     21652     21655     21656
     21654     21652     21655     21657     21654     21652     21655     21658
     21655     21658     21661     21662     21655     21658     21661     21663
     21655     21658     21661     21664     21656     21655     21658     21659
     21656     21655     21658     21660     21656     21655     21658     21661
     21657     21655     21658     21659     21657     21655     21658     21660
     21657     21655     21658     21661     21658     21661     21664     21665
     21658     21661     21664     21666     21658     21661     21664     21667
     21659     21658     21661     21662     21659     21658     21661     21663
     21659     21658     21661     21664     21660     21658     21661     21662
     21660     21658     21661     21663     21660     21658     21661     21664
     21662     21661     21664     21665     21662     21661     21664     21666
     21662     21661     21664     21667     21663     21661     21664     21665
     21663     21661     21664     21666     21663     21661     21664     21667
     21668     21671     21674     21675     21668     21671     21674     21676
     21668     21671     21674     21677     21669     21668     21671     21672
     21669     21668     21671     21673     21669     21668     21671     21674
     21670     21668     21671     21672     21670     21668     21671     21673
     21670     21668     21671     21674     21671     21674     21677     21678
     21671     21674     21677     21679     21671     21674     21677     21680
     21672     21671     21674     21675     21672     21671     21674     21676
     21672     21671     21674     21677     21673     21671     21674     21675
     21673     21671     21674     21676     21673     21671     21674     21677
     21674     21677     21680     21681     21674     21677     21680     21682
     21674     21677     21680     21683     21675     21674     21677     21678
     21675     21674     21677     21679     21675     21674     21677     21680
     21676     21674     21677     21678     21676     21674     21677     21679
     21676     21674     21677     21680     21677     21680     21683     21684
     21677     21680     21683     21685     21677     21680     21683     21686
     21678     21677     21680     21681     21678     21677     21680     21682
     21678     21677     21680     21683     21679     21677     21680     21681
     21679     21677     21680     21682     21679     21677     21680     21683
     21680     21683     21686     21687     21680     21683     21686     21688
     21680     21683     21686     21689     21681     21680     21683     21684
     21681     21680     21683     21685     21681     21680     21683     21686
     21682     21680     21683     21684     21682     21680     21683     21685
     21682     21680     21683     21686     21683     21686     21689     21690
     21683     21686     21689     21691     21683     21686     21689     21692
     21684     21683     21686     21687     21684     21683     21686     21688
     21684     21683     21686     21689     21685     21683     21686     21687
     21685     21683     21686     21688     21685     21683     21686     21689
     21686     21689     21692     21693     21686     21689     21692     21694
     21686     21689     21692     21695     21687     21686     21689     21690
     21687     21686     21689     21691     21687     21686     21689     21692
     21688     21686     21689     21690     21688     21686     21689     21691
     21688     21686     21689     21692     21689     21692     21695     21696
     21689     21692     21695     21697     21689     21692     21695     21698
     21690     21689     21692     21693     21690     21689     21692     21694
     21690     21689     21692     21695     21691     21689     21692     21693
     21691     21689     21692     21694     21691     21689     21692     21695
     21692     21695     21698     21699     21692     21695     21698     21700
     21692     21695     21698     21701     21693     21692     21695     21696
     21693     21692     21695     21697     21693     21692     21695     21698
     21694     21692     21695     21696     21694     21692     21695     21697
     21694     21692     21695     21698     21695     21698     21701     21702
     21695     21698     21701     21703     21695     21698     21701     21704
     21696     21695     21698     21699     21696     21695     21698     21700
     21696     21695     21698     21701     21697     21695     21698     21699
     21697     21695     21698     21700     21697     21695     21698     21701
     21698     21701     21704     21705     21698     21701     21704     21706
     21698     21701     21704     21707     21699     21698     21701     21702
     21699     21698     21701     21703     21699     21698     21701     21704
     21700     21698     21701     21702     21700     21698     21701     21703
     21700     21698     21701     21704     21701     21704     21707     21708
     21701     21704     21707     21709     21701     21704     21707     21710
     21702     21701     21704     21705     21702     21701     21704     21706
     21702     21701     21704     21707     21703     21701     21704     21705
     21703     21701     21704     21706     21703     21701     21704     21707
     21704     21707     21710     21711     21704     21707     21710     21712
     21704     21707     21710     21713     21705     21704     21707     21708
     21705     21704     21707     21709     21705     21704     21707     21710
     21706     21704     21707     21708     21706     21704     21707     21709
     21706     21704     21707     21710     21707     21710     21713     21714
     21707     21710     21713     21715     21707     21710     21713     21716
     21708     21707     21710     21711     21708     21707     21710     21712
     21708     21707     21710     21713     21709     21707     21710     21711
     21709     21707     21710     21712     21709     21707     21710     21713
     21711     21710     21713     21714     21711     21710     21713     21715
     21711     21710     21713     21716     21712     21710     21713     21714
     21712     21710     21713     21715     21712     21710     21713     21716
     20883     20887     20890     20891     20883     20887     20890     20892
     20883     20887     20890     20896     20884     20883     20887     20888
     20884     20883     20887     20889     20884     20883     20887     20890
     20885     20883     20887     20888     20885     20883     20887     20889
     20885     20883     20887     20890     20886     20883     20887     20888
     20886     20883     20887     20889     20886     20883     20887     20890
     20887     20890     20896     20893     20888     20887     20890     20891
     20888     20887     20890     20892     20888     20887     20890     20896
     20889     20887     20890     20891     20889     20887     20890     20892
     20889     20887     20890     20896     20890     20896     20893     20894
     20890     20896     20893     20895     20890     20896     20893     20897
     20891     20890     20896     20893     20892     20890     20896     20893
     20893     20897     20898     20899     20893     20897     20898     20900
     20893     20897     20898     20901     20894     20893     20897     20898
     20895     20893     20897     20898     20896     20893     20897     20898
     20897     20898     20901     20902     20897     20898     20901     20903
     20897     20898     20901     20909     20898     20901     20903     20904
     20898     20901     20909     20910     20898     20901     20909     20911
     20898     20901     20909     20912     20899     20898     20901     20902
     20899     20898     20901     20903     20899     20898     20901     20909
     20900     20898     20901     20902     20900     20898     20901     20903
     20900     20898     20901     20909     20901     20903     20904     20905
     20901     20903     20904     20906     20901     20909     20912     20913
     20902     20901     20903     20904     20902     20901     20909     20910
     20902     20901     20909     20911     20902     20901     20909     20912
     20903     20901     20909     20910     20903     20901     20909     20911
     20903     20901     20909     20912     20903     20904     20906     20907
     20903     20904     20906     20908     20903     20904     20906     20918
     20904     20903     20901     20909     20904     20906     20918     20919
     20904     20906     20918     20920     20904     20906     20918     20921
     20905     20904     20906     20907     20905     20904     20906     20908
     20905     20904     20906     20918     20906     20918     20921     20922
     20906     20918     20921     20923     20906     20918     20921     20924
     20907     20906     20918     20919     20907     20906     20918     20920
     20907     20906     20918     20921     20908     20906     20918     20919
     20908     20906     20918     20920     20908     20906     20918     20921
     20909     20912     20913     20914     20909     20912     20913     20915
     20910     20909     20912     20913     20911     20909     20912     20913
     20912     20913     20915     20916     20912     20913     20915     20917
     20912     20913     20915     20965     20913     20915     20965     20966
     20913     20915     20965     20967     20913     20915     20965     20968
     20914     20913     20915     20916     20914     20913     20915     20917
     20914     20913     20915     20965     20915     20965     20968     20969
     20915     20965     20968     20970     20915     20965     20968     20971
     20916     20915     20965     20966     20916     20915     20965     20967
     20916     20915     20965     20968     20917     20915     20965     20966
     20917     20915     20965     20967     20917     20915     20965     20968
     20918     20921     20924     20925     20918     20921     20924     20926
     20918     20921     20924     20927     20919     20918     20921     20922
     20919     20918     20921     20923     20919     20918     20921     20924
     20920     20918     20921     20922     20920     20918     20921     20923
     20920     20918     20921     20924     20921     20924     20927     20928
     20921     20924     20927     20929     20921     20924     20927     20930
     20922     20921     20924     20925     20922     20921     20924     20926
     20922     20921     20924     20927     20923     20921     20924     20925
     20923     20921     20924     20926     20923     20921     20924     20927
     20924     20927     20930     20931     20924     20927     20930     20932
     20924     20927     20930     20933     20925     20924     20927     20928
     20925     20924     20927     20929     20925     20924     20927     20930
     20926     20924     20927     20928     20926     20924     20927     20929
     20926     20924     20927     20930     20927     20930     20933     20934
     20927     20930     20933     20935     20927     20930     20933     20936
     20928     20927     20930     20931     20928     20927     20930     20932
     20928     20927     20930     20933     20929     20927     20930     20931
     20929     20927     20930     20932     20929     20927     20930     20933
     20930     20933     20936     20937     20930     20933     20936     20938
     20931     20930     20933     20934     20931     20930     20933     20935
     20931     20930     20933     20936     20932     20930     20933     20934
     20932     20930     20933     20935     20932     20930     20933     20936
     20933     20936     20938     20939     20933     20936     20938     20940
     20934     20933     20936     20937     20934     20933     20936     20938
     20935     20933     20936     20937     20935     20933     20936     20938
     20936     20938     20940     20941     20936     20938     20940     20942
     20936     20938     20940     20943     20937     20936     20938     20939
     20937     20936     20938     20940     20938     20940     20943     20944
     20938     20940     20943     20945     20938     20940     20943     20946
     20939     20938     20940     20941     20939     20938     20940     20942
     20939     20938     20940     20943     20940     20943     20946     20947
     20940     20943     20946     20948     20940     20943     20946     20949
     20941     20940     20943     20944     20941     20940     20943     20945
     20941     20940     20943     20946     20942     20940     20943     20944
     20942     20940     20943     20945     20942     20940     20943     20946
     20943     20946     20949     20950     20943     20946     20949     20951
     20943     20946     20949     20952     20944     20943     20946     20947
     20944     20943     20946     20948     20944     20943     20946     20949
     20945     20943     20946     20947     20945     20943     20946     20948
     20945     20943     20946     20949     20946     20949     20952     20953
     20946     20949     20952     20954     20946     20949     20952     20955
     20947     20946     20949     20950     20947     20946     20949     20951
     20947     20946     20949     20952     20948     20946     20949     20950
     20948     20946     20949     20951     20948     20946     20949     20952
     20949     20952     20955     20956     20949     20952     20955     20957
     20949     20952     20955     20958     20950     20949     20952     20953
     20950     20949     20952     20954     20950     20949     20952     20955
     20951     20949     20952     20953     20951     20949     20952     20954
     20951     20949     20952     20955     20952     20955     20958     20959
     20952     20955     20958     20960     20952     20955     20958     20961
     20953     20952     20955     20956     20953     20952     20955     20957
     20953     20952     20955     20958     20954     20952     20955     20956
     20954     20952     20955     20957     20954     20952     20955     20958
     20955     20958     20961     20962     20955     20958     20961     20963
     20955     20958     20961     20964     20956     20955     20958     20959
     20956     20955     20958     20960     20956     20955     20958     20961
     20957     20955     20958     20959     20957     20955     20958     20960
     20957     20955     20958     20961     20959     20958     20961     20962
     20959     20958     20961     20963     20959     20958     20961     20964
     20960     20958     20961     20962     20960     20958     20961     20963
     20960     20958     20961     20964     20965     20968     20971     20972
     20965     20968     20971     20973     20965     20968     20971     20974
     20966     20965     20968     20969     20966     20965     20968     20970
     20966     20965     20968     20971     20967     20965     20968     20969
     20967     20965     20968     20970     20967     20965     20968     20971
     20968     20971     20974     20975     20968     20971     20974     20976
     20968     20971     20974     20977     20969     20968     20971     20972
     20969     20968     20971     20973     20969     20968     20971     20974
     20970     20968     20971     20972     20970     20968     20971     20973
     20970     20968     20971     20974     20971     20974     20977     20978
     20971     20974     20977     20979     20971     20974     20977     20980
     20972     20971     20974     20975     20972     20971     20974     20976
     20972     20971     20974     20977     20973     20971     20974     20975
     20973     20971     20974     20976     20973     20971     20974     20977
     20974     20977     20980     20981     20974     20977     20980     20982
     20974     20977     20980     20983     20975     20974     20977     20978
     20975     20974     20977     20979     20975     20974     20977     20980
     20976     20974     20977     20978     20976     20974     20977     20979
     20976     20974     20977     20980     20977     20980     20983     20984
     20977     20980     20983     20985     20977     20980     20983     20986
     20978     20977     20980     20981     20978     20977     20980     20982
     20978     20977     20980     20983     20979     20977     20980     20981
     20979     20977     20980     20982     20979     20977     20980     20983
     20980     20983     20986     20987     20980     20983     20986     20988
     20980     20983     20986     20989     20981     20980     20983     20984
     20981     20980     20983     20985     20981     20980     20983     20986
     20982     20980     20983     20984     20982     20980     20983     20985
     20982     20980     20983     20986     20983     20986     20989     20990
     20983     20986     20989     20991     20983     20986     20989     20992
     20984     20983     20986     20987     20984     20983     20986     20988
     20984     20983     20986     20989     20985     20983     20986     20987
     20985     20983     20986     20988     20985     20983     20986     20989
     20986     20989     20992     20993     20986     20989     20992     20994
     20986     20989     20992     20995     20987     20986     20989     20990
     20987     20986     20989     20991     20987     20986     20989     20992
     20988     20986     20989     20990     20988     20986     20989     20991
     20988     20986     20989     20992     20989     20992     20995     20996
     20989     20992     20995     20997     20989     20992     20995     20998
     20990     20989     20992     20993     20990     20989     20992     20994
     20990     20989     20992     20995     20991     20989     20992     20993
     20991     20989     20992     20994     20991     20989     20992     20995
     20992     20995     20998     20999     20992     20995     20998     21000
     20992     20995     20998     21001     20993     20992     20995     20996
     20993     20992     20995     20997     20993     20992     20995     20998
     20994     20992     20995     20996     20994     20992     20995     20997
     20994     20992     20995     20998     20995     20998     21001     21002
     20995     20998     21001     21003     20995     20998     21001     21004
     20996     20995     20998     20999     20996     20995     20998     21000
     20996     20995     20998     21001     20997     20995     20998     20999
     20997     20995     20998     21000     20997     20995     20998     21001
     20998     21001     21004     21005     20998     21001     21004     21006
     20998     21001     21004     21007     20999     20998     21001     21002
     20999     20998     21001     21003     20999     20998     21001     21004
     21000     20998     21001     21002     21000     20998     21001     21003
     21000     20998     21001     21004     21001     21004     21007     21008
     21001     21004     21007     21009     21001     21004     21007     21010
     21002     21001     21004     21005     21002     21001     21004     21006
     21002     21001     21004     21007     21003     21001     21004     21005
     21003     21001     21004     21006     21003     21001     21004     21007
     21004     21007     21010     21011     21004     21007     21010     21012
     21004     21007     21010     21013     21005     21004     21007     21008
     21005     21004     21007     21009     21005     21004     21007     21010
     21006     21004     21007     21008     21006     21004     21007     21009
     21006     21004     21007     21010     21008     21007     21010     21011
     21008     21007     21010     21012     21008     21007     21010     21013
     21009     21007     21010     21011     21009     21007     21010     21012
     21009     21007     21010     21013      5545      5546      5561      5562
      5545      5546      5561      5563      5545      5546      5561      5567
      5546      5545      5549      5550      5546      5545      5549      5551
      5546      5545      5549      5552      5546      5545      5553      5554
      5546      5545      5553      5555      5546      5545      5553      5556
      5546      5545      5557      5558      5546      5545      5557      5559
      5546      5545      5557      5560      5546      5561      5567      5564
      5547      5546      5545      5549      5547      5546      5545      5553
      5547      5546      5545      5557      5547      5546      5561      5562
      5547      5546      5561      5563      5547      5546      5561      5567
      5548      5546      5545      5549      5548      5546      5545      5553
      5548      5546      5545      5557      5548      5546      5561      5562
      5548      5546      5561      5563      5548      5546      5561      5567
      5549      5545      5546      5561      5549      5545      5553      5554
      5549      5545      5553      5555      5549      5545      5553      5556
      5549      5545      5557      5558      5549      5545      5557      5559
      5549      5545      5557      5560      5550      5549      5545      5553
      5550      5549      5545      5557      5551      5549      5545      5553
      5551      5549      5545      5557      5552      5549      5545      5553
      5552      5549      5545      5557      5553      5545      5546      5561
      5553      5545      5557      5558      5553      5545      5557      5559
      5553      5545      5557      5560      5554      5553      5545      5557
      5555      5553      5545      5557      5556      5553      5545      5557
      5557      5545      5546      5561      5561      5567      5564      5565
      5561      5567      5564      5566      5561      5567      5564      5568
      5562      5561      5567      5564      5563      5561      5567      5564
      5564      5568      5569      5570      5564      5568      5569      5571
      5564      5568      5569      5572      5565      5564      5568      5569
      5566      5564      5568      5569      5567      5564      5568      5569
      5568      5569      5572      5573      5568      5569      5572      5574
      5568      5569      5572      5580      5569      5572      5574      5575
      5569      5572      5580      5581      5569      5572      5580      5582
      5569      5572      5580      5583      5570      5569      5572      5573
      5570      5569      5572      5574      5570      5569      5572      5580
      5571      5569      5572      5573      5571      5569      5572      5574
      5571      5569      5572      5580      5572      5574      5575      5576
      5572      5574      5575      5577      5572      5580      5583      5584
      5573      5572      5574      5575      5573      5572      5580      5581
      5573      5572      5580      5582      5573      5572      5580      5583
      5574      5572      5580      5581      5574      5572      5580      5582
      5574      5572      5580      5583      5574      5575      5577      5578
      5574      5575      5577      5579      5574      5575      5577      5589
      5575      5574      5572      5580      5575      5577      5589      5590
      5575      5577      5589      5591      5575      5577      5589      5592
      5576      5575      5577      5578      5576      5575      5577      5579
      5576      5575      5577      5589      5577      5589      5592      5593
      5577      5589      5592      5594      5577      5589      5592      5595
      5578      5577      5589      5590      5578      5577      5589      5591
      5578      5577      5589      5592      5579      5577      5589      5590
      5579      5577      5589      5591      5579      5577      5589      5592
      5580      5583      5584      5585      5580      5583      5584      5586
      5581      5580      5583      5584      5582      5580      5583      5584
      5583      5584      5586      5587      5583      5584      5586      5588
      5583      5584      5586      5636      5584      5586      5636      5637
      5584      5586      5636      5638      5584      5586      5636      5639
      5585      5584      5586      5587      5585      5584      5586      5588
      5585      5584      5586      5636      5586      5636      5639      5640
      5586      5636      5639      5641      5586      5636      5639      5642
      5587      5586      5636      5637      5587      5586      5636      5638
      5587      5586      5636      5639      5588      5586      5636      5637
      5588      5586      5636      5638      5588      5586      5636      5639
      5589      5592      5595      5596      5589      5592      5595      5597
      5590      5589      5592      5593      5590      5589      5592      5594
      5590      5589      5592      5595      5591      5589      5592      5593
      5591      5589      5592      5594      5591      5589      5592      5595
      5592      5595      5597      5598      5592      5595      5597      5599
      5593      5592      5595      5596      5593      5592      5595      5597
      5594      5592      5595      5596      5594      5592      5595      5597
      5595      5597      5599      5600      5595      5597      5599      5601
      5595      5597      5599      5602      5596      5595      5597      5598
      5596      5595      5597      5599      5597      5599      5602      5603
      5597      5599      5602      5604      5598      5597      5599      5600
      5598      5597      5599      5601      5598      5597      5599      5602
      5599      5602      5604      5605      5599      5602      5604      5606
      5600      5599      5602      5603      5600      5599      5602      5604
      5601      5599      5602      5603      5601      5599      5602      5604
      5602      5604      5606      5607      5602      5604      5606      5608
      5602      5604      5606      5609      5603      5602      5604      5605
      5603      5602      5604      5606      5604      5606      5609      5610
      5604      5606      5609      5611      5605      5604      5606      5607
      5605      5604      5606      5608      5605      5604      5606      5609
      5606      5609      5611      5612      5606      5609      5611      5613
      5607      5606      5609      5610      5607      5606      5609      5611
      5608      5606      5609      5610      5608      5606      5609      5611
      5609      5611      5613      5614      5609      5611      5613      5615
      5609      5611      5613      5616      5610      5609      5611      5612
      5610      5609      5611      5613      5611      5613      5616      5617
      5611      5613      5616      5618      5612      5611      5613      5614
      5612      5611      5613      5615      5612      5611      5613      5616
      5613      5616      5618      5619      5613      5616      5618      5620
      5614      5613      5616      5617      5614      5613      5616      5618
      5615      5613      5616      5617      5615      5613      5616      5618
      5616      5618      5620      5621      5616      5618      5620      5622
      5616      5618      5620      5623      5617      5616      5618      5619
      5617      5616      5618      5620      5618      5620      5623      5624
      5618      5620      5623      5625      5618      5620      5623      5626
      5619      5618      5620      5621      5619      5618      5620      5622
      5619      5618      5620      5623      5620      5623      5626      5627
      5620      5623      5626      5628      5620      5623      5626      5629
      5621      5620      5623      5624      5621      5620      5623      5625
      5621      5620      5623      5626      5622      5620      5623      5624
      5622      5620      5623      5625      5622      5620      5623      5626
      5623      5626      5629      5630      5623      5626      5629      5631
      5623      5626      5629      5632      5624      5623      5626      5627
      5624      5623      5626      5628      5624      5623      5626      5629
      5625      5623      5626      5627      5625      5623      5626      5628
      5625      5623      5626      5629      5626      5629      5632      5633
      5626      5629      5632      5634      5626      5629      5632      5635
      5627      5626      5629      5630      5627      5626      5629      5631
      5627      5626      5629      5632      5628      5626      5629      5630
      5628      5626      5629      5631      5628      5626      5629      5632
      5630      5629      5632      5633      5630      5629      5632      5634
      5630      5629      5632      5635      5631      5629      5632      5633
      5631      5629      5632      5634      5631      5629      5632      5635
      5636      5639      5642      5643      5636      5639      5642      5644
      5636      5639      5642      5645      5637      5636      5639      5640
      5637      5636      5639      5641      5637      5636      5639      5642
      5638      5636      5639      5640      5638      5636      5639      5641
      5638      5636      5639      5642      5639      5642      5645      5646
      5639      5642      5645      5647      5639      5642      5645      5648
      5640      5639      5642      5643      5640      5639      5642      5644
      5640      5639      5642      5645      5641      5639      5642      5643
      5641      5639      5642      5644      5641      5639      5642      5645
      5642      5645      5648      5649      5642      5645      5648      5650
      5642      5645      5648      5651      5643      5642      5645      5646
      5643      5642      5645      5647      5643      5642      5645      5648
      5644      5642      5645      5646      5644      5642      5645      5647
      5644      5642      5645      5648      5645      5648      5651      5652
      5645      5648      5651      5653      5645      5648      5651      5654
      5646      5645      5648      5649      5646      5645      5648      5650
      5646      5645      5648      5651      5647      5645      5648      5649
      5647      5645      5648      5650      5647      5645      5648      5651
      5648      5651      5654      5655      5648      5651      5654      5656
      5648      5651      5654      5657      5649      5648      5651      5652
      5649      5648      5651      5653      5649      5648      5651      5654
      5650      5648      5651      5652      5650      5648      5651      5653
      5650      5648      5651      5654      5651      5654      5657      5658
      5651      5654      5657      5659      5651      5654      5657      5660
      5652      5651      5654      5655      5652      5651      5654      5656
      5652      5651      5654      5657      5653      5651      5654      5655
      5653      5651      5654      5656      5653      5651      5654      5657
      5654      5657      5660      5661      5654      5657      5660      5662
      5654      5657      5660      5663      5655      5654      5657      5658
      5655      5654      5657      5659      5655      5654      5657      5660
      5656      5654      5657      5658      5656      5654      5657      5659
      5656      5654      5657      5660      5657      5660      5663      5664
      5657      5660      5663      5665      5657      5660      5663      5666
      5658      5657      5660      5661      5658      5657      5660      5662
      5658      5657      5660      5663      5659      5657      5660      5661
      5659      5657      5660      5662      5659      5657      5660      5663
      5660      5663      5666      5667      5660      5663      5666      5668
      5660      5663      5666      5669      5661      5660      5663      5664
      5661      5660      5663      5665      5661      5660      5663      5666
      5662      5660      5663      5664      5662      5660      5663      5665
      5662      5660      5663      5666      5663      5666      5669      5670
      5663      5666      5669      5671      5663      5666      5669      5672
      5664      5663      5666      5667      5664      5663      5666      5668
      5664      5663      5666      5669      5665      5663      5666      5667
      5665      5663      5666      5668      5665      5663      5666      5669
      5666      5669      5672      5673      5666      5669      5672      5674
      5666      5669      5672      5675      5667      5666      5669      5670
      5667      5666      5669      5671      5667      5666      5669      5672
      5668      5666      5669      5670      5668      5666      5669      5671
      5668      5666      5669      5672      5669      5672      5675      5676
      5669      5672      5675      5677      5669      5672      5675      5678
      5670      5669      5672      5673      5670      5669      5672      5674
      5670      5669      5672      5675      5671      5669      5672      5673
      5671      5669      5672      5674      5671      5669      5672      5675
      5672      5675      5678      5679      5672      5675      5678      5680
      5672      5675      5678      5681      5673      5672      5675      5676
      5673      5672      5675      5677      5673      5672      5675      5678
      5674      5672      5675      5676      5674      5672      5675      5677
      5674      5672      5675      5678      5675      5678      5681      5682
      5675      5678      5681      5683      5675      5678      5681      5684
      5676      5675      5678      5679      5676      5675      5678      5680
      5676      5675      5678      5681      5677      5675      5678      5679
      5677      5675      5678      5680      5677      5675      5678      5681
      5679      5678      5681      5682      5679      5678      5681      5683
      5679      5678      5681      5684      5680      5678      5681      5682
      5680      5678      5681      5683      5680      5678      5681      5684
      3479      3483      3486      3487      3479      3483      3486      3517
      3479      3525      3522      3517      3479      3525      3522      3523
      3479      3525      3522      3524      3480      3479      3481      3482
      3480      3479      3483      3484      3480      3479      3483      3485
      3480      3479      3483      3486      3480      3479      3525      3522
      3480      3479      3525      3526      3480      3479      3525      3527
      3481      3479      3483      3484      3481      3479      3483      3485
      3481      3479      3483      3486      3481      3479      3525      3522
      3481      3479      3525      3526      3481      3479      3525      3527
      3482      3481      3479      3483      3482      3481      3479      3525
      3483      3479      3525      3522      3483      3479      3525      3526
      3483      3479      3525      3527      3483      3486      3487      3488
      3483      3486      3487      3489      3483      3486      3517      3515
      3483      3486      3517      3518      3483      3486      3517      3522
      3484      3483      3479      3525      3484      3483      3486      3487
      3484      3483      3486      3517      3485      3483      3479      3525
      3485      3483      3486      3487      3485      3483      3486      3517
      3486      3483      3479      3525      3486      3487      3489      3490
      3486      3487      3489      3491      3486      3487      3489      3492
      3486      3517      3515      3492      3486      3517      3515      3512
      3486      3517      3515      3516      3486      3517      3518      3519
      3486      3517      3518      3520      3486      3517      3518      3521
      3486      3517      3522      3523      3486      3517      3522      3524
      3486      3517      3522      3525      3487      3486      3517      3515
      3487      3486      3517      3518      3487      3486      3517      3522
      3487      3489      3492      3493      3487      3489      3492      3494
      3487      3489      3492      3515      3488      3487      3486      3517
      3488      3487      3489      3490      3488      3487      3489      3491
      3488      3487      3489      3492      3489      3487      3486      3517
      3489      3492      3494      3495      3489      3492      3494      3496
      3489      3492      3494      3504      3489      3492      3515      3512
      3489      3492      3515      3516      3489      3492      3515      3517
      3490      3489      3492      3493      3490      3489      3492      3494
      3490      3489      3492      3515      3491      3489      3492      3493
      3491      3489      3492      3494      3491      3489      3492      3515
      3492      3494      3496      3497      3492      3494      3496      3498
      3492      3494      3496      3499      3492      3494      3504      3502
      3492      3494      3504      3505      3492      3494      3504      3509
      3492      3515      3512      3509      3492      3515      3512      3513
      3492      3515      3512      3514      3492      3515      3517      3518
      3492      3515      3517      3522      3493      3492      3494      3495
      3493      3492      3494      3496      3493      3492      3494      3504
      3493      3492      3515      3512      3493      3492      3515      3516
      3493      3492      3515      3517      3494      3492      3515      3512
      3494      3492      3515      3516      3494      3492      3515      3517
      3494      3496      3499      3500      3494      3496      3499      3501
      3494      3496      3499      3502      3494      3504      3502      3499
      3494      3504      3502      3503      3494      3504      3502      3528
      3494      3504      3505      3506      3494      3504      3505      3507
      3494      3504      3505      3508      3494      3504      3509      3510
      3494      3504      3509      3511      3494      3504      3509      3512
      3495      3494      3492      3515      3495      3494      3496      3497
      3495      3494      3496      3498      3495      3494      3496      3499
      3495      3494      3504      3502      3495      3494      3504      3505
      3495      3494      3504      3509      3496      3494      3492      3515
      3496      3494      3504      3502      3496      3494      3504      3505
      3496      3494      3504      3509      3496      3499      3502      3503
      3496      3499      3502      3504      3496      3499      3502      3528
      3497      3496      3494      3504      3497      3496      3499      3500
      3497      3496      3499      3501      3497      3496      3499      3502
      3498      3496      3494      3504      3498      3496      3499      3500
      3498      3496      3499      3501      3498      3496      3499      3502
      3499      3496      3494      3504      3499      3502      3504      3505
      3499      3502      3504      3509      3499      3502      3528      3529
      3499      3502      3528      3530      3499      3502      3528      3534
      3500      3499      3502      3503      3500      3499      3502      3504
      3500      3499      3502      3528      3501      3499      3502      3503
      3501      3499      3502      3504      3501      3499      3502      3528
      3502      3504      3505      3506      3502      3504      3505      3507
      3502      3504      3505      3508      3502      3504      3509      3510
      3502      3504      3509      3511      3502      3504      3509      3512
      3502      3528      3530      3531      3502      3528      3530      3532
      3502      3528      3530      3533      3502      3528      3534      3535
      3502      3528      3534      3536      3502      3528      3534      3537
      3503      3502      3504      3505      3503      3502      3504      3509
      3503      3502      3528      3529      3503      3502      3528      3530
      3503      3502      3528      3534      3504      3494      3492      3515
      3504      3502      3528      3529      3504      3502      3528      3530
      3504      3502      3528      3534      3504      3509      3512      3513
      3504      3509      3512      3514      3504      3509      3512      3515
      3505      3504      3502      3528      3505      3504      3509      3510
      3505      3504      3509      3511      3505      3504      3509      3512
      3506      3505      3504      3509      3507      3505      3504      3509
      3508      3505      3504      3509      3509      3504      3502      3528
      3509      3512      3515      3516      3509      3512      3515      3517
      3510      3509      3512      3513      3510      3509      3512      3514
      3510      3509      3512      3515      3511      3509      3512      3513
      3511      3509      3512      3514      3511      3509      3512      3515
      3512      3515      3517      3518      3512      3515      3517      3522
      3513      3512      3515      3516      3513      3512      3515      3517
      3514      3512      3515      3516      3514      3512      3515      3517
      3515      3517      3518      3519      3515      3517      3518      3520
      3515      3517      3518      3521      3515      3517      3522      3523
      3515      3517      3522      3524      3515      3517      3522      3525
      3516      3515      3517      3518      3516      3515      3517      3522
      3517      3522      3525      3526      3517      3522      3525      3527
      3518      3517      3522      3523      3518      3517      3522      3524
      3518      3517      3522      3525      3519      3518      3517      3522
      3520      3518      3517      3522      3521      3518      3517      3522
      3523      3522      3525      3526      3523      3522      3525      3527
      3524      3522      3525      3526      3524      3522      3525      3527
      3528      3534      3537      3538      3528      3534      3537      3539
      3528      3534      3537      3540      3529      3528      3530      3531
      3529      3528      3530      3532      3529      3528      3530      3533
      3529      3528      3534      3535      3529      3528      3534      3536
      3529      3528      3534      3537      3530      3528      3534      3535
      3530      3528      3534      3536      3530      3528      3534      3537
      3531      3530      3528      3534      3532      3530      3528      3534
      3533      3530      3528      3534      3534      3537      3540      3541
      3534      3537      3540      3542      3534      3537      3540      3543
      3535      3534      3537      3538      3535      3534      3537      3539
      3535      3534      3537      3540      3536      3534      3537      3538
      3536      3534      3537      3539      3536      3534      3537      3540
      3537      3540      3543      3544      3537      3540      3543      3545
      3537      3540      3543      3549      3538      3537      3540      3541
      3538      3537      3540      3542      3538      3537      3540      3543
      3539      3537      3540      3541      3539      3537      3540      3542
      3539      3537      3540      3543      3540      3543      3545      3546
      3540      3543      3545      3547      3540      3543      3545      3548
      3540      3543      3549      3550      3540      3543      3549      3551
      3540      3543      3549      3552      3541      3540      3543      3544
      3541      3540      3543      3545      3541      3540      3543      3549
      3542      3540      3543      3544      3542      3540      3543      3545
      3542      3540      3543      3549      3544      3543      3545      3546
      3544      3543      3545      3547      3544      3543      3545      3548
      3544      3543      3549      3550      3544      3543      3549      3551
      3544      3543      3549      3552      3545      3543      3549      3550
      3545      3543      3549      3551      3545      3543      3549      3552
      3546      3545      3543      3549      3547      3545      3543      3549
      3548      3545      3543      3549     18656     18660     18663     18664
     18656     18660     18663     18665     18656     18660     18663     18669
     18657     18656     18660     18661     18657     18656     18660     18662
     18657     18656     18660     18663     18658     18656     18660     18661
     18658     18656     18660     18662     18658     18656     18660     18663
     18659     18656     18660     18661     18659     18656     18660     18662
     18659     18656     18660     18663     18660     18663     18669     18666
     18661     18660     18663     18664     18661     18660     18663     18665
     18661     18660     18663     18669     18662     18660     18663     18664
     18662     18660     18663     18665     18662     18660     18663     18669
     18663     18669     18666     18667     18663     18669     18666     18668
     18663     18669     18666     18670     18664     18663     18669     18666
     18665     18663     18669     18666     18666     18670     18671     18672
     18666     18670     18671     18673     18666     18670     18671     18674
     18667     18666     18670     18671     18668     18666     18670     18671
     18669     18666     18670     18671     18670     18671     18674     18675
     18670     18671     18674     18676     18670     18671     18674     18682
     18671     18674     18676     18677     18671     18674     18682     18683
     18671     18674     18682     18684     18671     18674     18682     18685
     18672     18671     18674     18675     18672     18671     18674     18676
     18672     18671     18674     18682     18673     18671     18674     18675
     18673     18671     18674     18676     18673     18671     18674     18682
     18674     18676     18677     18678     18674     18676     18677     18679
     18674     18682     18685     18686     18675     18674     18676     18677
     18675     18674     18682     18683     18675     18674     18682     18684
     18675     18674     18682     18685     18676     18674     18682     18683
     18676     18674     18682     18684     18676     18674     18682     18685
     18676     18677     18679     18680     18676     18677     18679     18681
     18676     18677     18679     18691     18677     18676     18674     18682
     18677     18679     18691     18692     18677     18679     18691     18693
     18677     18679     18691     18694     18678     18677     18679     18680
     18678     18677     18679     18681     18678     18677     18679     18691
     18679     18691     18694     18695     18679     18691     18694     18696
     18679     18691     18694     18697     18680     18679     18691     18692
     18680     18679     18691     18693     18680     18679     18691     18694
     18681     18679     18691     18692     18681     18679     18691     18693
     18681     18679     18691     18694     18682     18685     18686     18687
     18682     18685     18686     18688     18683     18682     18685     18686
     18684     18682     18685     18686     18685     18686     18688     18689
     18685     18686     18688     18690     18685     18686     18688     18738
     18686     18688     18738     18739     18686     18688     18738     18740
     18686     18688     18738     18741     18687     18686     18688     18689
     18687     18686     18688     18690     18687     18686     18688     18738
     18688     18738     18741     18742     18688     18738     18741     18743
     18688     18738     18741     18744     18689     18688     18738     18739
     18689     18688     18738     18740     18689     18688     18738     18741
     18690     18688     18738     18739     18690     18688     18738     18740
     18690     18688     18738     18741     18691     18694     18697     18698
     18691     18694     18697     18699     18692     18691     18694     18695
     18692     18691     18694     18696     18692     18691     18694     18697
     18693     18691     18694     18695     18693     18691     18694     18696
     18693     18691     18694     18697     18694     18697     18699     18700
     18694     18697     18699     18701     18695     18694     18697     18698
     18695     18694     18697     18699     18696     18694     18697     18698
     18696     18694     18697     18699     18697     18699     18701     18702
     18697     18699     18701     18703     18697     18699     18701     18704
     18698     18697     18699     18700     18698     18697     18699     18701
     18699     18701     18704     18705     18699     18701     18704     18706
     18700     18699     18701     18702     18700     18699     18701     18703
     18700     18699     18701     18704     18701     18704     18706     18707
     18701     18704     18706     18708     18702     18701     18704     18705
     18702     18701     18704     18706     18703     18701     18704     18705
     18703     18701     18704     18706     18704     18706     18708     18709
     18704     18706     18708     18710     18704     18706     18708     18711
     18705     18704     18706     18707     18705     18704     18706     18708
     18706     18708     18711     18712     18706     18708     18711     18713
     18707     18706     18708     18709     18707     18706     18708     18710
     18707     18706     18708     18711     18708     18711     18713     18714
     18708     18711     18713     18715     18709     18708     18711     18712
     18709     18708     18711     18713     18710     18708     18711     18712
     18710     18708     18711     18713     18711     18713     18715     18716
     18711     18713     18715     18717     18711     18713     18715     18718
     18712     18711     18713     18714     18712     18711     18713     18715
     18713     18715     18718     18719     18713     18715     18718     18720
     18714     18713     18715     18716     18714     18713     18715     18717
     18714     18713     18715     18718     18715     18718     18720     18721
     18715     18718     18720     18722     18716     18715     18718     18719
     18716     18715     18718     18720     18717     18715     18718     18719
     18717     18715     18718     18720     18718     18720     18722     18723
     18718     18720     18722     18724     18718     18720     18722     18725
     18719     18718     18720     18721     18719     18718     18720     18722
     18720     18722     18725     18726     18720     18722     18725     18727
     18720     18722     18725     18728     18721     18720     18722     18723
     18721     18720     18722     18724     18721     18720     18722     18725
     18722     18725     18728     18729     18722     18725     18728     18730
     18722     18725     18728     18731     18723     18722     18725     18726
     18723     18722     18725     18727     18723     18722     18725     18728
     18724     18722     18725     18726     18724     18722     18725     18727
     18724     18722     18725     18728     18725     18728     18731     18732
     18725     18728     18731     18733     18725     18728     18731     18734
     18726     18725     18728     18729     18726     18725     18728     18730
     18726     18725     18728     18731     18727     18725     18728     18729
     18727     18725     18728     18730     18727     18725     18728     18731
     18728     18731     18734     18735     18728     18731     18734     18736
     18728     18731     18734     18737     18729     18728     18731     18732
     18729     18728     18731     18733     18729     18728     18731     18734
     18730     18728     18731     18732     18730     18728     18731     18733
     18730     18728     18731     18734     18732     18731     18734     18735
     18732     18731     18734     18736     18732     18731     18734     18737
     18733     18731     18734     18735     18733     18731     18734     18736
     18733     18731     18734     18737     18738     18741     18744     18745
     18738     18741     18744     18746     18738     18741     18744     18747
     18739     18738     18741     18742     18739     18738     18741     18743
     18739     18738     18741     18744     18740     18738     18741     18742
     18740     18738     18741     18743     18740     18738     18741     18744
     18741     18744     18747     18748     18741     18744     18747     18749
     18741     18744     18747     18750     18742     18741     18744     18745
     18742     18741     18744     18746     18742     18741     18744     18747
     18743     18741     18744     18745     18743     18741     18744     18746
     18743     18741     18744     18747     18744     18747     18750     18751
     18744     18747     18750     18752     18744     18747     18750     18753
     18745     18744     18747     18748     18745     18744     18747     18749
     18745     18744     18747     18750     18746     18744     18747     18748
     18746     18744     18747     18749     18746     18744     18747     18750
     18747     18750     18753     18754     18747     18750     18753     18755
     18747     18750     18753     18756     18748     18747     18750     18751
     18748     18747     18750     18752     18748     18747     18750     18753
     18749     18747     18750     18751     18749     18747     18750     18752
     18749     18747     18750     18753     18750     18753     18756     18757
     18750     18753     18756     18758     18750     18753     18756     18759
     18751     18750     18753     18754     18751     18750     18753     18755
     18751     18750     18753     18756     18752     18750     18753     18754
     18752     18750     18753     18755     18752     18750     18753     18756
     18753     18756     18759     18760     18753     18756     18759     18761
     18753     18756     18759     18762     18754     18753     18756     18757
     18754     18753     18756     18758     18754     18753     18756     18759
     18755     18753     18756     18757     18755     18753     18756     18758
     18755     18753     18756     18759     18756     18759     18762     18763
     18756     18759     18762     18764     18756     18759     18762     18765
     18757     18756     18759     18760     18757     18756     18759     18761
     18757     18756     18759     18762     18758     18756     18759     18760
     18758     18756     18759     18761     18758     18756     18759     18762
     18759     18762     18765     18766     18759     18762     18765     18767
     18759     18762     18765     18768     18760     18759     18762     18763
     18760     18759     18762     18764     18760     18759     18762     18765
     18761     18759     18762     18763     18761     18759     18762     18764
     18761     18759     18762     18765     18762     18765     18768     18769
     18762     18765     18768     18770     18762     18765     18768     18771
     18763     18762     18765     18766     18763     18762     18765     18767
     18763     18762     18765     18768     18764     18762     18765     18766
     18764     18762     18765     18767     18764     18762     18765     18768
     18765     18768     18771     18772     18765     18768     18771     18773
     18765     18768     18771     18774     18766     18765     18768     18769
     18766     18765     18768     18770     18766     18765     18768     18771
     18767     18765     18768     18769     18767     18765     18768     18770
     18767     18765     18768     18771     18768     18771     18774     18775
     18768     18771     18774     18776     18768     18771     18774     18777
     18769     18768     18771     18772     18769     18768     18771     18773
     18769     18768     18771     18774     18770     18768     18771     18772
     18770     18768     18771     18773     18770     18768     18771     18774
     18771     18774     18777     18778     18771     18774     18777     18779
     18771     18774     18777     18780     18772     18771     18774     18775
     18772     18771     18774     18776     18772     18771     18774     18777
     18773     18771     18774     18775     18773     18771     18774     18776
     18773     18771     18774     18777     18774     18777     18780     18781
     18774     18777     18780     18782     18774     18777     18780     18783
     18775     18774     18777     18778     18775     18774     18777     18779
     18775     18774     18777     18780     18776     18774     18777     18778
     18776     18774     18777     18779     18776     18774     18777     18780
     18777     18780     18783     18784     18777     18780     18783     18785
     18777     18780     18783     18786     18778     18777     18780     18781
     18778     18777     18780     18782     18778     18777     18780     18783
     18779     18777     18780     18781     18779     18777     18780     18782
     18779     18777     18780     18783     18781     18780     18783     18784
     18781     18780     18783     18785     18781     18780     18783     18786
     18782     18780     18783     18784     18782     18780     18783     18785
     18782     18780     18783     18786     15119     15132     15135     15136
     15119     15132     15135     15137     15119     15132     15135     15142
     15120     15119     15124     15125     15120     15119     15124     15126
     15120     15119     15124     15127     15120     15119     15128     15129
     15120     15119     15128     15130     15120     15119     15128     15131
     15120     15119     15132     15133     15120     15119     15132     15134
     15120     15119     15132     15135     15121     15120     15119     15124
     15121     15120     15119     15128     15121     15120     15119     15132
     15122     15120     15119     15124     15122     15120     15119     15128
     15122     15120     15119     15132     15123     15120     15119     15124
     15123     15120     15119     15128     15123     15120     15119     15132
     15124     15119     15128     15129     15124     15119     15128     15130
     15124     15119     15128     15131     15124     15119     15132     15133
     15124     15119     15132     15134     15124     15119     15132     15135
     15125     15124     15119     15128     15125     15124     15119     15132
     15126     15124     15119     15128     15126     15124     15119     15132
     15127     15124     15119     15128     15127     15124     15119     15132
     15128     15119     15132     15133     15128     15119     15132     15134
     15128     15119     15132     15135     15129     15128     15119     15132
     15130     15128     15119     15132     15131     15128     15119     15132
     15132     15135     15142     15138     15133     15132     15135     15136
     15133     15132     15135     15137     15133     15132     15135     15142
     15134     15132     15135     15136     15134     15132     15135     15137
     15134     15132     15135     15142     15135     15142     15138     15139
     15135     15142     15138     15140     15135     15142     15138     15141
     15136     15135     15142     15138     15137     15135     15142     15138
     15138     15141     15143     15144     15138     15141     15143     15145
     15138     15141     15143     15148     15139     15138     15141     15143
     15140     15138     15141     15143     15141     15143     15148     15146
     15141     15143     15148     15149     15141     15143     15148     15150
     15142     15138     15141     15143     15143     15148     15146     15147
     15143     15148     15146     15198     15143     15148     15150     15151
     15143     15148     15150     15152     15143     15148     15150     15154
     15144     15143     15148     15146     15144     15143     15148     15149
     15144     15143     15148     15150     15145     15143     15148     15146
     15145     15143     15148     15149     15145     15143     15148     15150
     15146     15148     15150     15151     15146     15148     15150     15152
     15146     15148     15150     15154     15146     15198     15200     15201
     15146     15198     15200     15202     15146     15198     15200     15203
     15147     15146     15148     15149     15147     15146     15148     15150
     15147     15146     15198     15199     15147     15146     15198     15200
     15148     15146     15198     15199     15148     15146     15198     15200
     15148     15150     15152     15153     15148     15150     15154     15155
     15148     15150     15154     15156     15149     15148     15146     15198
     15149     15148     15150     15151     15149     15148     15150     15152
     15149     15148     15150     15154     15150     15148     15146     15198
     15150     15154     15156     15157     15150     15154     15156     15158
     15151     15150     15152     15153     15151     15150     15154     15155
     15151     15150     15154     15156     15152     15150     15154     15155
     15152     15150     15154     15156     15153     15152     15150     15154
     15154     15156     15158     15159     15154     15156     15158     15160
     15154     15156     15158     15161     15155     15154     15156     15157
     15155     15154     15156     15158     15156     15158     15161     15162
     15156     15158     15161     15163     15156     15158     15161     15164
     15157     15156     15158     15159     15157     15156     15158     15160
     15157     15156     15158     15161     15158     15161     15164     15165
     15158     15161     15164     15166     15158     15161     15164     15167
     15159     15158     15161     15162     15159     15158     15161     15163
     15159     15158     15161     15164     15160     15158     15161     15162
     15160     15158     15161     15163     15160     15158     15161     15164
     15161     15164     15167     15168     15161     15164     15167     15169
     15161     15164     15167     15170     15162     15161     15164     15165
     15162     15161     15164     15166     15162     15161     15164     15167
     15163     15161     15164     15165     15163     15161     15164     15166
     15163     15161     15164     15167     15164     15167     15170     15171
     15164     15167     15170     15172     15164     15167     15170     15173
     15165     15164     15167     15168     15165     15164     15167     15169
     15165     15164     15167     15170     15166     15164     15167     15168
     15166     15164     15167     15169     15166     15164     15167     15170
     15167     15170     15173     15174     15167     15170     15173     15175
     15167     15170     15173     15176     15168     15167     15170     15171
     15168     15167     15170     15172     15168     15167     15170     15173
     15169     15167     15170     15171     15169     15167     15170     15172
     15169     15167     15170     15173     15170     15173     15176     15177
     15170     15173     15176     15178     15170     15173     15176     15179
     15171     15170     15173     15174     15171     15170     15173     15175
     15171     15170     15173     15176     15172     15170     15173     15174
     15172     15170     15173     15175     15172     15170     15173     15176
     15173     15176     15179     15180     15173     15176     15179     15181
     15173     15176     15179     15182     15174     15173     15176     15177
     15174     15173     15176     15178     15174     15173     15176     15179
     15175     15173     15176     15177     15175     15173     15176     15178
     15175     15173     15176     15179     15176     15179     15182     15183
     15176     15179     15182     15184     15176     15179     15182     15185
     15177     15176     15179     15180     15177     15176     15179     15181
     15177     15176     15179     15182     15178     15176     15179     15180
     15178     15176     15179     15181     15178     15176     15179     15182
     15179     15182     15185     15186     15179     15182     15185     15187
     15179     15182     15185     15188     15180     15179     15182     15183
     15180     15179     15182     15184     15180     15179     15182     15185
     15181     15179     15182     15183     15181     15179     15182     15184
     15181     15179     15182     15185     15182     15185     15188     15189
     15182     15185     15188     15190     15182     15185     15188     15191
     15183     15182     15185     15186     15183     15182     15185     15187
     15183     15182     15185     15188     15184     15182     15185     15186
     15184     15182     15185     15187     15184     15182     15185     15188
     15185     15188     15191     15192     15185     15188     15191     15193
     15185     15188     15191     15194     15186     15185     15188     15189
     15186     15185     15188     15190     15186     15185     15188     15191
     15187     15185     15188     15189     15187     15185     15188     15190
     15187     15185     15188     15191     15188     15191     15194     15195
     15188     15191     15194     15196     15188     15191     15194     15197
     15189     15188     15191     15192     15189     15188     15191     15193
     15189     15188     15191     15194     15190     15188     15191     15192
     15190     15188     15191     15193     15190     15188     15191     15194
     15192     15191     15194     15195     15192     15191     15194     15196
     15192     15191     15194     15197     15193     15191     15194     15195
     15193     15191     15194     15196     15193     15191     15194     15197
     15198     15200     15203     15204     15198     15200     15203     15205
     15198     15200     15203     15206     15199     15198     15200     15201
     15199     15198     15200     15202     15199     15198     15200     15203
     15200     15203     15206     15207     15200     15203     15206     15208
     15200     15203     15206     15209     15201     15200     15203     15204
     15201     15200     15203     15205     15201     15200     15203     15206
     15202     15200     15203     15204     15202     15200     15203     15205
     15202     15200     15203     15206     15203     15206     15209     15210
     15203     15206     15209     15211     15203     15206     15209     15212
     15204     15203     15206     15207     15204     15203     15206     15208
     15204     15203     15206     15209     15205     15203     15206     15207
     15205     15203     15206     15208     15205     15203     15206     15209
     15206     15209     15212     15213     15206     15209     15212     15214
     15206     15209     15212     15215     15207     15206     15209     15210
     15207     15206     15209     15211     15207     15206     15209     15212
     15208     15206     15209     15210     15208     15206     15209     15211
     15208     15206     15209     15212     15209     15212     15215     15216
     15209     15212     15215     15217     15209     15212     15215     15218
     15210     15209     15212     15213     15210     15209     15212     15214
     15210     15209     15212     15215     15211     15209     15212     15213
     15211     15209     15212     15214     15211     15209     15212     15215
     15212     15215     15218     15219     15212     15215     15218     15220
     15212     15215     15218     15221     15213     15212     15215     15216
     15213     15212     15215     15217     15213     15212     15215     15218
     15214     15212     15215     15216     15214     15212     15215     15217
     15214     15212     15215     15218     15215     15218     15221     15222
     15215     15218     15221     15223     15216     15215     15218     15219
     15216     15215     15218     15220     15216     15215     15218     15221
     15217     15215     15218     15219     15217     15215     15218     15220
     15217     15215     15218     15221     15218     15221     15223     15224
     15218     15221     15223     15225     15219     15218     15221     15222
     15219     15218     15221     15223     15220     15218     15221     15222
     15220     15218     15221     15223     15221     15223     15225     15226
     15221     15223     15225     15227     15221     15223     15225     15228
     15222     15221     15223     15224     15222     15221     15223     15225
     15223     15225     15228     15229     15223     15225     15228     15230
     15223     15225     15228     15231     15224     15223     15225     15226
     15224     15223     15225     15227     15224     15223     15225     15228
     15225     15228     15231     15232     15225     15228     15231     15233
     15225     15228     15231     15234     15226     15225     15228     15229
     15226     15225     15228     15230     15226     15225     15228     15231
     15227     15225     15228     15229     15227     15225     15228     15230
     15227     15225     15228     15231     15228     15231     15234     15235
     15228     15231     15234     15236     15228     15231     15234     15237
     15229     15228     15231     15232     15229     15228     15231     15233
     15229     15228     15231     15234     15230     15228     15231     15232
     15230     15228     15231     15233     15230     15228     15231     15234
     15231     15234     15237     15238     15231     15234     15237     15239
     15231     15234     15237     15240     15232     15231     15234     15235
     15232     15231     15234     15236     15232     15231     15234     15237
     15233     15231     15234     15235     15233     15231     15234     15236
     15233     15231     15234     15237     15234     15237     15240     15241
     15234     15237     15240     15242     15234     15237     15240     15243
     15235     15234     15237     15238     15235     15234     15237     15239
     15235     15234     15237     15240     15236     15234     15237     15238
     15236     15234     15237     15239     15236     15234     15237     15240
     15237     15240     15243     15244     15237     15240     15243     15245
     15237     15240     15243     15246     15238     15237     15240     15241
     15238     15237     15240     15242     15238     15237     15240     15243
     15239     15237     15240     15241     15239     15237     15240     15242
     15239     15237     15240     15243     15240     15243     15246     15247
     15240     15243     15246     15248     15240     15243     15246     15249
     15241     15240     15243     15244     15241     15240     15243     15245
     15241     15240     15243     15246     15242     15240     15243     15244
     15242     15240     15243     15245     15242     15240     15243     15246
     15244     15243     15246     15247     15244     15243     15246     15248
     15244     15243     15246     15249     15245     15243     15246     15247
     15245     15243     15246     15248     15245     15243     15246     15249
      3553      3557      3560      3561      3553      3557      3560      3591
      3553      3599      3596      3591      3553      3599      3596      3597
      3553      3599      3596      3598      3554      3553      3555      3556
      3554      3553      3557      3558      3554      3553      3557      3559
      3554      3553      3557      3560      3554      3553      3599      3596
      3554      3553      3599      3600      3554      3553      3599      3601
      3555      3553      3557      3558      3555      3553      3557      3559
      3555      3553      3557      3560      3555      3553      3599      3596
      3555      3553      3599      3600      3555      3553      3599      3601
      3556      3555      3553      3557      3556      3555      3553      3599
      3557      3553      3599      3596      3557      3553      3599      3600
      3557      3553      3599      3601      3557      3560      3561      3562
      3557      3560      3561      3563      3557      3560      3591      3589
      3557      3560      3591      3592      3557      3560      3591      3596
      3558      3557      3553      3599      3558      3557      3560      3561
      3558      3557      3560      3591      3559      3557      3553      3599
      3559      3557      3560      3561      3559      3557      3560      3591
      3560      3557      3553      3599      3560      3561      3563      3564
      3560      3561      3563      3565      3560      3561      3563      3566
      3560      3591      3589      3566      3560      3591      3589      3586
      3560      3591      3589      3590      3560      3591      3592      3593
      3560      3591      3592      3594      3560      3591      3592      3595
      3560      3591      3596      3597      3560      3591      3596      3598
      3560      3591      3596      3599      3561      3560      3591      3589
      3561      3560      3591      3592      3561      3560      3591      3596
      3561      3563      3566      3567      3561      3563      3566      3568
      3561      3563      3566      3589      3562      3561      3560      3591
      3562      3561      3563      3564      3562      3561      3563      3565
      3562      3561      3563      3566      3563      3561      3560      3591
      3563      3566      3568      3569      3563      3566      3568      3570
      3563      3566      3568      3578      3563      3566      3589      3586
      3563      3566      3589      3590      3563      3566      3589      3591
      3564      3563      3566      3567      3564      3563      3566      3568
      3564      3563      3566      3589      3565      3563      3566      3567
      3565      3563      3566      3568      3565      3563      3566      3589
      3566      3568      3570      3571      3566      3568      3570      3572
      3566      3568      3570      3573      3566      3568      3578      3576
      3566      3568      3578      3579      3566      3568      3578      3583
      3566      3589      3586      3583      3566      3589      3586      3587
      3566      3589      3586      3588      3566      3589      3591      3592
      3566      3589      3591      3596      3567      3566      3568      3569
      3567      3566      3568      3570      3567      3566      3568      3578
      3567      3566      3589      3586      3567      3566      3589      3590
      3567      3566      3589      3591      3568      3566      3589      3586
      3568      3566      3589      3590      3568      3566      3589      3591
      3568      3570      3573      3574      3568      3570      3573      3575
      3568      3570      3573      3576      3568      3578      3576      3573
      3568      3578      3576      3577      3568      3578      3576      3602
      3568      3578      3579      3580      3568      3578      3579      3581
      3568      3578      3579      3582      3568      3578      3583      3584
      3568      3578      3583      3585      3568      3578      3583      3586
      3569      3568      3566      3589      3569      3568      3570      3571
      3569      3568      3570      3572      3569      3568      3570      3573
      3569      3568      3578      3576      3569      3568      3578      3579
      3569      3568      3578      3583      3570      3568      3566      3589
      3570      3568      3578      3576      3570      3568      3578      3579
      3570      3568      3578      3583      3570      3573      3576      3577
      3570      3573      3576      3578      3570      3573      3576      3602
      3571      3570      3568      3578      3571      3570      3573      3574
      3571      3570      3573      3575      3571      3570      3573      3576
      3572      3570      3568      3578      3572      3570      3573      3574
      3572      3570      3573      3575      3572      3570      3573      3576
      3573      3570      3568      3578      3573      3576      3578      3579
      3573      3576      3578      3583      3573      3576      3602      3603
      3573      3576      3602      3604      3573      3576      3602      3608
      3574      3573      3576      3577      3574      3573      3576      3578
      3574      3573      3576      3602      3575      3573      3576      3577
      3575      3573      3576      3578      3575      3573      3576      3602
      3576      3578      3579      3580      3576      3578      3579      3581
      3576      3578      3579      3582      3576      3578      3583      3584
      3576      3578      3583      3585      3576      3578      3583      3586
      3576      3602      3604      3605      3576      3602      3604      3606
      3576      3602      3604      3607      3576      3602      3608      3609
      3576      3602      3608      3610      3576      3602      3608      3611
      3577      3576      3578      3579      3577      3576      3578      3583
      3577      3576      3602      3603      3577      3576      3602      3604
      3577      3576      3602      3608      3578      3568      3566      3589
      3578      3576      3602      3603      3578      3576      3602      3604
      3578      3576      3602      3608      3578      3583      3586      3587
      3578      3583      3586      3588      3578      3583      3586      3589
      3579      3578      3576      3602      3579      3578      3583      3584
      3579      3578      3583      3585      3579      3578      3583      3586
      3580      3579      3578      3583      3581      3579      3578      3583
      3582      3579      3578      3583      3583      3578      3576      3602
      3583      3586      3589      3590      3583      3586      3589      3591
      3584      3583      3586      3587      3584      3583      3586      3588
      3584      3583      3586      3589      3585      3583      3586      3587
      3585      3583      3586      3588      3585      3583      3586      3589
      3586      3589      3591      3592      3586      3589      3591      3596
      3587      3586      3589      3590      3587      3586      3589      3591
      3588      3586      3589      3590      3588      3586      3589      3591
      3589      3591      3592      3593      3589      3591      3592      3594
      3589      3591      3592      3595      3589      3591      3596      3597
      3589      3591      3596      3598      3589      3591      3596      3599
      3590      3589      3591      3592      3590      3589      3591      3596
      3591      3596      3599      3600      3591      3596      3599      3601
      3592      3591      3596      3597      3592      3591      3596      3598
      3592      3591      3596      3599      3593      3592      3591      3596
      3594      3592      3591      3596      3595      3592      3591      3596
      3597      3596      3599      3600      3597      3596      3599      3601
      3598      3596      3599      3600      3598      3596      3599      3601
      3602      3608      3611      3612      3602      3608      3611      3613
      3602      3608      3611      3614      3603      3602      3604      3605
      3603      3602      3604      3606      3603      3602      3604      3607
      3603      3602      3608      3609      3603      3602      3608      3610
      3603      3602      3608      3611      3604      3602      3608      3609
      3604      3602      3608      3610      3604      3602      3608      3611
      3605      3604      3602      3608      3606      3604      3602      3608
      3607      3604      3602      3608      3608      3611      3614      3615
      3608      3611      3614      3616      3608      3611      3614      3617
      3609      3608      3611      3612      3609      3608      3611      3613
      3609      3608      3611      3614      3610      3608      3611      3612
      3610      3608      3611      3613      3610      3608      3611      3614
      3611      3614      3617      3618      3611      3614      3617      3619
      3611      3614      3617      3623      3612      3611      3614      3615
      3612      3611      3614      3616      3612      3611      3614      3617
      3613      3611      3614      3615      3613      3611      3614      3616
      3613      3611      3614      3617      3614      3617      3619      3620
      3614      3617      3619      3621      3614      3617      3619      3622
      3614      3617      3623      3624      3614      3617      3623      3625
      3614      3617      3623      3626      3615      3614      3617      3618
      3615      3614      3617      3619      3615      3614      3617      3623
      3616      3614      3617      3618      3616      3614      3617      3619
      3616      3614      3617      3623      3618      3617      3619      3620
      3618      3617      3619      3621      3618      3617      3619      3622
      3618      3617      3623      3624      3618      3617      3623      3625
      3618      3617      3623      3626      3619      3617      3623      3624
      3619      3617      3623      3625      3619      3617      3623      3626
      3620      3619      3617      3623      3621      3619      3617      3623
      3622      3619      3617      3623     18787     18791     18794     18795
     18787     18791     18794     18796     18787     18791     18794     18800
     18788     18787     18791     18792     18788     18787     18791     18793
     18788     18787     18791     18794     18789     18787     18791     18792
     18789     18787     18791     18793     18789     18787     18791     18794
     18790     18787     18791     18792     18790     18787     18791     18793
     18790     18787     18791     18794     18791     18794     18800     18797
     18792     18791     18794     18795     18792     18791     18794     18796
     18792     18791     18794     18800     18793     18791     18794     18795
     18793     18791     18794     18796     18793     18791     18794     18800
     18794     18800     18797     18798     18794     18800     18797     18799
     18794     18800     18797     18801     18795     18794     18800     18797
     18796     18794     18800     18797     18797     18801     18802     18803
     18797     18801     18802     18804     18797     18801     18802     18805
     18798     18797     18801     18802     18799     18797     18801     18802
     18800     18797     18801     18802     18801     18802     18805     18806
     18801     18802     18805     18807     18801     18802     18805     18813
     18802     18805     18807     18808     18802     18805     18813     18814
     18802     18805     18813     18815     18802     18805     18813     18816
     18803     18802     18805     18806     18803     18802     18805     18807
     18803     18802     18805     18813     18804     18802     18805     18806
     18804     18802     18805     18807     18804     18802     18805     18813
     18805     18807     18808     18809     18805     18807     18808     18810
     18805     18813     18816     18817     18806     18805     18807     18808
     18806     18805     18813     18814     18806     18805     18813     18815
     18806     18805     18813     18816     18807     18805     18813     18814
     18807     18805     18813     18815     18807     18805     18813     18816
     18807     18808     18810     18811     18807     18808     18810     18812
     18807     18808     18810     18822     18808     18807     18805     18813
     18808     18810     18822     18823     18808     18810     18822     18824
     18808     18810     18822     18825     18809     18808     18810     18811
     18809     18808     18810     18812     18809     18808     18810     18822
     18810     18822     18825     18826     18810     18822     18825     18827
     18810     18822     18825     18828     18811     18810     18822     18823
     18811     18810     18822     18824     18811     18810     18822     18825
     18812     18810     18822     18823     18812     18810     18822     18824
     18812     18810     18822     18825     18813     18816     18817     18818
     18813     18816     18817     18819     18814     18813     18816     18817
     18815     18813     18816     18817     18816     18817     18819     18820
     18816     18817     18819     18821     18816     18817     18819     18869
     18817     18819     18869     18870     18817     18819     18869     18871
     18817     18819     18869     18872     18818     18817     18819     18820
     18818     18817     18819     18821     18818     18817     18819     18869
     18819     18869     18872     18873     18819     18869     18872     18874
     18819     18869     18872     18875     18820     18819     18869     18870
     18820     18819     18869     18871     18820     18819     18869     18872
     18821     18819     18869     18870     18821     18819     18869     18871
     18821     18819     18869     18872     18822     18825     18828     18829
     18822     18825     18828     18830     18823     18822     18825     18826
     18823     18822     18825     18827     18823     18822     18825     18828
     18824     18822     18825     18826     18824     18822     18825     18827
     18824     18822     18825     18828     18825     18828     18830     18831
     18825     18828     18830     18832     18826     18825     18828     18829
     18826     18825     18828     18830     18827     18825     18828     18829
     18827     18825     18828     18830     18828     18830     18832     18833
     18828     18830     18832     18834     18828     18830     18832     18835
     18829     18828     18830     18831     18829     18828     18830     18832
     18830     18832     18835     18836     18830     18832     18835     18837
     18831     18830     18832     18833     18831     18830     18832     18834
     18831     18830     18832     18835     18832     18835     18837     18838
     18832     18835     18837     18839     18833     18832     18835     18836
     18833     18832     18835     18837     18834     18832     18835     18836
     18834     18832     18835     18837     18835     18837     18839     18840
     18835     18837     18839     18841     18835     18837     18839     18842
     18836     18835     18837     18838     18836     18835     18837     18839
     18837     18839     18842     18843     18837     18839     18842     18844
     18838     18837     18839     18840     18838     18837     18839     18841
     18838     18837     18839     18842     18839     18842     18844     18845
     18839     18842     18844     18846     18840     18839     18842     18843
     18840     18839     18842     18844     18841     18839     18842     18843
     18841     18839     18842     18844     18842     18844     18846     18847
     18842     18844     18846     18848     18842     18844     18846     18849
     18843     18842     18844     18845     18843     18842     18844     18846
     18844     18846     18849     18850     18844     18846     18849     18851
     18845     18844     18846     18847     18845     18844     18846     18848
     18845     18844     18846     18849     18846     18849     18851     18852
     18846     18849     18851     18853     18847     18846     18849     18850
     18847     18846     18849     18851     18848     18846     18849     18850
     18848     18846     18849     18851     18849     18851     18853     18854
     18849     18851     18853     18855     18849     18851     18853     18856
     18850     18849     18851     18852     18850     18849     18851     18853
     18851     18853     18856     18857     18851     18853     18856     18858
     18851     18853     18856     18859     18852     18851     18853     18854
     18852     18851     18853     18855     18852     18851     18853     18856
     18853     18856     18859     18860     18853     18856     18859     18861
     18853     18856     18859     18862     18854     18853     18856     18857
     18854     18853     18856     18858     18854     18853     18856     18859
     18855     18853     18856     18857     18855     18853     18856     18858
     18855     18853     18856     18859     18856     18859     18862     18863
     18856     18859     18862     18864     18856     18859     18862     18865
     18857     18856     18859     18860     18857     18856     18859     18861
     18857     18856     18859     18862     18858     18856     18859     18860
     18858     18856     18859     18861     18858     18856     18859     18862
     18859     18862     18865     18866     18859     18862     18865     18867
     18859     18862     18865     18868     18860     18859     18862     18863
     18860     18859     18862     18864     18860     18859     18862     18865
     18861     18859     18862     18863     18861     18859     18862     18864
     18861     18859     18862     18865     18863     18862     18865     18866
     18863     18862     18865     18867     18863     18862     18865     18868
     18864     18862     18865     18866     18864     18862     18865     18867
     18864     18862     18865     18868     18869     18872     18875     18876
     18869     18872     18875     18877     18869     18872     18875     18878
     18870     18869     18872     18873     18870     18869     18872     18874
     18870     18869     18872     18875     18871     18869     18872     18873
     18871     18869     18872     18874     18871     18869     18872     18875
     18872     18875     18878     18879     18872     18875     18878     18880
     18872     18875     18878     18881     18873     18872     18875     18876
     18873     18872     18875     18877     18873     18872     18875     18878
     18874     18872     18875     18876     18874     18872     18875     18877
     18874     18872     18875     18878     18875     18878     18881     18882
     18875     18878     18881     18883     18875     18878     18881     18884
     18876     18875     18878     18879     18876     18875     18878     18880
     18876     18875     18878     18881     18877     18875     18878     18879
     18877     18875     18878     18880     18877     18875     18878     18881
     18878     18881     18884     18885     18878     18881     18884     18886
     18878     18881     18884     18887     18879     18878     18881     18882
     18879     18878     18881     18883     18879     18878     18881     18884
     18880     18878     18881     18882     18880     18878     18881     18883
     18880     18878     18881     18884     18881     18884     18887     18888
     18881     18884     18887     18889     18881     18884     18887     18890
     18882     18881     18884     18885     18882     18881     18884     18886
     18882     18881     18884     18887     18883     18881     18884     18885
     18883     18881     18884     18886     18883     18881     18884     18887
     18884     18887     18890     18891     18884     18887     18890     18892
     18884     18887     18890     18893     18885     18884     18887     18888
     18885     18884     18887     18889     18885     18884     18887     18890
     18886     18884     18887     18888     18886     18884     18887     18889
     18886     18884     18887     18890     18887     18890     18893     18894
     18887     18890     18893     18895     18887     18890     18893     18896
     18888     18887     18890     18891     18888     18887     18890     18892
     18888     18887     18890     18893     18889     18887     18890     18891
     18889     18887     18890     18892     18889     18887     18890     18893
     18890     18893     18896     18897     18890     18893     18896     18898
     18890     18893     18896     18899     18891     18890     18893     18894
     18891     18890     18893     18895     18891     18890     18893     18896
     18892     18890     18893     18894     18892     18890     18893     18895
     18892     18890     18893     18896     18893     18896     18899     18900
     18893     18896     18899     18901     18893     18896     18899     18902
     18894     18893     18896     18897     18894     18893     18896     18898
     18894     18893     18896     18899     18895     18893     18896     18897
     18895     18893     18896     18898     18895     18893     18896     18899
     18896     18899     18902     18903     18896     18899     18902     18904
     18896     18899     18902     18905     18897     18896     18899     18900
     18897     18896     18899     18901     18897     18896     18899     18902
     18898     18896     18899     18900     18898     18896     18899     18901
     18898     18896     18899     18902     18899     18902     18905     18906
     18899     18902     18905     18907     18899     18902     18905     18908
     18900     18899     18902     18903     18900     18899     18902     18904
     18900     18899     18902     18905     18901     18899     18902     18903
     18901     18899     18902     18904     18901     18899     18902     18905
     18902     18905     18908     18909     18902     18905     18908     18910
     18902     18905     18908     18911     18903     18902     18905     18906
     18903     18902     18905     18907     18903     18902     18905     18908
     18904     18902     18905     18906     18904     18902     18905     18907
     18904     18902     18905     18908     18905     18908     18911     18912
     18905     18908     18911     18913     18905     18908     18911     18914
     18906     18905     18908     18909     18906     18905     18908     18910
     18906     18905     18908     18911     18907     18905     18908     18909
     18907     18905     18908     18910     18907     18905     18908     18911
     18908     18911     18914     18915     18908     18911     18914     18916
     18908     18911     18914     18917     18909     18908     18911     18912
     18909     18908     18911     18913     18909     18908     18911     18914
     18910     18908     18911     18912     18910     18908     18911     18913
     18910     18908     18911     18914     18912     18911     18914     18915
     18912     18911     18914     18916     18912     18911     18914     18917
     18913     18911     18914     18915     18913     18911     18914     18916
     18913     18911     18914     18917     21014     21018     21021     21022
     21014     21018     21021     21023     21014     21018     21021     21027
     21015     21014     21018     21019     21015     21014     21018     21020
     21015     21014     21018     21021     21016     21014     21018     21019
     21016     21014     21018     21020     21016     21014     21018     21021
     21017     21014     21018     21019     21017     21014     21018     21020
     21017     21014     21018     21021     21018     21021     21027     21024
     21019     21018     21021     21022     21019     21018     21021     21023
     21019     21018     21021     21027     21020     21018     21021     21022
     21020     21018     21021     21023     21020     21018     21021     21027
     21021     21027     21024     21025     21021     21027     21024     21026
     21021     21027     21024     21028     21022     21021     21027     21024
     21023     21021     21027     21024     21024     21028     21029     21030
     21024     21028     21029     21031     21024     21028     21029     21032
     21025     21024     21028     21029     21026     21024     21028     21029
     21027     21024     21028     21029     21028     21029     21032     21033
     21028     21029     21032     21034     21028     21029     21032     21040
     21029     21032     21034     21035     21029     21032     21040     21041
     21029     21032     21040     21042     21029     21032     21040     21043
     21030     21029     21032     21033     21030     21029     21032     21034
     21030     21029     21032     21040     21031     21029     21032     21033
     21031     21029     21032     21034     21031     21029     21032     21040
     21032     21034     21035     21036     21032     21034     21035     21037
     21032     21040     21043     21044     21033     21032     21034     21035
     21033     21032     21040     21041     21033     21032     21040     21042
     21033     21032     21040     21043     21034     21032     21040     21041
     21034     21032     21040     21042     21034     21032     21040     21043
     21034     21035     21037     21038     21034     21035     21037     21039
     21034     21035     21037     21049     21035     21034     21032     21040
     21035     21037     21049     21050     21035     21037     21049     21051
     21035     21037     21049     21052     21036     21035     21037     21038
     21036     21035     21037     21039     21036     21035     21037     21049
     21037     21049     21052     21053     21037     21049     21052     21054
     21037     21049     21052     21055     21038     21037     21049     21050
     21038     21037     21049     21051     21038     21037     21049     21052
     21039     21037     21049     21050     21039     21037     21049     21051
     21039     21037     21049     21052     21040     21043     21044     21045
     21040     21043     21044     21046     21041     21040     21043     21044
     21042     21040     21043     21044     21043     21044     21046     21047
     21043     21044     21046     21048     21043     21044     21046     21096
     21044     21046     21096     21097     21044     21046     21096     21098
     21044     21046     21096     21099     21045     21044     21046     21047
     21045     21044     21046     21048     21045     21044     21046     21096
     21046     21096     21099     21100     21046     21096     21099     21101
     21046     21096     21099     21102     21047     21046     21096     21097
     21047     21046     21096     21098     21047     21046     21096     21099
     21048     21046     21096     21097     21048     21046     21096     21098
     21048     21046     21096     21099     21049     21052     21055     21056
     21049     21052     21055     21057     21049     21052     21055     21058
     21050     21049     21052     21053     21050     21049     21052     21054
     21050     21049     21052     21055     21051     21049     21052     21053
     21051     21049     21052     21054     21051     21049     21052     21055
     21052     21055     21058     21059     21052     21055     21058     21060
     21052     21055     21058     21061     21053     21052     21055     21056
     21053     21052     21055     21057     21053     21052     21055     21058
     21054     21052     21055     21056     21054     21052     21055     21057
     21054     21052     21055     21058     21055     21058     21061     21062
     21055     21058     21061     21063     21055     21058     21061     21064
     21056     21055     21058     21059     21056     21055     21058     21060
     21056     21055     21058     21061     21057     21055     21058     21059
     21057     21055     21058     21060     21057     21055     21058     21061
     21058     21061     21064     21065     21058     21061     21064     21066
     21058     21061     21064     21067     21059     21058     21061     21062
     21059     21058     21061     21063     21059     21058     21061     21064
     21060     21058     21061     21062     21060     21058     21061     21063
     21060     21058     21061     21064     21061     21064     21067     21068
     21061     21064     21067     21069     21062     21061     21064     21065
     21062     21061     21064     21066     21062     21061     21064     21067
     21063     21061     21064     21065     21063     21061     21064     21066
     21063     21061     21064     21067     21064     21067     21069     21070
     21064     21067     21069     21071     21065     21064     21067     21068
     21065     21064     21067     21069     21066     21064     21067     21068
     21066     21064     21067     21069     21067     21069     21071     21072
     21067     21069     21071     21073     21067     21069     21071     21074
     21068     21067     21069     21070     21068     21067     21069     21071
     21069     21071     21074     21075     21069     21071     21074     21076
     21069     21071     21074     21077     21070     21069     21071     21072
     21070     21069     21071     21073     21070     21069     21071     21074
     21071     21074     21077     21078     21071     21074     21077     21079
     21071     21074     21077     21080     21072     21071     21074     21075
     21072     21071     21074     21076     21072     21071     21074     21077
     21073     21071     21074     21075     21073     21071     21074     21076
     21073     21071     21074     21077     21074     21077     21080     21081
     21074     21077     21080     21082     21074     21077     21080     21083
     21075     21074     21077     21078     21075     21074     21077     21079
     21075     21074     21077     21080     21076     21074     21077     21078
     21076     21074     21077     21079     21076     21074     21077     21080
     21077     21080     21083     21084     21077     21080     21083     21085
     21077     21080     21083     21086     21078     21077     21080     21081
     21078     21077     21080     21082     21078     21077     21080     21083
     21079     21077     21080     21081     21079     21077     21080     21082
     21079     21077     21080     21083     21080     21083     21086     21087
     21080     21083     21086     21088     21080     21083     21086     21089
     21081     21080     21083     21084     21081     21080     21083     21085
     21081     21080     21083     21086     21082     21080     21083     21084
     21082     21080     21083     21085     21082     21080     21083     21086
     21083     21086     21089     21090     21083     21086     21089     21091
     21083     21086     21089     21092     21084     21083     21086     21087
     21084     21083     21086     21088     21084     21083     21086     21089
     21085     21083     21086     21087     21085     21083     21086     21088
     21085     21083     21086     21089     21086     21089     21092     21093
     21086     21089     21092     21094     21086     21089     21092     21095
     21087     21086     21089     21090     21087     21086     21089     21091
     21087     21086     21089     21092     21088     21086     21089     21090
     21088     21086     21089     21091     21088     21086     21089     21092
     21090     21089     21092     21093     21090     21089     21092     21094
     21090     21089     21092     21095     21091     21089     21092     21093
     21091     21089     21092     21094     21091     21089     21092     21095
     21096     21099     21102     21103     21096     21099     21102     21104
     21096     21099     21102     21105     21097     21096     21099     21100
     21097     21096     21099     21101     21097     21096     21099     21102
     21098     21096     21099     21100     21098     21096     21099     21101
     21098     21096     21099     21102     21099     21102     21105     21106
     21099     21102     21105     21107     21099     21102     21105     21108
     21100     21099     21102     21103     21100     21099     21102     21104
     21100     21099     21102     21105     21101     21099     21102     21103
     21101     21099     21102     21104     21101     21099     21102     21105
     21102     21105     21108     21109     21102     21105     21108     21110
     21102     21105     21108     21111     21103     21102     21105     21106
     21103     21102     21105     21107     21103     21102     21105     21108
     21104     21102     21105     21106     21104     21102     21105     21107
     21104     21102     21105     21108     21105     21108     21111     21112
     21105     21108     21111     21113     21105     21108     21111     21114
     21106     21105     21108     21109     21106     21105     21108     21110
     21106     21105     21108     21111     21107     21105     21108     21109
     21107     21105     21108     21110     21107     21105     21108     21111
     21108     21111     21114     21115     21108     21111     21114     21116
     21108     21111     21114     21117     21109     21108     21111     21112
     21109     21108     21111     21113     21109     21108     21111     21114
     21110     21108     21111     21112     21110     21108     21111     21113
     21110     21108     21111     21114     21111     21114     21117     21118
     21111     21114     21117     21119     21111     21114     21117     21120
     21112     21111     21114     21115     21112     21111     21114     21116
     21112     21111     21114     21117     21113     21111     21114     21115
     21113     21111     21114     21116     21113     21111     21114     21117
     21114     21117     21120     21121     21114     21117     21120     21122
     21114     21117     21120     21123     21115     21114     21117     21118
     21115     21114     21117     21119     21115     21114     21117     21120
     21116     21114     21117     21118     21116     21114     21117     21119
     21116     21114     21117     21120     21117     21120     21123     21124
     21117     21120     21123     21125     21117     21120     21123     21126
     21118     21117     21120     21121     21118     21117     21120     21122
     21118     21117     21120     21123     21119     21117     21120     21121
     21119     21117     21120     21122     21119     21117     21120     21123
     21120     21123     21126     21127     21120     21123     21126     21128
     21120     21123     21126     21129     21121     21120     21123     21124
     21121     21120     21123     21125     21121     21120     21123     21126
     21122     21120     21123     21124     21122     21120     21123     21125
     21122     21120     21123     21126     21123     21126     21129     21130
     21123     21126     21129     21131     21123     21126     21129     21132
     21124     21123     21126     21127     21124     21123     21126     21128
     21124     21123     21126     21129     21125     21123     21126     21127
     21125     21123     21126     21128     21125     21123     21126     21129
     21126     21129     21132     21133     21126     21129     21132     21134
     21126     21129     21132     21135     21127     21126     21129     21130
     21127     21126     21129     21131     21127     21126     21129     21132
     21128     21126     21129     21130     21128     21126     21129     21131
     21128     21126     21129     21132     21129     21132     21135     21136
     21129     21132     21135     21137     21129     21132     21135     21138
     21130     21129     21132     21133     21130     21129     21132     21134
     21130     21129     21132     21135     21131     21129     21132     21133
     21131     21129     21132     21134     21131     21129     21132     21135
     21132     21135     21138     21139     21132     21135     21138     21140
     21132     21135     21138     21141     21133     21132     21135     21136
     21133     21132     21135     21137     21133     21132     21135     21138
     21134     21132     21135     21136     21134     21132     21135     21137
     21134     21132     21135     21138     21135     21138     21141     21142
     21135     21138     21141     21143     21135     21138     21141     21144
     21136     21135     21138     21139     21136     21135     21138     21140
     21136     21135     21138     21141     21137     21135     21138     21139
     21137     21135     21138     21140     21137     21135     21138     21141
     21139     21138     21141     21142     21139     21138     21141     21143
     21139     21138     21141     21144     21140     21138     21141     21142
     21140     21138     21141     21143     21140     21138     21141     21144
      7067      7080      7083      7084      7067      7080      7083      7085
      7067      7080      7083      7089      7068      7067      7072      7073
      7068      7067      7072      7074      7068      7067      7072      7075
      7068      7067      7076      7077      7068      7067      7076      7078
      7068      7067      7076      7079      7068      7067      7080      7081
      7068      7067      7080      7082      7068      7067      7080      7083
      7069      7068      7067      7072      7069      7068      7067      7076
      7069      7068      7067      7080      7070      7068      7067      7072
      7070      7068      7067      7076      7070      7068      7067      7080
      7071      7068      7067      7072      7071      7068      7067      7076
      7071      7068      7067      7080      7072      7067      7076      7077
      7072      7067      7076      7078      7072      7067      7076      7079
      7072      7067      7080      7081      7072      7067      7080      7082
      7072      7067      7080      7083      7073      7072      7067      7076
      7073      7072      7067      7080      7074      7072      7067      7076
      7074      7072      7067      7080      7075      7072      7067      7076
      7075      7072      7067      7080      7076      7067      7080      7081
      7076      7067      7080      7082      7076      7067      7080      7083
      7077      7076      7067      7080      7078      7076      7067      7080
      7079      7076      7067      7080      7080      7083      7089      7086
      7081      7080      7083      7084      7081      7080      7083      7085
      7081      7080      7083      7089      7082      7080      7083      7084
      7082      7080      7083      7085      7082      7080      7083      7089
      7083      7089      7086      7087      7083      7089      7086      7088
      7083      7089      7086      7090      7084      7083      7089      7086
      7085      7083      7089      7086      7086      7090      7091      7092
      7086      7090      7091      7093      7086      7090      7091      7094
      7087      7086      7090      7091      7088      7086      7090      7091
      7089      7086      7090      7091      7090      7091      7094      7095
      7090      7091      7094      7096      7090      7091      7094      7102
      7091      7094      7096      7097      7091      7094      7102      7103
      7091      7094      7102      7104      7091      7094      7102      7105
      7092      7091      7094      7095      7092      7091      7094      7096
      7092      7091      7094      7102      7093      7091      7094      7095
      7093      7091      7094      7096      7093      7091      7094      7102
      7094      7096      7097      7098      7094      7096      7097      7099
      7094      7102      7105      7106      7095      7094      7096      7097
      7095      7094      7102      7103      7095      7094      7102      7104
      7095      7094      7102      7105      7096      7094      7102      7103
      7096      7094      7102      7104      7096      7094      7102      7105
      7096      7097      7099      7100      7096      7097      7099      7101
      7096      7097      7099      7111      7097      7096      7094      7102
      7097      7099      7111      7112      7097      7099      7111      7113
      7097      7099      7111      7114      7098      7097      7099      7100
      7098      7097      7099      7101      7098      7097      7099      7111
      7099      7111      7114      7115      7099      7111      7114      7116
      7099      7111      7114      7117      7100      7099      7111      7112
      7100      7099      7111      7113      7100      7099      7111      7114
      7101      7099      7111      7112      7101      7099      7111      7113
      7101      7099      7111      7114      7102      7105      7106      7107
      7102      7105      7106      7108      7103      7102      7105      7106
      7104      7102      7105      7106      7105      7106      7108      7109
      7105      7106      7108      7110      7105      7106      7108      7156
      7106      7108      7156      7157      7106      7108      7156      7158
      7106      7108      7156      7159      7107      7106      7108      7109
      7107      7106      7108      7110      7107      7106      7108      7156
      7108      7156      7159      7160      7108      7156      7159      7161
      7108      7156      7159      7162      7109      7108      7156      7157
      7109      7108      7156      7158      7109      7108      7156      7159
      7110      7108      7156      7157      7110      7108      7156      7158
      7110      7108      7156      7159      7111      7114      7117      7118
      7111      7114      7117      7119      7111      7114      7117      7120
      7112      7111      7114      7115      7112      7111      7114      7116
      7112      7111      7114      7117      7113      7111      7114      7115
      7113      7111      7114      7116      7113      7111      7114      7117
      7114      7117      7120      7121      7114      7117      7120      7122
      7114      7117      7120      7123      7115      7114      7117      7118
      7115      7114      7117      7119      7115      7114      7117      7120
      7116      7114      7117      7118      7116      7114      7117      7119
      7116      7114      7117      7120      7117      7120      7123      7124
      7117      7120      7123      7125      7117      7120      7123      7126
      7118      7117      7120      7121      7118      7117      7120      7122
      7118      7117      7120      7123      7119      7117      7120      7121
      7119      7117      7120      7122      7119      7117      7120      7123
      7120      7123      7126      7127      7120      7123      7126      7128
      7120      7123      7126      7129      7121      7120      7123      7124
      7121      7120      7123      7125      7121      7120      7123      7126
      7122      7120      7123      7124      7122      7120      7123      7125
      7122      7120      7123      7126      7123      7126      7129      7130
      7123      7126      7129      7131      7124      7123      7126      7127
      7124      7123      7126      7128      7124      7123      7126      7129
      7125      7123      7126      7127      7125      7123      7126      7128
      7125      7123      7126      7129      7126      7129      7131      7132
      7126      7129      7131      7133      7127      7126      7129      7130
      7127      7126      7129      7131      7128      7126      7129      7130
      7128      7126      7129      7131      7129      7131      7133      7134
      7129      7131      7133      7135      7129      7131      7133      7136
      7130      7129      7131      7132      7130      7129      7131      7133
      7131      7133      7136      7137      7131      7133      7136      7138
      7132      7131      7133      7134      7132      7131      7133      7135
      7132      7131      7133      7136      7133      7136      7138      7139
      7133      7136      7138      7140      7134      7133      7136      7137
      7134      7133      7136      7138      7135      7133      7136      7137
      7135      7133      7136      7138      7136      7138      7140      7141
      7136      7138      7140      7142      7136      7138      7140      7143
      7137      7136      7138      7139      7137      7136      7138      7140
      7138      7140      7143      7144      7138      7140      7143      7145
      7138      7140      7143      7146      7139      7138      7140      7141
      7139      7138      7140      7142      7139      7138      7140      7143
      7140      7143      7146      7147      7140      7143      7146      7148
      7140      7143      7146      7149      7141      7140      7143      7144
      7141      7140      7143      7145      7141      7140      7143      7146
      7142      7140      7143      7144      7142      7140      7143      7145
      7142      7140      7143      7146      7143      7146      7149      7150
      7143      7146      7149      7151      7143      7146      7149      7152
      7144      7143      7146      7147      7144      7143      7146      7148
      7144      7143      7146      7149      7145      7143      7146      7147
      7145      7143      7146      7148      7145      7143      7146      7149
      7146      7149      7152      7153      7146      7149      7152      7154
      7146      7149      7152      7155      7147      7146      7149      7150
      7147      7146      7149      7151      7147      7146      7149      7152
      7148      7146      7149      7150      7148      7146      7149      7151
      7148      7146      7149      7152      7150      7149      7152      7153
      7150      7149      7152      7154      7150      7149      7152      7155
      7151      7149      7152      7153      7151      7149      7152      7154
      7151      7149      7152      7155      7156      7159      7162      7163
      7156      7159      7162      7164      7156      7159      7162      7165
      7157      7156      7159      7160      7157      7156      7159      7161
      7157      7156      7159      7162      7158      7156      7159      7160
      7158      7156      7159      7161      7158      7156      7159      7162
      7159      7162      7165      7166      7159      7162      7165      7167
      7159      7162      7165      7168      7160      7159      7162      7163
      7160      7159      7162      7164      7160      7159      7162      7165
      7161      7159      7162      7163      7161      7159      7162      7164
      7161      7159      7162      7165      7162      7165      7168      7169
      7162      7165      7168      7170      7162      7165      7168      7171
      7163      7162      7165      7166      7163      7162      7165      7167
      7163      7162      7165      7168      7164      7162      7165      7166
      7164      7162      7165      7167      7164      7162      7165      7168
      7165      7168      7171      7172      7165      7168      7171      7173
      7165      7168      7171      7174      7166      7165      7168      7169
      7166      7165      7168      7170      7166      7165      7168      7171
      7167      7165      7168      7169      7167      7165      7168      7170
      7167      7165      7168      7171      7168      7171      7174      7175
      7168      7171      7174      7176      7168      7171      7174      7177
      7169      7168      7171      7172      7169      7168      7171      7173
      7169      7168      7171      7174      7170      7168      7171      7172
      7170      7168      7171      7173      7170      7168      7171      7174
      7171      7174      7177      7178      7171      7174      7177      7179
      7171      7174      7177      7180      7172      7171      7174      7175
      7172      7171      7174      7176      7172      7171      7174      7177
      7173      7171      7174      7175      7173      7171      7174      7176
      7173      7171      7174      7177      7174      7177      7180      7181
      7174      7177      7180      7182      7174      7177      7180      7183
      7175      7174      7177      7178      7175      7174      7177      7179
      7175      7174      7177      7180      7176      7174      7177      7178
      7176      7174      7177      7179      7176      7174      7177      7180
      7177      7180      7183      7184      7177      7180      7183      7185
      7177      7180      7183      7186      7178      7177      7180      7181
      7178      7177      7180      7182      7178      7177      7180      7183
      7179      7177      7180      7181      7179      7177      7180      7182
      7179      7177      7180      7183      7180      7183      7186      7187
      7180      7183      7186      7188      7180      7183      7186      7189
      7181      7180      7183      7184      7181      7180      7183      7185
      7181      7180      7183      7186      7182      7180      7183      7184
      7182      7180      7183      7185      7182      7180      7183      7186
      7183      7186      7189      7190      7183      7186      7189      7191
      7183      7186      7189      7192      7184      7183      7186      7187
      7184      7183      7186      7188      7184      7183      7186      7189
      7185      7183      7186      7187      7185      7183      7186      7188
      7185      7183      7186      7189      7186      7189      7192      7193
      7186      7189      7192      7194      7186      7189      7192      7195
      7187      7186      7189      7190      7187      7186      7189      7191
      7187      7186      7189      7192      7188      7186      7189      7190
      7188      7186      7189      7191      7188      7186      7189      7192
      7189      7192      7195      7196      7189      7192      7195      7197
      7189      7192      7195      7198      7190      7189      7192      7193
      7190      7189      7192      7194      7190      7189      7192      7195
      7191      7189      7192      7193      7191      7189      7192      7194
      7191      7189      7192      7195      7192      7195      7198      7199
      7192      7195      7198      7200      7192      7195      7198      7201
      7193      7192      7195      7196      7193      7192      7195      7197
      7193      7192      7195      7198      7194      7192      7195      7196
      7194      7192      7195      7197      7194      7192      7195      7198
      7195      7198      7201      7202      7195      7198      7201      7203
      7195      7198      7201      7204      7196      7195      7198      7199
      7196      7195      7198      7200      7196      7195      7198      7201
      7197      7195      7198      7199      7197      7195      7198      7200
      7197      7195      7198      7201      7199      7198      7201      7202
      7199      7198      7201      7203      7199      7198      7201      7204
      7200      7198      7201      7202      7200      7198      7201      7203
      7200      7198      7201      7204      5685      5686      5701      5702
      5685      5686      5701      5703      5685      5686      5701      5707
      5686      5685      5689      5690      5686      5685      5689      5691
      5686      5685      5689      5692      5686      5685      5693      5694
      5686      5685      5693      5695      5686      5685      5693      5696
      5686      5685      5697      5698      5686      5685      5697      5699
      5686      5685      5697      5700      5686      5701      5707      5704
      5687      5686      5685      5689      5687      5686      5685      5693
      5687      5686      5685      5697      5687      5686      5701      5702
      5687      5686      5701      5703      5687      5686      5701      5707
      5688      5686      5685      5689      5688      5686      5685      5693
      5688      5686      5685      5697      5688      5686      5701      5702
      5688      5686      5701      5703      5688      5686      5701      5707
      5689      5685      5686      5701      5689      5685      5693      5694
      5689      5685      5693      5695      5689      5685      5693      5696
      5689      5685      5697      5698      5689      5685      5697      5699
      5689      5685      5697      5700      5690      5689      5685      5693
      5690      5689      5685      5697      5691      5689      5685      5693
      5691      5689      5685      5697      5692      5689      5685      5693
      5692      5689      5685      5697      5693      5685      5686      5701
      5693      5685      5697      5698      5693      5685      5697      5699
      5693      5685      5697      5700      5694      5693      5685      5697
      5695      5693      5685      5697      5696      5693      5685      5697
      5697      5685      5686      5701      5701      5707      5704      5705
      5701      5707      5704      5706      5701      5707      5704      5708
      5702      5701      5707      5704      5703      5701      5707      5704
      5704      5708      5709      5710      5704      5708      5709      5711
      5704      5708      5709      5712      5705      5704      5708      5709
      5706      5704      5708      5709      5707      5704      5708      5709
      5708      5709      5712      5713      5708      5709      5712      5714
      5708      5709      5712      5720      5709      5712      5714      5715
      5709      5712      5720      5721      5709      5712      5720      5722
      5709      5712      5720      5723      5710      5709      5712      5713
      5710      5709      5712      5714      5710      5709      5712      5720
      5711      5709      5712      5713      5711      5709      5712      5714
      5711      5709      5712      5720      5712      5714      5715      5716
      5712      5714      5715      5717      5712      5720      5723      5724
      5713      5712      5714      5715      5713      5712      5720      5721
      5713      5712      5720      5722      5713      5712      5720      5723
      5714      5712      5720      5721      5714      5712      5720      5722
      5714      5712      5720      5723      5714      5715      5717      5718
      5714      5715      5717      5719      5714      5715      5717      5729
      5715      5714      5712      5720      5715      5717      5729      5730
      5715      5717      5729      5731      5715      5717      5729      5732
      5716      5715      5717      5718      5716      5715      5717      5719
      5716      5715      5717      5729      5717      5729      5732      5733
      5717      5729      5732      5734      5717      5729      5732      5735
      5718      5717      5729      5730      5718      5717      5729      5731
      5718      5717      5729      5732      5719      5717      5729      5730
      5719      5717      5729      5731      5719      5717      5729      5732
      5720      5723      5724      5725      5720      5723      5724      5726
      5721      5720      5723      5724      5722      5720      5723      5724
      5723      5724      5726      5727      5723      5724      5726      5728
      5723      5724      5726      5776      5724      5726      5776      5777
      5724      5726      5776      5778      5724      5726      5776      5779
      5725      5724      5726      5727      5725      5724      5726      5728
      5725      5724      5726      5776      5726      5776      5779      5780
      5726      5776      5779      5781      5726      5776      5779      5782
      5727      5726      5776      5777      5727      5726      5776      5778
      5727      5726      5776      5779      5728      5726      5776      5777
      5728      5726      5776      5778      5728      5726      5776      5779
      5729      5732      5735      5736      5729      5732      5735      5737
      5730      5729      5732      5733      5730      5729      5732      5734
      5730      5729      5732      5735      5731      5729      5732      5733
      5731      5729      5732      5734      5731      5729      5732      5735
      5732      5735      5737      5738      5732      5735      5737      5739
      5733      5732      5735      5736      5733      5732      5735      5737
      5734      5732      5735      5736      5734      5732      5735      5737
      5735      5737      5739      5740      5735      5737      5739      5741
      5735      5737      5739      5742      5736      5735      5737      5738
      5736      5735      5737      5739      5737      5739      5742      5743
      5737      5739      5742      5744      5738      5737      5739      5740
      5738      5737      5739      5741      5738      5737      5739      5742
      5739      5742      5744      5745      5739      5742      5744      5746
      5740      5739      5742      5743      5740      5739      5742      5744
      5741      5739      5742      5743      5741      5739      5742      5744
      5742      5744      5746      5747      5742      5744      5746      5748
      5742      5744      5746      5749      5743      5742      5744      5745
      5743      5742      5744      5746      5744      5746      5749      5750
      5744      5746      5749      5751      5745      5744      5746      5747
      5745      5744      5746      5748      5745      5744      5746      5749
      5746      5749      5751      5752      5746      5749      5751      5753
      5747      5746      5749      5750      5747      5746      5749      5751
      5748      5746      5749      5750      5748      5746      5749      5751
      5749      5751      5753      5754      5749      5751      5753      5755
      5749      5751      5753      5756      5750      5749      5751      5752
      5750      5749      5751      5753      5751      5753      5756      5757
      5751      5753      5756      5758      5752      5751      5753      5754
      5752      5751      5753      5755      5752      5751      5753      5756
      5753      5756      5758      5759      5753      5756      5758      5760
      5754      5753      5756      5757      5754      5753      5756      5758
      5755      5753      5756      5757      5755      5753      5756      5758
      5756      5758      5760      5761      5756      5758      5760      5762
      5756      5758      5760      5763      5757      5756      5758      5759
      5757      5756      5758      5760      5758      5760      5763      5764
      5758      5760      5763      5765      5758      5760      5763      5766
      5759      5758      5760      5761      5759      5758      5760      5762
      5759      5758      5760      5763      5760      5763      5766      5767
      5760      5763      5766      5768      5760      5763      5766      5769
      5761      5760      5763      5764      5761      5760      5763      5765
      5761      5760      5763      5766      5762      5760      5763      5764
      5762      5760      5763      5765      5762      5760      5763      5766
      5763      5766      5769      5770      5763      5766      5769      5771
      5763      5766      5769      5772      5764      5763      5766      5767
      5764      5763      5766      5768      5764      5763      5766      5769
      5765      5763      5766      5767      5765      5763      5766      5768
      5765      5763      5766      5769      5766      5769      5772      5773
      5766      5769      5772      5774      5766      5769      5772      5775
      5767      5766      5769      5770      5767      5766      5769      5771
      5767      5766      5769      5772      5768      5766      5769      5770
      5768      5766      5769      5771      5768      5766      5769      5772
      5770      5769      5772      5773      5770      5769      5772      5774
      5770      5769      5772      5775      5771      5769      5772      5773
      5771      5769      5772      5774      5771      5769      5772      5775
      5776      5779      5782      5783      5776      5779      5782      5784
      5776      5779      5782      5785      5777      5776      5779      5780
      5777      5776      5779      5781      5777      5776      5779      5782
      5778      5776      5779      5780      5778      5776      5779      5781
      5778      5776      5779      5782      5779      5782      5785      5786
      5779      5782      5785      5787      5779      5782      5785      5788
      5780      5779      5782      5783      5780      5779      5782      5784
      5780      5779      5782      5785      5781      5779      5782      5783
      5781      5779      5782      5784      5781      5779      5782      5785
      5782      5785      5788      5789      5782      5785      5788      5790
      5782      5785      5788      5791      5783      5782      5785      5786
      5783      5782      5785      5787      5783      5782      5785      5788
      5784      5782      5785      5786      5784      5782      5785      5787
      5784      5782      5785      5788      5785      5788      5791      5792
      5785      5788      5791      5793      5785      5788      5791      5794
      5786      5785      5788      5789      5786      5785      5788      5790
      5786      5785      5788      5791      5787      5785      5788      5789
      5787      5785      5788      5790      5787      5785      5788      5791
      5788      5791      5794      5795      5788      5791      5794      5796
      5788      5791      5794      5797      5789      5788      5791      5792
      5789      5788      5791      5793      5789      5788      5791      5794
      5790      5788      5791      5792      5790      5788      5791      5793
      5790      5788      5791      5794      5791      5794      5797      5798
      5791      5794      5797      5799      5791      5794      5797      5800
      5792      5791      5794      5795      5792      5791      5794      5796
      5792      5791      5794      5797      5793      5791      5794      5795
      5793      5791      5794      5796      5793      5791      5794      5797
      5794      5797      5800      5801      5794      5797      5800      5802
      5794      5797      5800      5803      5795      5794      5797      5798
      5795      5794      5797      5799      5795      5794      5797      5800
      5796      5794      5797      5798      5796      5794      5797      5799
      5796      5794      5797      5800      5797      5800      5803      5804
      5797      5800      5803      5805      5797      5800      5803      5806
      5798      5797      5800      5801      5798      5797      5800      5802
      5798      5797      5800      5803      5799      5797      5800      5801
      5799      5797      5800      5802      5799      5797      5800      5803
      5800      5803      5806      5807      5800      5803      5806      5808
      5800      5803      5806      5809      5801      5800      5803      5804
      5801      5800      5803      5805      5801      5800      5803      5806
      5802      5800      5803      5804      5802      5800      5803      5805
      5802      5800      5803      5806      5803      5806      5809      5810
      5803      5806      5809      5811      5803      5806      5809      5812
      5804      5803      5806      5807      5804      5803      5806      5808
      5804      5803      5806      5809      5805      5803      5806      5807
      5805      5803      5806      5808      5805      5803      5806      5809
      5806      5809      5812      5813      5806      5809      5812      5814
      5806      5809      5812      5815      5807      5806      5809      5810
      5807      5806      5809      5811      5807      5806      5809      5812
      5808      5806      5809      5810      5808      5806      5809      5811
      5808      5806      5809      5812      5809      5812      5815      5816
      5809      5812      5815      5817      5809      5812      5815      5818
      5810      5809      5812      5813      5810      5809      5812      5814
      5810      5809      5812      5815      5811      5809      5812      5813
      5811      5809      5812      5814      5811      5809      5812      5815
      5812      5815      5818      5819      5812      5815      5818      5820
      5812      5815      5818      5821      5813      5812      5815      5816
      5813      5812      5815      5817      5813      5812      5815      5818
      5814      5812      5815      5816      5814      5812      5815      5817
      5814      5812      5815      5818      5815      5818      5821      5822
      5815      5818      5821      5823      5815      5818      5821      5824
      5816      5815      5818      5819      5816      5815      5818      5820
      5816      5815      5818      5821      5817      5815      5818      5819
      5817      5815      5818      5820      5817      5815      5818      5821
      5819      5818      5821      5822      5819      5818      5821      5823
      5819      5818      5821      5824      5820      5818      5821      5822
      5820      5818      5821      5823      5820      5818      5821      5824
      7205      7218      7221      7222      7205      7218      7221      7223
      7205      7218      7221      7227      7206      7205      7210      7211
      7206      7205      7210      7212      7206      7205      7210      7213
      7206      7205      7214      7215      7206      7205      7214      7216
      7206      7205      7214      7217      7206      7205      7218      7219
      7206      7205      7218      7220      7206      7205      7218      7221
      7207      7206      7205      7210      7207      7206      7205      7214
      7207      7206      7205      7218      7208      7206      7205      7210
      7208      7206      7205      7214      7208      7206      7205      7218
      7209      7206      7205      7210      7209      7206      7205      7214
      7209      7206      7205      7218      7210      7205      7214      7215
      7210      7205      7214      7216      7210      7205      7214      7217
      7210      7205      7218      7219      7210      7205      7218      7220
      7210      7205      7218      7221      7211      7210      7205      7214
      7211      7210      7205      7218      7212      7210      7205      7214
      7212      7210      7205      7218      7213      7210      7205      7214
      7213      7210      7205      7218      7214      7205      7218      7219
      7214      7205      7218      7220      7214      7205      7218      7221
      7215      7214      7205      7218      7216      7214      7205      7218
      7217      7214      7205      7218      7218      7221      7227      7224
      7219      7218      7221      7222      7219      7218      7221      7223
      7219      7218      7221      7227      7220      7218      7221      7222
      7220      7218      7221      7223      7220      7218      7221      7227
      7221      7227      7224      7225      7221      7227      7224      7226
      7221      7227      7224      7228      7222      7221      7227      7224
      7223      7221      7227      7224      7224      7228      7229      7230
      7224      7228      7229      7231      7224      7228      7229      7232
      7225      7224      7228      7229      7226      7224      7228      7229
      7227      7224      7228      7229      7228      7229      7232      7233
      7228      7229      7232      7234      7228      7229      7232      7240
      7229      7232      7234      7235      7229      7232      7240      7241
      7229      7232      7240      7242      7229      7232      7240      7243
      7230      7229      7232      7233      7230      7229      7232      7234
      7230      7229      7232      7240      7231      7229      7232      7233
      7231      7229      7232      7234      7231      7229      7232      7240
      7232      7234      7235      7236      7232      7234      7235      7237
      7232      7240      7243      7244      7233      7232      7234      7235
      7233      7232      7240      7241      7233      7232      7240      7242
      7233      7232      7240      7243      7234      7232      7240      7241
      7234      7232      7240      7242      7234      7232      7240      7243
      7234      7235      7237      7238      7234      7235      7237      7239
      7234      7235      7237      7249      7235      7234      7232      7240
      7235      7237      7249      7250      7235      7237      7249      7251
      7235      7237      7249      7252      7236      7235      7237      7238
      7236      7235      7237      7239      7236      7235      7237      7249
      7237      7249      7252      7253      7237      7249      7252      7254
      7237      7249      7252      7255      7238      7237      7249      7250
      7238      7237      7249      7251      7238      7237      7249      7252
      7239      7237      7249      7250      7239      7237      7249      7251
      7239      7237      7249      7252      7240      7243      7244      7245
      7240      7243      7244      7246      7241      7240      7243      7244
      7242      7240      7243      7244      7243      7244      7246      7247
      7243      7244      7246      7248      7243      7244      7246      7294
      7244      7246      7294      7295      7244      7246      7294      7296
      7244      7246      7294      7297      7245      7244      7246      7247
      7245      7244      7246      7248      7245      7244      7246      7294
      7246      7294      7297      7298      7246      7294      7297      7299
      7246      7294      7297      7300      7247      7246      7294      7295
      7247      7246      7294      7296      7247      7246      7294      7297
      7248      7246      7294      7295      7248      7246      7294      7296
      7248      7246      7294      7297      7249      7252      7255      7256
      7249      7252      7255      7257      7249      7252      7255      7258
      7250      7249      7252      7253      7250      7249      7252      7254
      7250      7249      7252      7255      7251      7249      7252      7253
      7251      7249      7252      7254      7251      7249      7252      7255
      7252      7255      7258      7259      7252      7255      7258      7260
      7252      7255      7258      7261      7253      7252      7255      7256
      7253      7252      7255      7257      7253      7252      7255      7258
      7254      7252      7255      7256      7254      7252      7255      7257
      7254      7252      7255      7258      7255      7258      7261      7262
      7255      7258      7261      7263      7255      7258      7261      7264
      7256      7255      7258      7259      7256      7255      7258      7260
      7256      7255      7258      7261      7257      7255      7258      7259
      7257      7255      7258      7260      7257      7255      7258      7261
      7258      7261      7264      7265      7258      7261      7264      7266
      7258      7261      7264      7267      7259      7258      7261      7262
      7259      7258      7261      7263      7259      7258      7261      7264
      7260      7258      7261      7262      7260      7258      7261      7263
      7260      7258      7261      7264      7261      7264      7267      7268
      7261      7264      7267      7269      7262      7261      7264      7265
      7262      7261      7264      7266      7262      7261      7264      7267
      7263      7261      7264      7265      7263      7261      7264      7266
      7263      7261      7264      7267      7264      7267      7269      7270
      7264      7267      7269      7271      7265      7264      7267      7268
      7265      7264      7267      7269      7266      7264      7267      7268
      7266      7264      7267      7269      7267      7269      7271      7272
      7267      7269      7271      7273      7267      7269      7271      7274
      7268      7267      7269      7270      7268      7267      7269      7271
      7269      7271      7274      7275      7269      7271      7274      7276
      7270      7269      7271      7272      7270      7269      7271      7273
      7270      7269      7271      7274      7271      7274      7276      7277
      7271      7274      7276      7278      7272      7271      7274      7275
      7272      7271      7274      7276      7273      7271      7274      7275
      7273      7271      7274      7276      7274      7276      7278      7279
      7274      7276      7278      7280      7274      7276      7278      7281
      7275      7274      7276      7277      7275      7274      7276      7278
      7276      7278      7281      7282      7276      7278      7281      7283
      7276      7278      7281      7284      7277      7276      7278      7279
      7277      7276      7278      7280      7277      7276      7278      7281
      7278      7281      7284      7285      7278      7281      7284      7286
      7278      7281      7284      7287      7279      7278      7281      7282
      7279      7278      7281      7283      7279      7278      7281      7284
      7280      7278      7281      7282      7280      7278      7281      7283
      7280      7278      7281      7284      7281      7284      7287      7288
      7281      7284      7287      7289      7281      7284      7287      7290
      7282      7281      7284      7285      7282      7281      7284      7286
      7282      7281      7284      7287      7283      7281      7284      7285
      7283      7281      7284      7286      7283      7281      7284      7287
      7284      7287      7290      7291      7284      7287      7290      7292
      7284      7287      7290      7293      7285      7284      7287      7288
      7285      7284      7287      7289      7285      7284      7287      7290
      7286      7284      7287      7288      7286      7284      7287      7289
      7286      7284      7287      7290      7288      7287      7290      7291
      7288      7287      7290      7292      7288      7287      7290      7293
      7289      7287      7290      7291      7289      7287      7290      7292
      7289      7287      7290      7293      7294      7297      7300      7301
      7294      7297      7300      7302      7294      7297      7300      7303
      7295      7294      7297      7298      7295      7294      7297      7299
      7295      7294      7297      7300      7296      7294      7297      7298
      7296      7294      7297      7299      7296      7294      7297      7300
      7297      7300      7303      7304      7297      7300      7303      7305
      7297      7300      7303      7306      7298      7297      7300      7301
      7298      7297      7300      7302      7298      7297      7300      7303
      7299      7297      7300      7301      7299      7297      7300      7302
      7299      7297      7300      7303      7300      7303      7306      7307
      7300      7303      7306      7308      7300      7303      7306      7309
      7301      7300      7303      7304      7301      7300      7303      7305
      7301      7300      7303      7306      7302      7300      7303      7304
      7302      7300      7303      7305      7302      7300      7303      7306
      7303      7306      7309      7310      7303      7306      7309      7311
      7303      7306      7309      7312      7304      7303      7306      7307
      7304      7303      7306      7308      7304      7303      7306      7309
      7305      7303      7306      7307      7305      7303      7306      7308
      7305      7303      7306      7309      7306      7309      7312      7313
      7306      7309      7312      7314      7306      7309      7312      7315
      7307      7306      7309      7310      7307      7306      7309      7311
      7307      7306      7309      7312      7308      7306      7309      7310
      7308      7306      7309      7311      7308      7306      7309      7312
      7309      7312      7315      7316      7309      7312      7315      7317
      7309      7312      7315      7318      7310      7309      7312      7313
      7310      7309      7312      7314      7310      7309      7312      7315
      7311      7309      7312      7313      7311      7309      7312      7314
      7311      7309      7312      7315      7312      7315      7318      7319
      7312      7315      7318      7320      7312      7315      7318      7321
      7313      7312      7315      7316      7313      7312      7315      7317
      7313      7312      7315      7318      7314      7312      7315      7316
      7314      7312      7315      7317      7314      7312      7315      7318
      7315      7318      7321      7322      7315      7318      7321      7323
      7315      7318      7321      7324      7316      7315      7318      7319
      7316      7315      7318      7320      7316      7315      7318      7321
      7317      7315      7318      7319      7317      7315      7318      7320
      7317      7315      7318      7321      7318      7321      7324      7325
      7318      7321      7324      7326      7318      7321      7324      7327
      7319      7318      7321      7322      7319      7318      7321      7323
      7319      7318      7321      7324      7320      7318      7321      7322
      7320      7318      7321      7323      7320      7318      7321      7324
      7321      7324      7327      7328      7321      7324      7327      7329
      7321      7324      7327      7330      7322      7321      7324      7325
      7322      7321      7324      7326      7322      7321      7324      7327
      7323      7321      7324      7325      7323      7321      7324      7326
      7323      7321      7324      7327      7324      7327      7330      7331
      7324      7327      7330      7332      7324      7327      7330      7333
      7325      7324      7327      7328      7325      7324      7327      7329
      7325      7324      7327      7330      7326      7324      7327      7328
      7326      7324      7327      7329      7326      7324      7327      7330
      7327      7330      7333      7334      7327      7330      7333      7335
      7327      7330      7333      7336      7328      7327      7330      7331
      7328      7327      7330      7332      7328      7327      7330      7333
      7329      7327      7330      7331      7329      7327      7330      7332
      7329      7327      7330      7333      7330      7333      7336      7337
      7330      7333      7336      7338      7330      7333      7336      7339
      7331      7330      7333      7334      7331      7330      7333      7335
      7331      7330      7333      7336      7332      7330      7333      7334
      7332      7330      7333      7335      7332      7330      7333      7336
      7333      7336      7339      7340      7333      7336      7339      7341
      7333      7336      7339      7342      7334      7333      7336      7337
      7334      7333      7336      7338      7334      7333      7336      7339
      7335      7333      7336      7337      7335      7333      7336      7338
      7335      7333      7336      7339      7337      7336      7339      7340
      7337      7336      7339      7341      7337      7336      7339      7342
      7338      7336      7339      7340      7338      7336      7339      7341
      7338      7336      7339      7342      3627      3631      3634      3635
      3627      3631      3634      3665      3627      3673      3670      3665
      3627      3673      3670      3671      3627      3673      3670      3672
      3628      3627      3629      3630      3628      3627      3631      3632
      3628      3627      3631      3633      3628      3627      3631      3634
      3628      3627      3673      3670      3628      3627      3673      3674
      3628      3627      3673      3675      3629      3627      3631      3632
      3629      3627      3631      3633      3629      3627      3631      3634
      3629      3627      3673      3670      3629      3627      3673      3674
      3629      3627      3673      3675      3630      3629      3627      3631
      3630      3629      3627      3673      3631      3627      3673      3670
      3631      3627      3673      3674      3631      3627      3673      3675
      3631      3634      3635      3636      3631      3634      3635      3637
      3631      3634      3665      3663      3631      3634      3665      3666
      3631      3634      3665      3670      3632      3631      3627      3673
      3632      3631      3634      3635      3632      3631      3634      3665
      3633      3631      3627      3673      3633      3631      3634      3635
      3633      3631      3634      3665      3634      3631      3627      3673
      3634      3635      3637      3638      3634      3635      3637      3639
      3634      3635      3637      3640      3634      3665      3663      3640
      3634      3665      3663      3660      3634      3665      3663      3664
      3634      3665      3666      3667      3634      3665      3666      3668
      3634      3665      3666      3669      3634      3665      3670      3671
      3634      3665      3670      3672      3634      3665      3670      3673
      3635      3634      3665      3663      3635      3634      3665      3666
      3635      3634      3665      3670      3635      3637      3640      3641
      3635      3637      3640      3642      3635      3637      3640      3663
      3636      3635      3634      3665      3636      3635      3637      3638
      3636      3635      3637      3639      3636      3635      3637      3640
      3637      3635      3634      3665      3637      3640      3642      3643
      3637      3640      3642      3644      3637      3640      3642      3652
      3637      3640      3663      3660      3637      3640      3663      3664
      3637      3640      3663      3665      3638      3637      3640      3641
      3638      3637      3640      3642      3638      3637      3640      3663
      3639      3637      3640      3641      3639      3637      3640      3642
      3639      3637      3640      3663      3640      3642      3644      3645
      3640      3642      3644      3646      3640      3642      3644      3647
      3640      3642      3652      3650      3640      3642      3652      3653
      3640      3642      3652      3657      3640      3663      3660      3657
      3640      3663      3660      3661      3640      3663      3660      3662
      3640      3663      3665      3666      3640      3663      3665      3670
      3641      3640      3642      3643      3641      3640      3642      3644
      3641      3640      3642      3652      3641      3640      3663      3660
      3641      3640      3663      3664      3641      3640      3663      3665
      3642      3640      3663      3660      3642      3640      3663      3664
      3642      3640      3663      3665      3642      3644      3647      3648
      3642      3644      3647      3649      3642      3644      3647      3650
      3642      3652      3650      3647      3642      3652      3650      3651
      3642      3652      3650      3676      3642      3652      3653      3654
      3642      3652      3653      3655      3642      3652      3653      3656
      3642      3652      3657      3658      3642      3652      3657      3659
      3642      3652      3657      3660      3643      3642      3640      3663
      3643      3642      3644      3645      3643      3642      3644      3646
      3643      3642      3644      3647      3643      3642      3652      3650
      3643      3642      3652      3653      3643      3642      3652      3657
      3644      3642      3640      3663      3644      3642      3652      3650
      3644      3642      3652      3653      3644      3642      3652      3657
      3644      3647      3650      3651      3644      3647      3650      3652
      3644      3647      3650      3676      3645      3644      3642      3652
      3645      3644      3647      3648      3645      3644      3647      3649
      3645      3644      3647      3650      3646      3644      3642      3652
      3646      3644      3647      3648      3646      3644      3647      3649
      3646      3644      3647      3650      3647      3644      3642      3652
      3647      3650      3652      3653      3647      3650      3652      3657
      3647      3650      3676      3677      3647      3650      3676      3678
      3647      3650      3676      3682      3648      3647      3650      3651
      3648      3647      3650      3652      3648      3647      3650      3676
      3649      3647      3650      3651      3649      3647      3650      3652
      3649      3647      3650      3676      3650      3652      3653      3654
      3650      3652      3653      3655      3650      3652      3653      3656
      3650      3652      3657      3658      3650      3652      3657      3659
      3650      3652      3657      3660      3650      3676      3678      3679
      3650      3676      3678      3680      3650      3676      3678      3681
      3650      3676      3682      3683      3650      3676      3682      3684
      3650      3676      3682      3685      3651      3650      3652      3653
      3651      3650      3652      3657      3651      3650      3676      3677
      3651      3650      3676      3678      3651      3650      3676      3682
      3652      3642      3640      3663      3652      3650      3676      3677
      3652      3650      3676      3678      3652      3650      3676      3682
      3652      3657      3660      3661      3652      3657      3660      3662
      3652      3657      3660      3663      3653      3652      3650      3676
      3653      3652      3657      3658      3653      3652      3657      3659
      3653      3652      3657      3660      3654      3653      3652      3657
      3655      3653      3652      3657      3656      3653      3652      3657
      3657      3652      3650      3676      3657      3660      3663      3664
      3657      3660      3663      3665      3658      3657      3660      3661
      3658      3657      3660      3662      3658      3657      3660      3663
      3659      3657      3660      3661      3659      3657      3660      3662
      3659      3657      3660      3663      3660      3663      3665      3666
      3660      3663      3665      3670      3661      3660      3663      3664
      3661      3660      3663      3665      3662      3660      3663      3664
      3662      3660      3663      3665      3663      3665      3666      3667
      3663      3665      3666      3668      3663      3665      3666      3669
      3663      3665      3670      3671      3663      3665      3670      3672
      3663      3665      3670      3673      3664      3663      3665      3666
      3664      3663      3665      3670      3665      3670      3673      3674
      3665      3670      3673      3675      3666      3665      3670      3671
      3666      3665      3670      3672      3666      3665      3670      3673
      3667      3666      3665      3670      3668      3666      3665      3670
      3669      3666      3665      3670      3671      3670      3673      3674
      3671      3670      3673      3675      3672      3670      3673      3674
      3672      3670      3673      3675      3676      3682      3685      3686
      3676      3682      3685      3687      3676      3682      3685      3688
      3677      3676      3678      3679      3677      3676      3678      3680
      3677      3676      3678      3681      3677      3676      3682      3683
      3677      3676      3682      3684      3677      3676      3682      3685
      3678      3676      3682      3683      3678      3676      3682      3684
      3678      3676      3682      3685      3679      3678      3676      3682
      3680      3678      3676      3682      3681      3678      3676      3682
      3682      3685      3688      3689      3682      3685      3688      3690
      3682      3685      3688      3691      3683      3682      3685      3686
      3683      3682      3685      3687      3683      3682      3685      3688
      3684      3682      3685      3686      3684      3682      3685      3687
      3684      3682      3685      3688      3685      3688      3691      3692
      3685      3688      3691      3693      3685      3688      3691      3697
      3686      3685      3688      3689      3686      3685      3688      3690
      3686      3685      3688      3691      3687      3685      3688      3689
      3687      3685      3688      3690      3687      3685      3688      3691
      3688      3691      3693      3694      3688      3691      3693      3695
      3688      3691      3693      3696      3688      3691      3697      3698
      3688      3691      3697      3699      3688      3691      3697      3700
      3689      3688      3691      3692      3689      3688      3691      3693
      3689      3688      3691      3697      3690      3688      3691      3692
      3690      3688      3691      3693      3690      3688      3691      3697
      3692      3691      3693      3694      3692      3691      3693      3695
      3692      3691      3693      3696      3692      3691      3697      3698
      3692      3691      3697      3699      3692      3691      3697      3700
      3693      3691      3697      3698      3693      3691      3697      3699
      3693      3691      3697      3700      3694      3693      3691      3697
      3695      3693      3691      3697      3696      3693      3691      3697
      3701      3705      3708      3709      3701      3705      3708      3739
      3701      3747      3744      3739      3701      3747      3744      3745
      3701      3747      3744      3746      3702      3701      3703      3704
      3702      3701      3705      3706      3702      3701      3705      3707
      3702      3701      3705      3708      3702      3701      3747      3744
      3702      3701      3747      3748      3702      3701      3747      3749
      3703      3701      3705      3706      3703      3701      3705      3707
      3703      3701      3705      3708      3703      3701      3747      3744
      3703      3701      3747      3748      3703      3701      3747      3749
      3704      3703      3701      3705      3704      3703      3701      3747
      3705      3701      3747      3744      3705      3701      3747      3748
      3705      3701      3747      3749      3705      3708      3709      3710
      3705      3708      3709      3711      3705      3708      3739      3737
      3705      3708      3739      3740      3705      3708      3739      3744
      3706      3705      3701      3747      3706      3705      3708      3709
      3706      3705      3708      3739      3707      3705      3701      3747
      3707      3705      3708      3709      3707      3705      3708      3739
      3708      3705      3701      3747      3708      3709      3711      3712
      3708      3709      3711      3713      3708      3709      3711      3714
      3708      3739      3737      3714      3708      3739      3737      3734
      3708      3739      3737      3738      3708      3739      3740      3741
      3708      3739      3740      3742      3708      3739      3740      3743
      3708      3739      3744      3745      3708      3739      3744      3746
      3708      3739      3744      3747      3709      3708      3739      3737
      3709      3708      3739      3740      3709      3708      3739      3744
      3709      3711      3714      3715      3709      3711      3714      3716
      3709      3711      3714      3737      3710      3709      3708      3739
      3710      3709      3711      3712      3710      3709      3711      3713
      3710      3709      3711      3714      3711      3709      3708      3739
      3711      3714      3716      3717      3711      3714      3716      3718
      3711      3714      3716      3726      3711      3714      3737      3734
      3711      3714      3737      3738      3711      3714      3737      3739
      3712      3711      3714      3715      3712      3711      3714      3716
      3712      3711      3714      3737      3713      3711      3714      3715
      3713      3711      3714      3716      3713      3711      3714      3737
      3714      3716      3718      3719      3714      3716      3718      3720
      3714      3716      3718      3721      3714      3716      3726      3724
      3714      3716      3726      3727      3714      3716      3726      3731
      3714      3737      3734      3731      3714      3737      3734      3735
      3714      3737      3734      3736      3714      3737      3739      3740
      3714      3737      3739      3744      3715      3714      3716      3717
      3715      3714      3716      3718      3715      3714      3716      3726
      3715      3714      3737      3734      3715      3714      3737      3738
      3715      3714      3737      3739      3716      3714      3737      3734
      3716      3714      3737      3738      3716      3714      3737      3739
      3716      3718      3721      3722      3716      3718      3721      3723
      3716      3718      3721      3724      3716      3726      3724      3721
      3716      3726      3724      3725      3716      3726      3724      3750
      3716      3726      3727      3728      3716      3726      3727      3729
      3716      3726      3727      3730      3716      3726      3731      3732
      3716      3726      3731      3733      3716      3726      3731      3734
      3717      3716      3714      3737      3717      3716      3718      3719
      3717      3716      3718      3720      3717      3716      3718      3721
      3717      3716      3726      3724      3717      3716      3726      3727
      3717      3716      3726      3731      3718      3716      3714      3737
      3718      3716      3726      3724      3718      3716      3726      3727
      3718      3716      3726      3731      3718      3721      3724      3725
      3718      3721      3724      3726      3718      3721      3724      3750
      3719      3718      3716      3726      3719      3718      3721      3722
      3719      3718      3721      3723      3719      3718      3721      3724
      3720      3718      3716      3726      3720      3718      3721      3722
      3720      3718      3721      3723      3720      3718      3721      3724
      3721      3718      3716      3726      3721      3724      3726      3727
      3721      3724      3726      3731      3721      3724      3750      3751
      3721      3724      3750      3752      3721      3724      3750      3756
      3722      3721      3724      3725      3722      3721      3724      3726
      3722      3721      3724      3750      3723      3721      3724      3725
      3723      3721      3724      3726      3723      3721      3724      3750
      3724      3726      3727      3728      3724      3726      3727      3729
      3724      3726      3727      3730      3724      3726      3731      3732
      3724      3726      3731      3733      3724      3726      3731      3734
      3724      3750      3752      3753      3724      3750      3752      3754
      3724      3750      3752      3755      3724      3750      3756      3757
      3724      3750      3756      3758      3724      3750      3756      3759
      3725      3724      3726      3727      3725      3724      3726      3731
      3725      3724      3750      3751      3725      3724      3750      3752
      3725      3724      3750      3756      3726      3716      3714      3737
      3726      3724      3750      3751      3726      3724      3750      3752
      3726      3724      3750      3756      3726      3731      3734      3735
      3726      3731      3734      3736      3726      3731      3734      3737
      3727      3726      3724      3750      3727      3726      3731      3732
      3727      3726      3731      3733      3727      3726      3731      3734
      3728      3727      3726      3731      3729      3727      3726      3731
      3730      3727      3726      3731      3731      3726      3724      3750
      3731      3734      3737      3738      3731      3734      3737      3739
      3732      3731      3734      3735      3732      3731      3734      3736
      3732      3731      3734      3737      3733      3731      3734      3735
      3733      3731      3734      3736      3733      3731      3734      3737
      3734      3737      3739      3740      3734      3737      3739      3744
      3735      3734      3737      3738      3735      3734      3737      3739
      3736      3734      3737      3738      3736      3734      3737      3739
      3737      3739      3740      3741      3737      3739      3740      3742
      3737      3739      3740      3743      3737      3739      3744      3745
      3737      3739      3744      3746      3737      3739      3744      3747
      3738      3737      3739      3740      3738      3737      3739      3744
      3739      3744      3747      3748      3739      3744      3747      3749
      3740      3739      3744      3745      3740      3739      3744      3746
      3740      3739      3744      3747      3741      3740      3739      3744
      3742      3740      3739      3744      3743      3740      3739      3744
      3745      3744      3747      3748      3745      3744      3747      3749
      3746      3744      3747      3748      3746      3744      3747      3749
      3750      3756      3759      3760      3750      3756      3759      3761
      3750      3756      3759      3762      3751      3750      3752      3753
      3751      3750      3752      3754      3751      3750      3752      3755
      3751      3750      3756      3757      3751      3750      3756      3758
      3751      3750      3756      3759      3752      3750      3756      3757
      3752      3750      3756      3758      3752      3750      3756      3759
      3753      3752      3750      3756      3754      3752      3750      3756
      3755      3752      3750      3756      3756      3759      3762      3763
      3756      3759      3762      3764      3756      3759      3762      3765
      3757      3756      3759      3760      3757      3756      3759      3761
      3757      3756      3759      3762      3758      3756      3759      3760
      3758      3756      3759      3761      3758      3756      3759      3762
      3759      3762      3765      3766      3759      3762      3765      3767
      3759      3762      3765      3771      3760      3759      3762      3763
      3760      3759      3762      3764      3760      3759      3762      3765
      3761      3759      3762      3763      3761      3759      3762      3764
      3761      3759      3762      3765      3762      3765      3767      3768
      3762      3765      3767      3769      3762      3765      3767      3770
      3762      3765      3771      3772      3762      3765      3771      3773
      3762      3765      3771      3774      3763      3762      3765      3766
      3763      3762      3765      3767      3763      3762      3765      3771
      3764      3762      3765      3766      3764      3762      3765      3767
      3764      3762      3765      3771      3766      3765      3767      3768
      3766      3765      3767      3769      3766      3765      3767      3770
      3766      3765      3771      3772      3766      3765      3771      3773
      3766      3765      3771      3774      3767      3765      3771      3772
      3767      3765      3771      3773      3767      3765      3771      3774
      3768      3767      3765      3771      3769      3767      3765      3771
      3770      3767      3765      3771     18918     18922     18925     18926
     18918     18922     18925     18927     18918     18922     18925     18931
     18919     18918     18922     18923     18919     18918     18922     18924
     18919     18918     18922     18925     18920     18918     18922     18923
     18920     18918     18922     18924     18920     18918     18922     18925
     18921     18918     18922     18923     18921     18918     18922     18924
     18921     18918     18922     18925     18922     18925     18931     18928
     18923     18922     18925     18926     18923     18922     18925     18927
     18923     18922     18925     18931     18924     18922     18925     18926
     18924     18922     18925     18927     18924     18922     18925     18931
     18925     18931     18928     18929     18925     18931     18928     18930
     18925     18931     18928     18932     18926     18925     18931     18928
     18927     18925     18931     18928     18928     18932     18933     18934
     18928     18932     18933     18935     18928     18932     18933     18936
     18929     18928     18932     18933     18930     18928     18932     18933
     18931     18928     18932     18933     18932     18933     18936     18937
     18932     18933     18936     18938     18932     18933     18936     18944
     18933     18936     18938     18939     18933     18936     18944     18945
     18933     18936     18944     18946     18933     18936     18944     18947
     18934     18933     18936     18937     18934     18933     18936     18938
     18934     18933     18936     18944     18935     18933     18936     18937
     18935     18933     18936     18938     18935     18933     18936     18944
     18936     18938     18939     18940     18936     18938     18939     18941
     18936     18944     18947     18948     18937     18936     18938     18939
     18937     18936     18944     18945     18937     18936     18944     18946
     18937     18936     18944     18947     18938     18936     18944     18945
     18938     18936     18944     18946     18938     18936     18944     18947
     18938     18939     18941     18942     18938     18939     18941     18943
     18938     18939     18941     18953     18939     18938     18936     18944
     18939     18941     18953     18954     18939     18941     18953     18955
     18939     18941     18953     18956     18940     18939     18941     18942
     18940     18939     18941     18943     18940     18939     18941     18953
     18941     18953     18956     18957     18941     18953     18956     18958
     18941     18953     18956     18959     18942     18941     18953     18954
     18942     18941     18953     18955     18942     18941     18953     18956
     18943     18941     18953     18954     18943     18941     18953     18955
     18943     18941     18953     18956     18944     18947     18948     18949
     18944     18947     18948     18950     18945     18944     18947     18948
     18946     18944     18947     18948     18947     18948     18950     18951
     18947     18948     18950     18952     18947     18948     18950     19000
     18948     18950     19000     19001     18948     18950     19000     19002
     18948     18950     19000     19003     18949     18948     18950     18951
     18949     18948     18950     18952     18949     18948     18950     19000
     18950     19000     19003     19004     18950     19000     19003     19005
     18950     19000     19003     19006     18951     18950     19000     19001
     18951     18950     19000     19002     18951     18950     19000     19003
     18952     18950     19000     19001     18952     18950     19000     19002
     18952     18950     19000     19003     18953     18956     18959     18960
     18953     18956     18959     18961     18954     18953     18956     18957
     18954     18953     18956     18958     18954     18953     18956     18959
     18955     18953     18956     18957     18955     18953     18956     18958
     18955     18953     18956     18959     18956     18959     18961     18962
     18956     18959     18961     18963     18957     18956     18959     18960
     18957     18956     18959     18961     18958     18956     18959     18960
     18958     18956     18959     18961     18959     18961     18963     18964
     18959     18961     18963     18965     18959     18961     18963     18966
     18960     18959     18961     18962     18960     18959     18961     18963
     18961     18963     18966     18967     18961     18963     18966     18968
     18962     18961     18963     18964     18962     18961     18963     18965
     18962     18961     18963     18966     18963     18966     18968     18969
     18963     18966     18968     18970     18964     18963     18966     18967
     18964     18963     18966     18968     18965     18963     18966     18967
     18965     18963     18966     18968     18966     18968     18970     18971
     18966     18968     18970     18972     18966     18968     18970     18973
     18967     18966     18968     18969     18967     18966     18968     18970
     18968     18970     18973     18974     18968     18970     18973     18975
     18969     18968     18970     18971     18969     18968     18970     18972
     18969     18968     18970     18973     18970     18973     18975     18976
     18970     18973     18975     18977     18971     18970     18973     18974
     18971     18970     18973     18975     18972     18970     18973     18974
     18972     18970     18973     18975     18973     18975     18977     18978
     18973     18975     18977     18979     18973     18975     18977     18980
     18974     18973     18975     18976     18974     18973     18975     18977
     18975     18977     18980     18981     18975     18977     18980     18982
     18976     18975     18977     18978     18976     18975     18977     18979
     18976     18975     18977     18980     18977     18980     18982     18983
     18977     18980     18982     18984     18978     18977     18980     18981
     18978     18977     18980     18982     18979     18977     18980     18981
     18979     18977     18980     18982     18980     18982     18984     18985
     18980     18982     18984     18986     18980     18982     18984     18987
     18981     18980     18982     18983     18981     18980     18982     18984
     18982     18984     18987     18988     18982     18984     18987     18989
     18982     18984     18987     18990     18983     18982     18984     18985
     18983     18982     18984     18986     18983     18982     18984     18987
     18984     18987     18990     18991     18984     18987     18990     18992
     18984     18987     18990     18993     18985     18984     18987     18988
     18985     18984     18987     18989     18985     18984     18987     18990
     18986     18984     18987     18988     18986     18984     18987     18989
     18986     18984     18987     18990     18987     18990     18993     18994
     18987     18990     18993     18995     18987     18990     18993     18996
     18988     18987     18990     18991     18988     18987     18990     18992
     18988     18987     18990     18993     18989     18987     18990     18991
     18989     18987     18990     18992     18989     18987     18990     18993
     18990     18993     18996     18997     18990     18993     18996     18998
     18990     18993     18996     18999     18991     18990     18993     18994
     18991     18990     18993     18995     18991     18990     18993     18996
     18992     18990     18993     18994     18992     18990     18993     18995
     18992     18990     18993     18996     18994     18993     18996     18997
     18994     18993     18996     18998     18994     18993     18996     18999
     18995     18993     18996     18997     18995     18993     18996     18998
     18995     18993     18996     18999     19000     19003     19006     19007
     19000     19003     19006     19008     19000     19003     19006     19009
     19001     19000     19003     19004     19001     19000     19003     19005
     19001     19000     19003     19006     19002     19000     19003     19004
     19002     19000     19003     19005     19002     19000     19003     19006
     19003     19006     19009     19010     19003     19006     19009     19011
     19003     19006     19009     19012     19004     19003     19006     19007
     19004     19003     19006     19008     19004     19003     19006     19009
     19005     19003     19006     19007     19005     19003     19006     19008
     19005     19003     19006     19009     19006     19009     19012     19013
     19006     19009     19012     19014     19006     19009     19012     19015
     19007     19006     19009     19010     19007     19006     19009     19011
     19007     19006     19009     19012     19008     19006     19009     19010
     19008     19006     19009     19011     19008     19006     19009     19012
     19009     19012     19015     19016     19009     19012     19015     19017
     19009     19012     19015     19018     19010     19009     19012     19013
     19010     19009     19012     19014     19010     19009     19012     19015
     19011     19009     19012     19013     19011     19009     19012     19014
     19011     19009     19012     19015     19012     19015     19018     19019
     19012     19015     19018     19020     19012     19015     19018     19021
     19013     19012     19015     19016     19013     19012     19015     19017
     19013     19012     19015     19018     19014     19012     19015     19016
     19014     19012     19015     19017     19014     19012     19015     19018
     19015     19018     19021     19022     19015     19018     19021     19023
     19015     19018     19021     19024     19016     19015     19018     19019
     19016     19015     19018     19020     19016     19015     19018     19021
     19017     19015     19018     19019     19017     19015     19018     19020
     19017     19015     19018     19021     19018     19021     19024     19025
     19018     19021     19024     19026     19018     19021     19024     19027
     19019     19018     19021     19022     19019     19018     19021     19023
     19019     19018     19021     19024     19020     19018     19021     19022
     19020     19018     19021     19023     19020     19018     19021     19024
     19021     19024     19027     19028     19021     19024     19027     19029
     19021     19024     19027     19030     19022     19021     19024     19025
     19022     19021     19024     19026     19022     19021     19024     19027
     19023     19021     19024     19025     19023     19021     19024     19026
     19023     19021     19024     19027     19024     19027     19030     19031
     19024     19027     19030     19032     19024     19027     19030     19033
     19025     19024     19027     19028     19025     19024     19027     19029
     19025     19024     19027     19030     19026     19024     19027     19028
     19026     19024     19027     19029     19026     19024     19027     19030
     19027     19030     19033     19034     19027     19030     19033     19035
     19027     19030     19033     19036     19028     19027     19030     19031
     19028     19027     19030     19032     19028     19027     19030     19033
     19029     19027     19030     19031     19029     19027     19030     19032
     19029     19027     19030     19033     19030     19033     19036     19037
     19030     19033     19036     19038     19030     19033     19036     19039
     19031     19030     19033     19034     19031     19030     19033     19035
     19031     19030     19033     19036     19032     19030     19033     19034
     19032     19030     19033     19035     19032     19030     19033     19036
     19033     19036     19039     19040     19033     19036     19039     19041
     19033     19036     19039     19042     19034     19033     19036     19037
     19034     19033     19036     19038     19034     19033     19036     19039
     19035     19033     19036     19037     19035     19033     19036     19038
     19035     19033     19036     19039     19036     19039     19042     19043
     19036     19039     19042     19044     19036     19039     19042     19045
     19037     19036     19039     19040     19037     19036     19039     19041
     19037     19036     19039     19042     19038     19036     19039     19040
     19038     19036     19039     19041     19038     19036     19039     19042
     19039     19042     19045     19046     19039     19042     19045     19047
     19039     19042     19045     19048     19040     19039     19042     19043
     19040     19039     19042     19044     19040     19039     19042     19045
     19041     19039     19042     19043     19041     19039     19042     19044
     19041     19039     19042     19045     19043     19042     19045     19046
     19043     19042     19045     19047     19043     19042     19045     19048
     19044     19042     19045     19046     19044     19042     19045     19047
     19044     19042     19045     19048      3775      3779      3782      3783
      3775      3779      3782      3813      3775      3821      3818      3813
      3775      3821      3818      3819      3775      3821      3818      3820
      3776      3775      3777      3778      3776      3775      3779      3780
      3776      3775      3779      3781      3776      3775      3779      3782
      3776      3775      3821      3818      3776      3775      3821      3822
      3776      3775      3821      3823      3777      3775      3779      3780
      3777      3775      3779      3781      3777      3775      3779      3782
      3777      3775      3821      3818      3777      3775      3821      3822
      3777      3775      3821      3823      3778      3777      3775      3779
      3778      3777      3775      3821      3779      3775      3821      3818
      3779      3775      3821      3822      3779      3775      3821      3823
      3779      3782      3783      3784      3779      3782      3783      3785
      3779      3782      3813      3811      3779      3782      3813      3814
      3779      3782      3813      3818      3780      3779      3775      3821
      3780      3779      3782      3783      3780      3779      3782      3813
      3781      3779      3775      3821      3781      3779      3782      3783
      3781      3779      3782      3813      3782      3779      3775      3821
      3782      3783      3785      3786      3782      3783      3785      3787
      3782      3783      3785      3788      3782      3813      3811      3788
      3782      3813      3811      3808      3782      3813      3811      3812
      3782      3813      3814      3815      3782      3813      3814      3816
      3782      3813      3814      3817      3782      3813      3818      3819
      3782      3813      3818      3820      3782      3813      3818      3821
      3783      3782      3813      3811      3783      3782      3813      3814
      3783      3782      3813      3818      3783      3785      3788      3789
      3783      3785      3788      3790      3783      3785      3788      3811
      3784      3783      3782      3813      3784      3783      3785      3786
      3784      3783      3785      3787      3784      3783      3785      3788
      3785      3783      3782      3813      3785      3788      3790      3791
      3785      3788      3790      3792      3785      3788      3790      3800
      3785      3788      3811      3808      3785      3788      3811      3812
      3785      3788      3811      3813      3786      3785      3788      3789
      3786      3785      3788      3790      3786      3785      3788      3811
      3787      3785      3788      3789      3787      3785      3788      3790
      3787      3785      3788      3811      3788      3790      3792      3793
      3788      3790      3792      3794      3788      3790      3792      3795
      3788      3790      3800      3798      3788      3790      3800      3801
      3788      3790      3800      3805      3788      3811      3808      3805
      3788      3811      3808      3809      3788      3811      3808      3810
      3788      3811      3813      3814      3788      3811      3813      3818
      3789      3788      3790      3791      3789      3788      3790      3792
      3789      3788      3790      3800      3789      3788      3811      3808
      3789      3788      3811      3812      3789      3788      3811      3813
      3790      3788      3811      3808      3790      3788      3811      3812
      3790      3788      3811      3813      3790      3792      3795      3796
      3790      3792      3795      3797      3790      3792      3795      3798
      3790      3800      3798      3795      3790      3800      3798      3799
      3790      3800      3798      3824      3790      3800      3801      3802
      3790      3800      3801      3803      3790      3800      3801      3804
      3790      3800      3805      3806      3790      3800      3805      3807
      3790      3800      3805      3808      3791      3790      3788      3811
      3791      3790      3792      3793      3791      3790      3792      3794
      3791      3790      3792      3795      3791      3790      3800      3798
      3791      3790      3800      3801      3791      3790      3800      3805
      3792      3790      3788      3811      3792      3790      3800      3798
      3792      3790      3800      3801      3792      3790      3800      3805
      3792      3795      3798      3799      3792      3795      3798      3800
      3792      3795      3798      3824      3793      3792      3790      3800
      3793      3792      3795      3796      3793      3792      3795      3797
      3793      3792      3795      3798      3794      3792      3790      3800
      3794      3792      3795      3796      3794      3792      3795      3797
      3794      3792      3795      3798      3795      3792      3790      3800
      3795      3798      3800      3801      3795      3798      3800      3805
      3795      3798      3824      3825      3795      3798      3824      3826
      3795      3798      3824      3830      3796      3795      3798      3799
      3796      3795      3798      3800      3796      3795      3798      3824
      3797      3795      3798      3799      3797      3795      3798      3800
      3797      3795      3798      3824      3798      3800      3801      3802
      3798      3800      3801      3803      3798      3800      3801      3804
      3798      3800      3805      3806      3798      3800      3805      3807
      3798      3800      3805      3808      3798      3824      3826      3827
      3798      3824      3826      3828      3798      3824      3826      3829
      3798      3824      3830      3831      3798      3824      3830      3832
      3798      3824      3830      3833      3799      3798      3800      3801
      3799      3798      3800      3805      3799      3798      3824      3825
      3799      3798      3824      3826      3799      3798      3824      3830
      3800      3790      3788      3811      3800      3798      3824      3825
      3800      3798      3824      3826      3800      3798      3824      3830
      3800      3805      3808      3809      3800      3805      3808      3810
      3800      3805      3808      3811      3801      3800      3798      3824
      3801      3800      3805      3806      3801      3800      3805      3807
      3801      3800      3805      3808      3802      3801      3800      3805
      3803      3801      3800      3805      3804      3801      3800      3805
      3805      3800      3798      3824      3805      3808      3811      3812
      3805      3808      3811      3813      3806      3805      3808      3809
      3806      3805      3808      3810      3806      3805      3808      3811
      3807      3805      3808      3809      3807      3805      3808      3810
      3807      3805      3808      3811      3808      3811      3813      3814
      3808      3811      3813      3818      3809      3808      3811      3812
      3809      3808      3811      3813      3810      3808      3811      3812
      3810      3808      3811      3813      3811      3813      3814      3815
      3811      3813      3814      3816      3811      3813      3814      3817
      3811      3813      3818      3819      3811      3813      3818      3820
      3811      3813      3818      3821      3812      3811      3813      3814
      3812      3811      3813      3818      3813      3818      3821      3822
      3813      3818      3821      3823      3814      3813      3818      3819
      3814      3813      3818      3820      3814      3813      3818      3821
      3815      3814      3813      3818      3816      3814      3813      3818
      3817      3814      3813      3818      3819      3818      3821      3822
      3819      3818      3821      3823      3820      3818      3821      3822
      3820      3818      3821      3823      3824      3830      3833      3834
      3824      3830      3833      3835      3824      3830      3833      3836
      3825      3824      3826      3827      3825      3824      3826      3828
      3825      3824      3826      3829      3825      3824      3830      3831
      3825      3824      3830      3832      3825      3824      3830      3833
      3826      3824      3830      3831      3826      3824      3830      3832
      3826      3824      3830      3833      3827      3826      3824      3830
      3828      3826      3824      3830      3829      3826      3824      3830
      3830      3833      3836      3837      3830      3833      3836      3838
      3830      3833      3836      3839      3831      3830      3833      3834
      3831      3830      3833      3835      3831      3830      3833      3836
      3832      3830      3833      3834      3832      3830      3833      3835
      3832      3830      3833      3836      3833      3836      3839      3840
      3833      3836      3839      3841      3833      3836      3839      3845
      3834      3833      3836      3837      3834      3833      3836      3838
      3834      3833      3836      3839      3835      3833      3836      3837
      3835      3833      3836      3838      3835      3833      3836      3839
      3836      3839      3841      3842      3836      3839      3841      3843
      3836      3839      3841      3844      3836      3839      3845      3846
      3836      3839      3845      3847      3836      3839      3845      3848
      3837      3836      3839      3840      3837      3836      3839      3841
      3837      3836      3839      3845      3838      3836      3839      3840
      3838      3836      3839      3841      3838      3836      3839      3845
      3840      3839      3841      3842      3840      3839      3841      3843
      3840      3839      3841      3844      3840      3839      3845      3846
      3840      3839      3845      3847      3840      3839      3845      3848
      3841      3839      3845      3846      3841      3839      3845      3847
      3841      3839      3845      3848      3842      3841      3839      3845
      3843      3841      3839      3845      3844      3841      3839      3845
     15250     15263     15266     15267     15250     15263     15266     15268
     15250     15263     15266     15273     15251     15250     15255     15256
     15251     15250     15255     15257     15251     15250     15255     15258
     15251     15250     15259     15260     15251     15250     15259     15261
     15251     15250     15259     15262     15251     15250     15263     15264
     15251     15250     15263     15265     15251     15250     15263     15266
     15252     15251     15250     15255     15252     15251     15250     15259
     15252     15251     15250     15263     15253     15251     15250     15255
     15253     15251     15250     15259     15253     15251     15250     15263
     15254     15251     15250     15255     15254     15251     15250     15259
     15254     15251     15250     15263     15255     15250     15259     15260
     15255     15250     15259     15261     15255     15250     15259     15262
     15255     15250     15263     15264     15255     15250     15263     15265
     15255     15250     15263     15266     15256     15255     15250     15259
     15256     15255     15250     15263     15257     15255     15250     15259
     15257     15255     15250     15263     15258     15255     15250     15259
     15258     15255     15250     15263     15259     15250     15263     15264
     15259     15250     15263     15265     15259     15250     15263     15266
     15260     15259     15250     15263     15261     15259     15250     15263
     15262     15259     15250     15263     15263     15266     15273     15269
     15264     15263     15266     15267     15264     15263     15266     15268
     15264     15263     15266     15273     15265     15263     15266     15267
     15265     15263     15266     15268     15265     15263     15266     15273
     15266     15273     15269     15270     15266     15273     15269     15271
     15266     15273     15269     15272     15267     15266     15273     15269
     15268     15266     15273     15269     15269     15272     15274     15275
     15269     15272     15274     15276     15269     15272     15274     15279
     15270     15269     15272     15274     15271     15269     15272     15274
     15272     15274     15279     15277     15272     15274     15279     15280
     15272     15274     15279     15281     15273     15269     15272     15274
     15274     15279     15277     15278     15274     15279     15277     15329
     15274     15279     15281     15282     15274     15279     15281     15283
     15274     15279     15281     15285     15275     15274     15279     15277
     15275     15274     15279     15280     15275     15274     15279     15281
     15276     15274     15279     15277     15276     15274     15279     15280
     15276     15274     15279     15281     15277     15279     15281     15282
     15277     15279     15281     15283     15277     15279     15281     15285
     15277     15329     15331     15332     15277     15329     15331     15333
     15277     15329     15331     15334     15278     15277     15279     15280
     15278     15277     15279     15281     15278     15277     15329     15330
     15278     15277     15329     15331     15279     15277     15329     15330
     15279     15277     15329     15331     15279     15281     15283     15284
     15279     15281     15285     15286     15279     15281     15285     15287
     15280     15279     15277     15329     15280     15279     15281     15282
     15280     15279     15281     15283     15280     15279     15281     15285
     15281     15279     15277     15329     15281     15285     15287     15288
     15281     15285     15287     15289     15282     15281     15283     15284
     15282     15281     15285     15286     15282     15281     15285     15287
     15283     15281     15285     15286     15283     15281     15285     15287
     15284     15283     15281     15285     15285     15287     15289     15290
     15285     15287     15289     15291     15285     15287     15289     15292
     15286     15285     15287     15288     15286     15285     15287     15289
     15287     15289     15292     15293     15287     15289     15292     15294
     15287     15289     15292     15295     15288     15287     15289     15290
     15288     15287     15289     15291     15288     15287     15289     15292
     15289     15292     15295     15296     15289     15292     15295     15297
     15289     15292     15295     15298     15290     15289     15292     15293
     15290     15289     15292     15294     15290     15289     15292     15295
     15291     15289     15292     15293     15291     15289     15292     15294
     15291     15289     15292     15295     15292     15295     15298     15299
     15292     15295     15298     15300     15292     15295     15298     15301
     15293     15292     15295     15296     15293     15292     15295     15297
     15293     15292     15295     15298     15294     15292     15295     15296
     15294     15292     15295     15297     15294     15292     15295     15298
     15295     15298     15301     15302     15295     15298     15301     15303
     15295     15298     15301     15304     15296     15295     15298     15299
     15296     15295     15298     15300     15296     15295     15298     15301
     15297     15295     15298     15299     15297     15295     15298     15300
     15297     15295     15298     15301     15298     15301     15304     15305
     15298     15301     15304     15306     15298     15301     15304     15307
     15299     15298     15301     15302     15299     15298     15301     15303
     15299     15298     15301     15304     15300     15298     15301     15302
     15300     15298     15301     15303     15300     15298     15301     15304
     15301     15304     15307     15308     15301     15304     15307     15309
     15301     15304     15307     15310     15302     15301     15304     15305
     15302     15301     15304     15306     15302     15301     15304     15307
     15303     15301     15304     15305     15303     15301     15304     15306
     15303     15301     15304     15307     15304     15307     15310     15311
     15304     15307     15310     15312     15304     15307     15310     15313
     15305     15304     15307     15308     15305     15304     15307     15309
     15305     15304     15307     15310     15306     15304     15307     15308
     15306     15304     15307     15309     15306     15304     15307     15310
     15307     15310     15313     15314     15307     15310     15313     15315
     15307     15310     15313     15316     15308     15307     15310     15311
     15308     15307     15310     15312     15308     15307     15310     15313
     15309     15307     15310     15311     15309     15307     15310     15312
     15309     15307     15310     15313     15310     15313     15316     15317
     15310     15313     15316     15318     15310     15313     15316     15319
     15311     15310     15313     15314     15311     15310     15313     15315
     15311     15310     15313     15316     15312     15310     15313     15314
     15312     15310     15313     15315     15312     15310     15313     15316
     15313     15316     15319     15320     15313     15316     15319     15321
     15313     15316     15319     15322     15314     15313     15316     15317
     15314     15313     15316     15318     15314     15313     15316     15319
     15315     15313     15316     15317     15315     15313     15316     15318
     15315     15313     15316     15319     15316     15319     15322     15323
     15316     15319     15322     15324     15316     15319     15322     15325
     15317     15316     15319     15320     15317     15316     15319     15321
     15317     15316     15319     15322     15318     15316     15319     15320
     15318     15316     15319     15321     15318     15316     15319     15322
     15319     15322     15325     15326     15319     15322     15325     15327
     15319     15322     15325     15328     15320     15319     15322     15323
     15320     15319     15322     15324     15320     15319     15322     15325
     15321     15319     15322     15323     15321     15319     15322     15324
     15321     15319     15322     15325     15323     15322     15325     15326
     15323     15322     15325     15327     15323     15322     15325     15328
     15324     15322     15325     15326     15324     15322     15325     15327
     15324     15322     15325     15328     15329     15331     15334     15335
     15329     15331     15334     15336     15329     15331     15334     15337
     15330     15329     15331     15332     15330     15329     15331     15333
     15330     15329     15331     15334     15331     15334     15337     15338
     15331     15334     15337     15339     15331     15334     15337     15340
     15332     15331     15334     15335     15332     15331     15334     15336
     15332     15331     15334     15337     15333     15331     15334     15335
     15333     15331     15334     15336     15333     15331     15334     15337
     15334     15337     15340     15341     15334     15337     15340     15342
     15334     15337     15340     15343     15335     15334     15337     15338
     15335     15334     15337     15339     15335     15334     15337     15340
     15336     15334     15337     15338     15336     15334     15337     15339
     15336     15334     15337     15340     15337     15340     15343     15344
     15337     15340     15343     15345     15337     15340     15343     15346
     15338     15337     15340     15341     15338     15337     15340     15342
     15338     15337     15340     15343     15339     15337     15340     15341
     15339     15337     15340     15342     15339     15337     15340     15343
     15340     15343     15346     15347     15340     15343     15346     15348
     15340     15343     15346     15349     15341     15340     15343     15344
     15341     15340     15343     15345     15341     15340     15343     15346
     15342     15340     15343     15344     15342     15340     15343     15345
     15342     15340     15343     15346     15343     15346     15349     15350
     15343     15346     15349     15351     15343     15346     15349     15352
     15344     15343     15346     15347     15344     15343     15346     15348
     15344     15343     15346     15349     15345     15343     15346     15347
     15345     15343     15346     15348     15345     15343     15346     15349
     15346     15349     15352     15353     15346     15349     15352     15354
     15347     15346     15349     15350     15347     15346     15349     15351
     15347     15346     15349     15352     15348     15346     15349     15350
     15348     15346     15349     15351     15348     15346     15349     15352
     15349     15352     15354     15355     15349     15352     15354     15356
     15350     15349     15352     15353     15350     15349     15352     15354
     15351     15349     15352     15353     15351     15349     15352     15354
     15352     15354     15356     15357     15352     15354     15356     15358
     15352     15354     15356     15359     15353     15352     15354     15355
     15353     15352     15354     15356     15354     15356     15359     15360
     15354     15356     15359     15361     15354     15356     15359     15362
     15355     15354     15356     15357     15355     15354     15356     15358
     15355     15354     15356     15359     15356     15359     15362     15363
     15356     15359     15362     15364     15356     15359     15362     15365
     15357     15356     15359     15360     15357     15356     15359     15361
     15357     15356     15359     15362     15358     15356     15359     15360
     15358     15356     15359     15361     15358     15356     15359     15362
     15359     15362     15365     15366     15359     15362     15365     15367
     15359     15362     15365     15368     15360     15359     15362     15363
     15360     15359     15362     15364     15360     15359     15362     15365
     15361     15359     15362     15363     15361     15359     15362     15364
     15361     15359     15362     15365     15362     15365     15368     15369
     15362     15365     15368     15370     15362     15365     15368     15371
     15363     15362     15365     15366     15363     15362     15365     15367
     15363     15362     15365     15368     15364     15362     15365     15366
     15364     15362     15365     15367     15364     15362     15365     15368
     15365     15368     15371     15372     15365     15368     15371     15373
     15365     15368     15371     15374     15366     15365     15368     15369
     15366     15365     15368     15370     15366     15365     15368     15371
     15367     15365     15368     15369     15367     15365     15368     15370
     15367     15365     15368     15371     15368     15371     15374     15375
     15368     15371     15374     15376     15368     15371     15374     15377
     15369     15368     15371     15372     15369     15368     15371     15373
     15369     15368     15371     15374     15370     15368     15371     15372
     15370     15368     15371     15373     15370     15368     15371     15374
     15371     15374     15377     15378     15371     15374     15377     15379
     15371     15374     15377     15380     15372     15371     15374     15375
     15372     15371     15374     15376     15372     15371     15374     15377
     15373     15371     15374     15375     15373     15371     15374     15376
     15373     15371     15374     15377     15375     15374     15377     15378
     15375     15374     15377     15379     15375     15374     15377     15380
     15376     15374     15377     15378     15376     15374     15377     15379
     15376     15374     15377     15380     15381     15394     15397     15398
     15381     15394     15397     15399     15381     15394     15397     15404
     15382     15381     15386     15387     15382     15381     15386     15388
     15382     15381     15386     15389     15382     15381     15390     15391
     15382     15381     15390     15392     15382     15381     15390     15393
     15382     15381     15394     15395     15382     15381     15394     15396
     15382     15381     15394     15397     15383     15382     15381     15386
     15383     15382     15381     15390     15383     15382     15381     15394
     15384     15382     15381     15386     15384     15382     15381     15390
     15384     15382     15381     15394     15385     15382     15381     15386
     15385     15382     15381     15390     15385     15382     15381     15394
     15386     15381     15390     15391     15386     15381     15390     15392
     15386     15381     15390     15393     15386     15381     15394     15395
     15386     15381     15394     15396     15386     15381     15394     15397
     15387     15386     15381     15390     15387     15386     15381     15394
     15388     15386     15381     15390     15388     15386     15381     15394
     15389     15386     15381     15390     15389     15386     15381     15394
     15390     15381     15394     15395     15390     15381     15394     15396
     15390     15381     15394     15397     15391     15390     15381     15394
     15392     15390     15381     15394     15393     15390     15381     15394
     15394     15397     15404     15400     15395     15394     15397     15398
     15395     15394     15397     15399     15395     15394     15397     15404
     15396     15394     15397     15398     15396     15394     15397     15399
     15396     15394     15397     15404     15397     15404     15400     15401
     15397     15404     15400     15402     15397     15404     15400     15403
     15398     15397     15404     15400     15399     15397     15404     15400
     15400     15403     15405     15406     15400     15403     15405     15407
     15400     15403     15405     15410     15401     15400     15403     15405
     15402     15400     15403     15405     15403     15405     15410     15408
     15403     15405     15410     15411     15403     15405     15410     15412
     15404     15400     15403     15405     15405     15410     15408     15409
     15405     15410     15408     15460     15405     15410     15412     15413
     15405     15410     15412     15414     15405     15410     15412     15416
     15406     15405     15410     15408     15406     15405     15410     15411
     15406     15405     15410     15412     15407     15405     15410     15408
     15407     15405     15410     15411     15407     15405     15410     15412
     15408     15410     15412     15413     15408     15410     15412     15414
     15408     15410     15412     15416     15408     15460     15462     15463
     15408     15460     15462     15464     15408     15460     15462     15465
     15409     15408     15410     15411     15409     15408     15410     15412
     15409     15408     15460     15461     15409     15408     15460     15462
     15410     15408     15460     15461     15410     15408     15460     15462
     15410     15412     15414     15415     15410     15412     15416     15417
     15410     15412     15416     15418     15411     15410     15408     15460
     15411     15410     15412     15413     15411     15410     15412     15414
     15411     15410     15412     15416     15412     15410     15408     15460
     15412     15416     15418     15419     15412     15416     15418     15420
     15413     15412     15414     15415     15413     15412     15416     15417
     15413     15412     15416     15418     15414     15412     15416     15417
     15414     15412     15416     15418     15415     15414     15412     15416
     15416     15418     15420     15421     15416     15418     15420     15422
     15416     15418     15420     15423     15417     15416     15418     15419
     15417     15416     15418     15420     15418     15420     15423     15424
     15418     15420     15423     15425     15418     15420     15423     15426
     15419     15418     15420     15421     15419     15418     15420     15422
     15419     15418     15420     15423     15420     15423     15426     15427
     15420     15423     15426     15428     15420     15423     15426     15429
     15421     15420     15423     15424     15421     15420     15423     15425
     15421     15420     15423     15426     15422     15420     15423     15424
     15422     15420     15423     15425     15422     15420     15423     15426
     15423     15426     15429     15430     15423     15426     15429     15431
     15423     15426     15429     15432     15424     15423     15426     15427
     15424     15423     15426     15428     15424     15423     15426     15429
     15425     15423     15426     15427     15425     15423     15426     15428
     15425     15423     15426     15429     15426     15429     15432     15433
     15426     15429     15432     15434     15426     15429     15432     15435
     15427     15426     15429     15430     15427     15426     15429     15431
     15427     15426     15429     15432     15428     15426     15429     15430
     15428     15426     15429     15431     15428     15426     15429     15432
     15429     15432     15435     15436     15429     15432     15435     15437
     15429     15432     15435     15438     15430     15429     15432     15433
     15430     15429     15432     15434     15430     15429     15432     15435
     15431     15429     15432     15433     15431     15429     15432     15434
     15431     15429     15432     15435     15432     15435     15438     15439
     15432     15435     15438     15440     15432     15435     15438     15441
     15433     15432     15435     15436     15433     15432     15435     15437
     15433     15432     15435     15438     15434     15432     15435     15436
     15434     15432     15435     15437     15434     15432     15435     15438
     15435     15438     15441     15442     15435     15438     15441     15443
     15435     15438     15441     15444     15436     15435     15438     15439
     15436     15435     15438     15440     15436     15435     15438     15441
     15437     15435     15438     15439     15437     15435     15438     15440
     15437     15435     15438     15441     15438     15441     15444     15445
     15438     15441     15444     15446     15438     15441     15444     15447
     15439     15438     15441     15442     15439     15438     15441     15443
     15439     15438     15441     15444     15440     15438     15441     15442
     15440     15438     15441     15443     15440     15438     15441     15444
     15441     15444     15447     15448     15441     15444     15447     15449
     15441     15444     15447     15450     15442     15441     15444     15445
     15442     15441     15444     15446     15442     15441     15444     15447
     15443     15441     15444     15445     15443     15441     15444     15446
     15443     15441     15444     15447     15444     15447     15450     15451
     15444     15447     15450     15452     15444     15447     15450     15453
     15445     15444     15447     15448     15445     15444     15447     15449
     15445     15444     15447     15450     15446     15444     15447     15448
     15446     15444     15447     15449     15446     15444     15447     15450
     15447     15450     15453     15454     15447     15450     15453     15455
     15447     15450     15453     15456     15448     15447     15450     15451
     15448     15447     15450     15452     15448     15447     15450     15453
     15449     15447     15450     15451     15449     15447     15450     15452
     15449     15447     15450     15453     15450     15453     15456     15457
     15450     15453     15456     15458     15450     15453     15456     15459
     15451     15450     15453     15454     15451     15450     15453     15455
     15451     15450     15453     15456     15452     15450     15453     15454
     15452     15450     15453     15455     15452     15450     15453     15456
     15454     15453     15456     15457     15454     15453     15456     15458
     15454     15453     15456     15459     15455     15453     15456     15457
     15455     15453     15456     15458     15455     15453     15456     15459
     15460     15462     15465     15466     15460     15462     15465     15467
     15460     15462     15465     15468     15461     15460     15462     15463
     15461     15460     15462     15464     15461     15460     15462     15465
     15462     15465     15468     15469     15462     15465     15468     15470
     15462     15465     15468     15471     15463     15462     15465     15466
     15463     15462     15465     15467     15463     15462     15465     15468
     15464     15462     15465     15466     15464     15462     15465     15467
     15464     15462     15465     15468     15465     15468     15471     15472
     15465     15468     15471     15473     15465     15468     15471     15474
     15466     15465     15468     15469     15466     15465     15468     15470
     15466     15465     15468     15471     15467     15465     15468     15469
     15467     15465     15468     15470     15467     15465     15468     15471
     15468     15471     15474     15475     15468     15471     15474     15476
     15468     15471     15474     15477     15469     15468     15471     15472
     15469     15468     15471     15473     15469     15468     15471     15474
     15470     15468     15471     15472     15470     15468     15471     15473
     15470     15468     15471     15474     15471     15474     15477     15478
     15471     15474     15477     15479     15471     15474     15477     15480
     15472     15471     15474     15475     15472     15471     15474     15476
     15472     15471     15474     15477     15473     15471     15474     15475
     15473     15471     15474     15476     15473     15471     15474     15477
     15474     15477     15480     15481     15474     15477     15480     15482
     15474     15477     15480     15483     15475     15474     15477     15478
     15475     15474     15477     15479     15475     15474     15477     15480
     15476     15474     15477     15478     15476     15474     15477     15479
     15476     15474     15477     15480     15477     15480     15483     15484
     15477     15480     15483     15485     15478     15477     15480     15481
     15478     15477     15480     15482     15478     15477     15480     15483
     15479     15477     15480     15481     15479     15477     15480     15482
     15479     15477     15480     15483     15480     15483     15485     15486
     15480     15483     15485     15487     15481     15480     15483     15484
     15481     15480     15483     15485     15482     15480     15483     15484
     15482     15480     15483     15485     15483     15485     15487     15488
     15483     15485     15487     15489     15483     15485     15487     15490
     15484     15483     15485     15486     15484     15483     15485     15487
     15485     15487     15490     15491     15485     15487     15490     15492
     15485     15487     15490     15493     15486     15485     15487     15488
     15486     15485     15487     15489     15486     15485     15487     15490
     15487     15490     15493     15494     15487     15490     15493     15495
     15487     15490     15493     15496     15488     15487     15490     15491
     15488     15487     15490     15492     15488     15487     15490     15493
     15489     15487     15490     15491     15489     15487     15490     15492
     15489     15487     15490     15493     15490     15493     15496     15497
     15490     15493     15496     15498     15490     15493     15496     15499
     15491     15490     15493     15494     15491     15490     15493     15495
     15491     15490     15493     15496     15492     15490     15493     15494
     15492     15490     15493     15495     15492     15490     15493     15496
     15493     15496     15499     15500     15493     15496     15499     15501
     15493     15496     15499     15502     15494     15493     15496     15497
     15494     15493     15496     15498     15494     15493     15496     15499
     15495     15493     15496     15497     15495     15493     15496     15498
     15495     15493     15496     15499     15496     15499     15502     15503
     15496     15499     15502     15504     15496     15499     15502     15505
     15497     15496     15499     15500     15497     15496     15499     15501
     15497     15496     15499     15502     15498     15496     15499     15500
     15498     15496     15499     15501     15498     15496     15499     15502
     15499     15502     15505     15506     15499     15502     15505     15507
     15499     15502     15505     15508     15500     15499     15502     15503
     15500     15499     15502     15504     15500     15499     15502     15505
     15501     15499     15502     15503     15501     15499     15502     15504
     15501     15499     15502     15505     15502     15505     15508     15509
     15502     15505     15508     15510     15502     15505     15508     15511
     15503     15502     15505     15506     15503     15502     15505     15507
     15503     15502     15505     15508     15504     15502     15505     15506
     15504     15502     15505     15507     15504     15502     15505     15508
     15506     15505     15508     15509     15506     15505     15508     15510
     15506     15505     15508     15511     15507     15505     15508     15509
     15507     15505     15508     15510     15507     15505     15508     15511
      3849      3853      3856      3857      3849      3853      3856      3887
      3849      3895      3892      3887      3849      3895      3892      3893
      3849      3895      3892      3894      3850      3849      3851      3852
      3850      3849      3853      3854      3850      3849      3853      3855
      3850      3849      3853      3856      3850      3849      3895      3892
      3850      3849      3895      3896      3850      3849      3895      3897
      3851      3849      3853      3854      3851      3849      3853      3855
      3851      3849      3853      3856      3851      3849      3895      3892
      3851      3849      3895      3896      3851      3849      3895      3897
      3852      3851      3849      3853      3852      3851      3849      3895
      3853      3849      3895      3892      3853      3849      3895      3896
      3853      3849      3895      3897      3853      3856      3857      3858
      3853      3856      3857      3859      3853      3856      3887      3885
      3853      3856      3887      3888      3853      3856      3887      3892
      3854      3853      3849      3895      3854      3853      3856      3857
      3854      3853      3856      3887      3855      3853      3849      3895
      3855      3853      3856      3857      3855      3853      3856      3887
      3856      3853      3849      3895      3856      3857      3859      3860
      3856      3857      3859      3861      3856      3857      3859      3862
      3856      3887      3885      3862      3856      3887      3885      3882
      3856      3887      3885      3886      3856      3887      3888      3889
      3856      3887      3888      3890      3856      3887      3888      3891
      3856      3887      3892      3893      3856      3887      3892      3894
      3856      3887      3892      3895      3857      3856      3887      3885
      3857      3856      3887      3888      3857      3856      3887      3892
      3857      3859      3862      3863      3857      3859      3862      3864
      3857      3859      3862      3885      3858      3857      3856      3887
      3858      3857      3859      3860      3858      3857      3859      3861
      3858      3857      3859      3862      3859      3857      3856      3887
      3859      3862      3864      3865      3859      3862      3864      3866
      3859      3862      3864      3874      3859      3862      3885      3882
      3859      3862      3885      3886      3859      3862      3885      3887
      3860      3859      3862      3863      3860      3859      3862      3864
      3860      3859      3862      3885      3861      3859      3862      3863
      3861      3859      3862      3864      3861      3859      3862      3885
      3862      3864      3866      3867      3862      3864      3866      3868
      3862      3864      3866      3869      3862      3864      3874      3872
      3862      3864      3874      3875      3862      3864      3874      3879
      3862      3885      3882      3879      3862      3885      3882      3883
      3862      3885      3882      3884      3862      3885      3887      3888
      3862      3885      3887      3892      3863      3862      3864      3865
      3863      3862      3864      3866      3863      3862      3864      3874
      3863      3862      3885      3882      3863      3862      3885      3886
      3863      3862      3885      3887      3864      3862      3885      3882
      3864      3862      3885      3886      3864      3862      3885      3887
      3864      3866      3869      3870      3864      3866      3869      3871
      3864      3866      3869      3872      3864      3874      3872      3869
      3864      3874      3872      3873      3864      3874      3872      3898
      3864      3874      3875      3876      3864      3874      3875      3877
      3864      3874      3875      3878      3864      3874      3879      3880
      3864      3874      3879      3881      3864      3874      3879      3882
      3865      3864      3862      3885      3865      3864      3866      3867
      3865      3864      3866      3868      3865      3864      3866      3869
      3865      3864      3874      3872      3865      3864      3874      3875
      3865      3864      3874      3879      3866      3864      3862      3885
      3866      3864      3874      3872      3866      3864      3874      3875
      3866      3864      3874      3879      3866      3869      3872      3873
      3866      3869      3872      3874      3866      3869      3872      3898
      3867      3866      3864      3874      3867      3866      3869      3870
      3867      3866      3869      3871      3867      3866      3869      3872
      3868      3866      3864      3874      3868      3866      3869      3870
      3868      3866      3869      3871      3868      3866      3869      3872
      3869      3866      3864      3874      3869      3872      3874      3875
      3869      3872      3874      3879      3869      3872      3898      3899
      3869      3872      3898      3900      3869      3872      3898      3904
      3870      3869      3872      3873      3870      3869      3872      3874
      3870      3869      3872      3898      3871      3869      3872      3873
      3871      3869      3872      3874      3871      3869      3872      3898
      3872      3874      3875      3876      3872      3874      3875      3877
      3872      3874      3875      3878      3872      3874      3879      3880
      3872      3874      3879      3881      3872      3874      3879      3882
      3872      3898      3900      3901      3872      3898      3900      3902
      3872      3898      3900      3903      3872      3898      3904      3905
      3872      3898      3904      3906      3872      3898      3904      3907
      3873      3872      3874      3875      3873      3872      3874      3879
      3873      3872      3898      3899      3873      3872      3898      3900
      3873      3872      3898      3904      3874      3864      3862      3885
      3874      3872      3898      3899      3874      3872      3898      3900
      3874      3872      3898      3904      3874      3879      3882      3883
      3874      3879      3882      3884      3874      3879      3882      3885
      3875      3874      3872      3898      3875      3874      3879      3880
      3875      3874      3879      3881      3875      3874      3879      3882
      3876      3875      3874      3879      3877      3875      3874      3879
      3878      3875      3874      3879      3879      3874      3872      3898
      3879      3882      3885      3886      3879      3882      3885      3887
      3880      3879      3882      3883      3880      3879      3882      3884
      3880      3879      3882      3885      3881      3879      3882      3883
      3881      3879      3882      3884      3881      3879      3882      3885
      3882      3885      3887      3888      3882      3885      3887      3892
      3883      3882      3885      3886      3883      3882      3885      3887
      3884      3882      3885      3886      3884      3882      3885      3887
      3885      3887      3888      3889      3885      3887      3888      3890
      3885      3887      3888      3891      3885      3887      3892      3893
      3885      3887      3892      3894      3885      3887      3892      3895
      3886      3885      3887      3888      3886      3885      3887      3892
      3887      3892      3895      3896      3887      3892      3895      3897
      3888      3887      3892      3893      3888      3887      3892      3894
      3888      3887      3892      3895      3889      3888      3887      3892
      3890      3888      3887      3892      3891      3888      3887      3892
      3893      3892      3895      3896      3893      3892      3895      3897
      3894      3892      3895      3896      3894      3892      3895      3897
      3898      3904      3907      3908      3898      3904      3907      3909
      3898      3904      3907      3910      3899      3898      3900      3901
      3899      3898      3900      3902      3899      3898      3900      3903
      3899      3898      3904      3905      3899      3898      3904      3906
      3899      3898      3904      3907      3900      3898      3904      3905
      3900      3898      3904      3906      3900      3898      3904      3907
      3901      3900      3898      3904      3902      3900      3898      3904
      3903      3900      3898      3904      3904      3907      3910      3911
      3904      3907      3910      3912      3904      3907      3910      3913
      3905      3904      3907      3908      3905      3904      3907      3909
      3905      3904      3907      3910      3906      3904      3907      3908
      3906      3904      3907      3909      3906      3904      3907      3910
      3907      3910      3913      3914      3907      3910      3913      3915
      3907      3910      3913      3919      3908      3907      3910      3911
      3908      3907      3910      3912      3908      3907      3910      3913
      3909      3907      3910      3911      3909      3907      3910      3912
      3909      3907      3910      3913      3910      3913      3915      3916
      3910      3913      3915      3917      3910      3913      3915      3918
      3910      3913      3919      3920      3910      3913      3919      3921
      3910      3913      3919      3922      3911      3910      3913      3914
      3911      3910      3913      3915      3911      3910      3913      3919
      3912      3910      3913      3914      3912      3910      3913      3915
      3912      3910      3913      3919      3914      3913      3915      3916
      3914      3913      3915      3917      3914      3913      3915      3918
      3914      3913      3919      3920      3914      3913      3919      3921
      3914      3913      3919      3922      3915      3913      3919      3920
      3915      3913      3919      3921      3915      3913      3919      3922
      3916      3915      3913      3919      3917      3915      3913      3919
      3918      3915      3913      3919      3923      3927      3930      3931
      3923      3927      3930      3961      3923      3969      3966      3961
      3923      3969      3966      3967      3923      3969      3966      3968
      3924      3923      3925      3926      3924      3923      3927      3928
      3924      3923      3927      3929      3924      3923      3927      3930
      3924      3923      3969      3966      3924      3923      3969      3970
      3924      3923      3969      3971      3925      3923      3927      3928
      3925      3923      3927      3929      3925      3923      3927      3930
      3925      3923      3969      3966      3925      3923      3969      3970
      3925      3923      3969      3971      3926      3925      3923      3927
      3926      3925      3923      3969      3927      3923      3969      3966
      3927      3923      3969      3970      3927      3923      3969      3971
      3927      3930      3931      3932      3927      3930      3931      3933
      3927      3930      3961      3959      3927      3930      3961      3962
      3927      3930      3961      3966      3928      3927      3923      3969
      3928      3927      3930      3931      3928      3927      3930      3961
      3929      3927      3923      3969      3929      3927      3930      3931
      3929      3927      3930      3961      3930      3927      3923      3969
      3930      3931      3933      3934      3930      3931      3933      3935
      3930      3931      3933      3936      3930      3961      3959      3936
      3930      3961      3959      3956      3930      3961      3959      3960
      3930      3961      3962      3963      3930      3961      3962      3964
      3930      3961      3962      3965      3930      3961      3966      3967
      3930      3961      3966      3968      3930      3961      3966      3969
      3931      3930      3961      3959      3931      3930      3961      3962
      3931      3930      3961      3966      3931      3933      3936      3937
      3931      3933      3936      3938      3931      3933      3936      3959
      3932      3931      3930      3961      3932      3931      3933      3934
      3932      3931      3933      3935      3932      3931      3933      3936
      3933      3931      3930      3961      3933      3936      3938      3939
      3933      3936      3938      3940      3933      3936      3938      3948
      3933      3936      3959      3956      3933      3936      3959      3960
      3933      3936      3959      3961      3934      3933      3936      3937
      3934      3933      3936      3938      3934      3933      3936      3959
      3935      3933      3936      3937      3935      3933      3936      3938
      3935      3933      3936      3959      3936      3938      3940      3941
      3936      3938      3940      3942      3936      3938      3940      3943
      3936      3938      3948      3946      3936      3938      3948      3949
      3936      3938      3948      3953      3936      3959      3956      3953
      3936      3959      3956      3957      3936      3959      3956      3958
      3936      3959      3961      3962      3936      3959      3961      3966
      3937      3936      3938      3939      3937      3936      3938      3940
      3937      3936      3938      3948      3937      3936      3959      3956
      3937      3936      3959      3960      3937      3936      3959      3961
      3938      3936      3959      3956      3938      3936      3959      3960
      3938      3936      3959      3961      3938      3940      3943      3944
      3938      3940      3943      3945      3938      3940      3943      3946
      3938      3948      3946      3943      3938      3948      3946      3947
      3938      3948      3946      3972      3938      3948      3949      3950
      3938      3948      3949      3951      3938      3948      3949      3952
      3938      3948      3953      3954      3938      3948      3953      3955
      3938      3948      3953      3956      3939      3938      3936      3959
      3939      3938      3940      3941      3939      3938      3940      3942
      3939      3938      3940      3943      3939      3938      3948      3946
      3939      3938      3948      3949      3939      3938      3948      3953
      3940      3938      3936      3959      3940      3938      3948      3946
      3940      3938      3948      3949      3940      3938      3948      3953
      3940      3943      3946      3947      3940      3943      3946      3948
      3940      3943      3946      3972      3941      3940      3938      3948
      3941      3940      3943      3944      3941      3940      3943      3945
      3941      3940      3943      3946      3942      3940      3938      3948
      3942      3940      3943      3944      3942      3940      3943      3945
      3942      3940      3943      3946      3943      3940      3938      3948
      3943      3946      3948      3949      3943      3946      3948      3953
      3943      3946      3972      3973      3943      3946      3972      3974
      3943      3946      3972      3978      3944      3943      3946      3947
      3944      3943      3946      3948      3944      3943      3946      3972
      3945      3943      3946      3947      3945      3943      3946      3948
      3945      3943      3946      3972      3946      3948      3949      3950
      3946      3948      3949      3951      3946      3948      3949      3952
      3946      3948      3953      3954      3946      3948      3953      3955
      3946      3948      3953      3956      3946      3972      3974      3975
      3946      3972      3974      3976      3946      3972      3974      3977
      3946      3972      3978      3979      3946      3972      3978      3980
      3946      3972      3978      3981      3947      3946      3948      3949
      3947      3946      3948      3953      3947      3946      3972      3973
      3947      3946      3972      3974      3947      3946      3972      3978
      3948      3938      3936      3959      3948      3946      3972      3973
      3948      3946      3972      3974      3948      3946      3972      3978
      3948      3953      3956      3957      3948      3953      3956      3958
      3948      3953      3956      3959      3949      3948      3946      3972
      3949      3948      3953      3954      3949      3948      3953      3955
      3949      3948      3953      3956      3950      3949      3948      3953
      3951      3949      3948      3953      3952      3949      3948      3953
      3953      3948      3946      3972      3953      3956      3959      3960
      3953      3956      3959      3961      3954      3953      3956      3957
      3954      3953      3956      3958      3954      3953      3956      3959
      3955      3953      3956      3957      3955      3953      3956      3958
      3955      3953      3956      3959      3956      3959      3961      3962
      3956      3959      3961      3966      3957      3956      3959      3960
      3957      3956      3959      3961      3958      3956      3959      3960
      3958      3956      3959      3961      3959      3961      3962      3963
      3959      3961      3962      3964      3959      3961      3962      3965
      3959      3961      3966      3967      3959      3961      3966      3968
      3959      3961      3966      3969      3960      3959      3961      3962
      3960      3959      3961      3966      3961      3966      3969      3970
      3961      3966      3969      3971      3962      3961      3966      3967
      3962      3961      3966      3968      3962      3961      3966      3969
      3963      3962      3961      3966      3964      3962      3961      3966
      3965      3962      3961      3966      3967      3966      3969      3970
      3967      3966      3969      3971      3968      3966      3969      3970
      3968      3966      3969      3971      3972      3978      3981      3982
      3972      3978      3981      3983      3972      3978      3981      3984
      3973      3972      3974      3975      3973      3972      3974      3976
      3973      3972      3974      3977      3973      3972      3978      3979
      3973      3972      3978      3980      3973      3972      3978      3981
      3974      3972      3978      3979      3974      3972      3978      3980
      3974      3972      3978      3981      3975      3974      3972      3978
      3976      3974      3972      3978      3977      3974      3972      3978
      3978      3981      3984      3985      3978      3981      3984      3986
      3978      3981      3984      3987      3979      3978      3981      3982
      3979      3978      3981      3983      3979      3978      3981      3984
      3980      3978      3981      3982      3980      3978      3981      3983
      3980      3978      3981      3984      3981      3984      3987      3988
      3981      3984      3987      3989      3981      3984      3987      3993
      3982      3981      3984      3985      3982      3981      3984      3986
      3982      3981      3984      3987      3983      3981      3984      3985
      3983      3981      3984      3986      3983      3981      3984      3987
      3984      3987      3989      3990      3984      3987      3989      3991
      3984      3987      3989      3992      3984      3987      3993      3994
      3984      3987      3993      3995      3984      3987      3993      3996
      3985      3984      3987      3988      3985      3984      3987      3989
      3985      3984      3987      3993      3986      3984      3987      3988
      3986      3984      3987      3989      3986      3984      3987      3993
      3988      3987      3989      3990      3988      3987      3989      3991
      3988      3987      3989      3992      3988      3987      3993      3994
      3988      3987      3993      3995      3988      3987      3993      3996
      3989      3987      3993      3994      3989      3987      3993      3995
      3989      3987      3993      3996      3990      3989      3987      3993
      3991      3989      3987      3993      3992      3989      3987      3993
     19049     19053     19056     19057     19049     19053     19056     19058
     19049     19053     19056     19062     19050     19049     19053     19054
     19050     19049     19053     19055     19050     19049     19053     19056
     19051     19049     19053     19054     19051     19049     19053     19055
     19051     19049     19053     19056     19052     19049     19053     19054
     19052     19049     19053     19055     19052     19049     19053     19056
     19053     19056     19062     19059     19054     19053     19056     19057
     19054     19053     19056     19058     19054     19053     19056     19062
     19055     19053     19056     19057     19055     19053     19056     19058
     19055     19053     19056     19062     19056     19062     19059     19060
     19056     19062     19059     19061     19056     19062     19059     19063
     19057     19056     19062     19059     19058     19056     19062     19059
     19059     19063     19064     19065     19059     19063     19064     19066
     19059     19063     19064     19067     19060     19059     19063     19064
     19061     19059     19063     19064     19062     19059     19063     19064
     19063     19064     19067     19068     19063     19064     19067     19069
     19063     19064     19067     19075     19064     19067     19069     19070
     19064     19067     19075     19076     19064     19067     19075     19077
     19064     19067     19075     19078     19065     19064     19067     19068
     19065     19064     19067     19069     19065     19064     19067     19075
     19066     19064     19067     19068     19066     19064     19067     19069
     19066     19064     19067     19075     19067     19069     19070     19071
     19067     19069     19070     19072     19067     19075     19078     19079
     19068     19067     19069     19070     19068     19067     19075     19076
     19068     19067     19075     19077     19068     19067     19075     19078
     19069     19067     19075     19076     19069     19067     19075     19077
     19069     19067     19075     19078     19069     19070     19072     19073
     19069     19070     19072     19074     19069     19070     19072     19084
     19070     19069     19067     19075     19070     19072     19084     19085
     19070     19072     19084     19086     19070     19072     19084     19087
     19071     19070     19072     19073     19071     19070     19072     19074
     19071     19070     19072     19084     19072     19084     19087     19088
     19072     19084     19087     19089     19072     19084     19087     19090
     19073     19072     19084     19085     19073     19072     19084     19086
     19073     19072     19084     19087     19074     19072     19084     19085
     19074     19072     19084     19086     19074     19072     19084     19087
     19075     19078     19079     19080     19075     19078     19079     19081
     19076     19075     19078     19079     19077     19075     19078     19079
     19078     19079     19081     19082     19078     19079     19081     19083
     19078     19079     19081     19131     19079     19081     19131     19132
     19079     19081     19131     19133     19079     19081     19131     19134
     19080     19079     19081     19082     19080     19079     19081     19083
     19080     19079     19081     19131     19081     19131     19134     19135
     19081     19131     19134     19136     19081     19131     19134     19137
     19082     19081     19131     19132     19082     19081     19131     19133
     19082     19081     19131     19134     19083     19081     19131     19132
     19083     19081     19131     19133     19083     19081     19131     19134
     19084     19087     19090     19091     19084     19087     19090     19092
     19085     19084     19087     19088     19085     19084     19087     19089
     19085     19084     19087     19090     19086     19084     19087     19088
     19086     19084     19087     19089     19086     19084     19087     19090
     19087     19090     19092     19093     19087     19090     19092     19094
     19088     19087     19090     19091     19088     19087     19090     19092
     19089     19087     19090     19091     19089     19087     19090     19092
     19090     19092     19094     19095     19090     19092     19094     19096
     19090     19092     19094     19097     19091     19090     19092     19093
     19091     19090     19092     19094     19092     19094     19097     19098
     19092     19094     19097     19099     19093     19092     19094     19095
     19093     19092     19094     19096     19093     19092     19094     19097
     19094     19097     19099     19100     19094     19097     19099     19101
     19095     19094     19097     19098     19095     19094     19097     19099
     19096     19094     19097     19098     19096     19094     19097     19099
     19097     19099     19101     19102     19097     19099     19101     19103
     19097     19099     19101     19104     19098     19097     19099     19100
     19098     19097     19099     19101     19099     19101     19104     19105
     19099     19101     19104     19106     19100     19099     19101     19102
     19100     19099     19101     19103     19100     19099     19101     19104
     19101     19104     19106     19107     19101     19104     19106     19108
     19102     19101     19104     19105     19102     19101     19104     19106
     19103     19101     19104     19105     19103     19101     19104     19106
     19104     19106     19108     19109     19104     19106     19108     19110
     19104     19106     19108     19111     19105     19104     19106     19107
     19105     19104     19106     19108     19106     19108     19111     19112
     19106     19108     19111     19113     19107     19106     19108     19109
     19107     19106     19108     19110     19107     19106     19108     19111
     19108     19111     19113     19114     19108     19111     19113     19115
     19109     19108     19111     19112     19109     19108     19111     19113
     19110     19108     19111     19112     19110     19108     19111     19113
     19111     19113     19115     19116     19111     19113     19115     19117
     19111     19113     19115     19118     19112     19111     19113     19114
     19112     19111     19113     19115     19113     19115     19118     19119
     19113     19115     19118     19120     19113     19115     19118     19121
     19114     19113     19115     19116     19114     19113     19115     19117
     19114     19113     19115     19118     19115     19118     19121     19122
     19115     19118     19121     19123     19115     19118     19121     19124
     19116     19115     19118     19119     19116     19115     19118     19120
     19116     19115     19118     19121     19117     19115     19118     19119
     19117     19115     19118     19120     19117     19115     19118     19121
     19118     19121     19124     19125     19118     19121     19124     19126
     19118     19121     19124     19127     19119     19118     19121     19122
     19119     19118     19121     19123     19119     19118     19121     19124
     19120     19118     19121     19122     19120     19118     19121     19123
     19120     19118     19121     19124     19121     19124     19127     19128
     19121     19124     19127     19129     19121     19124     19127     19130
     19122     19121     19124     19125     19122     19121     19124     19126
     19122     19121     19124     19127     19123     19121     19124     19125
     19123     19121     19124     19126     19123     19121     19124     19127
     19125     19124     19127     19128     19125     19124     19127     19129
     19125     19124     19127     19130     19126     19124     19127     19128
     19126     19124     19127     19129     19126     19124     19127     19130
     19131     19134     19137     19138     19131     19134     19137     19139
     19131     19134     19137     19140     19132     19131     19134     19135
     19132     19131     19134     19136     19132     19131     19134     19137
     19133     19131     19134     19135     19133     19131     19134     19136
     19133     19131     19134     19137     19134     19137     19140     19141
     19134     19137     19140     19142     19134     19137     19140     19143
     19135     19134     19137     19138     19135     19134     19137     19139
     19135     19134     19137     19140     19136     19134     19137     19138
     19136     19134     19137     19139     19136     19134     19137     19140
     19137     19140     19143     19144     19137     19140     19143     19145
     19137     19140     19143     19146     19138     19137     19140     19141
     19138     19137     19140     19142     19138     19137     19140     19143
     19139     19137     19140     19141     19139     19137     19140     19142
     19139     19137     19140     19143     19140     19143     19146     19147
     19140     19143     19146     19148     19140     19143     19146     19149
     19141     19140     19143     19144     19141     19140     19143     19145
     19141     19140     19143     19146     19142     19140     19143     19144
     19142     19140     19143     19145     19142     19140     19143     19146
     19143     19146     19149     19150     19143     19146     19149     19151
     19143     19146     19149     19152     19144     19143     19146     19147
     19144     19143     19146     19148     19144     19143     19146     19149
     19145     19143     19146     19147     19145     19143     19146     19148
     19145     19143     19146     19149     19146     19149     19152     19153
     19146     19149     19152     19154     19146     19149     19152     19155
     19147     19146     19149     19150     19147     19146     19149     19151
     19147     19146     19149     19152     19148     19146     19149     19150
     19148     19146     19149     19151     19148     19146     19149     19152
     19149     19152     19155     19156     19149     19152     19155     19157
     19149     19152     19155     19158     19150     19149     19152     19153
     19150     19149     19152     19154     19150     19149     19152     19155
     19151     19149     19152     19153     19151     19149     19152     19154
     19151     19149     19152     19155     19152     19155     19158     19159
     19152     19155     19158     19160     19152     19155     19158     19161
     19153     19152     19155     19156     19153     19152     19155     19157
     19153     19152     19155     19158     19154     19152     19155     19156
     19154     19152     19155     19157     19154     19152     19155     19158
     19155     19158     19161     19162     19155     19158     19161     19163
     19155     19158     19161     19164     19156     19155     19158     19159
     19156     19155     19158     19160     19156     19155     19158     19161
     19157     19155     19158     19159     19157     19155     19158     19160
     19157     19155     19158     19161     19158     19161     19164     19165
     19158     19161     19164     19166     19158     19161     19164     19167
     19159     19158     19161     19162     19159     19158     19161     19163
     19159     19158     19161     19164     19160     19158     19161     19162
     19160     19158     19161     19163     19160     19158     19161     19164
     19161     19164     19167     19168     19161     19164     19167     19169
     19161     19164     19167     19170     19162     19161     19164     19165
     19162     19161     19164     19166     19162     19161     19164     19167
     19163     19161     19164     19165     19163     19161     19164     19166
     19163     19161     19164     19167     19164     19167     19170     19171
     19164     19167     19170     19172     19164     19167     19170     19173
     19165     19164     19167     19168     19165     19164     19167     19169
     19165     19164     19167     19170     19166     19164     19167     19168
     19166     19164     19167     19169     19166     19164     19167     19170
     19167     19170     19173     19174     19167     19170     19173     19175
     19167     19170     19173     19176     19168     19167     19170     19171
     19168     19167     19170     19172     19168     19167     19170     19173
     19169     19167     19170     19171     19169     19167     19170     19172
     19169     19167     19170     19173     19170     19173     19176     19177
     19170     19173     19176     19178     19170     19173     19176     19179
     19171     19170     19173     19174     19171     19170     19173     19175
     19171     19170     19173     19176     19172     19170     19173     19174
     19172     19170     19173     19175     19172     19170     19173     19176
     19174     19173     19176     19177     19174     19173     19176     19178
     19174     19173     19176     19179     19175     19173     19176     19177
     19175     19173     19176     19178     19175     19173     19176     19179
      7343      7356      7359      7360      7343      7356      7359      7361
      7343      7356      7359      7365      7344      7343      7348      7349
      7344      7343      7348      7350      7344      7343      7348      7351
      7344      7343      7352      7353      7344      7343      7352      7354
      7344      7343      7352      7355      7344      7343      7356      7357
      7344      7343      7356      7358      7344      7343      7356      7359
      7345      7344      7343      7348      7345      7344      7343      7352
      7345      7344      7343      7356      7346      7344      7343      7348
      7346      7344      7343      7352      7346      7344      7343      7356
      7347      7344      7343      7348      7347      7344      7343      7352
      7347      7344      7343      7356      7348      7343      7352      7353
      7348      7343      7352      7354      7348      7343      7352      7355
      7348      7343      7356      7357      7348      7343      7356      7358
      7348      7343      7356      7359      7349      7348      7343      7352
      7349      7348      7343      7356      7350      7348      7343      7352
      7350      7348      7343      7356      7351      7348      7343      7352
      7351      7348      7343      7356      7352      7343      7356      7357
      7352      7343      7356      7358      7352      7343      7356      7359
      7353      7352      7343      7356      7354      7352      7343      7356
      7355      7352      7343      7356      7356      7359      7365      7362
      7357      7356      7359      7360      7357      7356      7359      7361
      7357      7356      7359      7365      7358      7356      7359      7360
      7358      7356      7359      7361      7358      7356      7359      7365
      7359      7365      7362      7363      7359      7365      7362      7364
      7359      7365      7362      7366      7360      7359      7365      7362
      7361      7359      7365      7362      7362      7366      7367      7368
      7362      7366      7367      7369      7362      7366      7367      7370
      7363      7362      7366      7367      7364      7362      7366      7367
      7365      7362      7366      7367      7366      7367      7370      7371
      7366      7367      7370      7372      7366      7367      7370      7378
      7367      7370      7372      7373      7367      7370      7378      7379
      7367      7370      7378      7380      7367      7370      7378      7381
      7368      7367      7370      7371      7368      7367      7370      7372
      7368      7367      7370      7378      7369      7367      7370      7371
      7369      7367      7370      7372      7369      7367      7370      7378
      7370      7372      7373      7374      7370      7372      7373      7375
      7370      7378      7381      7382      7371      7370      7372      7373
      7371      7370      7378      7379      7371      7370      7378      7380
      7371      7370      7378      7381      7372      7370      7378      7379
      7372      7370      7378      7380      7372      7370      7378      7381
      7372      7373      7375      7376      7372      7373      7375      7377
      7372      7373      7375      7387      7373      7372      7370      7378
      7373      7375      7387      7388      7373      7375      7387      7389
      7373      7375      7387      7390      7374      7373      7375      7376
      7374      7373      7375      7377      7374      7373      7375      7387
      7375      7387      7390      7391      7375      7387      7390      7392
      7375      7387      7390      7393      7376      7375      7387      7388
      7376      7375      7387      7389      7376      7375      7387      7390
      7377      7375      7387      7388      7377      7375      7387      7389
      7377      7375      7387      7390      7378      7381      7382      7383
      7378      7381      7382      7384      7379      7378      7381      7382
      7380      7378      7381      7382      7381      7382      7384      7385
      7381      7382      7384      7386      7381      7382      7384      7432
      7382      7384      7432      7433      7382      7384      7432      7434
      7382      7384      7432      7435      7383      7382      7384      7385
      7383      7382      7384      7386      7383      7382      7384      7432
      7384      7432      7435      7436      7384      7432      7435      7437
      7384      7432      7435      7438      7385      7384      7432      7433
      7385      7384      7432      7434      7385      7384      7432      7435
      7386      7384      7432      7433      7386      7384      7432      7434
      7386      7384      7432      7435      7387      7390      7393      7394
      7387      7390      7393      7395      7387      7390      7393      7396
      7388      7387      7390      7391      7388      7387      7390      7392
      7388      7387      7390      7393      7389      7387      7390      7391
      7389      7387      7390      7392      7389      7387      7390      7393
      7390      7393      7396      7397      7390      7393      7396      7398
      7390      7393      7396      7399      7391      7390      7393      7394
      7391      7390      7393      7395      7391      7390      7393      7396
      7392      7390      7393      7394      7392      7390      7393      7395
      7392      7390      7393      7396      7393      7396      7399      7400
      7393      7396      7399      7401      7393      7396      7399      7402
      7394      7393      7396      7397      7394      7393      7396      7398
      7394      7393      7396      7399      7395      7393      7396      7397
      7395      7393      7396      7398      7395      7393      7396      7399
      7396      7399      7402      7403      7396      7399      7402      7404
      7396      7399      7402      7405      7397      7396      7399      7400
      7397      7396      7399      7401      7397      7396      7399      7402
      7398      7396      7399      7400      7398      7396      7399      7401
      7398      7396      7399      7402      7399      7402      7405      7406
      7399      7402      7405      7407      7400      7399      7402      7403
      7400      7399      7402      7404      7400      7399      7402      7405
      7401      7399      7402      7403      7401      7399      7402      7404
      7401      7399      7402      7405      7402      7405      7407      7408
      7402      7405      7407      7409      7403      7402      7405      7406
      7403      7402      7405      7407      7404      7402      7405      7406
      7404      7402      7405      7407      7405      7407      7409      7410
      7405      7407      7409      7411      7405      7407      7409      7412
      7406      7405      7407      7408      7406      7405      7407      7409
      7407      7409      7412      7413      7407      7409      7412      7414
      7408      7407      7409      7410      7408      7407      7409      7411
      7408      7407      7409      7412      7409      7412      7414      7415
      7409      7412      7414      7416      7410      7409      7412      7413
      7410      7409      7412      7414      7411      7409      7412      7413
      7411      7409      7412      7414      7412      7414      7416      7417
      7412      7414      7416      7418      7412      7414      7416      7419
      7413      7412      7414      7415      7413      7412      7414      7416
      7414      7416      7419      7420      7414      7416      7419      7421
      7414      7416      7419      7422      7415      7414      7416      7417
      7415      7414      7416      7418      7415      7414      7416      7419
      7416      7419      7422      7423      7416      7419      7422      7424
      7416      7419      7422      7425      7417      7416      7419      7420
      7417      7416      7419      7421      7417      7416      7419      7422
      7418      7416      7419      7420      7418      7416      7419      7421
      7418      7416      7419      7422      7419      7422      7425      7426
      7419      7422      7425      7427      7419      7422      7425      7428
      7420      7419      7422      7423      7420      7419      7422      7424
      7420      7419      7422      7425      7421      7419      7422      7423
      7421      7419      7422      7424      7421      7419      7422      7425
      7422      7425      7428      7429      7422      7425      7428      7430
      7422      7425      7428      7431      7423      7422      7425      7426
      7423      7422      7425      7427      7423      7422      7425      7428
      7424      7422      7425      7426      7424      7422      7425      7427
      7424      7422      7425      7428      7426      7425      7428      7429
      7426      7425      7428      7430      7426      7425      7428      7431
      7427      7425      7428      7429      7427      7425      7428      7430
      7427      7425      7428      7431      7432      7435      7438      7439
      7432      7435      7438      7440      7432      7435      7438      7441
      7433      7432      7435      7436      7433      7432      7435      7437
      7433      7432      7435      7438      7434      7432      7435      7436
      7434      7432      7435      7437      7434      7432      7435      7438
      7435      7438      7441      7442      7435      7438      7441      7443
      7435      7438      7441      7444      7436      7435      7438      7439
      7436      7435      7438      7440      7436      7435      7438      7441
      7437      7435      7438      7439      7437      7435      7438      7440
      7437      7435      7438      7441      7438      7441      7444      7445
      7438      7441      7444      7446      7438      7441      7444      7447
      7439      7438      7441      7442      7439      7438      7441      7443
      7439      7438      7441      7444      7440      7438      7441      7442
      7440      7438      7441      7443      7440      7438      7441      7444
      7441      7444      7447      7448      7441      7444      7447      7449
      7441      7444      7447      7450      7442      7441      7444      7445
      7442      7441      7444      7446      7442      7441      7444      7447
      7443      7441      7444      7445      7443      7441      7444      7446
      7443      7441      7444      7447      7444      7447      7450      7451
      7444      7447      7450      7452      7444      7447      7450      7453
      7445      7444      7447      7448      7445      7444      7447      7449
      7445      7444      7447      7450      7446      7444      7447      7448
      7446      7444      7447      7449      7446      7444      7447      7450
      7447      7450      7453      7454      7447      7450      7453      7455
      7447      7450      7453      7456      7448      7447      7450      7451
      7448      7447      7450      7452      7448      7447      7450      7453
      7449      7447      7450      7451      7449      7447      7450      7452
      7449      7447      7450      7453      7450      7453      7456      7457
      7450      7453      7456      7458      7450      7453      7456      7459
      7451      7450      7453      7454      7451      7450      7453      7455
      7451      7450      7453      7456      7452      7450      7453      7454
      7452      7450      7453      7455      7452      7450      7453      7456
      7453      7456      7459      7460      7453      7456      7459      7461
      7453      7456      7459      7462      7454      7453      7456      7457
      7454      7453      7456      7458      7454      7453      7456      7459
      7455      7453      7456      7457      7455      7453      7456      7458
      7455      7453      7456      7459      7456      7459      7462      7463
      7456      7459      7462      7464      7456      7459      7462      7465
      7457      7456      7459      7460      7457      7456      7459      7461
      7457      7456      7459      7462      7458      7456      7459      7460
      7458      7456      7459      7461      7458      7456      7459      7462
      7459      7462      7465      7466      7459      7462      7465      7467
      7459      7462      7465      7468      7460      7459      7462      7463
      7460      7459      7462      7464      7460      7459      7462      7465
      7461      7459      7462      7463      7461      7459      7462      7464
      7461      7459      7462      7465      7462      7465      7468      7469
      7462      7465      7468      7470      7462      7465      7468      7471
      7463      7462      7465      7466      7463      7462      7465      7467
      7463      7462      7465      7468      7464      7462      7465      7466
      7464      7462      7465      7467      7464      7462      7465      7468
      7465      7468      7471      7472      7465      7468      7471      7473
      7465      7468      7471      7474      7466      7465      7468      7469
      7466      7465      7468      7470      7466      7465      7468      7471
      7467      7465      7468      7469      7467      7465      7468      7470
      7467      7465      7468      7471      7468      7471      7474      7475
      7468      7471      7474      7476      7468      7471      7474      7477
      7469      7468      7471      7472      7469      7468      7471      7473
      7469      7468      7471      7474      7470      7468      7471      7472
      7470      7468      7471      7473      7470      7468      7471      7474
      7471      7474      7477      7478      7471      7474      7477      7479
      7471      7474      7477      7480      7472      7471      7474      7475
      7472      7471      7474      7476      7472      7471      7474      7477
      7473      7471      7474      7475      7473      7471      7474      7476
      7473      7471      7474      7477      7475      7474      7477      7478
      7475      7474      7477      7479      7475      7474      7477      7480
      7476      7474      7477      7478      7476      7474      7477      7479
      7476      7474      7477      7480     15512     15525     15528     15529
     15512     15525     15528     15530     15512     15525     15528     15535
     15513     15512     15517     15518     15513     15512     15517     15519
     15513     15512     15517     15520     15513     15512     15521     15522
     15513     15512     15521     15523     15513     15512     15521     15524
     15513     15512     15525     15526     15513     15512     15525     15527
     15513     15512     15525     15528     15514     15513     15512     15517
     15514     15513     15512     15521     15514     15513     15512     15525
     15515     15513     15512     15517     15515     15513     15512     15521
     15515     15513     15512     15525     15516     15513     15512     15517
     15516     15513     15512     15521     15516     15513     15512     15525
     15517     15512     15521     15522     15517     15512     15521     15523
     15517     15512     15521     15524     15517     15512     15525     15526
     15517     15512     15525     15527     15517     15512     15525     15528
     15518     15517     15512     15521     15518     15517     15512     15525
     15519     15517     15512     15521     15519     15517     15512     15525
     15520     15517     15512     15521     15520     15517     15512     15525
     15521     15512     15525     15526     15521     15512     15525     15527
     15521     15512     15525     15528     15522     15521     15512     15525
     15523     15521     15512     15525     15524     15521     15512     15525
     15525     15528     15535     15531     15526     15525     15528     15529
     15526     15525     15528     15530     15526     15525     15528     15535
     15527     15525     15528     15529     15527     15525     15528     15530
     15527     15525     15528     15535     15528     15535     15531     15532
     15528     15535     15531     15533     15528     15535     15531     15534
     15529     15528     15535     15531     15530     15528     15535     15531
     15531     15534     15536     15537     15531     15534     15536     15538
     15531     15534     15536     15541     15532     15531     15534     15536
     15533     15531     15534     15536     15534     15536     15541     15539
     15534     15536     15541     15542     15534     15536     15541     15543
     15535     15531     15534     15536     15536     15541     15539     15540
     15536     15541     15539     15591     15536     15541     15543     15544
     15536     15541     15543     15545     15536     15541     15543     15547
     15537     15536     15541     15539     15537     15536     15541     15542
     15537     15536     15541     15543     15538     15536     15541     15539
     15538     15536     15541     15542     15538     15536     15541     15543
     15539     15541     15543     15544     15539     15541     15543     15545
     15539     15541     15543     15547     15539     15591     15593     15594
     15539     15591     15593     15595     15539     15591     15593     15596
     15540     15539     15541     15542     15540     15539     15541     15543
     15540     15539     15591     15592     15540     15539     15591     15593
     15541     15539     15591     15592     15541     15539     15591     15593
     15541     15543     15545     15546     15541     15543     15547     15548
     15541     15543     15547     15549     15542     15541     15539     15591
     15542     15541     15543     15544     15542     15541     15543     15545
     15542     15541     15543     15547     15543     15541     15539     15591
     15543     15547     15549     15550     15543     15547     15549     15551
     15544     15543     15545     15546     15544     15543     15547     15548
     15544     15543     15547     15549     15545     15543     15547     15548
     15545     15543     15547     15549     15546     15545     15543     15547
     15547     15549     15551     15552     15547     15549     15551     15553
     15547     15549     15551     15554     15548     15547     15549     15550
     15548     15547     15549     15551     15549     15551     15554     15555
     15549     15551     15554     15556     15549     15551     15554     15557
     15550     15549     15551     15552     15550     15549     15551     15553
     15550     15549     15551     15554     15551     15554     15557     15558
     15551     15554     15557     15559     15551     15554     15557     15560
     15552     15551     15554     15555     15552     15551     15554     15556
     15552     15551     15554     15557     15553     15551     15554     15555
     15553     15551     15554     15556     15553     15551     15554     15557
     15554     15557     15560     15561     15554     15557     15560     15562
     15554     15557     15560     15563     15555     15554     15557     15558
     15555     15554     15557     15559     15555     15554     15557     15560
     15556     15554     15557     15558     15556     15554     15557     15559
     15556     15554     15557     15560     15557     15560     15563     15564
     15557     15560     15563     15565     15557     15560     15563     15566
     15558     15557     15560     15561     15558     15557     15560     15562
     15558     15557     15560     15563     15559     15557     15560     15561
     15559     15557     15560     15562     15559     15557     15560     15563
     15560     15563     15566     15567     15560     15563     15566     15568
     15560     15563     15566     15569     15561     15560     15563     15564
     15561     15560     15563     15565     15561     15560     15563     15566
     15562     15560     15563     15564     15562     15560     15563     15565
     15562     15560     15563     15566     15563     15566     15569     15570
     15563     15566     15569     15571     15563     15566     15569     15572
     15564     15563     15566     15567     15564     15563     15566     15568
     15564     15563     15566     15569     15565     15563     15566     15567
     15565     15563     15566     15568     15565     15563     15566     15569
     15566     15569     15572     15573     15566     15569     15572     15574
     15566     15569     15572     15575     15567     15566     15569     15570
     15567     15566     15569     15571     15567     15566     15569     15572
     15568     15566     15569     15570     15568     15566     15569     15571
     15568     15566     15569     15572     15569     15572     15575     15576
     15569     15572     15575     15577     15569     15572     15575     15578
     15570     15569     15572     15573     15570     15569     15572     15574
     15570     15569     15572     15575     15571     15569     15572     15573
     15571     15569     15572     15574     15571     15569     15572     15575
     15572     15575     15578     15579     15572     15575     15578     15580
     15572     15575     15578     15581     15573     15572     15575     15576
     15573     15572     15575     15577     15573     15572     15575     15578
     15574     15572     15575     15576     15574     15572     15575     15577
     15574     15572     15575     15578     15575     15578     15581     15582
     15575     15578     15581     15583     15575     15578     15581     15584
     15576     15575     15578     15579     15576     15575     15578     15580
     15576     15575     15578     15581     15577     15575     15578     15579
     15577     15575     15578     15580     15577     15575     15578     15581
     15578     15581     15584     15585     15578     15581     15584     15586
     15578     15581     15584     15587     15579     15578     15581     15582
     15579     15578     15581     15583     15579     15578     15581     15584
     15580     15578     15581     15582     15580     15578     15581     15583
     15580     15578     15581     15584     15581     15584     15587     15588
     15581     15584     15587     15589     15581     15584     15587     15590
     15582     15581     15584     15585     15582     15581     15584     15586
     15582     15581     15584     15587     15583     15581     15584     15585
     15583     15581     15584     15586     15583     15581     15584     15587
     15585     15584     15587     15588     15585     15584     15587     15589
     15585     15584     15587     15590     15586     15584     15587     15588
     15586     15584     15587     15589     15586     15584     15587     15590
     15591     15593     15596     15597     15591     15593     15596     15598
     15591     15593     15596     15599     15592     15591     15593     15594
     15592     15591     15593     15595     15592     15591     15593     15596
     15593     15596     15599     15600     15593     15596     15599     15601
     15593     15596     15599     15602     15594     15593     15596     15597
     15594     15593     15596     15598     15594     15593     15596     15599
     15595     15593     15596     15597     15595     15593     15596     15598
     15595     15593     15596     15599     15596     15599     15602     15603
     15596     15599     15602     15604     15596     15599     15602     15605
     15597     15596     15599     15600     15597     15596     15599     15601
     15597     15596     15599     15602     15598     15596     15599     15600
     15598     15596     15599     15601     15598     15596     15599     15602
     15599     15602     15605     15606     15599     15602     15605     15607
     15599     15602     15605     15608     15600     15599     15602     15603
     15600     15599     15602     15604     15600     15599     15602     15605
     15601     15599     15602     15603     15601     15599     15602     15604
     15601     15599     15602     15605     15602     15605     15608     15609
     15602     15605     15608     15610     15602     15605     15608     15611
     15603     15602     15605     15606     15603     15602     15605     15607
     15603     15602     15605     15608     15604     15602     15605     15606
     15604     15602     15605     15607     15604     15602     15605     15608
     15605     15608     15611     15612     15605     15608     15611     15613
     15605     15608     15611     15614     15606     15605     15608     15609
     15606     15605     15608     15610     15606     15605     15608     15611
     15607     15605     15608     15609     15607     15605     15608     15610
     15607     15605     15608     15611     15608     15611     15614     15615
     15608     15611     15614     15616     15609     15608     15611     15612
     15609     15608     15611     15613     15609     15608     15611     15614
     15610     15608     15611     15612     15610     15608     15611     15613
     15610     15608     15611     15614     15611     15614     15616     15617
     15611     15614     15616     15618     15612     15611     15614     15615
     15612     15611     15614     15616     15613     15611     15614     15615
     15613     15611     15614     15616     15614     15616     15618     15619
     15614     15616     15618     15620     15614     15616     15618     15621
     15615     15614     15616     15617     15615     15614     15616     15618
     15616     15618     15621     15622     15616     15618     15621     15623
     15616     15618     15621     15624     15617     15616     15618     15619
     15617     15616     15618     15620     15617     15616     15618     15621
     15618     15621     15624     15625     15618     15621     15624     15626
     15618     15621     15624     15627     15619     15618     15621     15622
     15619     15618     15621     15623     15619     15618     15621     15624
     15620     15618     15621     15622     15620     15618     15621     15623
     15620     15618     15621     15624     15621     15624     15627     15628
     15621     15624     15627     15629     15621     15624     15627     15630
     15622     15621     15624     15625     15622     15621     15624     15626
     15622     15621     15624     15627     15623     15621     15624     15625
     15623     15621     15624     15626     15623     15621     15624     15627
     15624     15627     15630     15631     15624     15627     15630     15632
     15624     15627     15630     15633     15625     15624     15627     15628
     15625     15624     15627     15629     15625     15624     15627     15630
     15626     15624     15627     15628     15626     15624     15627     15629
     15626     15624     15627     15630     15627     15630     15633     15634
     15627     15630     15633     15635     15627     15630     15633     15636
     15628     15627     15630     15631     15628     15627     15630     15632
     15628     15627     15630     15633     15629     15627     15630     15631
     15629     15627     15630     15632     15629     15627     15630     15633
     15630     15633     15636     15637     15630     15633     15636     15638
     15630     15633     15636     15639     15631     15630     15633     15634
     15631     15630     15633     15635     15631     15630     15633     15636
     15632     15630     15633     15634     15632     15630     15633     15635
     15632     15630     15633     15636     15633     15636     15639     15640
     15633     15636     15639     15641     15633     15636     15639     15642
     15634     15633     15636     15637     15634     15633     15636     15638
     15634     15633     15636     15639     15635     15633     15636     15637
     15635     15633     15636     15638     15635     15633     15636     15639
     15637     15636     15639     15640     15637     15636     15639     15641
     15637     15636     15639     15642     15638     15636     15639     15640
     15638     15636     15639     15641     15638     15636     15639     15642
      3997      4001      4004      4005      3997      4001      4004      4035
      3997      4043      4040      4035      3997      4043      4040      4041
      3997      4043      4040      4042      3998      3997      3999      4000
      3998      3997      4001      4002      3998      3997      4001      4003
      3998      3997      4001      4004      3998      3997      4043      4040
      3998      3997      4043      4044      3998      3997      4043      4045
      3999      3997      4001      4002      3999      3997      4001      4003
      3999      3997      4001      4004      3999      3997      4043      4040
      3999      3997      4043      4044      3999      3997      4043      4045
      4000      3999      3997      4001      4000      3999      3997      4043
      4001      3997      4043      4040      4001      3997      4043      4044
      4001      3997      4043      4045      4001      4004      4005      4006
      4001      4004      4005      4007      4001      4004      4035      4033
      4001      4004      4035      4036      4001      4004      4035      4040
      4002      4001      3997      4043      4002      4001      4004      4005
      4002      4001      4004      4035      4003      4001      3997      4043
      4003      4001      4004      4005      4003      4001      4004      4035
      4004      4001      3997      4043      4004      4005      4007      4008
      4004      4005      4007      4009      4004      4005      4007      4010
      4004      4035      4033      4010      4004      4035      4033      4030
      4004      4035      4033      4034      4004      4035      4036      4037
      4004      4035      4036      4038      4004      4035      4036      4039
      4004      4035      4040      4041      4004      4035      4040      4042
      4004      4035      4040      4043      4005      4004      4035      4033
      4005      4004      4035      4036      4005      4004      4035      4040
      4005      4007      4010      4011      4005      4007      4010      4012
      4005      4007      4010      4033      4006      4005      4004      4035
      4006      4005      4007      4008      4006      4005      4007      4009
      4006      4005      4007      4010      4007      4005      4004      4035
      4007      4010      4012      4013      4007      4010      4012      4014
      4007      4010      4012      4022      4007      4010      4033      4030
      4007      4010      4033      4034      4007      4010      4033      4035
      4008      4007      4010      4011      4008      4007      4010      4012
      4008      4007      4010      4033      4009      4007      4010      4011
      4009      4007      4010      4012      4009      4007      4010      4033
      4010      4012      4014      4015      4010      4012      4014      4016
      4010      4012      4014      4017      4010      4012      4022      4020
      4010      4012      4022      4023      4010      4012      4022      4027
      4010      4033      4030      4027      4010      4033      4030      4031
      4010      4033      4030      4032      4010      4033      4035      4036
      4010      4033      4035      4040      4011      4010      4012      4013
      4011      4010      4012      4014      4011      4010      4012      4022
      4011      4010      4033      4030      4011      4010      4033      4034
      4011      4010      4033      4035      4012      4010      4033      4030
      4012      4010      4033      4034      4012      4010      4033      4035
      4012      4014      4017      4018      4012      4014      4017      4019
      4012      4014      4017      4020      4012      4022      4020      4017
      4012      4022      4020      4021      4012      4022      4020      4046
      4012      4022      4023      4024      4012      4022      4023      4025
      4012      4022      4023      4026      4012      4022      4027      4028
      4012      4022      4027      4029      4012      4022      4027      4030
      4013      4012      4010      4033      4013      4012      4014      4015
      4013      4012      4014      4016      4013      4012      4014      4017
      4013      4012      4022      4020      4013      4012      4022      4023
      4013      4012      4022      4027      4014      4012      4010      4033
      4014      4012      4022      4020      4014      4012      4022      4023
      4014      4012      4022      4027      4014      4017      4020      4021
      4014      4017      4020      4022      4014      4017      4020      4046
      4015      4014      4012      4022      4015      4014      4017      4018
      4015      4014      4017      4019      4015      4014      4017      4020
      4016      4014      4012      4022      4016      4014      4017      4018
      4016      4014      4017      4019      4016      4014      4017      4020
      4017      4014      4012      4022      4017      4020      4022      4023
      4017      4020      4022      4027      4017      4020      4046      4047
      4017      4020      4046      4048      4017      4020      4046      4052
      4018      4017      4020      4021      4018      4017      4020      4022
      4018      4017      4020      4046      4019      4017      4020      4021
      4019      4017      4020      4022      4019      4017      4020      4046
      4020      4022      4023      4024      4020      4022      4023      4025
      4020      4022      4023      4026      4020      4022      4027      4028
      4020      4022      4027      4029      4020      4022      4027      4030
      4020      4046      4048      4049      4020      4046      4048      4050
      4020      4046      4048      4051      4020      4046      4052      4053
      4020      4046      4052      4054      4020      4046      4052      4055
      4021      4020      4022      4023      4021      4020      4022      4027
      4021      4020      4046      4047      4021      4020      4046      4048
      4021      4020      4046      4052      4022      4012      4010      4033
      4022      4020      4046      4047      4022      4020      4046      4048
      4022      4020      4046      4052      4022      4027      4030      4031
      4022      4027      4030      4032      4022      4027      4030      4033
      4023      4022      4020      4046      4023      4022      4027      4028
      4023      4022      4027      4029      4023      4022      4027      4030
      4024      4023      4022      4027      4025      4023      4022      4027
      4026      4023      4022      4027      4027      4022      4020      4046
      4027      4030      4033      4034      4027      4030      4033      4035
      4028      4027      4030      4031      4028      4027      4030      4032
      4028      4027      4030      4033      4029      4027      4030      4031
      4029      4027      4030      4032      4029      4027      4030      4033
      4030      4033      4035      4036      4030      4033      4035      4040
      4031      4030      4033      4034      4031      4030      4033      4035
      4032      4030      4033      4034      4032      4030      4033      4035
      4033      4035      4036      4037      4033      4035      4036      4038
      4033      4035      4036      4039      4033      4035      4040      4041
      4033      4035      4040      4042      4033      4035      4040      4043
      4034      4033      4035      4036      4034      4033      4035      4040
      4035      4040      4043      4044      4035      4040      4043      4045
      4036      4035      4040      4041      4036      4035      4040      4042
      4036      4035      4040      4043      4037      4036      4035      4040
      4038      4036      4035      4040      4039      4036      4035      4040
      4041      4040      4043      4044      4041      4040      4043      4045
      4042      4040      4043      4044      4042      4040      4043      4045
      4046      4052      4055      4056      4046      4052      4055      4057
      4046      4052      4055      4058      4047      4046      4048      4049
      4047      4046      4048      4050      4047      4046      4048      4051
      4047      4046      4052      4053      4047      4046      4052      4054
      4047      4046      4052      4055      4048      4046      4052      4053
      4048      4046      4052      4054      4048      4046      4052      4055
      4049      4048      4046      4052      4050      4048      4046      4052
      4051      4048      4046      4052      4052      4055      4058      4059
      4052      4055      4058      4060      4052      4055      4058      4061
      4053      4052      4055      4056      4053      4052      4055      4057
      4053      4052      4055      4058      4054      4052      4055      4056
      4054      4052      4055      4057      4054      4052      4055      4058
      4055      4058      4061      4062      4055      4058      4061      4063
      4055      4058      4061      4067      4056      4055      4058      4059
      4056      4055      4058      4060      4056      4055      4058      4061
      4057      4055      4058      4059      4057      4055      4058      4060
      4057      4055      4058      4061      4058      4061      4063      4064
      4058      4061      4063      4065      4058      4061      4063      4066
      4058      4061      4067      4068      4058      4061      4067      4069
      4058      4061      4067      4070      4059      4058      4061      4062
      4059      4058      4061      4063      4059      4058      4061      4067
      4060      4058      4061      4062      4060      4058      4061      4063
      4060      4058      4061      4067      4062      4061      4063      4064
      4062      4061      4063      4065      4062      4061      4063      4066
      4062      4061      4067      4068      4062      4061      4067      4069
      4062      4061      4067      4070      4063      4061      4067      4068
      4063      4061      4067      4069      4063      4061      4067      4070
      4064      4063      4061      4067      4065      4063      4061      4067
      4066      4063      4061      4067      9875      9879      9881      9882
      9875      9879      9881      9883      9875      9879      9884      9885
      9875      9879      9884      9886      9875      9879      9884      9890
      9876      9875      9879      9880      9876      9875      9879      9881
      9876      9875      9879      9884      9877      9875      9879      9880
      9877      9875      9879      9881      9877      9875      9879      9884
      9878      9875      9879      9880      9878      9875      9879      9881
      9878      9875      9879      9884      9879      9884      9890      9887
      9880      9879      9881      9882      9880      9879      9881      9883
      9880      9879      9884      9885      9880      9879      9884      9886
      9880      9879      9884      9890      9881      9879      9884      9885
      9881      9879      9884      9886      9881      9879      9884      9890
      9882      9881      9879      9884      9883      9881      9879      9884
      9884      9890      9887      9888      9884      9890      9887      9889
      9884      9890      9887      9891      9885      9884      9890      9887
      9886      9884      9890      9887      9887      9891      9892      9893
      9887      9891      9892      9894      9887      9891      9892      9895
      9888      9887      9891      9892      9889      9887      9891      9892
      9890      9887      9891      9892      9891      9892      9895      9896
      9891      9892      9895      9897      9891      9892      9895      9903
      9892      9895      9897      9898      9892      9895      9903      9904
      9892      9895      9903      9905      9892      9895      9903      9906
      9893      9892      9895      9896      9893      9892      9895      9897
      9893      9892      9895      9903      9894      9892      9895      9896
      9894      9892      9895      9897      9894      9892      9895      9903
      9895      9897      9898      9899      9895      9897      9898      9900
      9895      9903      9906      9907      9896      9895      9897      9898
      9896      9895      9903      9904      9896      9895      9903      9905
      9896      9895      9903      9906      9897      9895      9903      9904
      9897      9895      9903      9905      9897      9895      9903      9906
      9897      9898      9900      9901      9897      9898      9900      9902
      9897      9898      9900      9912      9898      9897      9895      9903
      9898      9900      9912      9913      9898      9900      9912      9914
      9898      9900      9912      9915      9899      9898      9900      9901
      9899      9898      9900      9902      9899      9898      9900      9912
      9900      9912      9915      9916      9900      9912      9915      9917
      9900      9912      9915      9918      9901      9900      9912      9913
      9901      9900      9912      9914      9901      9900      9912      9915
      9902      9900      9912      9913      9902      9900      9912      9914
      9902      9900      9912      9915      9903      9906      9907      9908
      9903      9906      9907      9909      9904      9903      9906      9907
      9905      9903      9906      9907      9906      9907      9909      9910
      9906      9907      9909      9911      9906      9907      9909      9959
      9907      9909      9959      9960      9907      9909      9959      9961
      9907      9909      9959      9962      9908      9907      9909      9910
      9908      9907      9909      9911      9908      9907      9909      9959
      9909      9959      9962      9963      9909      9959      9962      9964
      9909      9959      9962      9965      9910      9909      9959      9960
      9910      9909      9959      9961      9910      9909      9959      9962
      9911      9909      9959      9960      9911      9909      9959      9961
      9911      9909      9959      9962      9912      9915      9918      9919
      9912      9915      9918      9920      9913      9912      9915      9916
      9913      9912      9915      9917      9913      9912      9915      9918
      9914      9912      9915      9916      9914      9912      9915      9917
      9914      9912      9915      9918      9915      9918      9920      9921
      9915      9918      9920      9922      9916      9915      9918      9919
      9916      9915      9918      9920      9917      9915      9918      9919
      9917      9915      9918      9920      9918      9920      9922      9923
      9918      9920      9922      9924      9918      9920      9922      9925
      9919      9918      9920      9921      9919      9918      9920      9922
      9920      9922      9925      9926      9920      9922      9925      9927
      9921      9920      9922      9923      9921      9920      9922      9924
      9921      9920      9922      9925      9922      9925      9927      9928
      9922      9925      9927      9929      9923      9922      9925      9926
      9923      9922      9925      9927      9924      9922      9925      9926
      9924      9922      9925      9927      9925      9927      9929      9930
      9925      9927      9929      9931      9925      9927      9929      9932
      9926      9925      9927      9928      9926      9925      9927      9929
      9927      9929      9932      9933      9927      9929      9932      9934
      9928      9927      9929      9930      9928      9927      9929      9931
      9928      9927      9929      9932      9929      9932      9934      9935
      9929      9932      9934      9936      9930      9929      9932      9933
      9930      9929      9932      9934      9931      9929      9932      9933
      9931      9929      9932      9934      9932      9934      9936      9937
      9932      9934      9936      9938      9932      9934      9936      9939
      9933      9932      9934      9935      9933      9932      9934      9936
      9934      9936      9939      9940      9934      9936      9939      9941
      9935      9934      9936      9937      9935      9934      9936      9938
      9935      9934      9936      9939      9936      9939      9941      9942
      9936      9939      9941      9943      9937      9936      9939      9940
      9937      9936      9939      9941      9938      9936      9939      9940
      9938      9936      9939      9941      9939      9941      9943      9944
      9939      9941      9943      9945      9939      9941      9943      9946
      9940      9939      9941      9942      9940      9939      9941      9943
      9941      9943      9946      9947      9941      9943      9946      9948
      9941      9943      9946      9949      9942      9941      9943      9944
      9942      9941      9943      9945      9942      9941      9943      9946
      9943      9946      9949      9950      9943      9946      9949      9951
      9943      9946      9949      9952      9944      9943      9946      9947
      9944      9943      9946      9948      9944      9943      9946      9949
      9945      9943      9946      9947      9945      9943      9946      9948
      9945      9943      9946      9949      9946      9949      9952      9953
      9946      9949      9952      9954      9946      9949      9952      9955
      9947      9946      9949      9950      9947      9946      9949      9951
      9947      9946      9949      9952      9948      9946      9949      9950
      9948      9946      9949      9951      9948      9946      9949      9952
      9949      9952      9955      9956      9949      9952      9955      9957
      9949      9952      9955      9958      9950      9949      9952      9953
      9950      9949      9952      9954      9950      9949      9952      9955
      9951      9949      9952      9953      9951      9949      9952      9954
      9951      9949      9952      9955      9953      9952      9955      9956
      9953      9952      9955      9957      9953      9952      9955      9958
      9954      9952      9955      9956      9954      9952      9955      9957
      9954      9952      9955      9958      9959      9962      9965      9966
      9959      9962      9965      9967      9959      9962      9965      9968
      9960      9959      9962      9963      9960      9959      9962      9964
      9960      9959      9962      9965      9961      9959      9962      9963
      9961      9959      9962      9964      9961      9959      9962      9965
      9962      9965      9968      9969      9962      9965      9968      9970
      9962      9965      9968      9971      9963      9962      9965      9966
      9963      9962      9965      9967      9963      9962      9965      9968
      9964      9962      9965      9966      9964      9962      9965      9967
      9964      9962      9965      9968      9965      9968      9971      9972
      9965      9968      9971      9973      9965      9968      9971      9974
      9966      9965      9968      9969      9966      9965      9968      9970
      9966      9965      9968      9971      9967      9965      9968      9969
      9967      9965      9968      9970      9967      9965      9968      9971
      9968      9971      9974      9975      9968      9971      9974      9976
      9968      9971      9974      9977      9969      9968      9971      9972
      9969      9968      9971      9973      9969      9968      9971      9974
      9970      9968      9971      9972      9970      9968      9971      9973
      9970      9968      9971      9974      9971      9974      9977      9978
      9971      9974      9977      9979      9971      9974      9977      9980
      9972      9971      9974      9975      9972      9971      9974      9976
      9972      9971      9974      9977      9973      9971      9974      9975
      9973      9971      9974      9976      9973      9971      9974      9977
      9974      9977      9980      9981      9974      9977      9980      9982
      9974      9977      9980      9983      9975      9974      9977      9978
      9975      9974      9977      9979      9975      9974      9977      9980
      9976      9974      9977      9978      9976      9974      9977      9979
      9976      9974      9977      9980      9977      9980      9983      9984
      9977      9980      9983      9985      9977      9980      9983      9986
      9978      9977      9980      9981      9978      9977      9980      9982
      9978      9977      9980      9983      9979      9977      9980      9981
      9979      9977      9980      9982      9979      9977      9980      9983
      9980      9983      9986      9987      9980      9983      9986      9988
      9980      9983      9986      9989      9981      9980      9983      9984
      9981      9980      9983      9985      9981      9980      9983      9986
      9982      9980      9983      9984      9982      9980      9983      9985
      9982      9980      9983      9986      9983      9986      9989      9990
      9983      9986      9989      9991      9983      9986      9989      9992
      9984      9983      9986      9987      9984      9983      9986      9988
      9984      9983      9986      9989      9985      9983      9986      9987
      9985      9983      9986      9988      9985      9983      9986      9989
      9986      9989      9992      9993      9986      9989      9992      9994
      9986      9989      9992      9995      9987      9986      9989      9990
      9987      9986      9989      9991      9987      9986      9989      9992
      9988      9986      9989      9990      9988      9986      9989      9991
      9988      9986      9989      9992      9989      9992      9995      9996
      9989      9992      9995      9997      9989      9992      9995      9998
      9990      9989      9992      9993      9990      9989      9992      9994
      9990      9989      9992      9995      9991      9989      9992      9993
      9991      9989      9992      9994      9991      9989      9992      9995
      9992      9995      9998      9999      9992      9995      9998     10000
      9992      9995      9998     10001      9993      9992      9995      9996
      9993      9992      9995      9997      9993      9992      9995      9998
      9994      9992      9995      9996      9994      9992      9995      9997
      9994      9992      9995      9998      9995      9998     10001     10002
      9995      9998     10001     10003      9995      9998     10001     10004
      9996      9995      9998      9999      9996      9995      9998     10000
      9996      9995      9998     10001      9997      9995      9998      9999
      9997      9995      9998     10000      9997      9995      9998     10001
      9998     10001     10004     10005      9998     10001     10004     10006
      9998     10001     10004     10007      9999      9998     10001     10002
      9999      9998     10001     10003      9999      9998     10001     10004
     10000      9998     10001     10002     10000      9998     10001     10003
     10000      9998     10001     10004     10002     10001     10004     10005
     10002     10001     10004     10006     10002     10001     10004     10007
     10003     10001     10004     10005     10003     10001     10004     10006
     10003     10001     10004     10007     10008     10012     10014     10015
     10008     10012     10014     10016     10008     10012     10017     10018
     10008     10012     10017     10019     10008     10012     10017     10023
     10009     10008     10012     10013     10009     10008     10012     10014
     10009     10008     10012     10017     10010     10008     10012     10013
     10010     10008     10012     10014     10010     10008     10012     10017
     10011     10008     10012     10013     10011     10008     10012     10014
     10011     10008     10012     10017     10012     10017     10023     10020
     10013     10012     10014     10015     10013     10012     10014     10016
     10013     10012     10017     10018     10013     10012     10017     10019
     10013     10012     10017     10023     10014     10012     10017     10018
     10014     10012     10017     10019     10014     10012     10017     10023
     10015     10014     10012     10017     10016     10014     10012     10017
     10017     10023     10020     10021     10017     10023     10020     10022
     10017     10023     10020     10024     10018     10017     10023     10020
     10019     10017     10023     10020     10020     10024     10025     10026
     10020     10024     10025     10027     10020     10024     10025     10028
     10021     10020     10024     10025     10022     10020     10024     10025
     10023     10020     10024     10025     10024     10025     10028     10029
     10024     10025     10028     10030     10024     10025     10028     10036
     10025     10028     10030     10031     10025     10028     10036     10037
     10025     10028     10036     10038     10025     10028     10036     10039
     10026     10025     10028     10029     10026     10025     10028     10030
     10026     10025     10028     10036     10027     10025     10028     10029
     10027     10025     10028     10030     10027     10025     10028     10036
     10028     10030     10031     10032     10028     10030     10031     10033
     10028     10036     10039     10040     10029     10028     10030     10031
     10029     10028     10036     10037     10029     10028     10036     10038
     10029     10028     10036     10039     10030     10028     10036     10037
     10030     10028     10036     10038     10030     10028     10036     10039
     10030     10031     10033     10034     10030     10031     10033     10035
     10030     10031     10033     10045     10031     10030     10028     10036
     10031     10033     10045     10046     10031     10033     10045     10047
     10031     10033     10045     10048     10032     10031     10033     10034
     10032     10031     10033     10035     10032     10031     10033     10045
     10033     10045     10048     10049     10033     10045     10048     10050
     10033     10045     10048     10051     10034     10033     10045     10046
     10034     10033     10045     10047     10034     10033     10045     10048
     10035     10033     10045     10046     10035     10033     10045     10047
     10035     10033     10045     10048     10036     10039     10040     10041
     10036     10039     10040     10042     10037     10036     10039     10040
     10038     10036     10039     10040     10039     10040     10042     10043
     10039     10040     10042     10044     10039     10040     10042     10092
     10040     10042     10092     10093     10040     10042     10092     10094
     10040     10042     10092     10095     10041     10040     10042     10043
     10041     10040     10042     10044     10041     10040     10042     10092
     10042     10092     10095     10096     10042     10092     10095     10097
     10042     10092     10095     10098     10043     10042     10092     10093
     10043     10042     10092     10094     10043     10042     10092     10095
     10044     10042     10092     10093     10044     10042     10092     10094
     10044     10042     10092     10095     10045     10048     10051     10052
     10045     10048     10051     10053     10046     10045     10048     10049
     10046     10045     10048     10050     10046     10045     10048     10051
     10047     10045     10048     10049     10047     10045     10048     10050
     10047     10045     10048     10051     10048     10051     10053     10054
     10048     10051     10053     10055     10049     10048     10051     10052
     10049     10048     10051     10053     10050     10048     10051     10052
     10050     10048     10051     10053     10051     10053     10055     10056
     10051     10053     10055     10057     10051     10053     10055     10058
     10052     10051     10053     10054     10052     10051     10053     10055
     10053     10055     10058     10059     10053     10055     10058     10060
     10054     10053     10055     10056     10054     10053     10055     10057
     10054     10053     10055     10058     10055     10058     10060     10061
     10055     10058     10060     10062     10056     10055     10058     10059
     10056     10055     10058     10060     10057     10055     10058     10059
     10057     10055     10058     10060     10058     10060     10062     10063
     10058     10060     10062     10064     10058     10060     10062     10065
     10059     10058     10060     10061     10059     10058     10060     10062
     10060     10062     10065     10066     10060     10062     10065     10067
     10061     10060     10062     10063     10061     10060     10062     10064
     10061     10060     10062     10065     10062     10065     10067     10068
     10062     10065     10067     10069     10063     10062     10065     10066
     10063     10062     10065     10067     10064     10062     10065     10066
     10064     10062     10065     10067     10065     10067     10069     10070
     10065     10067     10069     10071     10065     10067     10069     10072
     10066     10065     10067     10068     10066     10065     10067     10069
     10067     10069     10072     10073     10067     10069     10072     10074
     10068     10067     10069     10070     10068     10067     10069     10071
     10068     10067     10069     10072     10069     10072     10074     10075
     10069     10072     10074     10076     10070     10069     10072     10073
     10070     10069     10072     10074     10071     10069     10072     10073
     10071     10069     10072     10074     10072     10074     10076     10077
     10072     10074     10076     10078     10072     10074     10076     10079
     10073     10072     10074     10075     10073     10072     10074     10076
     10074     10076     10079     10080     10074     10076     10079     10081
     10074     10076     10079     10082     10075     10074     10076     10077
     10075     10074     10076     10078     10075     10074     10076     10079
     10076     10079     10082     10083     10076     10079     10082     10084
     10076     10079     10082     10085     10077     10076     10079     10080
     10077     10076     10079     10081     10077     10076     10079     10082
     10078     10076     10079     10080     10078     10076     10079     10081
     10078     10076     10079     10082     10079     10082     10085     10086
     10079     10082     10085     10087     10079     10082     10085     10088
     10080     10079     10082     10083     10080     10079     10082     10084
     10080     10079     10082     10085     10081     10079     10082     10083
     10081     10079     10082     10084     10081     10079     10082     10085
     10082     10085     10088     10089     10082     10085     10088     10090
     10082     10085     10088     10091     10083     10082     10085     10086
     10083     10082     10085     10087     10083     10082     10085     10088
     10084     10082     10085     10086     10084     10082     10085     10087
     10084     10082     10085     10088     10086     10085     10088     10089
     10086     10085     10088     10090     10086     10085     10088     10091
     10087     10085     10088     10089     10087     10085     10088     10090
     10087     10085     10088     10091     10092     10095     10098     10099
     10092     10095     10098     10100     10092     10095     10098     10101
     10093     10092     10095     10096     10093     10092     10095     10097
     10093     10092     10095     10098     10094     10092     10095     10096
     10094     10092     10095     10097     10094     10092     10095     10098
     10095     10098     10101     10102     10095     10098     10101     10103
     10095     10098     10101     10104     10096     10095     10098     10099
     10096     10095     10098     10100     10096     10095     10098     10101
     10097     10095     10098     10099     10097     10095     10098     10100
     10097     10095     10098     10101     10098     10101     10104     10105
     10098     10101     10104     10106     10098     10101     10104     10107
     10099     10098     10101     10102     10099     10098     10101     10103
     10099     10098     10101     10104     10100     10098     10101     10102
     10100     10098     10101     10103     10100     10098     10101     10104
     10101     10104     10107     10108     10101     10104     10107     10109
     10101     10104     10107     10110     10102     10101     10104     10105
     10102     10101     10104     10106     10102     10101     10104     10107
     10103     10101     10104     10105     10103     10101     10104     10106
     10103     10101     10104     10107     10104     10107     10110     10111
     10104     10107     10110     10112     10104     10107     10110     10113
     10105     10104     10107     10108     10105     10104     10107     10109
     10105     10104     10107     10110     10106     10104     10107     10108
     10106     10104     10107     10109     10106     10104     10107     10110
     10107     10110     10113     10114     10107     10110     10113     10115
     10107     10110     10113     10116     10108     10107     10110     10111
     10108     10107     10110     10112     10108     10107     10110     10113
     10109     10107     10110     10111     10109     10107     10110     10112
     10109     10107     10110     10113     10110     10113     10116     10117
     10110     10113     10116     10118     10110     10113     10116     10119
     10111     10110     10113     10114     10111     10110     10113     10115
     10111     10110     10113     10116     10112     10110     10113     10114
     10112     10110     10113     10115     10112     10110     10113     10116
     10113     10116     10119     10120     10113     10116     10119     10121
     10113     10116     10119     10122     10114     10113     10116     10117
     10114     10113     10116     10118     10114     10113     10116     10119
     10115     10113     10116     10117     10115     10113     10116     10118
     10115     10113     10116     10119     10116     10119     10122     10123
     10116     10119     10122     10124     10116     10119     10122     10125
     10117     10116     10119     10120     10117     10116     10119     10121
     10117     10116     10119     10122     10118     10116     10119     10120
     10118     10116     10119     10121     10118     10116     10119     10122
     10119     10122     10125     10126     10119     10122     10125     10127
     10119     10122     10125     10128     10120     10119     10122     10123
     10120     10119     10122     10124     10120     10119     10122     10125
     10121     10119     10122     10123     10121     10119     10122     10124
     10121     10119     10122     10125     10122     10125     10128     10129
     10122     10125     10128     10130     10122     10125     10128     10131
     10123     10122     10125     10126     10123     10122     10125     10127
     10123     10122     10125     10128     10124     10122     10125     10126
     10124     10122     10125     10127     10124     10122     10125     10128
     10125     10128     10131     10132     10125     10128     10131     10133
     10125     10128     10131     10134     10126     10125     10128     10129
     10126     10125     10128     10130     10126     10125     10128     10131
     10127     10125     10128     10129     10127     10125     10128     10130
     10127     10125     10128     10131     10128     10131     10134     10135
     10128     10131     10134     10136     10128     10131     10134     10137
     10129     10128     10131     10132     10129     10128     10131     10133
     10129     10128     10131     10134     10130     10128     10131     10132
     10130     10128     10131     10133     10130     10128     10131     10134
     10131     10134     10137     10138     10131     10134     10137     10139
     10131     10134     10137     10140     10132     10131     10134     10135
     10132     10131     10134     10136     10132     10131     10134     10137
     10133     10131     10134     10135     10133     10131     10134     10136
     10133     10131     10134     10137     10135     10134     10137     10138
     10135     10134     10137     10139     10135     10134     10137     10140
     10136     10134     10137     10138     10136     10134     10137     10139
     10136     10134     10137     10140     19180     19184     19187     19188
     19180     19184     19187     19189     19180     19184     19187     19193
     19181     19180     19184     19185     19181     19180     19184     19186
     19181     19180     19184     19187     19182     19180     19184     19185
     19182     19180     19184     19186     19182     19180     19184     19187
     19183     19180     19184     19185     19183     19180     19184     19186
     19183     19180     19184     19187     19184     19187     19193     19190
     19185     19184     19187     19188     19185     19184     19187     19189
     19185     19184     19187     19193     19186     19184     19187     19188
     19186     19184     19187     19189     19186     19184     19187     19193
     19187     19193     19190     19191     19187     19193     19190     19192
     19187     19193     19190     19194     19188     19187     19193     19190
     19189     19187     19193     19190     19190     19194     19195     19196
     19190     19194     19195     19197     19190     19194     19195     19198
     19191     19190     19194     19195     19192     19190     19194     19195
     19193     19190     19194     19195     19194     19195     19198     19199
     19194     19195     19198     19200     19194     19195     19198     19206
     19195     19198     19200     19201     19195     19198     19206     19207
     19195     19198     19206     19208     19195     19198     19206     19209
     19196     19195     19198     19199     19196     19195     19198     19200
     19196     19195     19198     19206     19197     19195     19198     19199
     19197     19195     19198     19200     19197     19195     19198     19206
     19198     19200     19201     19202     19198     19200     19201     19203
     19198     19206     19209     19210     19199     19198     19200     19201
     19199     19198     19206     19207     19199     19198     19206     19208
     19199     19198     19206     19209     19200     19198     19206     19207
     19200     19198     19206     19208     19200     19198     19206     19209
     19200     19201     19203     19204     19200     19201     19203     19205
     19200     19201     19203     19215     19201     19200     19198     19206
     19201     19203     19215     19216     19201     19203     19215     19217
     19201     19203     19215     19218     19202     19201     19203     19204
     19202     19201     19203     19205     19202     19201     19203     19215
     19203     19215     19218     19219     19203     19215     19218     19220
     19203     19215     19218     19221     19204     19203     19215     19216
     19204     19203     19215     19217     19204     19203     19215     19218
     19205     19203     19215     19216     19205     19203     19215     19217
     19205     19203     19215     19218     19206     19209     19210     19211
     19206     19209     19210     19212     19207     19206     19209     19210
     19208     19206     19209     19210     19209     19210     19212     19213
     19209     19210     19212     19214     19209     19210     19212     19262
     19210     19212     19262     19263     19210     19212     19262     19264
     19210     19212     19262     19265     19211     19210     19212     19213
     19211     19210     19212     19214     19211     19210     19212     19262
     19212     19262     19265     19266     19212     19262     19265     19267
     19212     19262     19265     19268     19213     19212     19262     19263
     19213     19212     19262     19264     19213     19212     19262     19265
     19214     19212     19262     19263     19214     19212     19262     19264
     19214     19212     19262     19265     19215     19218     19221     19222
     19215     19218     19221     19223     19216     19215     19218     19219
     19216     19215     19218     19220     19216     19215     19218     19221
     19217     19215     19218     19219     19217     19215     19218     19220
     19217     19215     19218     19221     19218     19221     19223     19224
     19218     19221     19223     19225     19219     19218     19221     19222
     19219     19218     19221     19223     19220     19218     19221     19222
     19220     19218     19221     19223     19221     19223     19225     19226
     19221     19223     19225     19227     19221     19223     19225     19228
     19222     19221     19223     19224     19222     19221     19223     19225
     19223     19225     19228     19229     19223     19225     19228     19230
     19224     19223     19225     19226     19224     19223     19225     19227
     19224     19223     19225     19228     19225     19228     19230     19231
     19225     19228     19230     19232     19226     19225     19228     19229
     19226     19225     19228     19230     19227     19225     19228     19229
     19227     19225     19228     19230     19228     19230     19232     19233
     19228     19230     19232     19234     19228     19230     19232     19235
     19229     19228     19230     19231     19229     19228     19230     19232
     19230     19232     19235     19236     19230     19232     19235     19237
     19231     19230     19232     19233     19231     19230     19232     19234
     19231     19230     19232     19235     19232     19235     19237     19238
     19232     19235     19237     19239     19233     19232     19235     19236
     19233     19232     19235     19237     19234     19232     19235     19236
     19234     19232     19235     19237     19235     19237     19239     19240
     19235     19237     19239     19241     19235     19237     19239     19242
     19236     19235     19237     19238     19236     19235     19237     19239
     19237     19239     19242     19243     19237     19239     19242     19244
     19238     19237     19239     19240     19238     19237     19239     19241
     19238     19237     19239     19242     19239     19242     19244     19245
     19239     19242     19244     19246     19240     19239     19242     19243
     19240     19239     19242     19244     19241     19239     19242     19243
     19241     19239     19242     19244     19242     19244     19246     19247
     19242     19244     19246     19248     19242     19244     19246     19249
     19243     19242     19244     19245     19243     19242     19244     19246
     19244     19246     19249     19250     19244     19246     19249     19251
     19244     19246     19249     19252     19245     19244     19246     19247
     19245     19244     19246     19248     19245     19244     19246     19249
     19246     19249     19252     19253     19246     19249     19252     19254
     19246     19249     19252     19255     19247     19246     19249     19250
     19247     19246     19249     19251     19247     19246     19249     19252
     19248     19246     19249     19250     19248     19246     19249     19251
     19248     19246     19249     19252     19249     19252     19255     19256
     19249     19252     19255     19257     19249     19252     19255     19258
     19250     19249     19252     19253     19250     19249     19252     19254
     19250     19249     19252     19255     19251     19249     19252     19253
     19251     19249     19252     19254     19251     19249     19252     19255
     19252     19255     19258     19259     19252     19255     19258     19260
     19252     19255     19258     19261     19253     19252     19255     19256
     19253     19252     19255     19257     19253     19252     19255     19258
     19254     19252     19255     19256     19254     19252     19255     19257
     19254     19252     19255     19258     19256     19255     19258     19259
     19256     19255     19258     19260     19256     19255     19258     19261
     19257     19255     19258     19259     19257     19255     19258     19260
     19257     19255     19258     19261     19262     19265     19268     19269
     19262     19265     19268     19270     19262     19265     19268     19271
     19263     19262     19265     19266     19263     19262     19265     19267
     19263     19262     19265     19268     19264     19262     19265     19266
     19264     19262     19265     19267     19264     19262     19265     19268
     19265     19268     19271     19272     19265     19268     19271     19273
     19265     19268     19271     19274     19266     19265     19268     19269
     19266     19265     19268     19270     19266     19265     19268     19271
     19267     19265     19268     19269     19267     19265     19268     19270
     19267     19265     19268     19271     19268     19271     19274     19275
     19268     19271     19274     19276     19268     19271     19274     19277
     19269     19268     19271     19272     19269     19268     19271     19273
     19269     19268     19271     19274     19270     19268     19271     19272
     19270     19268     19271     19273     19270     19268     19271     19274
     19271     19274     19277     19278     19271     19274     19277     19279
     19271     19274     19277     19280     19272     19271     19274     19275
     19272     19271     19274     19276     19272     19271     19274     19277
     19273     19271     19274     19275     19273     19271     19274     19276
     19273     19271     19274     19277     19274     19277     19280     19281
     19274     19277     19280     19282     19274     19277     19280     19283
     19275     19274     19277     19278     19275     19274     19277     19279
     19275     19274     19277     19280     19276     19274     19277     19278
     19276     19274     19277     19279     19276     19274     19277     19280
     19277     19280     19283     19284     19277     19280     19283     19285
     19277     19280     19283     19286     19278     19277     19280     19281
     19278     19277     19280     19282     19278     19277     19280     19283
     19279     19277     19280     19281     19279     19277     19280     19282
     19279     19277     19280     19283     19280     19283     19286     19287
     19280     19283     19286     19288     19280     19283     19286     19289
     19281     19280     19283     19284     19281     19280     19283     19285
     19281     19280     19283     19286     19282     19280     19283     19284
     19282     19280     19283     19285     19282     19280     19283     19286
     19283     19286     19289     19290     19283     19286     19289     19291
     19283     19286     19289     19292     19284     19283     19286     19287
     19284     19283     19286     19288     19284     19283     19286     19289
     19285     19283     19286     19287     19285     19283     19286     19288
     19285     19283     19286     19289     19286     19289     19292     19293
     19286     19289     19292     19294     19286     19289     19292     19295
     19287     19286     19289     19290     19287     19286     19289     19291
     19287     19286     19289     19292     19288     19286     19289     19290
     19288     19286     19289     19291     19288     19286     19289     19292
     19289     19292     19295     19296     19289     19292     19295     19297
     19289     19292     19295     19298     19290     19289     19292     19293
     19290     19289     19292     19294     19290     19289     19292     19295
     19291     19289     19292     19293     19291     19289     19292     19294
     19291     19289     19292     19295     19292     19295     19298     19299
     19292     19295     19298     19300     19292     19295     19298     19301
     19293     19292     19295     19296     19293     19292     19295     19297
     19293     19292     19295     19298     19294     19292     19295     19296
     19294     19292     19295     19297     19294     19292     19295     19298
     19295     19298     19301     19302     19295     19298     19301     19303
     19295     19298     19301     19304     19296     19295     19298     19299
     19296     19295     19298     19300     19296     19295     19298     19301
     19297     19295     19298     19299     19297     19295     19298     19300
     19297     19295     19298     19301     19298     19301     19304     19305
     19298     19301     19304     19306     19298     19301     19304     19307
     19299     19298     19301     19302     19299     19298     19301     19303
     19299     19298     19301     19304     19300     19298     19301     19302
     19300     19298     19301     19303     19300     19298     19301     19304
     19301     19304     19307     19308     19301     19304     19307     19309
     19301     19304     19307     19310     19302     19301     19304     19305
     19302     19301     19304     19306     19302     19301     19304     19307
     19303     19301     19304     19305     19303     19301     19304     19306
     19303     19301     19304     19307     19305     19304     19307     19308
     19305     19304     19307     19309     19305     19304     19307     19310
     19306     19304     19307     19308     19306     19304     19307     19309
     19306     19304     19307     19310     15643     15656     15659     15660
     15643     15656     15659     15661     15643     15656     15659     15666
     15644     15643     15648     15649     15644     15643     15648     15650
     15644     15643     15648     15651     15644     15643     15652     15653
     15644     15643     15652     15654     15644     15643     15652     15655
     15644     15643     15656     15657     15644     15643     15656     15658
     15644     15643     15656     15659     15645     15644     15643     15648
     15645     15644     15643     15652     15645     15644     15643     15656
     15646     15644     15643     15648     15646     15644     15643     15652
     15646     15644     15643     15656     15647     15644     15643     15648
     15647     15644     15643     15652     15647     15644     15643     15656
     15648     15643     15652     15653     15648     15643     15652     15654
     15648     15643     15652     15655     15648     15643     15656     15657
     15648     15643     15656     15658     15648     15643     15656     15659
     15649     15648     15643     15652     15649     15648     15643     15656
     15650     15648     15643     15652     15650     15648     15643     15656
     15651     15648     15643     15652     15651     15648     15643     15656
     15652     15643     15656     15657     15652     15643     15656     15658
     15652     15643     15656     15659     15653     15652     15643     15656
     15654     15652     15643     15656     15655     15652     15643     15656
     15656     15659     15666     15662     15657     15656     15659     15660
     15657     15656     15659     15661     15657     15656     15659     15666
     15658     15656     15659     15660     15658     15656     15659     15661
     15658     15656     15659     15666     15659     15666     15662     15663
     15659     15666     15662     15664     15659     15666     15662     15665
     15660     15659     15666     15662     15661     15659     15666     15662
     15662     15665     15667     15668     15662     15665     15667     15669
     15662     15665     15667     15672     15663     15662     15665     15667
     15664     15662     15665     15667     15665     15667     15672     15670
     15665     15667     15672     15673     15665     15667     15672     15674
     15666     15662     15665     15667     15667     15672     15670     15671
     15667     15672     15670     15722     15667     15672     15674     15675
     15667     15672     15674     15676     15667     15672     15674     15678
     15668     15667     15672     15670     15668     15667     15672     15673
     15668     15667     15672     15674     15669     15667     15672     15670
     15669     15667     15672     15673     15669     15667     15672     15674
     15670     15672     15674     15675     15670     15672     15674     15676
     15670     15672     15674     15678     15670     15722     15724     15725
     15670     15722     15724     15726     15670     15722     15724     15727
     15671     15670     15672     15673     15671     15670     15672     15674
     15671     15670     15722     15723     15671     15670     15722     15724
     15672     15670     15722     15723     15672     15670     15722     15724
     15672     15674     15676     15677     15672     15674     15678     15679
     15672     15674     15678     15680     15673     15672     15670     15722
     15673     15672     15674     15675     15673     15672     15674     15676
     15673     15672     15674     15678     15674     15672     15670     15722
     15674     15678     15680     15681     15674     15678     15680     15682
     15675     15674     15676     15677     15675     15674     15678     15679
     15675     15674     15678     15680     15676     15674     15678     15679
     15676     15674     15678     15680     15677     15676     15674     15678
     15678     15680     15682     15683     15678     15680     15682     15684
     15678     15680     15682     15685     15679     15678     15680     15681
     15679     15678     15680     15682     15680     15682     15685     15686
     15680     15682     15685     15687     15680     15682     15685     15688
     15681     15680     15682     15683     15681     15680     15682     15684
     15681     15680     15682     15685     15682     15685     15688     15689
     15682     15685     15688     15690     15682     15685     15688     15691
     15683     15682     15685     15686     15683     15682     15685     15687
     15683     15682     15685     15688     15684     15682     15685     15686
     15684     15682     15685     15687     15684     15682     15685     15688
     15685     15688     15691     15692     15685     15688     15691     15693
     15685     15688     15691     15694     15686     15685     15688     15689
     15686     15685     15688     15690     15686     15685     15688     15691
     15687     15685     15688     15689     15687     15685     15688     15690
     15687     15685     15688     15691     15688     15691     15694     15695
     15688     15691     15694     15696     15688     15691     15694     15697
     15689     15688     15691     15692     15689     15688     15691     15693
     15689     15688     15691     15694     15690     15688     15691     15692
     15690     15688     15691     15693     15690     15688     15691     15694
     15691     15694     15697     15698     15691     15694     15697     15699
     15691     15694     15697     15700     15692     15691     15694     15695
     15692     15691     15694     15696     15692     15691     15694     15697
     15693     15691     15694     15695     15693     15691     15694     15696
     15693     15691     15694     15697     15694     15697     15700     15701
     15694     15697     15700     15702     15694     15697     15700     15703
     15695     15694     15697     15698     15695     15694     15697     15699
     15695     15694     15697     15700     15696     15694     15697     15698
     15696     15694     15697     15699     15696     15694     15697     15700
     15697     15700     15703     15704     15697     15700     15703     15705
     15697     15700     15703     15706     15698     15697     15700     15701
     15698     15697     15700     15702     15698     15697     15700     15703
     15699     15697     15700     15701     15699     15697     15700     15702
     15699     15697     15700     15703     15700     15703     15706     15707
     15700     15703     15706     15708     15700     15703     15706     15709
     15701     15700     15703     15704     15701     15700     15703     15705
     15701     15700     15703     15706     15702     15700     15703     15704
     15702     15700     15703     15705     15702     15700     15703     15706
     15703     15706     15709     15710     15703     15706     15709     15711
     15703     15706     15709     15712     15704     15703     15706     15707
     15704     15703     15706     15708     15704     15703     15706     15709
     15705     15703     15706     15707     15705     15703     15706     15708
     15705     15703     15706     15709     15706     15709     15712     15713
     15706     15709     15712     15714     15706     15709     15712     15715
     15707     15706     15709     15710     15707     15706     15709     15711
     15707     15706     15709     15712     15708     15706     15709     15710
     15708     15706     15709     15711     15708     15706     15709     15712
     15709     15712     15715     15716     15709     15712     15715     15717
     15709     15712     15715     15718     15710     15709     15712     15713
     15710     15709     15712     15714     15710     15709     15712     15715
     15711     15709     15712     15713     15711     15709     15712     15714
     15711     15709     15712     15715     15712     15715     15718     15719
     15712     15715     15718     15720     15712     15715     15718     15721
     15713     15712     15715     15716     15713     15712     15715     15717
     15713     15712     15715     15718     15714     15712     15715     15716
     15714     15712     15715     15717     15714     15712     15715     15718
     15716     15715     15718     15719     15716     15715     15718     15720
     15716     15715     15718     15721     15717     15715     15718     15719
     15717     15715     15718     15720     15717     15715     15718     15721
     15722     15724     15727     15728     15722     15724     15727     15729
     15722     15724     15727     15730     15723     15722     15724     15725
     15723     15722     15724     15726     15723     15722     15724     15727
     15724     15727     15730     15731     15724     15727     15730     15732
     15724     15727     15730     15733     15725     15724     15727     15728
     15725     15724     15727     15729     15725     15724     15727     15730
     15726     15724     15727     15728     15726     15724     15727     15729
     15726     15724     15727     15730     15727     15730     15733     15734
     15727     15730     15733     15735     15727     15730     15733     15736
     15728     15727     15730     15731     15728     15727     15730     15732
     15728     15727     15730     15733     15729     15727     15730     15731
     15729     15727     15730     15732     15729     15727     15730     15733
     15730     15733     15736     15737     15730     15733     15736     15738
     15730     15733     15736     15739     15731     15730     15733     15734
     15731     15730     15733     15735     15731     15730     15733     15736
     15732     15730     15733     15734     15732     15730     15733     15735
     15732     15730     15733     15736     15733     15736     15739     15740
     15733     15736     15739     15741     15733     15736     15739     15742
     15734     15733     15736     15737     15734     15733     15736     15738
     15734     15733     15736     15739     15735     15733     15736     15737
     15735     15733     15736     15738     15735     15733     15736     15739
     15736     15739     15742     15743     15736     15739     15742     15744
     15736     15739     15742     15745     15737     15736     15739     15740
     15737     15736     15739     15741     15737     15736     15739     15742
     15738     15736     15739     15740     15738     15736     15739     15741
     15738     15736     15739     15742     15739     15742     15745     15746
     15739     15742     15745     15747     15740     15739     15742     15743
     15740     15739     15742     15744     15740     15739     15742     15745
     15741     15739     15742     15743     15741     15739     15742     15744
     15741     15739     15742     15745     15742     15745     15747     15748
     15742     15745     15747     15749     15743     15742     15745     15746
     15743     15742     15745     15747     15744     15742     15745     15746
     15744     15742     15745     15747     15745     15747     15749     15750
     15745     15747     15749     15751     15745     15747     15749     15752
     15746     15745     15747     15748     15746     15745     15747     15749
     15747     15749     15752     15753     15747     15749     15752     15754
     15747     15749     15752     15755     15748     15747     15749     15750
     15748     15747     15749     15751     15748     15747     15749     15752
     15749     15752     15755     15756     15749     15752     15755     15757
     15749     15752     15755     15758     15750     15749     15752     15753
     15750     15749     15752     15754     15750     15749     15752     15755
     15751     15749     15752     15753     15751     15749     15752     15754
     15751     15749     15752     15755     15752     15755     15758     15759
     15752     15755     15758     15760     15752     15755     15758     15761
     15753     15752     15755     15756     15753     15752     15755     15757
     15753     15752     15755     15758     15754     15752     15755     15756
     15754     15752     15755     15757     15754     15752     15755     15758
     15755     15758     15761     15762     15755     15758     15761     15763
     15755     15758     15761     15764     15756     15755     15758     15759
     15756     15755     15758     15760     15756     15755     15758     15761
     15757     15755     15758     15759     15757     15755     15758     15760
     15757     15755     15758     15761     15758     15761     15764     15765
     15758     15761     15764     15766     15758     15761     15764     15767
     15759     15758     15761     15762     15759     15758     15761     15763
     15759     15758     15761     15764     15760     15758     15761     15762
     15760     15758     15761     15763     15760     15758     15761     15764
     15761     15764     15767     15768     15761     15764     15767     15769
     15761     15764     15767     15770     15762     15761     15764     15765
     15762     15761     15764     15766     15762     15761     15764     15767
     15763     15761     15764     15765     15763     15761     15764     15766
     15763     15761     15764     15767     15764     15767     15770     15771
     15764     15767     15770     15772     15764     15767     15770     15773
     15765     15764     15767     15768     15765     15764     15767     15769
     15765     15764     15767     15770     15766     15764     15767     15768
     15766     15764     15767     15769     15766     15764     15767     15770
     15768     15767     15770     15771     15768     15767     15770     15772
     15768     15767     15770     15773     15769     15767     15770     15771
     15769     15767     15770     15772     15769     15767     15770     15773
     15774     15787     15790     15791     15774     15787     15790     15792
     15774     15787     15790     15797     15775     15774     15779     15780
     15775     15774     15779     15781     15775     15774     15779     15782
     15775     15774     15783     15784     15775     15774     15783     15785
     15775     15774     15783     15786     15775     15774     15787     15788
     15775     15774     15787     15789     15775     15774     15787     15790
     15776     15775     15774     15779     15776     15775     15774     15783
     15776     15775     15774     15787     15777     15775     15774     15779
     15777     15775     15774     15783     15777     15775     15774     15787
     15778     15775     15774     15779     15778     15775     15774     15783
     15778     15775     15774     15787     15779     15774     15783     15784
     15779     15774     15783     15785     15779     15774     15783     15786
     15779     15774     15787     15788     15779     15774     15787     15789
     15779     15774     15787     15790     15780     15779     15774     15783
     15780     15779     15774     15787     15781     15779     15774     15783
     15781     15779     15774     15787     15782     15779     15774     15783
     15782     15779     15774     15787     15783     15774     15787     15788
     15783     15774     15787     15789     15783     15774     15787     15790
     15784     15783     15774     15787     15785     15783     15774     15787
     15786     15783     15774     15787     15787     15790     15797     15793
     15788     15787     15790     15791     15788     15787     15790     15792
     15788     15787     15790     15797     15789     15787     15790     15791
     15789     15787     15790     15792     15789     15787     15790     15797
     15790     15797     15793     15794     15790     15797     15793     15795
     15790     15797     15793     15796     15791     15790     15797     15793
     15792     15790     15797     15793     15793     15796     15798     15799
     15793     15796     15798     15800     15793     15796     15798     15803
     15794     15793     15796     15798     15795     15793     15796     15798
     15796     15798     15803     15801     15796     15798     15803     15804
     15796     15798     15803     15805     15797     15793     15796     15798
     15798     15803     15801     15802     15798     15803     15801     15853
     15798     15803     15805     15806     15798     15803     15805     15807
     15798     15803     15805     15809     15799     15798     15803     15801
     15799     15798     15803     15804     15799     15798     15803     15805
     15800     15798     15803     15801     15800     15798     15803     15804
     15800     15798     15803     15805     15801     15803     15805     15806
     15801     15803     15805     15807     15801     15803     15805     15809
     15801     15853     15855     15856     15801     15853     15855     15857
     15801     15853     15855     15858     15802     15801     15803     15804
     15802     15801     15803     15805     15802     15801     15853     15854
     15802     15801     15853     15855     15803     15801     15853     15854
     15803     15801     15853     15855     15803     15805     15807     15808
     15803     15805     15809     15810     15803     15805     15809     15811
     15804     15803     15801     15853     15804     15803     15805     15806
     15804     15803     15805     15807     15804     15803     15805     15809
     15805     15803     15801     15853     15805     15809     15811     15812
     15805     15809     15811     15813     15806     15805     15807     15808
     15806     15805     15809     15810     15806     15805     15809     15811
     15807     15805     15809     15810     15807     15805     15809     15811
     15808     15807     15805     15809     15809     15811     15813     15814
     15809     15811     15813     15815     15809     15811     15813     15816
     15810     15809     15811     15812     15810     15809     15811     15813
     15811     15813     15816     15817     15811     15813     15816     15818
     15811     15813     15816     15819     15812     15811     15813     15814
     15812     15811     15813     15815     15812     15811     15813     15816
     15813     15816     15819     15820     15813     15816     15819     15821
     15813     15816     15819     15822     15814     15813     15816     15817
     15814     15813     15816     15818     15814     15813     15816     15819
     15815     15813     15816     15817     15815     15813     15816     15818
     15815     15813     15816     15819     15816     15819     15822     15823
     15816     15819     15822     15824     15816     15819     15822     15825
     15817     15816     15819     15820     15817     15816     15819     15821
     15817     15816     15819     15822     15818     15816     15819     15820
     15818     15816     15819     15821     15818     15816     15819     15822
     15819     15822     15825     15826     15819     15822     15825     15827
     15819     15822     15825     15828     15820     15819     15822     15823
     15820     15819     15822     15824     15820     15819     15822     15825
     15821     15819     15822     15823     15821     15819     15822     15824
     15821     15819     15822     15825     15822     15825     15828     15829
     15822     15825     15828     15830     15822     15825     15828     15831
     15823     15822     15825     15826     15823     15822     15825     15827
     15823     15822     15825     15828     15824     15822     15825     15826
     15824     15822     15825     15827     15824     15822     15825     15828
     15825     15828     15831     15832     15825     15828     15831     15833
     15825     15828     15831     15834     15826     15825     15828     15829
     15826     15825     15828     15830     15826     15825     15828     15831
     15827     15825     15828     15829     15827     15825     15828     15830
     15827     15825     15828     15831     15828     15831     15834     15835
     15828     15831     15834     15836     15828     15831     15834     15837
     15829     15828     15831     15832     15829     15828     15831     15833
     15829     15828     15831     15834     15830     15828     15831     15832
     15830     15828     15831     15833     15830     15828     15831     15834
     15831     15834     15837     15838     15831     15834     15837     15839
     15831     15834     15837     15840     15832     15831     15834     15835
     15832     15831     15834     15836     15832     15831     15834     15837
     15833     15831     15834     15835     15833     15831     15834     15836
     15833     15831     15834     15837     15834     15837     15840     15841
     15834     15837     15840     15842     15834     15837     15840     15843
     15835     15834     15837     15838     15835     15834     15837     15839
     15835     15834     15837     15840     15836     15834     15837     15838
     15836     15834     15837     15839     15836     15834     15837     15840
     15837     15840     15843     15844     15837     15840     15843     15845
     15837     15840     15843     15846     15838     15837     15840     15841
     15838     15837     15840     15842     15838     15837     15840     15843
     15839     15837     15840     15841     15839     15837     15840     15842
     15839     15837     15840     15843     15840     15843     15846     15847
     15840     15843     15846     15848     15840     15843     15846     15849
     15841     15840     15843     15844     15841     15840     15843     15845
     15841     15840     15843     15846     15842     15840     15843     15844
     15842     15840     15843     15845     15842     15840     15843     15846
     15843     15846     15849     15850     15843     15846     15849     15851
     15843     15846     15849     15852     15844     15843     15846     15847
     15844     15843     15846     15848     15844     15843     15846     15849
     15845     15843     15846     15847     15845     15843     15846     15848
     15845     15843     15846     15849     15847     15846     15849     15850
     15847     15846     15849     15851     15847     15846     15849     15852
     15848     15846     15849     15850     15848     15846     15849     15851
     15848     15846     15849     15852     15853     15855     15858     15859
     15853     15855     15858     15860     15853     15855     15858     15861
     15854     15853     15855     15856     15854     15853     15855     15857
     15854     15853     15855     15858     15855     15858     15861     15862
     15855     15858     15861     15863     15855     15858     15861     15864
     15856     15855     15858     15859     15856     15855     15858     15860
     15856     15855     15858     15861     15857     15855     15858     15859
     15857     15855     15858     15860     15857     15855     15858     15861
     15858     15861     15864     15865     15858     15861     15864     15866
     15858     15861     15864     15867     15859     15858     15861     15862
     15859     15858     15861     15863     15859     15858     15861     15864
     15860     15858     15861     15862     15860     15858     15861     15863
     15860     15858     15861     15864     15861     15864     15867     15868
     15861     15864     15867     15869     15861     15864     15867     15870
     15862     15861     15864     15865     15862     15861     15864     15866
     15862     15861     15864     15867     15863     15861     15864     15865
     15863     15861     15864     15866     15863     15861     15864     15867
     15864     15867     15870     15871     15864     15867     15870     15872
     15864     15867     15870     15873     15865     15864     15867     15868
     15865     15864     15867     15869     15865     15864     15867     15870
     15866     15864     15867     15868     15866     15864     15867     15869
     15866     15864     15867     15870     15867     15870     15873     15874
     15867     15870     15873     15875     15867     15870     15873     15876
     15868     15867     15870     15871     15868     15867     15870     15872
     15868     15867     15870     15873     15869     15867     15870     15871
     15869     15867     15870     15872     15869     15867     15870     15873
     15870     15873     15876     15877     15870     15873     15876     15878
     15871     15870     15873     15874     15871     15870     15873     15875
     15871     15870     15873     15876     15872     15870     15873     15874
     15872     15870     15873     15875     15872     15870     15873     15876
     15873     15876     15878     15879     15873     15876     15878     15880
     15874     15873     15876     15877     15874     15873     15876     15878
     15875     15873     15876     15877     15875     15873     15876     15878
     15876     15878     15880     15881     15876     15878     15880     15882
     15876     15878     15880     15883     15877     15876     15878     15879
     15877     15876     15878     15880     15878     15880     15883     15884
     15878     15880     15883     15885     15878     15880     15883     15886
     15879     15878     15880     15881     15879     15878     15880     15882
     15879     15878     15880     15883     15880     15883     15886     15887
     15880     15883     15886     15888     15880     15883     15886     15889
     15881     15880     15883     15884     15881     15880     15883     15885
     15881     15880     15883     15886     15882     15880     15883     15884
     15882     15880     15883     15885     15882     15880     15883     15886
     15883     15886     15889     15890     15883     15886     15889     15891
     15883     15886     15889     15892     15884     15883     15886     15887
     15884     15883     15886     15888     15884     15883     15886     15889
     15885     15883     15886     15887     15885     15883     15886     15888
     15885     15883     15886     15889     15886     15889     15892     15893
     15886     15889     15892     15894     15886     15889     15892     15895
     15887     15886     15889     15890     15887     15886     15889     15891
     15887     15886     15889     15892     15888     15886     15889     15890
     15888     15886     15889     15891     15888     15886     15889     15892
     15889     15892     15895     15896     15889     15892     15895     15897
     15889     15892     15895     15898     15890     15889     15892     15893
     15890     15889     15892     15894     15890     15889     15892     15895
     15891     15889     15892     15893     15891     15889     15892     15894
     15891     15889     15892     15895     15892     15895     15898     15899
     15892     15895     15898     15900     15892     15895     15898     15901
     15893     15892     15895     15896     15893     15892     15895     15897
     15893     15892     15895     15898     15894     15892     15895     15896
     15894     15892     15895     15897     15894     15892     15895     15898
     15895     15898     15901     15902     15895     15898     15901     15903
     15895     15898     15901     15904     15896     15895     15898     15899
     15896     15895     15898     15900     15896     15895     15898     15901
     15897     15895     15898     15899     15897     15895     15898     15900
     15897     15895     15898     15901     15899     15898     15901     15902
     15899     15898     15901     15903     15899     15898     15901     15904
     15900     15898     15901     15902     15900     15898     15901     15903
     15900     15898     15901     15904     19311     19315     19318     19319
     19311     19315     19318     19320     19311     19315     19318     19324
     19312     19311     19315     19316     19312     19311     19315     19317
     19312     19311     19315     19318     19313     19311     19315     19316
     19313     19311     19315     19317     19313     19311     19315     19318
     19314     19311     19315     19316     19314     19311     19315     19317
     19314     19311     19315     19318     19315     19318     19324     19321
     19316     19315     19318     19319     19316     19315     19318     19320
     19316     19315     19318     19324     19317     19315     19318     19319
     19317     19315     19318     19320     19317     19315     19318     19324
     19318     19324     19321     19322     19318     19324     19321     19323
     19318     19324     19321     19325     19319     19318     19324     19321
     19320     19318     19324     19321     19321     19325     19326     19327
     19321     19325     19326     19328     19321     19325     19326     19329
     19322     19321     19325     19326     19323     19321     19325     19326
     19324     19321     19325     19326     19325     19326     19329     19330
     19325     19326     19329     19331     19325     19326     19329     19337
     19326     19329     19331     19332     19326     19329     19337     19338
     19326     19329     19337     19339     19326     19329     19337     19340
     19327     19326     19329     19330     19327     19326     19329     19331
     19327     19326     19329     19337     19328     19326     19329     19330
     19328     19326     19329     19331     19328     19326     19329     19337
     19329     19331     19332     19333     19329     19331     19332     19334
     19329     19337     19340     19341     19330     19329     19331     19332
     19330     19329     19337     19338     19330     19329     19337     19339
     19330     19329     19337     19340     19331     19329     19337     19338
     19331     19329     19337     19339     19331     19329     19337     19340
     19331     19332     19334     19335     19331     19332     19334     19336
     19331     19332     19334     19346     19332     19331     19329     19337
     19332     19334     19346     19347     19332     19334     19346     19348
     19332     19334     19346     19349     19333     19332     19334     19335
     19333     19332     19334     19336     19333     19332     19334     19346
     19334     19346     19349     19350     19334     19346     19349     19351
     19334     19346     19349     19352     19335     19334     19346     19347
     19335     19334     19346     19348     19335     19334     19346     19349
     19336     19334     19346     19347     19336     19334     19346     19348
     19336     19334     19346     19349     19337     19340     19341     19342
     19337     19340     19341     19343     19338     19337     19340     19341
     19339     19337     19340     19341     19340     19341     19343     19344
     19340     19341     19343     19345     19340     19341     19343     19393
     19341     19343     19393     19394     19341     19343     19393     19395
     19341     19343     19393     19396     19342     19341     19343     19344
     19342     19341     19343     19345     19342     19341     19343     19393
     19343     19393     19396     19397     19343     19393     19396     19398
     19343     19393     19396     19399     19344     19343     19393     19394
     19344     19343     19393     19395     19344     19343     19393     19396
     19345     19343     19393     19394     19345     19343     19393     19395
     19345     19343     19393     19396     19346     19349     19352     19353
     19346     19349     19352     19354     19347     19346     19349     19350
     19347     19346     19349     19351     19347     19346     19349     19352
     19348     19346     19349     19350     19348     19346     19349     19351
     19348     19346     19349     19352     19349     19352     19354     19355
     19349     19352     19354     19356     19350     19349     19352     19353
     19350     19349     19352     19354     19351     19349     19352     19353
     19351     19349     19352     19354     19352     19354     19356     19357
     19352     19354     19356     19358     19352     19354     19356     19359
     19353     19352     19354     19355     19353     19352     19354     19356
     19354     19356     19359     19360     19354     19356     19359     19361
     19355     19354     19356     19357     19355     19354     19356     19358
     19355     19354     19356     19359     19356     19359     19361     19362
     19356     19359     19361     19363     19357     19356     19359     19360
     19357     19356     19359     19361     19358     19356     19359     19360
     19358     19356     19359     19361     19359     19361     19363     19364
     19359     19361     19363     19365     19359     19361     19363     19366
     19360     19359     19361     19362     19360     19359     19361     19363
     19361     19363     19366     19367     19361     19363     19366     19368
     19362     19361     19363     19364     19362     19361     19363     19365
     19362     19361     19363     19366     19363     19366     19368     19369
     19363     19366     19368     19370     19364     19363     19366     19367
     19364     19363     19366     19368     19365     19363     19366     19367
     19365     19363     19366     19368     19366     19368     19370     19371
     19366     19368     19370     19372     19366     19368     19370     19373
     19367     19366     19368     19369     19367     19366     19368     19370
     19368     19370     19373     19374     19368     19370     19373     19375
     19369     19368     19370     19371     19369     19368     19370     19372
     19369     19368     19370     19373     19370     19373     19375     19376
     19370     19373     19375     19377     19371     19370     19373     19374
     19371     19370     19373     19375     19372     19370     19373     19374
     19372     19370     19373     19375     19373     19375     19377     19378
     19373     19375     19377     19379     19373     19375     19377     19380
     19374     19373     19375     19376     19374     19373     19375     19377
     19375     19377     19380     19381     19375     19377     19380     19382
     19375     19377     19380     19383     19376     19375     19377     19378
     19376     19375     19377     19379     19376     19375     19377     19380
     19377     19380     19383     19384     19377     19380     19383     19385
     19377     19380     19383     19386     19378     19377     19380     19381
     19378     19377     19380     19382     19378     19377     19380     19383
     19379     19377     19380     19381     19379     19377     19380     19382
     19379     19377     19380     19383     19380     19383     19386     19387
     19380     19383     19386     19388     19380     19383     19386     19389
     19381     19380     19383     19384     19381     19380     19383     19385
     19381     19380     19383     19386     19382     19380     19383     19384
     19382     19380     19383     19385     19382     19380     19383     19386
     19383     19386     19389     19390     19383     19386     19389     19391
     19383     19386     19389     19392     19384     19383     19386     19387
     19384     19383     19386     19388     19384     19383     19386     19389
     19385     19383     19386     19387     19385     19383     19386     19388
     19385     19383     19386     19389     19387     19386     19389     19390
     19387     19386     19389     19391     19387     19386     19389     19392
     19388     19386     19389     19390     19388     19386     19389     19391
     19388     19386     19389     19392     19393     19396     19399     19400
     19393     19396     19399     19401     19393     19396     19399     19402
     19394     19393     19396     19397     19394     19393     19396     19398
     19394     19393     19396     19399     19395     19393     19396     19397
     19395     19393     19396     19398     19395     19393     19396     19399
     19396     19399     19402     19403     19396     19399     19402     19404
     19396     19399     19402     19405     19397     19396     19399     19400
     19397     19396     19399     19401     19397     19396     19399     19402
     19398     19396     19399     19400     19398     19396     19399     19401
     19398     19396     19399     19402     19399     19402     19405     19406
     19399     19402     19405     19407     19399     19402     19405     19408
     19400     19399     19402     19403     19400     19399     19402     19404
     19400     19399     19402     19405     19401     19399     19402     19403
     19401     19399     19402     19404     19401     19399     19402     19405
     19402     19405     19408     19409     19402     19405     19408     19410
     19402     19405     19408     19411     19403     19402     19405     19406
     19403     19402     19405     19407     19403     19402     19405     19408
     19404     19402     19405     19406     19404     19402     19405     19407
     19404     19402     19405     19408     19405     19408     19411     19412
     19405     19408     19411     19413     19405     19408     19411     19414
     19406     19405     19408     19409     19406     19405     19408     19410
     19406     19405     19408     19411     19407     19405     19408     19409
     19407     19405     19408     19410     19407     19405     19408     19411
     19408     19411     19414     19415     19408     19411     19414     19416
     19408     19411     19414     19417     19409     19408     19411     19412
     19409     19408     19411     19413     19409     19408     19411     19414
     19410     19408     19411     19412     19410     19408     19411     19413
     19410     19408     19411     19414     19411     19414     19417     19418
     19411     19414     19417     19419     19411     19414     19417     19420
     19412     19411     19414     19415     19412     19411     19414     19416
     19412     19411     19414     19417     19413     19411     19414     19415
     19413     19411     19414     19416     19413     19411     19414     19417
     19414     19417     19420     19421     19414     19417     19420     19422
     19414     19417     19420     19423     19415     19414     19417     19418
     19415     19414     19417     19419     19415     19414     19417     19420
     19416     19414     19417     19418     19416     19414     19417     19419
     19416     19414     19417     19420     19417     19420     19423     19424
     19417     19420     19423     19425     19417     19420     19423     19426
     19418     19417     19420     19421     19418     19417     19420     19422
     19418     19417     19420     19423     19419     19417     19420     19421
     19419     19417     19420     19422     19419     19417     19420     19423
     19420     19423     19426     19427     19420     19423     19426     19428
     19420     19423     19426     19429     19421     19420     19423     19424
     19421     19420     19423     19425     19421     19420     19423     19426
     19422     19420     19423     19424     19422     19420     19423     19425
     19422     19420     19423     19426     19423     19426     19429     19430
     19423     19426     19429     19431     19423     19426     19429     19432
     19424     19423     19426     19427     19424     19423     19426     19428
     19424     19423     19426     19429     19425     19423     19426     19427
     19425     19423     19426     19428     19425     19423     19426     19429
     19426     19429     19432     19433     19426     19429     19432     19434
     19426     19429     19432     19435     19427     19426     19429     19430
     19427     19426     19429     19431     19427     19426     19429     19432
     19428     19426     19429     19430     19428     19426     19429     19431
     19428     19426     19429     19432     19429     19432     19435     19436
     19429     19432     19435     19437     19429     19432     19435     19438
     19430     19429     19432     19433     19430     19429     19432     19434
     19430     19429     19432     19435     19431     19429     19432     19433
     19431     19429     19432     19434     19431     19429     19432     19435
     19432     19435     19438     19439     19432     19435     19438     19440
     19432     19435     19438     19441     19433     19432     19435     19436
     19433     19432     19435     19437     19433     19432     19435     19438
     19434     19432     19435     19436     19434     19432     19435     19437
     19434     19432     19435     19438     19436     19435     19438     19439
     19436     19435     19438     19440     19436     19435     19438     19441
     19437     19435     19438     19439     19437     19435     19438     19440
     19437     19435     19438     19441     19442     19446     19449     19450
     19442     19446     19449     19451     19442     19446     19449     19455
     19443     19442     19446     19447     19443     19442     19446     19448
     19443     19442     19446     19449     19444     19442     19446     19447
     19444     19442     19446     19448     19444     19442     19446     19449
     19445     19442     19446     19447     19445     19442     19446     19448
     19445     19442     19446     19449     19446     19449     19455     19452
     19447     19446     19449     19450     19447     19446     19449     19451
     19447     19446     19449     19455     19448     19446     19449     19450
     19448     19446     19449     19451     19448     19446     19449     19455
     19449     19455     19452     19453     19449     19455     19452     19454
     19449     19455     19452     19456     19450     19449     19455     19452
     19451     19449     19455     19452     19452     19456     19457     19458
     19452     19456     19457     19459     19452     19456     19457     19460
     19453     19452     19456     19457     19454     19452     19456     19457
     19455     19452     19456     19457     19456     19457     19460     19461
     19456     19457     19460     19462     19456     19457     19460     19468
     19457     19460     19462     19463     19457     19460     19468     19469
     19457     19460     19468     19470     19457     19460     19468     19471
     19458     19457     19460     19461     19458     19457     19460     19462
     19458     19457     19460     19468     19459     19457     19460     19461
     19459     19457     19460     19462     19459     19457     19460     19468
     19460     19462     19463     19464     19460     19462     19463     19465
     19460     19468     19471     19472     19461     19460     19462     19463
     19461     19460     19468     19469     19461     19460     19468     19470
     19461     19460     19468     19471     19462     19460     19468     19469
     19462     19460     19468     19470     19462     19460     19468     19471
     19462     19463     19465     19466     19462     19463     19465     19467
     19462     19463     19465     19477     19463     19462     19460     19468
     19463     19465     19477     19478     19463     19465     19477     19479
     19463     19465     19477     19480     19464     19463     19465     19466
     19464     19463     19465     19467     19464     19463     19465     19477
     19465     19477     19480     19481     19465     19477     19480     19482
     19465     19477     19480     19483     19466     19465     19477     19478
     19466     19465     19477     19479     19466     19465     19477     19480
     19467     19465     19477     19478     19467     19465     19477     19479
     19467     19465     19477     19480     19468     19471     19472     19473
     19468     19471     19472     19474     19469     19468     19471     19472
     19470     19468     19471     19472     19471     19472     19474     19475
     19471     19472     19474     19476     19471     19472     19474     19524
     19472     19474     19524     19525     19472     19474     19524     19526
     19472     19474     19524     19527     19473     19472     19474     19475
     19473     19472     19474     19476     19473     19472     19474     19524
     19474     19524     19527     19528     19474     19524     19527     19529
     19474     19524     19527     19530     19475     19474     19524     19525
     19475     19474     19524     19526     19475     19474     19524     19527
     19476     19474     19524     19525     19476     19474     19524     19526
     19476     19474     19524     19527     19477     19480     19483     19484
     19477     19480     19483     19485     19478     19477     19480     19481
     19478     19477     19480     19482     19478     19477     19480     19483
     19479     19477     19480     19481     19479     19477     19480     19482
     19479     19477     19480     19483     19480     19483     19485     19486
     19480     19483     19485     19487     19481     19480     19483     19484
     19481     19480     19483     19485     19482     19480     19483     19484
     19482     19480     19483     19485     19483     19485     19487     19488
     19483     19485     19487     19489     19483     19485     19487     19490
     19484     19483     19485     19486     19484     19483     19485     19487
     19485     19487     19490     19491     19485     19487     19490     19492
     19486     19485     19487     19488     19486     19485     19487     19489
     19486     19485     19487     19490     19487     19490     19492     19493
     19487     19490     19492     19494     19488     19487     19490     19491
     19488     19487     19490     19492     19489     19487     19490     19491
     19489     19487     19490     19492     19490     19492     19494     19495
     19490     19492     19494     19496     19490     19492     19494     19497
     19491     19490     19492     19493     19491     19490     19492     19494
     19492     19494     19497     19498     19492     19494     19497     19499
     19493     19492     19494     19495     19493     19492     19494     19496
     19493     19492     19494     19497     19494     19497     19499     19500
     19494     19497     19499     19501     19495     19494     19497     19498
     19495     19494     19497     19499     19496     19494     19497     19498
     19496     19494     19497     19499     19497     19499     19501     19502
     19497     19499     19501     19503     19497     19499     19501     19504
     19498     19497     19499     19500     19498     19497     19499     19501
     19499     19501     19504     19505     19499     19501     19504     19506
     19500     19499     19501     19502     19500     19499     19501     19503
     19500     19499     19501     19504     19501     19504     19506     19507
     19501     19504     19506     19508     19502     19501     19504     19505
     19502     19501     19504     19506     19503     19501     19504     19505
     19503     19501     19504     19506     19504     19506     19508     19509
     19504     19506     19508     19510     19504     19506     19508     19511
     19505     19504     19506     19507     19505     19504     19506     19508
     19506     19508     19511     19512     19506     19508     19511     19513
     19506     19508     19511     19514     19507     19506     19508     19509
     19507     19506     19508     19510     19507     19506     19508     19511
     19508     19511     19514     19515     19508     19511     19514     19516
     19508     19511     19514     19517     19509     19508     19511     19512
     19509     19508     19511     19513     19509     19508     19511     19514
     19510     19508     19511     19512     19510     19508     19511     19513
     19510     19508     19511     19514     19511     19514     19517     19518
     19511     19514     19517     19519     19511     19514     19517     19520
     19512     19511     19514     19515     19512     19511     19514     19516
     19512     19511     19514     19517     19513     19511     19514     19515
     19513     19511     19514     19516     19513     19511     19514     19517
     19514     19517     19520     19521     19514     19517     19520     19522
     19514     19517     19520     19523     19515     19514     19517     19518
     19515     19514     19517     19519     19515     19514     19517     19520
     19516     19514     19517     19518     19516     19514     19517     19519
     19516     19514     19517     19520     19518     19517     19520     19521
     19518     19517     19520     19522     19518     19517     19520     19523
     19519     19517     19520     19521     19519     19517     19520     19522
     19519     19517     19520     19523     19524     19527     19530     19531
     19524     19527     19530     19532     19524     19527     19530     19533
     19525     19524     19527     19528     19525     19524     19527     19529
     19525     19524     19527     19530     19526     19524     19527     19528
     19526     19524     19527     19529     19526     19524     19527     19530
     19527     19530     19533     19534     19527     19530     19533     19535
     19527     19530     19533     19536     19528     19527     19530     19531
     19528     19527     19530     19532     19528     19527     19530     19533
     19529     19527     19530     19531     19529     19527     19530     19532
     19529     19527     19530     19533     19530     19533     19536     19537
     19530     19533     19536     19538     19530     19533     19536     19539
     19531     19530     19533     19534     19531     19530     19533     19535
     19531     19530     19533     19536     19532     19530     19533     19534
     19532     19530     19533     19535     19532     19530     19533     19536
     19533     19536     19539     19540     19533     19536     19539     19541
     19533     19536     19539     19542     19534     19533     19536     19537
     19534     19533     19536     19538     19534     19533     19536     19539
     19535     19533     19536     19537     19535     19533     19536     19538
     19535     19533     19536     19539     19536     19539     19542     19543
     19536     19539     19542     19544     19536     19539     19542     19545
     19537     19536     19539     19540     19537     19536     19539     19541
     19537     19536     19539     19542     19538     19536     19539     19540
     19538     19536     19539     19541     19538     19536     19539     19542
     19539     19542     19545     19546     19539     19542     19545     19547
     19539     19542     19545     19548     19540     19539     19542     19543
     19540     19539     19542     19544     19540     19539     19542     19545
     19541     19539     19542     19543     19541     19539     19542     19544
     19541     19539     19542     19545     19542     19545     19548     19549
     19542     19545     19548     19550     19542     19545     19548     19551
     19543     19542     19545     19546     19543     19542     19545     19547
     19543     19542     19545     19548     19544     19542     19545     19546
     19544     19542     19545     19547     19544     19542     19545     19548
     19545     19548     19551     19552     19545     19548     19551     19553
     19545     19548     19551     19554     19546     19545     19548     19549
     19546     19545     19548     19550     19546     19545     19548     19551
     19547     19545     19548     19549     19547     19545     19548     19550
     19547     19545     19548     19551     19548     19551     19554     19555
     19548     19551     19554     19556     19548     19551     19554     19557
     19549     19548     19551     19552     19549     19548     19551     19553
     19549     19548     19551     19554     19550     19548     19551     19552
     19550     19548     19551     19553     19550     19548     19551     19554
     19551     19554     19557     19558     19551     19554     19557     19559
     19551     19554     19557     19560     19552     19551     19554     19555
     19552     19551     19554     19556     19552     19551     19554     19557
     19553     19551     19554     19555     19553     19551     19554     19556
     19553     19551     19554     19557     19554     19557     19560     19561
     19554     19557     19560     19562     19554     19557     19560     19563
     19555     19554     19557     19558     19555     19554     19557     19559
     19555     19554     19557     19560     19556     19554     19557     19558
     19556     19554     19557     19559     19556     19554     19557     19560
     19557     19560     19563     19564     19557     19560     19563     19565
     19557     19560     19563     19566     19558     19557     19560     19561
     19558     19557     19560     19562     19558     19557     19560     19563
     19559     19557     19560     19561     19559     19557     19560     19562
     19559     19557     19560     19563     19560     19563     19566     19567
     19560     19563     19566     19568     19560     19563     19566     19569
     19561     19560     19563     19564     19561     19560     19563     19565
     19561     19560     19563     19566     19562     19560     19563     19564
     19562     19560     19563     19565     19562     19560     19563     19566
     19563     19566     19569     19570     19563     19566     19569     19571
     19563     19566     19569     19572     19564     19563     19566     19567
     19564     19563     19566     19568     19564     19563     19566     19569
     19565     19563     19566     19567     19565     19563     19566     19568
     19565     19563     19566     19569     19567     19566     19569     19570
     19567     19566     19569     19571     19567     19566     19569     19572
     19568     19566     19569     19570     19568     19566     19569     19571
     19568     19566     19569     19572      4071      4075      4078      4079
      4071      4075      4078      4109      4071      4117      4114      4109
      4071      4117      4114      4115      4071      4117      4114      4116
      4072      4071      4073      4074      4072      4071      4075      4076
      4072      4071      4075      4077      4072      4071      4075      4078
      4072      4071      4117      4114      4072      4071      4117      4118
      4072      4071      4117      4119      4073      4071      4075      4076
      4073      4071      4075      4077      4073      4071      4075      4078
      4073      4071      4117      4114      4073      4071      4117      4118
      4073      4071      4117      4119      4074      4073      4071      4075
      4074      4073      4071      4117      4075      4071      4117      4114
      4075      4071      4117      4118      4075      4071      4117      4119
      4075      4078      4079      4080      4075      4078      4079      4081
      4075      4078      4109      4107      4075      4078      4109      4110
      4075      4078      4109      4114      4076      4075      4071      4117
      4076      4075      4078      4079      4076      4075      4078      4109
      4077      4075      4071      4117      4077      4075      4078      4079
      4077      4075      4078      4109      4078      4075      4071      4117
      4078      4079      4081      4082      4078      4079      4081      4083
      4078      4079      4081      4084      4078      4109      4107      4084
      4078      4109      4107      4104      4078      4109      4107      4108
      4078      4109      4110      4111      4078      4109      4110      4112
      4078      4109      4110      4113      4078      4109      4114      4115
      4078      4109      4114      4116      4078      4109      4114      4117
      4079      4078      4109      4107      4079      4078      4109      4110
      4079      4078      4109      4114      4079      4081      4084      4085
      4079      4081      4084      4086      4079      4081      4084      4107
      4080      4079      4078      4109      4080      4079      4081      4082
      4080      4079      4081      4083      4080      4079      4081      4084
      4081      4079      4078      4109      4081      4084      4086      4087
      4081      4084      4086      4088      4081      4084      4086      4096
      4081      4084      4107      4104      4081      4084      4107      4108
      4081      4084      4107      4109      4082      4081      4084      4085
      4082      4081      4084      4086      4082      4081      4084      4107
      4083      4081      4084      4085      4083      4081      4084      4086
      4083      4081      4084      4107      4084      4086      4088      4089
      4084      4086      4088      4090      4084      4086      4088      4091
      4084      4086      4096      4094      4084      4086      4096      4097
      4084      4086      4096      4101      4084      4107      4104      4101
      4084      4107      4104      4105      4084      4107      4104      4106
      4084      4107      4109      4110      4084      4107      4109      4114
      4085      4084      4086      4087      4085      4084      4086      4088
      4085      4084      4086      4096      4085      4084      4107      4104
      4085      4084      4107      4108      4085      4084      4107      4109
      4086      4084      4107      4104      4086      4084      4107      4108
      4086      4084      4107      4109      4086      4088      4091      4092
      4086      4088      4091      4093      4086      4088      4091      4094
      4086      4096      4094      4091      4086      4096      4094      4095
      4086      4096      4094      4120      4086      4096      4097      4098
      4086      4096      4097      4099      4086      4096      4097      4100
      4086      4096      4101      4102      4086      4096      4101      4103
      4086      4096      4101      4104      4087      4086      4084      4107
      4087      4086      4088      4089      4087      4086      4088      4090
      4087      4086      4088      4091      4087      4086      4096      4094
      4087      4086      4096      4097      4087      4086      4096      4101
      4088      4086      4084      4107      4088      4086      4096      4094
      4088      4086      4096      4097      4088      4086      4096      4101
      4088      4091      4094      4095      4088      4091      4094      4096
      4088      4091      4094      4120      4089      4088      4086      4096
      4089      4088      4091      4092      4089      4088      4091      4093
      4089      4088      4091      4094      4090      4088      4086      4096
      4090      4088      4091      4092      4090      4088      4091      4093
      4090      4088      4091      4094      4091      4088      4086      4096
      4091      4094      4096      4097      4091      4094      4096      4101
      4091      4094      4120      4121      4091      4094      4120      4122
      4091      4094      4120      4126      4092      4091      4094      4095
      4092      4091      4094      4096      4092      4091      4094      4120
      4093      4091      4094      4095      4093      4091      4094      4096
      4093      4091      4094      4120      4094      4096      4097      4098
      4094      4096      4097      4099      4094      4096      4097      4100
      4094      4096      4101      4102      4094      4096      4101      4103
      4094      4096      4101      4104      4094      4120      4122      4123
      4094      4120      4122      4124      4094      4120      4122      4125
      4094      4120      4126      4127      4094      4120      4126      4128
      4094      4120      4126      4129      4095      4094      4096      4097
      4095      4094      4096      4101      4095      4094      4120      4121
      4095      4094      4120      4122      4095      4094      4120      4126
      4096      4086      4084      4107      4096      4094      4120      4121
      4096      4094      4120      4122      4096      4094      4120      4126
      4096      4101      4104      4105      4096      4101      4104      4106
      4096      4101      4104      4107      4097      4096      4094      4120
      4097      4096      4101      4102      4097      4096      4101      4103
      4097      4096      4101      4104      4098      4097      4096      4101
      4099      4097      4096      4101      4100      4097      4096      4101
      4101      4096      4094      4120      4101      4104      4107      4108
      4101      4104      4107      4109      4102      4101      4104      4105
      4102      4101      4104      4106      4102      4101      4104      4107
      4103      4101      4104      4105      4103      4101      4104      4106
      4103      4101      4104      4107      4104      4107      4109      4110
      4104      4107      4109      4114      4105      4104      4107      4108
      4105      4104      4107      4109      4106      4104      4107      4108
      4106      4104      4107      4109      4107      4109      4110      4111
      4107      4109      4110      4112      4107      4109      4110      4113
      4107      4109      4114      4115      4107      4109      4114      4116
      4107      4109      4114      4117      4108      4107      4109      4110
      4108      4107      4109      4114      4109      4114      4117      4118
      4109      4114      4117      4119      4110      4109      4114      4115
      4110      4109      4114      4116      4110      4109      4114      4117
      4111      4110      4109      4114      4112      4110      4109      4114
      4113      4110      4109      4114      4115      4114      4117      4118
      4115      4114      4117      4119      4116      4114      4117      4118
      4116      4114      4117      4119      4120      4126      4129      4130
      4120      4126      4129      4131      4120      4126      4129      4132
      4121      4120      4122      4123      4121      4120      4122      4124
      4121      4120      4122      4125      4121      4120      4126      4127
      4121      4120      4126      4128      4121      4120      4126      4129
      4122      4120      4126      4127      4122      4120      4126      4128
      4122      4120      4126      4129      4123      4122      4120      4126
      4124      4122      4120      4126      4125      4122      4120      4126
      4126      4129      4132      4133      4126      4129      4132      4134
      4126      4129      4132      4135      4127      4126      4129      4130
      4127      4126      4129      4131      4127      4126      4129      4132
      4128      4126      4129      4130      4128      4126      4129      4131
      4128      4126      4129      4132      4129      4132      4135      4136
      4129      4132      4135      4137      4129      4132      4135      4141
      4130      4129      4132      4133      4130      4129      4132      4134
      4130      4129      4132      4135      4131      4129      4132      4133
      4131      4129      4132      4134      4131      4129      4132      4135
      4132      4135      4137      4138      4132      4135      4137      4139
      4132      4135      4137      4140      4132      4135      4141      4142
      4132      4135      4141      4143      4132      4135      4141      4144
      4133      4132      4135      4136      4133      4132      4135      4137
      4133      4132      4135      4141      4134      4132      4135      4136
      4134      4132      4135      4137      4134      4132      4135      4141
      4136      4135      4137      4138      4136      4135      4137      4139
      4136      4135      4137      4140      4136      4135      4141      4142
      4136      4135      4141      4143      4136      4135      4141      4144
      4137      4135      4141      4142      4137      4135      4141      4143
      4137      4135      4141      4144      4138      4137      4135      4141
      4139      4137      4135      4141      4140      4137      4135      4141

       272 !NIMPHI: impropers
      4175      4174      4177      4176      4184      4183      4186      4185
      5855      5854      5857      5856      5864      5863      5866      5865
      7504      7503      7506      7505      7513      7512      7515      7514
      7637      7636      7639      7638      7646      7645      7648      7647
      5993      5992      5995      5994      6002      6001      6004      6003
     10220     10222     10168     10221     10168     10220     10170     10169
     15926     15925     15928     15927     15935     15934     15937     15936
     10351     10353     10299     10352     10299     10351     10301     10300
     19594     19593     19596     19595     19603     19602     19605     19604
     10482     10484     10430     10483     10430     10482     10432     10431
     10613     10615     10561     10614     10561     10613     10563     10562
     19725     19724     19727     19726     19734     19733     19736     19735
      7770      7769      7772      7771      7779      7778      7781      7780
      4315      4314      4317      4316      4324      4323      4326      4325
     10744     10746     10692     10745     10692     10744     10694     10693
      6131      6130      6133      6132      6140      6139      6142      6141
     16057     16056     16059     16058     16066     16065     16068     16067
     10875     10877     10823     10876     10823     10875     10825     10824
     11006     11008     10954     11007     10954     11006     10956     10955
     11137     11139     11085     11138     11085     11137     11087     11086
     19856     19855     19858     19857     19865     19864     19867     19866
     11268     11270     11216     11269     11216     11268     11218     11217
     11399     11401     11347     11400     11347     11399     11349     11348
     19987     19986     19989     19988     19996     19995     19998     19997
     11530     11532     11478     11531     11478     11530     11480     11479
     11661     11663     11609     11662     11609     11661     11611     11610
      7903      7902      7905      7904      7912      7911      7914      7913
     16188     16187     16190     16189     16197     16196     16199     16198
     21178     21177     21180     21179     21187     21186     21189     21188
     16319     16318     16321     16320     16328     16327     16330     16329
     16450     16449     16452     16451     16459     16458     16461     16460
     16581     16580     16583     16582     16590     16589     16592     16591
     11792     11794     11740     11793     11740     11792     11742     11741
     20118     20117     20120     20119     20127     20126     20129     20128
     16712     16711     16714     16713     16721     16720     16723     16722
      8036      8035      8038      8037      8045      8044      8047      8046
     21747     21746     21749     21748     21756     21755     21758     21757
      8169      8168      8171      8170      8178      8177      8180      8179
     11923     11925     11871     11924     11871     11923     11873     11872
     21881     21880     21883     21882     21890     21889     21892     21891
     12054     12056     12002     12055     12002     12054     12004     12003
      4455      4454      4457      4456      4464      4463      4466      4465
     12185     12187     12133     12186     12133     12185     12135     12134
     12316     12318     12264     12317     12264     12316     12266     12265
     12447     12449     12395     12448     12395     12447     12397     12396
      4595      4594      4597      4596      4604      4603      4606      4605
     20249     20248     20251     20250     20258     20257     20260     20259
     16843     16842     16845     16844     16852     16851     16854     16853
      6269      6268      6271      6270      6278      6277      6280      6279
      6407      6406      6409      6408      6416      6415      6418      6417
     12578     12580     12526     12579     12526     12578     12528     12527
      4735      4734      4737      4736      4744      4743      4746      4745
     12709     12711     12657     12710     12657     12709     12659     12658
      8302      8301      8304      8303      8311      8310      8313      8312
      8435      8434      8437      8436      8444      8443      8446      8445
     12840     12842     12788     12841     12788     12840     12790     12789
     21321     21320     21323     21322     21330     21329     21332     21331
     16974     16973     16976     16975     16983     16982     16985     16984
     17105     17104     17107     17106     17114     17113     17116     17115
      4875      4874      4877      4876      4884      4883      4886      4885
     17236     17235     17238     17237     17245     17244     17247     17246
     17367     17366     17369     17368     17376     17375     17378     17377
     17498     17497     17500     17499     17507     17506     17509     17508
      8568      8567      8570      8569      8577      8576      8579      8578
     17629     17628     17631     17630     17638     17637     17640     17639
      8701      8700      8703      8702      8710      8709      8712      8711
     12971     12973     12919     12972     12919     12971     12921     12920
      6545      6544      6547      6546      6554      6553      6556      6555
      8834      8833      8836      8835      8843      8842      8845      8844
     20380     20379     20382     20381     20389     20388     20391     20390
      5015      5014      5017      5016      5024      5023      5026      5025
     17760     17759     17762     17761     17769     17768     17771     17770
     13102     13104     13050     13103     13050     13102     13052     13051
      8967      8966      8969      8968      8976      8975      8978      8977
     22015     22014     22017     22016     22024     22023     22026     22025
     17891     17890     17893     17892     17900     17899     17902     17901
      9100      9099      9102      9101      9109      9108      9111      9110
      9233      9232      9235      9234      9242      9241      9244      9243
     18022     18021     18024     18023     18031     18030     18033     18032
     18153     18152     18155     18154     18162     18161     18164     18163
     13233     13235     13181     13234     13181     13233     13183     13182
     13364     13366     13312     13365     13312     13364     13314     13313
     13495     13497     13443     13496     13443     13495     13445     13444
     13626     13628     13574     13627     13574     13626     13576     13575
     13757     13759     13705     13758     13705     13757     13707     13706
     13888     13890     13836     13889     13836     13888     13838     13837
     14019     14021     13967     14020     13967     14019     13969     13968
     14150     14152     14098     14151     14098     14150     14100     14099
     18284     18283     18286     18285     18293     18292     18295     18294
      9366      9365      9368      9367      9375      9374      9377      9376
     14281     14283     14229     14282     14229     14281     14231     14230
     14412     14414     14360     14413     14360     14412     14362     14361
      6683      6682      6685      6684      6692      6691      6694      6693
     14543     14545     14491     14544     14491     14543     14493     14492
      5155      5154      5157      5156      5164      5163      5166      5165
      9499      9498      9501      9500      9508      9507      9510      9509
     20511     20510     20513     20512     20520     20519     20522     20521
      5295      5294      5297      5296      5304      5303      5306      5305
      9632      9631      9634      9633      9641      9640      9643      9642
      6821      6820      6823      6822      6830      6829      6832      6831
      5435      5434      5437      5436      5444      5443      5446      5445
     14674     14676     14622     14675     14622     14674     14624     14623
     14805     14807     14753     14806     14753     14805     14755     14754
     18415     18414     18417     18416     18424     18423     18426     18425
     14936     14938     14884     14937     14884     14936     14886     14885
     15067     15069     15015     15068     15015     15067     15017     15016
      9765      9764      9767      9766      9774      9773      9776      9775
     18546     18545     18548     18547     18555     18554     18557     18556
     22149     22148     22151     22150     22158     22157     22160     22159
     20642     20641     20644     20643     20651     20650     20653     20652
      6959      6958      6961      6960      6968      6967      6970      6969
     20773     20772     20775     20774     20782     20781     20784     20783
     21464     21463     21466     21465     21473     21472     21475     21474
     21607     21606     21609     21608     21616     21615     21618     21617
     20904     20903     20906     20905     20913     20912     20915     20914
      5575      5574      5577      5576      5584      5583      5586      5585
     18677     18676     18679     18678     18686     18685     18688     18687
     15198     15200     15146     15199     15146     15198     15148     15147
     18808     18807     18810     18809     18817     18816     18819     18818
     21035     21034     21037     21036     21044     21043     21046     21045
      7097      7096      7099      7098      7106      7105      7108      7107
      5715      5714      5717      5716      5724      5723      5726      5725
      7235      7234      7237      7236      7244      7243      7246      7245
     18939     18938     18941     18940     18948     18947     18950     18949
     15329     15331     15277     15330     15277     15329     15279     15278
     15460     15462     15408     15461     15408     15460     15410     15409
     19070     19069     19072     19071     19079     19078     19081     19080
      7373      7372      7375      7374      7382      7381      7384      7383
     15591     15593     15539     15592     15539     15591     15541     15540
      9898      9897      9900      9899      9907      9906      9909      9908
     10031     10030     10033     10032     10040     10039     10042     10041
     19201     19200     19203     19202     19210     19209     19212     19211
     15722     15724     15670     15723     15670     15722     15672     15671
     15853     15855     15801     15854     15801     15853     15803     15802
     19332     19331     19334     19333     19341     19340     19343     19342
     19463     19462     19465     19464     19472     19471     19474     19473

         0 !NDON: donors


         0 !NACC: acceptors


         0 !NNB

         0         0         0         0         0         0         0         0
         0         0         0         0         0         0         0         0
         0         0         0         0         0         0         0         0
         0         0         0         0         0         0         0         0
         0         0         0         0         0         0         0         0
         0         0         0         0         0         0         0         0
         0         0         0         0         0         0         0         0
         0         0         0         0         0         0         0         0
         0         0         0         0         0         0         0         0
         0         0         0         0         0         0         0         0
         0         0         0         0         0         0         0         0
         0         0         0         0         0         0         0         0
         0         0         0         0         0         0         0         0
         0         0         0         0         0         0         0         0
         0         0         0         0         0         0         0         0
         0         0         0         0         0         0         0         0
         0         0         0         0         0         0         0         0
         0         0         0         0         0         0         0         0
         0         0         0         0         0         0         0         0
         0         0         0         0         0         0         0         0
         0         0         0         0         0         0         0         0
         0         0         0         0         0         0         0         0
         0         0         0         0         0         0         0         0
         0         0         0         0         0         0         0         0
         0         0         0         0         0         0         0         0
         0         0         0         0         0         0         0         0
         0         0         0         0         0         0         0         0
         0         0         0         0         0         0         0         0
         0         0         0         0         0         0         0         0
         0         0         0         0         0         0         0         0
         0         0         0         0         0         0         0         0
         0         0         0         0         0         0         0         0
         0         0         0         0         0         0         0         0
         0         0         0         0         0         0         0         0
         0         0         0         0         0         0         0         0
         0         0         0         0         0         0         0         0
         0         0         0         0         0         0         0         0
         0         0         0         0         0         0         0         0
         0         0         0         0         0         0         0         0
         0         0         0         0         0         0         0         0
         0         0         0         0         0         0         0         0
         0         0         0         0         0         0         0         0
         0         0         0         0         0         0         0         0
         0         0         0         0         0         0         0         0
         0         0         0         0         0         0         0         0
         0         0         0         0         0         0         0         0
         0         0         0         0         0         0         0         0
         0         0         0         0         0         0         0         0
         0         0         0         0         0         0         0         0
         0         0         0         0         0         0         0         0
         0         0         0         0         0         0         0         0
         0         0         0         0         0         0         0         0
         0         0         0         0         0         0         0         0
         0         0         0         0         0         0         0         0
         0         0         0         0         0         0         0         0
         0         0         0         0         0         0         0         0
         0         0         0         0         0         0         0         0
         0         0         0         0         0         0         0         0
         0         0         0         0         0         0         0         0
         0         0         0         0         0         0         0         0
         0         0         0         0         0         0         0         0
         0         0         0         0         0         0         0         0
         0         0         0         0         0         0         0         0
         0         0         0         0         0         0         0         0
         0         0         0         0         0         0         0         0
         0         0         0         0         0         0         0         0
         0         0         0         0         0         0         0         0
         0         0         0         0         0         0         0         0
         0         0         0         0         0         0         0         0
         0         0         0         0         0         0         0         0
         0         0         0         0         0         0         0         0
         0         0         0         0         0         0         0         0
         0         0         0         0         0         0         0         0
         0         0         0         0         0         0         0         0
         0         0         0         0         0         0         0         0
         0         0         0         0         0         0         0         0
         0         0         0         0         0         0         0         0
         0         0         0         0         0         0         0         0
         0         0         0         0         0         0         0         0
         0         0         0         0         0         0         0         0
         0         0         0         0         0         0         0         0
         0         0         0         0         0         0         0         0
         0         0         0         0         0         0         0         0
         0         0         0         0         0         0         0         0
         0         0         0         0         0         0         0         0
         0         0         0         0         0         0         0         0
         0         0         0         0         0         0         0         0
         0         0         0         0         0         0         0         0
         0         0         0         0         0         0         0         0
         0         0         0         0         0         0         0         0
         0         0         0         0         0         0         0         0
         0         0         0         0         0         0         0         0
         0         0         0         0         0         0         0         0
         0         0         0         0         0         0         0         0
         0         0         0         0         0         0         0         0
         0         0         0         0         0         0         0         0
         0         0         0         0         0         0         0         0
         0         0         0         0         0         0         0         0
         0         0         0         0         0         0         0         0
         0         0         0         0         0         0         0         0
         0         0         0         0         0         0         0         0
         0         0         0         0         0         0         0         0
         0         0         0         0         0         0         0         0
         0         0         0         0         0         0         0         0
         0         0         0         0         0         0         0         0
         0         0         0         0         0         0         0         0
         0         0         0         0         0         0         0         0
         0         0         0         0         0         0         0         0
         0         0         0         0         0         0         0         0
         0         0         0         0         0         0         0         0
         0         0         0         0         0         0         0         0
         0         0         0         0         0         0         0         0
         0         0         0         0         0         0         0         0
         0         0         0         0         0         0         0         0
         0         0         0         0         0         0         0         0
         0         0         0         0         0         0         0         0
         0         0         0         0         0         0         0         0
         0         0         0         0         0         0         0         0
         0         0         0         0         0         0         0         0
         0         0         0         0         0         0         0         0
         0         0         0         0         0         0         0         0
         0         0         0         0         0         0         0         0
         0         0         0         0         0         0         0         0
         0         0         0         0         0         0         0         0
         0         0         0         0         0         0         0         0
         0         0         0         0         0         0         0         0
         0         0         0         0         0         0         0         0
         0         0         0         0         0         0         0         0
         0         0         0         0         0         0         0         0
         0         0         0         0         0         0         0         0
         0         0         0         0         0         0         0         0
         0         0         0         0         0         0         0         0
         0         0         0         0         0         0         0         0
         0         0         0         0         0         0         0         0
         0         0         0         0         0         0         0         0
         0         0         0         0         0         0         0         0
         0         0         0         0         0         0         0         0
         0         0         0         0         0         0         0         0
         0         0         0         0         0         0         0         0
         0         0         0         0         0         0         0         0
         0         0         0         0         0         0         0         0
         0         0         0         0         0         0         0         0
         0         0         0         0         0         0         0         0
         0         0         0         0         0         0         0         0
         0         0         0         0         0         0         0         0
         0         0         0         0         0         0         0         0
         0         0         0         0         0         0         0         0
         0         0         0         0         0         0         0         0
         0         0         0         0         0         0         0         0
         0         0         0         0         0         0         0         0
         0         0         0         0         0         0         0         0
         0         0         0         0         0         0         0         0
         0         0         0         0         0         0         0         0
         0         0         0         0         0         0         0         0
         0         0         0         0         0         0         0         0
         0         0         0         0         0         0         0         0
         0         0         0         0         0         0         0         0
         0         0         0         0         0         0         0         0
         0         0         0         0         0         0         0         0
         0         0         0         0         0         0         0         0
         0         0         0         0         0         0         0         0
         0         0         0         0         0         0         0         0
         0         0         0         0         0         0         0         0
         0         0         0         0         0         0         0         0
         0         0         0         0         0         0         0         0
         0         0         0         0         0         0         0         0
         0         0         0         0         0         0         0         0
         0         0         0         0         0         0         0         0
         0         0         0         0         0         0         0         0
         0         0         0         0         0         0         0         0
         0         0         0         0         0         0         0         0
         0         0         0         0         0         0         0         0
         0         0         0         0         0         0         0         0
         0         0         0         0         0         0         0         0
         0         0         0         0         0         0         0         0
         0         0         0         0         0         0         0         0
         0         0         0         0         0         0         0         0
         0         0         0         0         0         0         0         0
         0         0         0         0         0         0         0         0
         0         0         0         0         0         0         0         0
         0         0         0         0         0         0         0         0
         0         0         0         0         0         0         0         0
         0         0         0         0         0         0         0         0
         0         0         0         0         0         0         0         0
         0         0         0         0         0         0         0         0
         0         0         0         0         0         0         0         0
         0         0         0         0         0         0         0         0
         0         0         0         0         0         0         0         0
         0         0         0         0         0         0         0         0
         0         0         0         0         0         0         0         0
         0         0         0         0         0         0         0         0
         0         0         0         0         0         0         0         0
         0         0         0         0         0         0         0         0
         0         0         0         0         0         0         0         0
         0         0         0         0         0         0         0         0
         0         0         0         0         0         0         0         0
         0         0         0         0         0         0         0         0
         0         0         0         0         0         0         0         0
         0         0         0         0         0         0         0         0
         0         0         0         0         0         0         0         0
         0         0         0         0         0         0         0         0
         0         0         0         0         0         0         0         0
         0         0         0         0         0         0         0         0
         0         0         0         0         0         0         0         0
         0         0         0         0         0         0         0         0
         0         0         0         0         0         0         0         0
         0         0         0         0         0         0         0         0
         0         0         0         0         0         0         0         0
         0         0         0         0         0         0         0         0
         0         0         0         0         0         0         0         0
         0         0         0         0         0         0         0         0
         0         0         0         0         0         0         0         0
         0         0         0         0         0         0         0         0
         0         0         0         0         0         0         0         0
         0         0         0         0         0         0         0         0
         0         0         0         0         0         0         0         0
         0         0         0         0         0         0         0         0
         0         0         0         0         0         0         0         0
         0         0         0         0         0         0         0         0
         0         0         0         0         0         0         0         0
         0         0         0         0         0         0         0         0
         0         0         0         0         0         0         0         0
         0         0         0         0         0         0         0         0
         0         0         0         0         0         0         0         0
         0         0         0         0         0         0         0         0
         0         0         0         0         0         0         0         0
         0         0         0         0         0         0         0         0
         0         0         0         0         0         0         0         0
         0         0         0         0         0         0         0         0
         0         0         0         0         0         0         0         0
         0         0         0         0         0         0         0         0
         0         0         0         0         0         0         0         0
         0         0         0         0         0         0         0         0
         0         0         0         0         0         0         0         0
         0         0         0         0         0         0         0         0
         0         0         0         0         0         0         0         0
         0         0         0         0         0         0         0         0
         0         0         0         0         0         0         0         0
         0         0         0         0         0         0         0         0
         0         0         0         0         0         0         0         0
         0         0         0         0         0         0         0         0
         0         0         0         0         0         0         0         0
         0         0         0         0         0         0         0         0
         0         0         0         0         0         0         0         0
         0         0         0         0         0         0         0         0
         0         0         0         0         0         0         0         0
         0         0         0         0         0         0         0         0
         0         0         0         0         0         0         0         0
         0         0         0         0         0         0         0         0
         0         0         0         0         0         0         0         0
         0         0         0         0         0         0         0         0
         0         0         0         0         0         0         0         0
         0         0         0         0         0         0         0         0
         0         0         0         0         0         0         0         0
         0         0         0         0         0         0         0         0
         0         0         0         0         0         0         0         0
         0         0         0         0         0         0         0         0
         0         0         0         0         0         0         0         0
         0         0         0         0         0         0         0         0
         0         0         0         0         0         0         0         0
         0         0         0         0         0         0         0         0
         0         0         0         0         0         0         0         0
         0         0         0         0         0         0         0         0
         0         0         0         0         0         0         0         0
         0         0         0         0         0         0         0         0
         0         0         0         0         0         0         0         0
         0         0         0         0         0         0         0         0
         0         0         0         0         0         0         0         0
         0         0         0         0         0         0         0         0
         0         0         0         0         0         0         0         0
         0         0         0         0         0         0         0         0
         0         0         0         0         0         0         0         0
         0         0         0         0         0         0         0         0
         0         0         0         0         0         0         0         0
         0         0         0         0         0         0         0         0
         0         0         0         0         0         0         0         0
         0         0         0         0         0         0         0         0
         0         0         0         0         0         0         0         0
         0         0         0         0         0         0         0         0
         0         0         0         0         0         0         0         0
         0         0         0         0         0         0         0         0
         0         0         0         0         0         0         0         0
         0         0         0         0         0         0         0         0
         0         0         0         0         0         0         0         0
         0         0         0         0         0         0         0         0
         0         0         0         0         0         0         0         0
         0         0         0         0         0         0         0         0
         0         0         0         0         0         0         0         0
         0         0         0         0         0         0         0         0
         0         0         0         0         0         0         0         0
         0         0         0         0         0         0         0         0
         0         0         0         0         0         0         0         0
         0         0         0         0         0         0         0         0
         0         0         0         0         0         0         0         0
         0         0         0         0         0         0         0         0
         0         0         0         0         0         0         0         0
         0         0         0         0         0         0         0         0
         0         0         0         0         0         0         0         0
         0         0         0         0         0         0         0         0
         0         0         0         0         0         0         0         0
         0         0         0         0         0         0         0         0
         0         0         0         0         0         0         0         0
         0         0         0         0         0         0         0         0
         0         0         0         0         0         0         0         0
         0         0         0         0         0         0         0         0
         0         0         0         0         0         0         0         0
         0         0         0         0         0         0         0         0
         0         0         0         0         0         0         0         0
         0         0         0         0         0         0         0         0
         0         0         0         0         0         0         0         0
         0         0         0         0         0         0         0         0
         0         0         0         0         0         0         0         0
         0         0         0         0         0         0         0         0
         0         0         0         0         0         0         0         0
         0         0         0         0         0         0         0         0
         0         0         0         0         0         0         0         0
         0         0         0         0         0         0         0         0
         0         0         0         0         0         0         0         0
         0         0         0         0         0         0         0         0
         0         0         0         0         0         0         0         0
         0         0         0         0         0         0         0         0
         0         0         0         0         0         0         0         0
         0         0         0         0         0         0         0         0
         0         0         0         0         0         0         0         0
         0         0         0         0         0         0         0         0
         0         0         0         0         0         0         0         0
         0         0         0         0         0         0         0         0
         0         0         0         0         0         0         0         0
         0         0         0         0         0         0         0         0
         0         0         0         0         0         0         0         0
         0         0         0         0         0         0         0         0
         0         0         0         0         0         0         0         0
         0         0         0         0         0         0         0         0
         0         0         0         0         0         0         0         0
         0         0         0         0         0         0         0         0
         0         0         0         0         0         0         0         0
         0         0         0         0         0         0         0         0
         0         0         0         0         0         0         0         0
         0         0         0         0         0         0         0         0
         0         0         0         0         0         0         0         0
         0         0         0         0         0         0         0         0
         0         0         0         0         0         0         0         0
         0         0         0         0         0         0         0         0
         0         0         0         0         0         0         0         0
         0         0         0         0         0         0         0         0
         0         0         0         0         0         0         0         0
         0         0         0         0         0         0         0         0
         0         0         0         0         0         0         0         0
         0         0         0         0         0         0         0         0
         0         0         0         0         0         0         0         0
         0         0         0         0         0         0         0         0
         0         0         0         0         0         0         0         0
         0         0         0         0         0         0         0         0
         0         0         0         0         0         0         0         0
         0         0         0         0         0         0         0         0
         0         0         0         0         0         0         0         0
         0         0         0         0         0         0         0         0
         0         0         0         0         0         0         0         0
         0         0         0         0         0         0         0         0
         0         0         0         0         0         0         0         0
         0         0         0         0         0         0         0         0
         0         0         0         0         0         0         0         0
         0         0         0         0         0         0         0         0
         0         0         0         0         0         0         0         0
         0         0         0         0         0         0         0         0
         0         0         0         0         0         0         0         0
         0         0         0         0         0         0         0         0
         0         0         0         0         0         0         0         0
         0         0         0         0         0         0         0         0
         0         0         0         0         0         0         0         0
         0         0         0         0         0         0         0         0
         0         0         0         0         0         0         0         0
         0         0         0         0         0         0         0         0
         0         0         0         0         0         0         0         0
         0         0         0         0         0         0         0         0
         0         0         0         0         0         0         0         0
         0         0         0         0         0         0         0         0
         0         0         0         0         0         0         0         0
         0         0         0         0         0         0         0         0
         0         0         0         0         0         0         0         0
         0         0         0         0         0         0         0         0
         0         0         0         0         0         0         0         0
         0         0         0         0         0         0         0         0
         0         0         0         0         0         0         0         0
         0         0         0         0         0         0         0         0
         0         0         0         0         0         0         0         0
         0         0         0         0         0         0         0         0
         0         0         0         0         0         0         0         0
         0         0         0         0         0         0         0         0
         0         0         0         0         0         0         0         0
         0         0         0         0         0         0         0         0
         0         0         0         0         0         0         0         0
         0         0         0         0         0         0         0         0
         0         0         0         0         0         0         0         0
         0         0         0         0         0         0         0         0
         0         0         0         0         0         0         0         0
         0         0         0         0         0         0         0         0
         0         0         0         0         0         0         0         0
         0         0         0         0         0         0         0         0
         0         0         0         0         0         0         0         0
         0         0         0         0         0         0         0         0
         0         0         0         0         0         0         0         0
         0         0         0         0         0         0         0         0
         0         0         0         0         0         0         0         0
         0         0         0         0         0         0         0         0
         0         0         0         0         0         0         0         0
         0         0         0         0         0         0         0         0
         0         0         0         0         0         0         0         0
         0         0         0         0         0         0         0         0
         0         0         0         0         0         0         0         0
         0         0         0         0         0         0         0         0
         0         0         0         0         0         0         0         0
         0         0         0         0         0         0         0         0
         0         0         0         0         0         0         0         0
         0         0         0         0         0         0         0         0
         0         0         0         0         0         0         0         0
         0         0         0         0         0         0         0         0
         0         0         0         0         0         0         0         0
         0         0         0         0         0         0         0         0
         0         0         0         0         0         0         0         0
         0         0         0         0         0         0         0         0
         0         0         0         0         0         0         0         0
         0         0         0         0         0         0         0         0
         0         0         0         0         0         0         0         0
         0         0         0         0         0         0         0         0
         0         0         0         0         0         0         0         0
         0         0         0         0         0         0         0         0
         0         0         0         0         0         0         0         0
         0         0         0         0         0         0         0         0
         0         0         0         0         0         0         0         0
         0         0         0         0         0         0         0         0
         0         0         0         0         0         0         0         0
         0         0         0         0         0         0         0         0
         0         0         0         0         0         0         0         0
         0         0         0         0         0         0         0         0
         0         0         0         0         0         0         0         0
         0         0         0         0         0         0         0         0
         0         0         0         0         0         0         0         0
         0         0         0         0         0         0         0         0
         0         0         0         0         0         0         0         0
         0         0         0         0         0         0         0         0
         0         0         0         0         0         0         0         0
         0         0         0         0         0         0         0         0
         0         0         0         0         0         0         0         0
         0         0         0         0         0         0         0         0
         0         0         0         0         0         0         0         0
         0         0         0         0         0         0         0         0
         0         0         0         0         0         0         0         0
         0         0         0         0         0         0         0         0
         0         0         0         0         0         0         0         0
         0         0         0         0         0         0         0         0
         0         0         0         0         0         0         0         0
         0         0         0         0         0         0         0         0
         0         0         0         0         0         0         0         0
         0         0         0         0         0         0         0         0
         0         0         0         0         0         0         0         0
         0         0         0         0         0         0         0         0
         0         0         0         0         0         0         0         0
         0         0         0         0         0         0         0         0
         0         0         0         0         0         0         0         0
         0         0         0         0         0         0         0         0
         0         0         0         0         0         0         0         0
         0         0         0         0         0         0         0         0
         0         0         0         0         0         0         0         0
         0         0         0         0         0         0         0         0
         0         0         0         0         0         0         0         0
         0         0         0         0         0         0         0         0
         0         0         0         0         0         0         0         0
         0         0         0         0         0         0         0         0
         0         0         0         0         0         0         0         0
         0         0         0         0         0         0         0         0
         0         0         0         0         0         0         0         0
         0         0         0         0         0         0         0         0
         0         0         0         0         0         0         0         0
         0         0         0         0         0         0         0         0
         0         0         0         0         0         0         0         0
         0         0         0         0         0         0         0         0
         0         0         0         0         0         0         0         0
         0         0         0         0         0         0         0         0
         0         0         0         0         0         0         0         0
         0         0         0         0         0         0         0         0
         0         0         0         0         0         0         0         0
         0         0         0         0         0         0         0         0
         0         0         0         0         0         0         0         0
         0         0         0         0         0         0         0         0
         0         0         0         0         0         0         0         0
         0         0         0         0         0         0         0         0
         0         0         0         0         0         0         0         0
         0         0         0         0         0         0         0         0
         0         0         0         0         0         0         0         0
         0         0         0         0         0         0         0         0
         0         0         0         0         0         0         0         0
         0         0         0         0         0         0         0         0
         0         0         0         0         0         0         0         0
         0         0         0         0         0         0         0         0
         0         0         0         0         0         0         0         0
         0         0         0         0         0         0         0         0
         0         0         0         0         0         0         0         0
         0         0         0         0         0         0         0         0
         0         0         0         0         0         0         0         0
         0         0         0         0         0         0         0         0
         0         0         0         0         0         0         0         0
         0         0         0         0         0         0         0         0
         0         0         0         0         0         0         0         0
         0         0         0         0         0         0         0         0
         0         0         0         0         0         0         0         0
         0         0         0         0         0         0         0         0
         0         0         0         0         0         0         0         0
         0         0         0         0         0         0         0         0
         0         0         0         0         0         0         0         0
         0         0         0         0         0         0         0         0
         0         0         0         0         0         0         0         0
         0         0         0         0         0         0         0         0
         0         0         0         0         0         0         0         0
         0         0         0         0         0         0         0         0
         0         0         0         0         0         0         0         0
         0         0         0         0         0         0         0         0
         0         0         0         0         0         0         0         0
         0         0         0         0         0         0         0         0
         0         0         0         0         0         0         0         0
         0         0         0         0         0         0         0         0
         0         0         0         0         0         0         0         0
         0         0         0         0         0         0         0         0
         0         0         0         0         0         0         0         0
         0         0         0         0         0         0         0         0
         0         0         0         0         0         0         0         0
         0         0         0         0         0         0         0         0
         0         0         0         0         0         0         0         0
         0         0         0         0         0         0         0         0
         0         0         0         0         0         0         0         0
         0         0         0         0         0         0         0         0
         0         0         0         0         0         0         0         0
         0         0         0         0         0         0         0         0
         0         0         0         0         0         0         0         0
         0         0         0         0         0         0         0         0
         0         0         0         0         0         0         0         0
         0         0         0         0         0         0         0         0
         0         0         0         0         0         0         0         0
         0         0         0         0         0         0         0         0
         0         0         0         0         0         0         0         0
         0         0         0         0         0         0         0         0
         0         0         0         0         0         0         0         0
         0         0         0         0         0         0         0         0
         0         0         0         0         0         0         0         0
         0         0         0         0         0         0         0         0
         0         0         0         0         0         0         0         0
         0         0         0         0         0         0         0         0
         0         0         0         0         0         0         0         0
         0         0         0         0         0         0         0         0
         0         0         0         0         0         0         0         0
         0         0         0         0         0         0         0         0
         0         0         0         0         0         0         0         0
         0         0         0         0         0         0         0         0
         0         0         0         0         0         0         0         0
         0         0         0         0         0         0         0         0
         0         0         0         0         0         0         0         0
         0         0         0         0         0         0         0         0
         0         0         0         0         0         0         0         0
         0         0         0         0         0         0         0         0
         0         0         0         0         0         0         0         0
         0         0         0         0         0         0         0         0
         0         0         0         0         0         0         0         0
         0         0         0         0         0         0         0         0
         0         0         0         0         0         0         0         0
         0         0         0         0         0         0         0         0
         0         0         0         0         0         0         0         0
         0         0         0         0         0         0         0         0
         0         0         0         0         0         0         0         0
         0         0         0         0         0         0         0         0
         0         0         0         0         0         0         0         0
         0         0         0         0         0         0         0         0
         0         0         0         0         0         0         0         0
         0         0         0         0         0         0         0         0
         0         0         0         0         0         0         0         0
         0         0         0         0         0         0         0         0
         0         0         0         0         0         0         0         0
         0         0         0         0         0         0         0         0
         0         0         0         0         0         0         0         0
         0         0         0         0         0         0         0         0
         0         0         0         0         0         0         0         0
         0         0         0         0         0         0         0         0
         0         0         0         0         0         0         0         0
         0         0         0         0         0         0         0         0
         0         0         0         0         0         0         0         0
         0         0         0         0         0         0         0         0
         0         0         0         0         0         0         0         0
         0         0         0         0         0         0         0         0
         0         0         0         0         0         0         0         0
         0         0         0         0         0         0         0         0
         0         0         0         0         0         0         0         0
         0         0         0         0         0         0         0         0
         0         0         0         0         0         0         0         0
         0         0         0         0         0         0         0         0
         0         0         0         0         0         0         0         0
         0         0         0         0         0         0         0         0
         0         0         0         0         0         0         0         0
         0         0         0         0         0         0         0         0
         0         0         0         0         0         0         0         0
         0         0         0         0         0         0         0         0
         0         0         0         0         0         0         0         0
         0         0         0         0         0         0         0         0
         0         0         0         0         0         0         0         0
         0         0         0         0         0         0         0         0
         0         0         0         0         0         0         0         0
         0         0         0         0         0         0         0         0
         0         0         0         0         0         0         0         0
         0         0         0         0         0         0         0         0
         0         0         0         0         0         0         0         0
         0         0         0         0         0         0         0         0
         0         0         0         0         0         0         0         0
         0         0         0         0         0         0         0         0
         0         0         0         0         0         0         0         0
         0         0         0         0         0         0         0         0
         0         0         0         0         0         0         0         0
         0         0         0         0         0         0         0         0
         0         0         0         0         0         0         0         0
         0         0         0         0         0         0         0         0
         0         0         0         0         0         0         0         0
         0         0         0         0         0         0         0         0
         0         0         0         0         0         0         0         0
         0         0         0         0         0         0         0         0
         0         0         0         0         0         0         0         0
         0         0         0         0         0         0         0         0
         0         0         0         0         0         0         0         0
         0         0         0         0         0         0         0         0
         0         0         0         0         0         0         0         0
         0         0         0         0         0         0         0         0
         0         0         0         0         0         0         0         0
         0         0         0         0         0         0         0         0
         0         0         0         0         0         0         0         0
         0         0         0         0         0         0         0         0
         0         0         0         0         0         0         0         0
         0         0         0         0         0         0         0         0
         0         0         0         0         0         0         0         0
         0         0         0         0         0         0         0         0
         0         0         0         0         0         0         0         0
         0         0         0         0         0         0         0         0
         0         0         0         0         0         0         0         0
         0         0         0         0         0         0         0         0
         0         0         0         0         0         0         0         0
         0         0         0         0         0         0         0         0
         0         0         0         0         0         0         0         0
         0         0         0         0         0         0         0         0
         0         0         0         0         0         0         0         0
         0         0         0         0         0         0         0         0
         0         0         0         0         0         0         0         0
         0         0         0         0         0         0         0         0
         0         0         0         0         0         0         0         0
         0         0         0         0         0         0         0         0
         0         0         0         0         0         0         0         0
         0         0         0         0         0         0         0         0
         0         0         0         0         0         0         0         0
         0         0         0         0         0         0         0         0
         0         0         0         0         0         0         0         0
         0         0         0         0         0         0         0         0
         0         0         0         0         0         0         0         0
         0         0         0         0         0         0         0         0
         0         0         0         0         0         0         0         0
         0         0         0         0         0         0         0         0
         0         0         0         0         0         0         0         0
         0         0         0         0         0         0         0         0
         0         0         0         0         0         0         0         0
         0         0         0         0         0         0         0         0
         0         0         0         0         0         0         0         0
         0         0         0         0         0         0         0         0
         0         0         0         0         0         0         0         0
         0         0         0         0         0         0         0         0
         0         0         0         0         0         0         0         0
         0         0         0         0         0         0         0         0
         0         0         0         0         0         0         0         0
         0         0         0         0         0         0         0         0
         0         0         0         0         0         0         0         0
         0         0         0         0         0         0         0         0
         0         0         0         0         0         0         0         0
         0         0         0         0         0         0         0         0
         0         0         0         0         0         0         0         0
         0         0         0         0         0         0         0         0
         0         0         0         0         0         0         0         0
         0         0         0         0         0         0         0         0
         0         0         0         0         0         0         0         0
         0         0         0         0         0         0         0         0
         0         0         0         0         0         0         0         0
         0         0         0         0         0         0         0         0
         0         0         0         0         0         0         0         0
         0         0         0         0         0         0         0         0
         0         0         0         0         0         0         0         0
         0         0         0         0         0         0         0         0
         0         0         0         0         0         0         0         0
         0         0         0         0         0         0         0         0
         0         0         0         0         0         0         0         0
         0         0         0         0         0         0         0         0
         0         0         0         0         0         0         0         0
         0         0         0         0         0         0         0         0
         0         0         0         0         0         0         0         0
         0         0         0         0         0         0         0         0
         0         0         0         0         0         0         0         0
         0         0         0         0         0         0         0         0
         0         0         0         0         0         0         0         0
         0         0         0         0         0         0         0         0
         0         0         0         0         0         0         0         0
         0         0         0         0         0         0         0         0
         0         0         0         0         0         0         0         0
         0         0         0         0         0         0         0         0
         0         0         0         0         0         0         0         0
         0         0         0         0         0         0         0         0
         0         0         0         0         0         0         0         0
         0         0         0         0         0         0         0         0
         0         0         0         0         0         0         0         0
         0         0         0         0         0         0         0         0
         0         0         0         0         0         0         0         0
         0         0         0         0         0         0         0         0
         0         0         0         0         0         0         0         0
         0         0         0         0         0         0         0         0
         0         0         0         0         0         0         0         0
         0         0         0         0         0         0         0         0
         0         0         0         0         0         0         0         0
         0         0         0         0         0         0         0         0
         0         0         0         0         0         0         0         0
         0         0         0         0         0         0         0         0
         0         0         0         0         0         0         0         0
         0         0         0         0         0         0         0         0
         0         0         0         0         0         0         0         0
         0         0         0         0         0         0         0         0
         0         0         0         0         0         0         0         0
         0         0         0         0         0         0         0         0
         0         0         0         0         0         0         0         0
         0         0         0         0         0         0         0         0
         0         0         0         0         0         0         0         0
         0         0         0         0         0         0         0         0
         0         0         0         0         0         0         0         0
         0         0         0         0         0         0         0         0
         0         0         0         0         0         0         0         0
         0         0         0         0         0         0         0         0
         0         0         0         0         0         0         0         0
         0         0         0         0         0         0         0         0
         0         0         0         0         0         0         0         0
         0         0         0         0         0         0         0         0
         0         0         0         0         0         0         0         0
         0         0         0         0         0         0         0         0
         0         0         0         0         0         0         0         0
         0         0         0         0         0         0         0         0
         0         0         0         0         0         0         0         0
         0         0         0         0         0         0         0         0
         0         0         0         0         0         0         0         0
         0         0         0         0         0         0         0         0
         0         0         0         0         0         0         0         0
         0         0         0         0         0         0         0         0
         0         0         0         0         0         0         0         0
         0         0         0         0         0         0         0         0
         0         0         0         0         0         0         0         0
         0         0         0         0         0         0         0         0
         0         0         0         0         0         0         0         0
         0         0         0         0         0         0         0         0
         0         0         0         0         0         0         0         0
         0         0         0         0         0         0         0         0
         0         0         0         0         0         0         0         0
         0         0         0         0         0         0         0         0
         0         0         0         0         0         0         0         0
         0         0         0         0         0         0         0         0
         0         0         0         0         0         0         0         0
         0         0         0         0         0         0         0         0
         0         0         0         0         0         0         0         0
         0         0         0         0         0         0         0         0
         0         0         0         0         0         0         0         0
         0         0         0         0         0         0         0         0
         0         0         0         0         0         0         0         0
         0         0         0         0         0         0         0         0
         0         0         0         0         0         0         0         0
         0         0         0         0         0         0         0         0
         0         0         0         0         0         0         0         0
         0         0         0         0         0         0         0         0
         0         0         0         0         0         0         0         0
         0         0         0         0         0         0         0         0
         0         0         0         0         0         0         0         0
         0         0         0         0         0         0         0         0
         0         0         0         0         0         0         0         0
         0         0         0         0         0         0         0         0
         0         0         0         0         0         0         0         0
         0         0         0         0         0         0         0         0
         0         0         0         0         0         0         0         0
         0         0         0         0         0         0         0         0
         0         0         0         0         0         0         0         0
         0         0         0         0         0         0         0         0
         0         0         0         0         0         0         0         0
         0         0         0         0         0         0         0         0
         0         0         0         0         0         0         0         0
         0         0         0         0         0         0         0         0
         0         0         0         0         0         0         0         0
         0         0         0         0         0         0         0         0
         0         0         0         0         0         0         0         0
         0         0         0         0         0         0         0         0
         0         0         0         0         0         0         0         0
         0         0         0         0         0         0         0         0
         0         0         0         0         0         0         0         0
         0         0         0         0         0         0         0         0
         0         0         0         0         0         0         0         0
         0         0         0         0         0         0         0         0
         0         0         0         0         0         0         0         0
         0         0         0         0         0         0         0         0
         0         0         0         0         0         0         0         0
         0         0         0         0         0         0         0         0
         0         0         0         0         0         0         0         0
         0         0         0         0         0         0         0         0
         0         0         0         0         0         0         0         0
         0         0         0         0         0         0         0         0
         0         0         0         0         0         0         0         0
         0         0         0         0         0         0         0         0
         0         0         0         0         0         0         0         0
         0         0         0         0         0         0         0         0
         0         0         0         0         0         0         0         0
         0         0         0         0         0         0         0         0
         0         0         0         0         0         0         0         0
         0         0         0         0         0         0         0         0
         0         0         0         0         0         0         0         0
         0         0         0         0         0         0         0         0
         0         0         0         0         0         0         0         0
         0         0         0         0         0         0         0         0
         0         0         0         0         0         0         0         0
         0         0         0         0         0         0         0         0
         0         0         0         0         0         0         0         0
         0         0         0         0         0         0         0         0
         0         0         0         0         0         0         0         0
         0         0         0         0         0         0         0         0
         0         0         0         0         0         0         0         0
         0         0         0         0         0         0         0         0
         0         0         0         0         0         0         0         0
         0         0         0         0         0         0         0         0
         0         0         0         0         0         0         0         0
         0         0         0         0         0         0         0         0
         0         0         0         0         0         0         0         0
         0         0         0         0         0         0         0         0
         0         0         0         0         0         0         0         0
         0         0         0         0         0         0         0         0
         0         0         0         0         0         0         0         0
         0         0         0         0         0         0         0         0
         0         0         0         0         0         0         0         0
         0         0         0         0         0         0         0         0
         0         0         0         0         0         0         0         0
         0         0         0         0         0         0         0         0
         0         0         0         0         0         0         0         0
         0         0         0         0         0         0         0         0
         0         0         0         0         0         0         0         0
         0         0         0         0         0         0         0         0
         0         0         0         0         0         0         0         0
         0         0         0         0         0         0         0         0
         0         0         0         0         0         0         0         0
         0         0         0         0         0         0         0         0
         0         0         0         0         0         0         0         0
         0         0         0         0         0         0         0         0
         0         0         0         0         0         0         0         0
         0         0         0         0         0         0         0         0
         0         0         0         0         0         0         0         0
         0         0         0         0         0         0         0         0
         0         0         0         0         0         0         0         0
         0         0         0         0         0         0         0         0
         0         0         0         0         0         0         0         0
         0         0         0         0         0         0         0         0
         0         0         0         0         0         0         0         0
         0         0         0         0         0         0         0         0
         0         0         0         0         0         0         0         0
         0         0         0         0         0         0         0         0
         0         0         0         0         0         0         0         0
         0         0         0         0         0         0         0         0
         0         0         0         0         0         0         0         0
         0         0         0         0         0         0         0         0
         0         0         0         0         0         0         0         0
         0         0         0         0         0         0         0         0
         0         0         0         0         0         0         0         0
         0         0         0         0         0         0         0         0
         0         0         0         0         0         0         0         0
         0         0         0         0         0         0         0         0
         0         0         0         0         0         0         0         0
         0         0         0         0         0         0         0         0
         0         0         0         0         0         0         0         0
         0         0         0         0         0         0         0         0
         0         0         0         0         0         0         0         0
         0         0         0         0         0         0         0         0
         0         0         0         0         0         0         0         0
         0         0         0         0         0         0         0         0
         0         0         0         0         0         0         0         0
         0         0         0         0         0         0         0         0
         0         0         0         0         0         0         0         0
         0         0         0         0         0         0         0         0
         0         0         0         0         0         0         0         0
         0         0         0         0         0         0         0         0
         0         0         0         0         0         0         0         0
         0         0         0         0         0         0         0         0
         0         0         0         0         0         0         0         0
         0         0         0         0         0         0         0         0
         0         0         0         0         0         0         0         0
         0         0         0         0         0         0         0         0
         0         0         0         0         0         0         0         0
         0         0         0         0         0         0         0         0
         0         0         0         0         0         0         0         0
         0         0         0         0         0         0         0         0
         0         0         0         0         0         0         0         0
         0         0         0         0         0         0         0         0
         0         0         0         0         0         0         0         0
         0         0         0         0         0         0         0         0
         0         0         0         0         0         0         0         0
         0         0         0         0         0         0         0         0
         0         0         0         0         0         0         0         0
         0         0         0         0         0         0         0         0
         0         0         0         0         0         0         0         0
         0         0         0         0         0         0         0         0
         0         0         0         0         0         0         0         0
         0         0         0         0         0         0         0         0
         0         0         0         0         0         0         0         0
         0         0         0         0         0         0         0         0
         0         0         0         0         0         0         0         0
         0         0         0         0         0         0         0         0
         0         0         0         0         0         0         0         0
         0         0         0         0         0         0         0         0
         0         0         0         0         0         0         0         0
         0         0         0         0         0         0         0         0
         0         0         0         0         0         0         0         0
         0         0         0         0         0         0         0         0
         0         0         0         0         0         0         0         0
         0         0         0         0         0         0         0         0
         0         0         0         0         0         0         0         0
         0         0         0         0         0         0         0         0
         0         0         0         0         0         0         0         0
         0         0         0         0         0         0         0         0
         0         0         0         0         0         0         0         0
         0         0         0         0         0         0         0         0
         0         0         0         0         0         0         0         0
         0         0         0         0         0         0         0         0
         0         0         0         0         0         0         0         0
         0         0         0         0         0         0         0         0
         0         0         0         0         0         0         0         0
         0         0         0         0         0         0         0         0
         0         0         0         0         0         0         0         0
         0         0         0         0         0         0         0         0
         0         0         0         0         0         0         0         0
         0         0         0         0         0         0         0         0
         0         0         0         0         0         0         0         0
         0         0         0         0         0         0         0         0
         0         0         0         0         0         0         0         0
         0         0         0         0         0         0         0         0
         0         0         0         0         0         0         0         0
         0         0         0         0         0         0         0         0
         0         0         0         0         0         0         0         0
         0         0         0         0         0         0         0         0
         0         0         0         0         0         0         0         0
         0         0         0         0         0         0         0         0
         0         0         0         0         0         0         0         0
         0         0         0         0         0         0         0         0
         0         0         0         0         0         0         0         0
         0         0         0         0         0         0         0         0
         0         0         0         0         0         0         0         0
         0         0         0         0         0         0         0         0
         0         0         0         0         0         0         0         0
         0         0         0         0         0         0         0         0
         0         0         0         0         0         0         0         0
         0         0         0         0         0         0         0         0
         0         0         0         0         0         0         0         0
         0         0         0         0         0         0         0         0
         0         0         0         0         0         0         0         0
         0         0         0         0         0         0         0         0
         0         0         0         0         0         0         0         0
         0         0         0         0         0         0         0         0
         0         0         0         0         0         0         0         0
         0         0         0         0         0         0         0         0
         0         0         0         0         0         0         0         0
         0         0         0         0         0         0         0         0
         0         0         0         0         0         0         0         0
         0         0         0         0         0         0         0         0
         0         0         0         0         0         0         0         0
         0         0         0         0         0         0         0         0
         0         0         0         0         0         0         0         0
         0         0         0         0         0         0         0         0
         0         0         0         0         0         0         0         0
         0         0         0         0         0         0         0         0
         0         0         0         0         0         0         0         0
         0         0         0         0         0         0         0         0
         0         0         0         0         0         0         0         0
         0         0         0         0         0         0         0         0
         0         0         0         0         0         0         0         0
         0         0         0         0         0         0         0         0
         0         0         0         0         0         0         0         0
         0         0         0         0         0         0         0         0
         0         0         0         0         0         0         0         0
         0         0         0         0         0         0         0         0
         0         0         0         0         0         0         0         0
         0         0         0         0         0         0         0         0
         0         0         0         0         0         0         0         0
         0         0         0         0         0         0         0         0
         0         0         0         0         0         0         0         0
         0         0         0         0         0         0         0         0
         0         0         0         0         0         0         0         0
         0         0         0         0         0         0         0         0
         0         0         0         0         0         0         0         0
         0         0         0         0         0         0         0         0
         0         0         0         0         0         0         0         0
         0         0         0         0         0         0         0         0
         0         0         0         0         0         0         0         0
         0         0         0         0         0         0         0         0
         0         0         0         0         0         0         0         0
         0         0         0         0         0         0         0         0
         0         0         0         0         0         0         0         0
         0         0         0         0         0         0         0         0
         0         0         0         0         0         0         0         0
         0         0         0         0         0         0         0         0
         0         0         0         0         0         0         0         0
         0         0         0         0         0         0         0         0
         0         0         0         0         0         0         0         0
         0         0         0         0         0         0         0         0
         0         0         0         0         0         0         0         0
         0         0         0         0         0         0         0         0
         0         0         0         0         0         0         0         0
         0         0         0         0         0         0         0         0
         0         0         0         0         0         0         0         0
         0         0         0         0         0         0         0         0
         0         0         0         0         0         0         0         0
         0         0         0         0         0         0         0         0
         0         0         0         0         0         0         0         0
         0         0         0         0         0         0         0         0
         0         0         0         0         0         0         0         0
         0         0         0         0         0         0         0         0
         0         0         0         0         0         0         0         0
         0         0         0         0         0         0         0         0
         0         0         0         0         0         0         0         0
         0         0         0         0         0         0         0         0
         0         0         0         0         0         0         0         0
         0         0         0         0         0         0         0         0
         0         0         0         0         0         0         0         0
         0         0         0         0         0         0         0         0
         0         0         0         0         0         0         0         0
         0         0         0         0         0         0         0         0
         0         0         0         0         0         0         0         0
         0         0         0         0         0         0         0         0
         0         0         0         0         0         0         0         0
         0         0         0         0         0         0         0         0
         0         0         0         0         0         0         0         0
         0         0         0         0         0         0         0         0
         0         0         0         0         0         0         0         0
         0         0         0         0         0         0         0         0
         0         0         0         0         0         0         0         0
         0         0         0         0         0         0         0         0
         0         0         0         0         0         0         0         0
         0         0         0         0         0         0         0         0
         0         0         0         0         0         0         0         0
         0         0         0         0         0         0         0         0
         0         0         0         0         0         0         0         0
         0         0         0         0         0         0         0         0
         0         0         0         0         0         0         0         0
         0         0         0         0         0         0         0         0
         0         0         0         0         0         0         0         0
         0         0         0         0         0         0         0         0
         0         0         0         0         0         0         0         0
         0         0         0         0         0         0         0         0
         0         0         0         0         0         0         0         0
         0         0         0         0         0         0         0         0
         0         0         0         0         0         0         0         0
         0         0         0         0         0         0         0         0
         0         0         0         0         0         0         0         0
         0         0         0         0         0         0         0         0
         0         0         0         0         0         0         0         0
         0         0         0         0         0         0         0         0
         0         0         0         0         0         0         0         0
         0         0         0         0         0         0         0         0
         0         0         0         0         0         0         0         0
         0         0         0         0         0         0         0         0
         0         0         0         0         0         0         0         0
         0         0         0         0         0         0         0         0
         0         0         0         0         0         0         0         0
         0         0         0         0         0         0         0         0
         0         0         0         0         0         0         0         0
         0         0         0         0         0         0         0         0
         0         0         0         0         0         0         0         0
         0         0         0         0         0         0         0         0
         0         0         0         0         0         0         0         0
         0         0         0         0         0         0         0         0
         0         0         0         0         0         0         0         0
         0         0         0         0         0         0         0         0
         0         0         0         0         0         0         0         0
         0         0         0         0         0         0         0         0
         0         0         0         0         0         0         0         0
         0         0         0         0         0         0         0         0
         0         0         0         0         0         0         0         0
         0         0         0         0         0         0         0         0
         0         0         0         0         0         0         0         0
         0         0         0         0         0         0         0         0
         0         0         0         0         0         0         0         0
         0         0         0         0         0         0         0         0
         0         0         0         0         0         0         0         0
         0         0         0         0         0         0         0         0
         0         0         0         0         0         0         0         0
         0         0         0         0         0         0         0         0
         0         0         0         0         0         0         0         0
         0         0         0         0         0         0         0         0
         0         0         0         0         0         0         0         0
         0         0         0         0         0         0         0         0
         0         0         0         0         0         0         0         0
         0         0         0         0         0         0         0         0
         0         0         0         0         0         0         0         0
         0         0         0         0         0         0         0         0
         0         0         0         0         0         0         0         0
         0         0         0         0         0         0         0         0
         0         0         0         0         0         0         0         0
         0         0         0         0         0         0         0         0
         0         0         0         0         0         0         0         0
         0         0         0         0         0         0         0         0
         0         0         0         0         0         0         0         0
         0         0         0         0         0         0         0         0
         0         0         0         0         0         0         0         0
         0         0         0         0         0         0         0         0
         0         0         0         0         0         0         0         0
         0         0         0         0         0         0         0         0
         0         0         0         0         0         0         0         0
         0         0         0         0         0         0         0         0
         0         0         0         0         0         0         0         0
         0         0         0         0         0         0         0         0
         0         0         0         0         0         0         0         0
         0         0         0         0         0         0         0         0
         0         0         0         0         0         0         0         0
         0         0         0         0         0         0         0         0
         0         0         0         0         0         0         0         0
         0         0         0         0         0         0         0         0
         0         0         0         0         0         0         0         0
         0         0         0         0         0         0         0         0
         0         0         0         0         0         0         0         0
         0         0         0         0         0         0         0         0
         0         0         0         0         0         0         0         0
         0         0         0         0         0         0         0         0
         0         0         0         0         0         0         0         0
         0         0         0         0         0         0         0         0
         0         0         0         0         0         0         0         0
         0         0         0         0         0         0         0         0
         0         0         0         0         0         0         0         0
         0         0         0         0         0         0         0         0
         0         0         0         0         0         0         0         0
         0         0         0         0         0         0         0         0
         0         0         0         0         0         0         0         0
         0         0         0         0         0         0         0         0
         0         0         0         0         0         0         0         0
         0         0         0         0         0         0         0         0
         0         0         0         0         0         0         0         0
         0         0         0         0         0         0         0         0
         0         0         0         0         0         0         0         0
         0         0         0         0         0         0         0         0
         0         0         0         0         0         0         0         0
         0         0         0         0         0         0         0         0
         0         0         0         0         0         0         0         0
         0         0         0         0         0         0         0         0
         0         0         0         0         0         0         0         0
         0         0         0         0         0         0         0         0
         0         0         0         0         0         0         0         0
         0         0         0         0         0         0         0         0
         0         0         0         0         0         0         0         0
         0         0         0         0         0         0         0         0
         0         0         0         0         0         0         0         0
         0         0         0         0         0         0         0         0
         0         0         0         0         0         0         0         0
         0         0         0         0         0         0         0         0
         0         0         0         0         0         0         0         0
         0         0         0         0         0         0         0         0
         0         0         0         0         0         0         0         0
         0         0         0         0         0         0         0         0
         0         0         0         0         0         0         0         0
         0         0         0         0         0         0         0         0
         0         0         0         0         0         0         0         0
         0         0         0         0         0         0         0         0
         0         0         0         0         0         0         0         0
         0         0         0         0         0         0         0         0
         0         0         0         0         0         0         0         0
         0         0         0         0         0         0         0         0
         0         0         0         0         0         0         0         0
         0         0         0         0         0         0         0         0
         0         0         0         0         0         0         0         0
         0         0         0         0         0         0         0         0
         0         0         0         0         0         0         0         0
         0         0         0         0         0         0         0         0
         0         0         0         0         0         0         0         0
         0         0         0         0         0         0         0         0
         0         0         0         0         0         0         0         0
         0         0         0         0         0         0         0         0
         0         0         0         0         0         0         0         0
         0         0         0         0         0         0         0         0
         0         0         0         0         0         0         0         0
         0         0         0         0         0         0         0         0
         0         0         0         0         0         0         0         0
         0         0         0         0         0         0         0         0
         0         0         0         0         0         0         0         0
         0         0         0         0         0         0         0         0
         0         0         0         0         0         0         0         0
         0         0         0         0         0         0         0         0
         0         0         0         0         0         0         0         0
         0         0         0         0         0         0         0         0
         0         0         0         0         0         0         0         0
         0         0         0         0         0         0         0         0
         0         0         0         0         0         0         0         0
         0         0         0         0         0         0         0         0
         0         0         0         0         0         0         0         0
         0         0         0         0         0         0         0         0
         0         0         0         0         0         0         0         0
         0         0         0         0         0         0         0         0
         0         0         0         0         0         0         0         0
         0         0         0         0         0         0         0         0
         0         0         0         0         0         0         0         0
         0         0         0         0         0         0         0         0
         0         0         0         0         0         0         0         0
         0         0         0         0         0         0         0         0
         0         0         0         0         0         0         0         0
         0         0         0         0         0         0         0         0
         0         0         0         0         0         0         0         0
         0         0         0         0         0         0         0         0
         0         0         0         0         0         0         0         0
         0         0         0         0         0         0         0         0
         0         0         0         0         0         0         0         0
         0         0         0         0         0         0         0         0
         0         0         0         0         0         0         0         0
         0         0         0         0         0         0         0         0
         0         0         0         0         0         0         0         0
         0         0         0         0         0         0         0         0
         0         0         0         0         0         0         0         0
         0         0         0         0         0         0         0         0
         0         0         0         0         0         0         0         0
         0         0         0         0         0         0         0         0
         0         0         0         0         0         0         0         0
         0         0         0         0         0         0         0         0
         0         0         0         0         0         0         0         0
         0         0         0         0         0         0         0         0
         0         0         0         0         0         0         0         0
         0         0         0         0         0         0         0         0
         0         0         0         0         0         0         0         0
         0         0         0         0         0         0         0         0
         0         0         0         0         0         0         0         0
         0         0         0         0         0         0         0         0
         0         0         0         0         0         0         0         0
         0         0         0         0         0         0         0         0
         0         0         0         0         0         0         0         0
         0         0         0         0         0         0         0         0
         0         0         0         0         0         0         0         0
         0         0         0         0         0         0         0         0
         0         0         0         0         0         0         0         0
         0         0         0         0         0         0         0         0
         0         0         0         0         0         0         0         0
         0         0         0         0         0         0         0         0
         0         0         0         0         0         0         0         0
         0         0         0         0         0         0         0         0
         0         0         0         0         0         0         0         0
         0         0         0         0         0         0         0         0
         0         0         0         0         0         0         0         0
         0         0         0         0         0         0         0         0
         0         0         0         0         0         0         0         0
         0         0         0         0         0         0         0         0
         0         0         0         0         0         0         0         0
         0         0         0         0         0         0         0         0
         0         0         0         0         0         0         0         0
         0         0         0         0         0         0         0         0
         0         0         0         0         0         0         0         0
         0         0         0         0         0         0         0         0
         0         0         0         0         0         0         0         0
         0         0         0         0         0         0         0         0
         0         0         0         0         0         0         0         0
         0         0         0         0         0         0         0         0
         0         0         0         0         0         0         0         0
         0         0         0         0         0         0         0         0
         0         0         0         0         0         0         0         0
         0         0         0         0         0         0         0         0
         0         0         0         0         0         0         0         0
         0         0         0         0         0         0         0         0
         0         0         0         0         0         0         0         0
         0         0         0         0         0         0         0         0
         0         0         0         0         0         0         0         0
         0         0         0         0         0         0         0         0
         0         0         0         0         0         0         0         0
         0         0         0         0         0         0         0         0
         0         0         0         0         0         0         0         0
         0         0         0         0         0         0         0         0
         0         0         0         0         0         0         0         0
         0         0         0         0         0         0         0         0
         0         0         0         0         0         0         0         0
         0         0         0         0         0         0         0         0
         0         0         0         0         0         0         0         0
         0         0         0         0         0         0         0         0
         0         0         0         0         0         0         0         0
         0         0         0         0         0         0         0         0
         0         0         0         0         0         0         0         0
         0         0         0         0         0         0         0         0
         0         0         0         0         0         0         0         0
         0         0         0         0         0         0         0         0
         0         0         0         0         0         0         0         0
         0         0         0         0         0         0         0         0
         0         0         0         0         0         0         0         0
         0         0         0         0         0         0         0         0
         0         0         0         0         0         0         0         0
         0         0         0         0         0         0         0         0
         0         0         0         0         0         0         0         0
         0         0         0         0         0         0         0         0
         0         0         0         0         0         0         0         0
         0         0         0         0         0         0         0         0
         0         0         0         0         0         0         0         0
         0         0         0         0         0         0         0         0
         0         0         0         0         0         0         0         0
         0         0         0         0         0         0         0         0
         0         0         0         0         0         0         0         0
         0         0         0         0         0         0         0         0
         0         0         0         0         0         0         0         0
         0         0         0         0         0         0         0         0
         0         0         0         0         0         0         0         0
         0         0         0         0         0         0         0         0
         0         0         0         0         0         0         0         0
         0         0         0         0         0         0         0         0
         0         0         0         0         0         0         0         0
         0         0         0         0         0         0         0         0
         0         0         0         0         0         0         0         0
         0         0         0         0         0         0         0         0
         0         0         0         0         0         0         0         0
         0         0         0         0         0         0         0         0
         0         0         0         0         0         0         0         0
         0         0         0         0         0         0         0         0
         0         0         0         0         0         0         0         0
         0         0         0         0         0         0         0         0
         0         0         0         0         0         0         0         0
         0         0         0         0         0         0         0         0
         0         0         0         0         0         0         0         0
         0         0         0         0         0         0         0         0
         0         0         0         0         0         0         0         0
         0         0         0         0         0         0         0         0
         0         0         0         0         0         0         0         0
         0         0         0         0         0         0         0         0
         0         0         0         0         0         0         0         0
         0         0         0         0         0         0         0         0
         0         0         0         0         0         0         0         0
         0         0         0         0         0         0         0         0
         0         0         0         0         0         0         0         0
         0         0         0         0         0         0         0         0
         0         0         0         0         0         0         0         0
         0         0         0         0         0         0         0         0
         0         0         0         0         0         0         0         0
         0         0         0         0         0         0         0         0
         0         0         0         0         0         0         0         0
         0         0         0         0         0         0         0         0
         0         0         0         0         0         0         0         0
         0         0         0         0         0         0         0         0
         0         0         0         0         0         0         0         0
         0         0         0         0         0         0         0         0
         0         0         0         0         0         0         0         0
         0         0         0         0         0         0         0         0
         0         0         0         0         0         0         0         0
         0         0         0         0         0         0         0         0
         0         0         0         0         0         0         0         0
         0         0         0         0         0         0         0         0
         0         0         0         0         0         0         0         0
         0         0         0         0         0         0         0         0
         0         0         0         0         0         0         0         0
         0         0         0         0         0         0         0         0
         0         0         0         0         0         0         0         0
         0         0         0         0         0         0         0         0
         0         0         0         0         0         0         0         0
         0         0         0         0         0         0         0         0
         0         0         0         0         0         0         0         0
         0         0         0         0         0         0         0         0
         0         0         0         0         0         0         0         0
         0         0         0         0         0         0         0         0
         0         0         0         0         0         0         0         0
         0         0         0         0         0         0         0         0
         0         0         0         0         0         0         0         0
         0         0         0         0         0         0         0         0
         0         0         0         0         0         0         0         0
         0         0         0         0         0         0         0         0
         0         0         0         0         0         0         0         0
         0         0         0         0         0         0         0         0
         0         0         0         0         0         0         0         0
         0         0         0         0         0         0         0         0
         0         0         0         0         0         0         0         0
         0         0         0         0         0         0         0         0
         0         0         0         0         0         0         0         0
         0         0         0         0         0         0         0         0
         0         0         0         0         0         0         0         0
         0         0         0         0         0         0         0         0
         0         0         0         0         0         0         0         0
         0         0         0         0         0         0         0         0
         0         0         0         0         0         0         0         0
         0         0         0         0         0         0         0         0
         0         0         0         0         0         0         0         0
         0         0         0         0         0         0         0         0
         0         0         0         0         0         0         0         0
         0         0         0         0         0         0         0         0
         0         0         0         0         0         0         0         0
         0         0         0         0         0         0         0         0
         0         0         0         0         0         0         0         0
         0         0         0         0         0         0         0         0
         0         0         0         0         0         0         0         0
         0         0         0         0         0         0         0         0
         0         0         0         0         0         0         0         0
         0         0         0         0         0         0         0         0
         0         0         0         0         0         0         0         0
         0         0         0         0         0         0         0         0
         0         0         0         0         0         0         0         0
         0         0         0         0         0         0         0         0
         0         0         0         0         0         0         0         0
         0         0         0         0         0         0         0         0
         0         0         0         0         0         0         0         0
         0         0         0         0         0         0         0         0
         0         0         0         0         0         0         0         0
         0         0         0         0         0         0         0         0
         0         0         0         0         0         0         0         0
         0         0         0         0         0         0         0         0
         0         0         0         0         0         0         0         0
         0         0         0         0         0         0         0         0
         0         0         0         0         0         0         0         0
         0         0         0         0         0         0         0         0
         0         0         0         0         0         0         0         0
         0         0         0         0         0         0         0         0
         0         0         0         0         0         0         0         0
         0         0         0         0         0         0         0         0
         0         0         0         0         0         0         0         0
         0         0         0         0         0         0         0         0
         0         0         0         0         0         0         0         0
         0         0         0         0         0         0         0         0
         0         0         0         0         0         0         0         0
         0         0         0         0         0         0         0         0
         0         0         0         0         0         0         0         0
         0         0         0         0         0         0         0         0
         0         0         0         0         0         0         0         0
         0         0         0         0         0         0         0         0
         0         0         0         0         0         0         0         0
         0         0         0         0         0         0         0         0
         0         0         0         0         0         0         0         0
         0         0         0         0         0         0         0         0
         0         0         0         0         0         0         0         0
         0         0         0         0         0         0         0         0
         0         0         0         0         0         0         0         0
         0         0         0         0         0         0         0         0
         0         0         0         0         0         0         0         0
         0         0         0         0         0         0         0         0
         0         0         0         0         0         0         0         0
         0         0         0         0         0         0         0         0
         0         0         0         0         0         0         0         0
         0         0         0         0         0         0         0         0
         0         0         0         0         0         0         0         0
         0         0         0         0         0         0         0         0
         0         0         0         0         0         0         0         0
         0         0         0         0         0         0         0         0
         0         0         0         0         0         0         0         0
         0         0         0         0         0         0         0         0
         0         0         0         0         0         0         0         0
         0         0         0         0         0         0         0         0
         0         0         0         0         0         0         0         0
         0         0         0         0         0         0         0         0
         0         0         0         0         0         0         0         0
         0         0         0         0         0         0         0         0
         0         0         0         0         0         0         0         0
         0         0         0         0         0         0         0         0
         0         0         0         0         0         0         0         0
         0         0         0         0         0         0         0         0
         0         0         0         0         0         0         0         0
         0         0         0         0         0         0         0         0
         0         0         0         0         0         0         0         0
         0         0         0         0         0         0         0         0
         0         0         0         0         0         0         0         0
         0         0         0         0         0         0         0         0
         0         0         0         0         0         0         0         0
         0         0         0         0         0         0         0         0
         0         0         0         0         0         0         0         0
         0         0         0         0         0         0         0         0
         0         0         0         0         0         0         0         0
         0         0         0         0         0         0         0         0
         0         0         0         0         0         0         0         0
         0         0         0         0         0         0         0         0
         0         0         0         0         0         0         0         0
         0         0         0         0         0         0         0         0
         0         0         0         0         0         0         0         0
         0         0         0         0         0         0         0         0
         0         0         0         0         0         0         0         0
         0         0         0         0         0         0         0         0
         0         0         0         0         0         0         0         0
         0         0         0         0         0         0         0         0
         0         0         0         0         0         0         0         0
         0         0         0         0         0         0         0         0
         0         0         0         0         0         0         0         0
         0         0         0         0         0         0         0         0
         0         0         0         0         0         0         0         0
         0         0         0         0         0         0         0         0
         0         0         0         0         0         0         0         0
         0         0         0         0         0         0         0         0
         0         0         0         0         0         0         0         0
         0         0         0         0         0         0         0         0
         0         0         0         0         0         0         0         0
         0         0         0         0         0         0         0         0
         0         0         0         0         0         0         0         0
         0         0         0         0         0         0         0         0
         0         0         0         0         0         0         0         0
         0         0         0         0         0         0         0         0
         0         0         0         0         0         0         0         0
         0         0         0         0         0         0         0         0
         0         0         0         0         0         0         0         0
         0         0         0         0         0         0         0         0
         0         0         0         0         0         0         0         0
         0         0         0         0         0         0         0         0
         0         0         0         0         0         0         0         0
         0         0         0         0         0         0         0         0
         0         0         0         0         0         0         0         0
         0         0         0         0         0         0         0         0
         0         0         0         0         0         0         0         0
         0         0         0         0         0         0         0         0
         0         0         0         0         0         0         0         0
         0         0         0         0         0         0         0         0
         0         0         0         0         0         0         0         0
         0         0         0         0         0         0         0         0
         0         0         0         0         0         0         0         0
         0         0         0         0         0         0         0         0
         0         0         0         0         0         0         0         0
         0         0         0         0         0         0         0         0
         0         0         0         0         0         0         0         0
         0         0         0         0         0         0         0         0
         0         0         0         0         0         0         0         0
         0         0         0         0         0         0         0         0
         0         0         0         0         0         0         0         0
         0         0         0         0         0         0         0         0
         0         0         0         0         0         0         0         0
         0         0         0         0         0         0         0         0
         0         0         0         0         0         0         0         0
         0         0         0         0         0         0         0         0
         0         0         0         0         0         0         0         0
         0         0         0         0         0         0         0         0
         0         0         0         0         0         0         0         0
         0         0         0         0         0         0         0         0
         0         0         0         0         0         0         0         0
         0         0         0         0         0         0         0         0
         0         0         0         0         0         0         0         0
         0         0         0         0         0         0         0         0
         0         0         0         0         0         0         0         0
         0         0         0         0         0         0         0         0
         0         0         0         0         0         0         0         0
         0         0         0         0         0         0         0         0
         0         0         0         0         0         0         0         0
         0         0         0         0         0         0         0         0
         0         0         0         0         0         0         0         0
         0         0         0         0         0         0         0         0
         0         0         0         0         0         0         0         0
         0         0         0         0         0         0         0         0
         0         0         0         0         0         0         0         0
         0         0         0         0         0         0         0         0
         0         0         0         0         0         0         0         0
         0         0         0         0         0         0         0         0
         0         0         0         0         0         0         0         0
         0         0         0         0         0         0         0         0
         0         0         0         0         0         0         0         0
         0         0         0         0         0         0         0         0
         0         0         0         0         0         0         0         0
         0         0         0         0         0         0         0         0
         0         0         0         0         0         0         0         0
         0         0         0         0         0         0         0         0
         0         0         0         0         0         0         0         0
         0         0         0         0         0         0         0         0
         0         0         0         0         0         0         0         0
         0         0         0         0         0         0         0         0
         0         0         0         0         0         0         0         0
         0         0         0         0         0         0         0         0
         0         0         0         0         0         0         0         0
         0         0         0         0         0         0         0         0
         0         0         0         0         0         0         0         0
         0         0         0         0         0         0         0         0
         0         0         0         0         0         0         0         0
         0         0         0         0         0         0         0         0
         0         0         0         0         0         0         0         0
         0         0         0         0         0         0         0         0
         0         0         0         0         0         0         0         0
         0         0         0         0         0         0         0         0
         0         0         0         0         0         0         0         0
         0         0         0         0         0         0         0         0
         0         0         0         0         0         0         0         0
         0         0         0         0         0         0         0         0
         0         0         0         0         0         0         0         0
         0         0         0         0         0         0         0         0
         0         0         0         0         0         0         0         0
         0         0         0         0         0         0         0         0
         0         0         0         0         0         0         0         0
         0         0         0         0         0         0         0         0
         0         0         0         0         0         0         0         0
         0         0         0         0         0         0         0         0
         0         0         0         0         0         0         0         0
         0         0         0         0         0         0         0         0
         0         0         0         0         0         0         0         0
         0         0         0         0         0         0         0         0
         0         0         0         0         0         0         0         0
         0         0         0         0         0         0         0         0
         0         0         0         0         0         0         0         0
         0         0         0         0         0         0         0         0
         0         0         0         0         0         0         0         0
         0         0         0         0         0         0         0         0
         0         0         0         0         0         0         0         0
         0         0         0         0         0         0         0         0
         0         0         0         0         0         0         0         0
         0         0         0         0         0         0         0         0
         0         0         0         0         0         0         0         0
         0         0         0         0         0         0         0         0
         0         0         0         0         0         0         0         0
         0         0         0         0         0         0         0         0
         0         0         0         0         0         0         0         0
         0         0         0         0         0         0         0         0
         0         0         0         0         0         0         0         0
         0         0         0         0         0         0         0         0
         0         0         0         0         0         0         0         0
         0         0         0         0         0         0         0         0
         0         0         0         0         0         0         0         0
         0         0         0         0         0         0         0         0
         0         0         0         0         0         0         0         0
         0         0         0         0         0         0         0         0
         0         0         0         0         0         0         0         0
         0         0         0         0         0         0         0         0
         0         0         0         0         0         0         0         0
         0         0         0         0         0         0         0         0
         0         0         0         0         0         0         0         0
         0         0         0         0         0         0         0         0
         0         0         0         0         0         0         0         0
         0         0         0         0         0         0         0         0
         0         0         0         0         0         0         0         0
         0         0         0         0         0         0         0         0
         0         0         0         0         0         0         0         0
         0         0         0         0         0         0         0         0
         0         0         0         0         0         0         0         0
         0         0         0         0         0         0         0         0
         0         0         0         0         0         0         0         0
         0         0         0         0         0         0         0         0
         0         0         0         0         0         0         0         0
         0         0         0         0         0         0         0         0
         0         0         0         0         0         0         0         0
         0         0         0         0         0         0         0         0
         0         0         0         0         0         0         0         0
         0         0         0         0         0         0         0         0
         0         0         0         0         0         0         0         0
         0         0         0         0         0         0         0         0
         0         0         0         0         0         0         0         0
         0         0         0         0         0         0         0         0
         0         0         0         0         0         0         0         0
         0         0         0         0         0         0         0         0
         0         0         0         0         0         0         0         0
         0         0         0         0         0         0         0         0
         0         0         0         0         0         0         0         0
         0         0         0         0         0         0         0         0
         0         0         0         0         0         0         0         0
         0         0         0         0         0         0         0         0
         0         0         0         0         0         0         0         0
         0         0         0         0         0         0         0         0
         0         0         0         0         0         0         0         0
         0         0         0         0         0         0         0         0
         0         0         0         0         0         0         0         0
         0         0         0         0         0         0         0         0
         0         0         0         0         0         0         0         0
         0         0         0         0         0         0         0         0
         0         0         0         0         0         0         0         0
         0         0         0         0         0         0         0         0
         0         0         0         0         0         0         0         0
         0         0         0         0         0         0         0         0
         0         0         0         0         0         0         0         0
         0         0         0         0         0         0         0         0
         0         0         0         0         0         0         0         0
         0         0         0         0         0         0         0         0
         0         0         0         0         0         0         0         0
         0         0         0         0         0         0         0         0
         0         0         0         0         0         0         0         0
         0         0         0         0         0         0         0         0
         0         0         0         0         0         0         0         0
         0         0         0         0         0         0         0         0
         0         0         0         0         0         0         0         0
         0         0         0         0         0         0         0         0
         0         0         0         0         0         0         0         0
         0         0         0         0         0         0         0         0
         0         0         0         0         0         0         0         0
         0         0         0         0         0         0         0         0
         0         0         0         0         0         0         0         0
         0         0         0         0         0         0         0         0
         0         0         0         0         0         0         0         0
         0         0         0         0         0         0         0         0
         0         0         0         0         0         0         0         0
         0         0         0         0         0         0         0         0
         0         0         0         0         0         0         0         0
         0         0         0         0         0         0         0         0
         0         0         0         0         0         0         0         0
         0         0         0         0         0         0         0         0
         0         0         0         0         0         0         0         0
         0         0         0         0         0         0         0         0
         0         0         0         0         0         0         0         0
         0         0         0         0         0         0         0         0
         0         0         0         0         0         0         0         0
         0         0         0         0         0         0         0         0
         0         0         0         0         0         0         0         0
         0         0         0         0         0         0         0         0
         0         0         0         0         0         0         0         0
         0         0         0         0         0         0         0         0
         0         0         0         0         0         0         0         0
         0         0         0         0         0         0         0         0
         0         0         0         0         0         0         0         0
         0         0         0         0         0         0         0         0
         0         0         0         0         0         0         0         0
         0         0         0         0         0         0         0         0
         0         0         0         0         0         0         0         0
         0         0         0         0         0         0         0         0
         0         0         0         0         0         0         0         0
         0         0         0         0         0         0         0         0
         0         0         0         0         0         0         0         0
         0         0         0         0         0         0         0         0
         0         0         0         0         0         0         0         0
         0         0         0         0         0         0         0         0
         0         0         0         0         0         0         0         0
         0         0         0         0         0         0         0         0
         0         0         0         0         0         0         0         0
         0         0         0         0         0         0         0         0
         0         0         0         0         0         0         0         0
         0         0         0         0         0         0         0         0
         0         0         0         0         0         0         0         0
         0         0         0         0         0         0         0         0
         0         0         0         0         0         0         0         0
         0         0         0         0         0         0         0         0
         0         0         0         0         0         0         0         0
         0         0         0         0         0         0         0         0
         0         0         0         0         0         0         0         0
         0         0         0         0         0         0         0         0
         0         0         0         0         0         0         0         0
         0         0         0         0         0         0         0         0
         0         0         0         0         0         0         0         0
         0         0         0         0         0         0         0         0
         0         0         0         0         0         0         0         0
         0         0         0         0         0         0         0         0
         0         0         0         0         0         0         0         0
         0         0         0         0         0         0         0         0
         0         0         0         0         0         0         0         0
         0         0         0         0         0         0         0         0
         0         0         0         0         0         0         0         0
         0         0         0         0         0         0         0         0
         0         0         0         0         0         0         0         0
         0         0         0         0         0         0         0         0
         0         0         0         0         0         0         0         0
         0         0         0         0         0         0         0         0
         0         0         0         0         0         0         0         0
         0         0         0         0         0         0         0         0
         0         0         0         0         0         0         0         0
         0         0         0         0         0         0         0         0
         0         0         0         0         0         0         0         0
         0         0         0         0         0         0         0         0
         0         0         0         0         0         0         0         0
         0         0         0         0         0         0         0         0
         0         0         0         0         0         0         0         0
         0         0         0         0         0         0         0         0
         0         0         0         0         0         0         0         0
         0         0         0         0         0         0         0         0
         0         0         0         0         0         0         0         0
         0         0         0         0         0         0         0         0
         0         0         0         0         0         0         0         0
         0         0         0         0         0         0         0         0
         0         0         0         0         0         0         0         0
         0         0         0         0         0         0         0         0
         0         0         0         0         0         0         0         0
         0         0         0         0         0         0         0         0
         0         0         0         0         0         0         0         0
         0         0         0         0         0         0         0         0
         0         0         0         0         0         0         0         0
         0         0         0         0         0         0         0         0
         0         0         0         0         0         0         0         0
         0         0         0         0         0         0         0         0
         0         0         0         0         0         0         0         0
         0         0         0         0         0         0         0         0
         0         0         0         0         0         0         0         0
         0         0         0         0         0         0         0         0
         0         0         0         0         0         0         0         0
         0         0         0         0         0         0         0         0
         0         0         0         0         0         0         0         0
         0         0         0         0         0         0         0         0
         0         0         0         0         0         0         0         0
         0         0         0         0         0         0         0         0
         0         0         0         0         0         0         0         0
         0         0         0         0         0         0         0         0
         0         0         0         0         0         0         0         0
         0         0         0         0         0         0         0         0
         0         0         0         0         0         0         0         0
         0         0         0         0         0         0         0         0
         0         0         0         0         0         0         0         0
         0         0         0         0         0         0         0         0
         0         0         0         0         0         0         0         0
         0         0         0         0         0         0         0         0
         0         0         0         0         0         0         0         0
         0         0         0         0         0         0         0         0
         0         0         0         0         0         0         0         0
         0         0         0         0         0         0         0         0
         0         0         0         0         0         0         0         0
         0         0         0         0         0         0         0         0
         0         0         0         0         0         0         0         0
         0         0         0         0         0         0         0         0
         0         0         0         0         0         0         0         0
         0         0         0         0         0         0         0         0
         0         0         0         0         0         0         0         0
         0         0         0         0         0         0         0         0
         0         0         0         0         0         0         0         0
         0         0         0         0         0         0         0         0
         0         0         0         0         0         0         0         0
         0         0         0         0         0         0         0         0
         0         0         0         0         0         0         0         0
         0         0         0         0         0         0         0         0
         0         0         0         0         0         0         0         0
         0         0         0         0         0         0         0         0
         0         0         0         0         0         0         0         0
         0         0         0         0         0         0         0         0
         0         0         0         0         0         0         0         0
         0         0         0         0         0         0         0         0
         0         0         0         0         0         0         0         0
         0         0         0         0         0         0         0         0
         0         0         0         0         0         0         0         0
         0         0         0         0         0         0         0         0
         0         0         0         0         0         0         0         0
         0         0         0         0         0         0         0         0
         0         0         0         0         0         0         0         0
         0         0         0         0         0         0         0         0
         0         0         0         0         0         0         0         0
         0         0         0         0         0         0         0         0
         0         0         0         0         0         0         0         0
         0         0         0         0         0         0         0         0
         0         0         0         0         0         0         0         0
         0         0         0         0         0         0         0         0
         0         0         0         0         0         0         0         0
         0         0         0         0         0         0         0         0
         0         0         0         0         0         0         0         0
         0         0         0         0         0         0         0         0
         0         0         0         0         0         0         0         0
         0         0         0         0         0         0         0         0
         0         0         0         0         0         0         0         0
         0         0         0         0         0         0         0         0
         0         0         0         0         0         0         0         0
         0         0         0         0         0         0         0         0
         0         0         0         0         0         0         0         0
         0         0         0         0         0         0         0         0
         0         0         0         0         0         0         0         0
         0         0         0         0         0         0         0         0
         0         0         0         0         0         0         0         0
         0         0         0         0         0         0         0         0
         0         0         0         0         0         0         0         0
         0         0         0         0         0         0         0         0
         0         0         0         0         0         0         0         0
         0         0         0         0         0         0         0         0
         0         0         0         0         0         0         0         0
         0         0         0         0         0         0         0         0
         0         0         0         0         0         0         0         0
         0         0         0         0         0         0         0         0
         0         0         0         0         0         0         0         0
         0         0         0         0         0         0         0         0
         0         0         0         0         0         0         0         0
         0         0         0         0         0         0         0         0
         0         0         0         0         0         0         0         0
         0         0         0         0         0         0         0         0
         0         0         0         0         0         0         0         0
         0         0         0         0         0         0         0         0
         0         0         0         0         0         0         0         0
         0         0         0         0         0         0         0         0
         0         0         0         0         0         0         0         0
         0         0         0         0         0         0         0         0
         0         0         0         0         0         0         0         0
         0         0         0         0         0         0         0         0
         0         0         0         0         0         0         0         0
         0         0         0         0         0         0         0         0
         0         0         0         0         0         0         0         0
         0         0         0         0         0         0         0         0
         0         0         0         0         0         0         0         0
         0         0         0         0         0         0         0         0
         0         0         0         0         0         0         0         0
         0         0         0         0         0         0         0         0
         0         0         0         0         0         0         0         0
         0         0         0         0         0         0         0         0
         0         0         0         0         0         0         0         0
         0         0         0         0         0         0         0         0
         0         0         0         0         0         0         0         0
         0         0         0         0         0         0         0         0
         0         0         0         0         0         0         0         0
         0         0         0         0         0         0         0         0
         0         0         0         0         0         0         0         0
         0         0         0         0         0         0         0         0
         0         0         0         0         0         0         0         0
         0         0         0         0         0         0         0         0
         0         0         0         0         0         0         0         0
         0         0         0         0         0         0         0         0
         0         0         0         0         0         0         0         0
         0         0         0         0         0         0         0         0
         0         0         0         0         0         0         0         0
         0         0         0         0         0         0         0         0
         0         0         0         0         0         0         0         0
         0         0         0         0         0         0         0         0
         0         0         0         0         0         0         0         0
         0         0         0         0         0         0         0         0
         0         0         0         0         0         0         0         0
         0         0         0         0         0         0         0         0
         0         0         0         0         0         0         0         0
         0         0         0         0         0         0         0         0
         0         0         0         0         0         0         0         0
         0         0         0         0         0         0         0         0
         0         0         0         0         0         0         0         0
         0         0         0         0         0         0         0         0
         0         0         0         0         0         0         0         0
         0         0         0         0         0         0         0         0
         0         0         0         0         0         0         0         0
         0         0         0         0         0         0         0         0
         0         0         0         0         0         0         0         0
         0         0         0         0         0         0         0         0
         0         0         0         0         0         0         0         0
         0         0         0         0         0         0         0         0
         0         0         0         0         0         0         0         0
         0         0         0         0         0         0         0         0
         0         0         0         0         0         0         0         0
         0         0         0         0         0         0         0         0
         0         0         0         0         0         0         0         0
         0         0         0         0         0         0         0         0
         0         0         0         0         0         0         0         0
         0         0         0         0         0         0         0         0
         0         0         0         0         0         0         0         0
         0         0         0         0         0         0         0         0
         0         0         0         0         0         0         0         0
         0         0         0         0         0         0         0         0
         0         0         0         0         0         0         0         0
         0         0         0         0         0         0         0         0
         0         0         0         0         0         0         0         0
         0         0         0         0         0         0         0         0
         0         0         0         0         0         0         0         0
         0         0         0         0         0         0         0         0
         0         0         0         0         0         0         0         0
         0         0         0         0         0         0         0         0
         0         0         0         0         0         0         0         0
         0         0         0         0         0         0         0         0
         0         0         0         0         0         0         0         0
         0         0         0         0         0         0         0         0
         0         0         0         0         0         0         0         0
         0         0         0         0         0         0         0         0
         0         0         0         0         0         0         0         0
         0         0         0         0         0         0         0         0
         0         0         0         0         0         0         0         0
         0         0         0         0         0         0         0         0
         0         0         0         0         0         0         0         0
         0         0         0         0         0         0         0         0
         0         0         0         0         0         0         0         0
         0         0         0         0         0         0         0         0
         0         0         0         0         0         0         0         0
         0         0         0         0         0         0         0         0
         0         0         0         0         0         0         0         0
         0         0         0         0         0         0         0         0
         0         0         0         0         0         0         0         0
         0         0         0         0         0         0         0         0
         0         0         0         0         0         0         0         0
         0         0         0         0         0         0         0         0
         0         0         0         0         0         0         0         0
         0         0         0         0         0         0         0         0
         0         0         0         0         0         0         0         0
         0         0         0         0         0         0         0         0
         0         0         0         0         0         0         0         0
         0         0         0         0         0         0         0         0
         0         0         0         0         0         0         0         0
         0         0         0         0         0         0         0         0
         0         0         0         0         0         0         0         0
         0         0         0         0         0         0         0         0
         0         0         0         0         0         0         0         0
         0         0         0         0         0         0         0         0
         0         0         0         0         0         0         0         0
         0         0         0         0         0         0         0         0
         0         0         0         0         0         0         0         0
         0         0         0         0         0         0         0         0
         0         0         0         0         0         0         0         0
         0         0         0         0         0         0         0         0
         0         0         0         0         0         0         0         0
         0         0         0         0         0         0         0         0
         0         0         0         0         0         0         0         0
         0         0         0         0         0         0         0         0
         0         0         0         0         0         0         0         0
         0         0         0         0         0         0         0         0
         0         0         0         0         0         0         0         0
         0         0         0         0         0         0         0         0
         0         0         0         0         0         0         0         0
         0         0         0         0         0         0         0         0
         0         0         0         0         0         0         0         0
         0         0         0         0         0         0         0         0
         0         0         0         0         0         0         0         0
         0         0         0         0         0         0         0         0
         0         0         0         0         0         0         0         0
         0         0         0         0         0         0         0         0
         0         0         0         0         0         0         0         0
         0         0         0         0         0         0         0         0
         0         0         0         0         0         0         0         0
         0         0         0         0         0         0         0         0
         0         0         0         0         0         0         0         0
         0         0         0         0         0         0         0         0
         0         0         0         0         0         0         0         0
         0         0         0         0         0         0         0         0
         0         0         0         0         0         0         0         0
         0         0         0         0         0         0         0         0
         0         0         0         0         0         0         0         0
         0         0         0         0         0         0         0         0
         0         0         0         0         0         0         0         0
         0         0         0         0         0         0         0         0
         0         0         0         0         0         0         0         0
         0         0         0         0         0         0         0         0
         0         0         0         0         0         0         0         0
         0         0         0         0         0         0         0         0
         0         0         0         0         0         0         0         0
         0         0         0         0         0         0         0         0
         0         0         0         0         0         0         0         0
         0         0         0         0         0         0         0         0
         0         0         0         0         0         0         0         0
         0         0         0         0         0         0         0         0
         0         0         0         0         0         0         0         0
         0         0         0         0         0         0         0         0
         0         0         0         0         0         0         0         0
         0         0         0         0         0         0         0         0
         0         0         0         0         0         0         0         0
         0         0         0         0         0         0         0         0
         0         0         0         0         0         0         0         0
         0         0         0         0         0         0         0         0
         0         0         0         0         0         0         0         0
         0         0         0         0         0         0         0         0
         0         0         0         0         0         0         0         0
         0         0         0         0         0         0         0         0
         0         0         0         0         0         0         0         0
         0         0         0         0         0         0         0         0
         0         0         0         0         0         0         0         0
         0         0         0         0         0         0         0         0
         0         0         0         0         0         0         0         0
         0         0         0         0         0         0         0         0
         0         0         0         0         0         0         0         0
         0         0         0         0         0         0         0         0
         0         0         0         0         0         0         0         0
         0         0         0         0         0         0         0         0
         0         0         0         0         0         0         0         0
         0         0         0         0         0         0         0         0
         0         0         0         0         0         0         0         0
         0         0         0         0         0         0         0         0
         0         0         0         0         0         0         0         0
         0         0         0         0         0         0         0         0
         0         0         0         0         0         0         0         0
         0         0         0         0         0         0         0         0
         0         0         0         0         0         0         0         0
         0         0         0         0         0         0         0         0
         0         0         0         0         0         0         0         0
         0         0         0         0         0         0         0         0
         0         0         0         0         0         0         0         0
         0         0         0         0         0         0         0         0
         0         0         0         0         0         0         0         0
         0         0         0         0         0         0         0         0
         0         0         0         0         0         0         0         0
         0         0         0         0         0         0         0         0
         0         0         0         0         0         0         0         0
         0         0         0         0         0         0         0         0
         0         0         0         0         0         0         0         0
         0         0         0         0         0         0         0         0
         0         0         0         0         0         0         0         0
         0         0         0         0         0         0         0         0
         0         0         0         0         0         0         0         0
         0         0         0         0         0         0         0         0
         0         0         0         0         0         0         0         0
         0         0         0         0         0         0         0         0
         0         0         0         0         0         0         0         0
         0         0         0         0         0         0         0         0
         0         0         0         0         0         0         0         0
         0         0         0         0         0         0         0         0
         0         0         0         0         0         0         0         0
         0         0         0         0         0         0         0         0
         0         0         0         0         0         0         0         0
         0         0         0         0         0         0         0         0
         0         0         0         0         0         0         0         0
         0         0         0         0         0         0         0         0
         0         0         0         0         0         0         0         0
         0         0         0         0         0         0         0         0
         0         0         0         0         0         0         0         0
         0         0         0         0         0         0         0         0
         0         0         0         0         0         0         0         0
         0         0         0         0         0         0         0         0
         0         0         0         0         0         0         0         0
         0         0         0         0         0         0         0         0
         0         0         0         0         0         0         0         0
         0         0         0         0         0         0         0         0
         0         0         0         0         0         0         0         0
         0         0         0         0         0         0         0         0
         0         0         0         0         0         0         0         0
         0         0         0         0         0         0         0         0
         0         0         0         0         0         0         0         0
         0         0         0         0         0         0         0         0
         0         0         0         0         0         0         0         0
         0         0         0         0         0         0         0         0
         0         0         0         0         0         0         0         0
         0         0         0         0         0         0         0         0
         0         0         0         0         0         0         0         0
         0         0         0         0         0         0         0         0
         0         0         0         0         0         0         0         0
         0         0         0         0         0         0         0         0
         0         0         0         0         0         0         0         0
         0         0         0         0         0         0         0         0
         0         0         0         0         0         0         0         0
         0         0         0         0         0         0         0         0
         0         0         0         0         0         0         0         0
         0         0         0         0         0         0         0         0
         0         0         0         0         0         0         0         0
         0         0         0         0         0         0         0         0
         0         0         0         0         0         0         0         0
         0         0         0         0         0         0         0         0
         0         0         0         0         0         0         0         0
         0         0         0         0         0         0         0         0
         0         0         0         0         0         0         0         0
         0         0         0         0         0         0         0         0
         0         0         0         0         0         0         0         0
         0         0         0         0         0         0         0         0
         0         0         0         0         0         0         0         0
         0         0         0         0         0         0         0         0
         0         0         0         0         0         0         0         0
         0         0         0         0         0         0         0         0
         0         0         0         0         0         0         0         0
         0         0         0         0         0         0         0         0
         0         0         0         0         0         0         0         0
         0         0         0         0         0         0         0         0
         0         0         0         0         0         0         0         0
         0         0         0         0         0         0         0         0
         0         0         0         0         0         0         0         0
         0         0         0         0         0         0         0         0
         0         0         0         0         0         0         0         0
         0         0         0         0         0         0         0         0
         0         0         0         0         0         0         0         0
         0         0         0         0         0         0         0         0
         0         0         0         0         0         0         0         0
         0         0         0         0         0         0         0         0
         0         0         0         0         0         0         0         0
         0         0         0         0         0         0         0         0
         0         0         0         0         0         0         0         0
         0         0         0         0         0         0         0         0
         0         0         0         0         0         0         0         0
         0         0         0         0         0         0         0         0
         0         0         0         0         0         0         0         0
         0         0         0         0         0         0         0         0
         0         0         0         0         0         0         0         0
         0         0         0         0         0         0         0         0
         0         0         0         0         0         0         0         0
         0         0         0         0         0         0         0         0
         0         0         0         0         0         0         0         0
         0         0         0         0         0         0         0         0
         0         0         0         0         0         0         0         0
         0         0         0         0         0         0         0         0
         0         0         0         0         0         0         0         0
         0         0         0         0         0         0         0         0
         0         0         0         0         0         0         0         0
         0         0         0         0         0         0         0         0
         0         0         0         0         0         0         0         0
         0         0         0         0         0         0         0         0
         0         0         0         0         0         0         0         0
         0         0         0         0         0         0         0         0
         0         0         0         0         0         0         0         0
         0         0         0         0         0         0         0         0
         0         0         0         0         0         0         0         0
         0         0         0         0         0         0         0         0
         0         0         0         0         0         0         0         0
         0         0         0         0         0         0         0         0
         0         0         0         0         0         0         0         0
         0         0         0         0         0         0         0         0
         0         0         0         0         0         0         0         0
         0         0         0         0         0         0         0         0
         0         0         0         0         0         0         0         0
         0         0         0         0         0         0         0         0
         0         0         0         0         0         0         0         0
         0         0         0         0         0         0         0         0
         0         0         0         0         0         0         0         0
         0         0         0         0         0         0         0         0
         0         0         0         0         0         0         0         0
         0         0         0         0         0         0         0         0
         0         0         0         0         0         0         0         0
         0         0         0         0         0         0         0         0
         0         0         0         0         0         0         0         0
         0         0         0         0         0         0         0         0
         0         0         0         0         0         0         0         0
         0         0         0         0         0         0         0         0
         0         0         0         0         0         0         0         0
         0         0         0         0         0         0         0         0
         0         0         0         0         0         0         0         0
         0         0         0         0         0         0         0         0
         0         0         0         0         0         0         0         0
         0         0         0         0         0         0         0         0
         0         0         0         0         0         0         0         0
         0         0         0         0         0         0         0         0
         0         0         0         0         0         0         0         0
         0         0         0         0         0         0         0         0
         0         0         0         0         0         0         0         0
         0         0         0         0         0         0         0         0
         0         0         0         0         0         0         0         0
         0         0         0         0         0         0         0         0
         0         0         0         0         0         0         0         0
         0         0         0         0         0         0         0         0
         0         0         0         0         0         0         0         0
         0         0         0         0         0         0         0         0
         0         0         0         0         0         0         0         0
         0         0         0         0         0         0         0         0
         0         0         0         0         0         0         0         0
         0         0         0         0         0         0         0         0
         0         0         0         0         0         0         0         0
         0         0         0         0         0         0         0         0
         0         0         0         0         0         0         0         0
         0         0         0         0         0         0         0         0
         0         0         0         0         0         0         0         0
         0         0         0         0         0         0         0         0
         0         0         0         0         0         0         0         0
         0         0         0         0         0         0         0         0
         0         0         0         0         0         0         0         0
         0         0         0         0         0         0         0         0
         0         0         0         0         0         0         0         0
         0         0         0         0         0         0         0         0
         0         0         0         0         0         0         0         0
         0         0         0         0         0         0         0         0
         0         0         0         0         0         0         0         0
         0         0         0         0         0         0         0         0
         0         0         0         0         0         0         0         0
         0         0         0         0         0         0         0         0
         0         0         0         0         0         0         0         0
         0         0         0         0         0         0         0         0
         0         0         0         0         0         0         0         0
         0         0         0         0         0         0         0         0
         0         0         0         0         0         0         0         0
         0         0         0         0         0         0         0         0
         0         0         0         0         0         0         0         0
         0         0         0         0         0         0         0         0
         0         0         0         0         0         0         0         0
         0         0         0         0         0         0         0         0
         0         0         0         0         0         0         0         0
         0         0         0         0         0         0         0         0
         0         0         0         0         0         0         0         0
         0         0         0         0         0         0         0         0
         0         0         0         0         0         0         0         0
         0         0         0         0         0         0         0         0
         0         0         0         0         0         0         0         0
         0         0         0         0         0         0         0         0
         0         0         0         0         0         0         0         0
         0         0         0         0         0         0         0         0
         0         0         0         0         0         0         0         0
         0         0         0         0         0         0         0         0
         0         0         0         0         0         0         0         0
         0         0         0         0         0         0         0         0
         0         0         0         0         0         0         0         0
         0         0         0         0         0         0         0         0
         0         0         0         0         0         0         0         0
         0         0         0         0         0         0         0         0
         0         0         0         0         0         0         0         0
         0         0         0         0         0         0         0         0
         0         0         0         0         0         0         0         0
         0         0         0         0         0         0         0         0
         0         0         0         0         0         0         0         0
         0         0         0         0         0         0         0         0
         0         0         0         0         0         0         0         0
         0         0         0         0         0         0         0         0
         0         0         0         0         0         0         0         0
         0         0         0         0         0         0         0         0
         0         0         0         0         0         0         0         0
         0         0         0         0         0         0         0         0
         0         0         0         0         0         0         0         0
         0         0         0         0         0         0         0         0
         0         0         0         0         0         0         0         0
         0         0         0         0         0         0         0         0
         0         0         0         0         0         0         0         0
         0         0         0         0         0         0         0         0
         0         0         0         0         0         0         0         0
         0         0         0         0         0         0         0         0
         0         0         0         0         0         0         0         0
         0         0         0         0         0         0         0         0
         0         0         0         0         0         0         0         0
         0         0         0         0         0         0         0         0
         0         0         0         0         0         0         0         0
         0         0         0         0         0         0         0         0
         0         0         0         0         0         0         0         0
         0         0         0         0         0         0         0         0
         0         0         0         0         0         0         0         0
         0         0         0         0         0         0         0         0
         0         0         0         0         0         0         0         0
         0         0         0         0         0         0         0         0
         0         0         0         0         0         0         0         0
         0         0         0         0         0         0         0         0
         0         0         0         0         0         0         0         0
         0         0         0         0         0         0         0         0
         0         0         0         0         0         0         0         0
         0         0         0         0         0         0         0         0
         0         0         0         0         0         0         0         0
         0         0         0         0         0         0         0         0
         0         0         0         0         0         0         0         0
         0         0         0         0         0         0         0         0
         0         0         0         0         0         0         0         0
         0         0         0         0         0         0         0         0
         0         0         0         0         0         0         0         0
         0         0         0         0         0         0         0         0
         0         0         0         0         0         0         0         0
         0         0         0         0         0         0         0         0
         0         0         0         0         0         0         0         0
         0         0         0         0         0         0         0         0
         0         0         0         0         0         0         0         0
         0         0         0         0         0         0         0         0
         0         0         0         0         0         0         0         0
         0         0         0         0         0         0         0         0
         0         0         0         0         0         0         0         0
         0         0         0         0         0         0         0         0
         0         0         0         0         0         0         0         0
         0         0         0         0         0         0         0         0
         0         0         0         0         0         0         0         0
         0         0         0         0         0         0         0         0
         0         0         0         0         0         0         0         0
         0         0         0         0         0         0         0         0
         0         0         0         0         0         0         0         0
         0         0         0         0         0         0         0         0
         0         0         0         0         0         0         0         0
         0         0         0         0         0         0         0         0
         0         0         0         0         0         0         0         0
         0         0         0         0         0         0         0         0
         0         0         0         0         0         0         0         0
         0         0         0         0         0         0         0         0
         0         0         0         0         0         0         0         0
         0         0         0         0         0         0         0         0
         0         0         0         0         0         0         0         0
         0         0         0         0         0         0         0         0
         0         0         0         0         0         0         0         0
         0         0         0         0         0         0         0         0
         0         0         0         0         0         0         0         0
         0         0         0         0         0         0         0         0
         0         0         0         0         0         0         0         0
         0         0         0         0         0         0         0         0
         0         0         0         0         0         0         0         0
         0         0         0         0         0         0         0         0
         0         0         0         0         0         0         0         0
         0         0         0         0         0         0         0         0
         0         0         0         0         0         0         0         0
         0         0         0         0         0         0         0         0
         0         0         0         0         0         0         0         0
         0         0         0         0         0         0         0         0
         0         0         0         0         0         0         0         0
         0         0         0         0         0         0         0         0
         0         0         0         0         0         0         0         0
         0         0         0         0         0         0         0         0
         0         0         0         0         0         0         0         0
         0         0         0         0         0         0         0         0
         0         0         0         0         0         0         0         0
         0         0         0         0         0         0         0         0
         0         0         0         0         0         0         0         0
         0         0         0         0         0         0         0         0
         0         0         0         0         0         0         0         0
         0         0         0         0         0         0         0         0
         0         0         0         0         0         0         0         0
         0         0         0         0         0         0         0         0
         0         0         0         0         0         0         0         0
         0         0         0         0         0         0         0         0
         0         0         0         0         0         0         0         0
         0         0         0         0         0         0         0         0
         0         0         0         0         0         0         0         0
         0         0         0         0         0         0         0         0
         0         0         0         0         0         0         0         0
         0         0         0         0         0         0         0         0
         0         0         0         0         0         0         0         0
         0         0         0         0         0         0         0         0
         0         0         0         0         0         0         0         0
         0         0         0         0         0         0         0         0
         0         0         0         0         0         0         0         0
         0         0         0         0         0         0         0         0
         0         0         0         0         0         0         0         0
         0         0         0         0         0         0         0         0
         0         0         0         0         0         0         0         0
         0         0         0         0         0         0         0         0
         0         0         0         0         0         0         0         0
         0         0         0         0         0         0         0         0
         0         0         0         0         0         0         0         0
         0         0         0         0         0         0         0         0
         0         0         0         0         0         0         0         0
         0         0         0         0         0         0         0         0
         0         0         0         0         0         0         0         0
         0         0         0         0         0         0         0         0
         0         0         0         0         0         0         0         0
         0         0         0         0         0         0         0         0
         0         0         0         0         0         0         0         0
         0         0         0         0         0         0         0         0
         0         0         0         0         0         0         0         0
         0         0         0         0         0         0         0         0
         0         0         0         0         0         0         0         0
         0         0         0         0         0         0         0         0
         0         0         0         0         0         0         0         0
         0         0         0         0         0         0         0         0
         0         0         0         0         0         0         0         0
         0         0         0         0         0         0         0         0
         0         0         0         0         0         0         0         0
         0         0         0         0         0         0         0         0
         0         0         0         0         0         0         0         0
         0         0         0         0         0         0         0         0
         0         0         0         0         0         0         0         0
         0         0         0         0         0         0         0         0
         0         0         0         0         0         0         0         0
         0         0         0         0         0         0         0         0
         0         0         0         0         0         0         0         0
         0         0         0         0         0         0         0         0
         0         0         0         0         0         0         0         0
         0         0         0         0         0         0         0         0
         0         0         0         0         0         0         0         0
         0         0         0         0         0         0         0         0
         0         0         0         0         0         0         0         0
         0         0         0         0         0         0         0         0
         0         0         0         0         0         0         0         0
         0         0         0         0         0         0         0         0
         0         0         0         0         0         0         0         0
         0         0         0         0         0         0         0         0
         0         0         0         0         0         0         0         0
         0         0         0         0         0         0         0         0
         0         0         0         0         0         0         0         0
         0         0         0         0         0         0         0         0
         0         0         0         0         0         0         0         0
         0         0         0         0         0         0         0         0
         0         0         0         0         0         0         0         0
         0         0         0         0         0         0         0         0
         0         0         0         0         0         0         0         0
         0         0         0         0         0         0         0         0
         0         0         0         0         0         0         0         0
         0         0         0         0         0         0         0         0
         0         0         0         0         0         0         0         0
         0         0         0         0         0         0         0         0
         0         0         0         0         0         0         0         0
         0         0         0         0         0         0         0         0
         0         0         0         0         0         0         0         0
         0         0         0         0         0         0         0         0
         0         0         0         0         0         0         0         0
         0         0         0         0         0         0         0         0
         0         0         0         0         0         0         0         0
         0         0         0         0         0         0         0         0
         0         0         0         0         0         0         0         0
         0         0         0         0         0         0         0         0
         0         0         0         0         0         0         0         0
         0         0         0         0         0         0         0         0
         0         0         0         0         0         0         0         0
         0         0         0         0         0         0         0         0
         0         0         0         0         0         0         0         0
         0         0         0         0         0         0         0         0
         0         0         0         0         0         0         0         0
         0         0         0         0         0         0         0         0
         0         0         0         0         0         0         0         0
         0         0         0         0         0         0         0         0
         0         0         0         0         0         0         0         0
         0         0         0         0         0         0         0         0
         0         0         0         0         0         0         0         0
         0         0         0         0         0         0         0         0
         0         0         0         0         0         0         0         0
         0         0         0         0         0         0         0         0
         0         0         0         0         0         0         0         0
         0         0         0         0         0         0         0         0
         0         0         0         0         0         0         0         0
         0         0         0         0         0         0         0         0
         0         0         0         0         0         0         0         0
         0         0         0         0         0         0         0         0
         0         0         0         0         0         0         0         0
         0         0         0         0         0         0         0         0
         0         0         0         0         0         0         0         0
         0         0         0         0         0         0         0         0
         0         0         0         0         0         0         0         0
         0         0         0         0         0         0         0         0
         0         0         0         0         0         0         0         0
         0         0         0         0         0         0         0         0
         0         0         0         0         0         0         0         0
         0         0         0         0         0         0         0         0
         0         0         0         0         0         0         0         0
         0         0         0         0         0         0         0         0
         0         0         0         0         0         0         0         0
         0         0         0         0         0         0         0         0
         0         0         0         0         0         0         0         0
         0         0         0         0         0         0         0         0
         0         0         0         0         0         0         0         0
         0         0         0         0         0         0         0         0
         0         0         0         0         0         0         0         0
         0         0         0         0         0         0         0         0
         0         0         0         0         0         0         0         0
         0         0         0         0         0         0         0         0
         0         0         0         0         0         0         0         0
         0         0         0         0         0         0         0         0
         0         0         0         0         0         0         0         0
         0         0         0         0         0         0         0         0
         0         0         0         0         0         0         0         0
         0         0         0         0         0         0         0         0
         0         0         0         0         0         0         0         0
         0         0         0         0         0         0         0         0
         0         0         0         0         0         0         0         0
         0         0         0         0         0         0         0         0
         0         0         0         0         0         0         0         0
         0         0         0         0         0         0         0         0
         0         0         0         0         0         0         0         0
         0         0         0         0         0         0         0         0
         0         0         0         0         0         0         0         0
         0         0         0         0         0         0         0         0
         0         0         0         0         0         0         0         0
         0         0         0         0         0         0         0         0
         0         0         0         0         0         0         0         0
         0         0         0         0         0         0         0         0
         0         0         0         0         0         0         0         0
         0         0         0         0         0         0         0         0
         0         0         0         0         0         0         0         0
         0         0         0         0         0         0         0         0
         0         0         0         0         0         0         0         0
         0         0         0         0         0         0         0         0
         0         0         0         0         0         0         0         0
         0         0         0         0         0         0         0         0
         0         0         0         0         0         0         0         0
         0         0         0         0         0         0         0         0
         0         0         0         0         0         0         0         0
         0         0         0         0         0         0         0         0
         0         0         0         0         0         0         0         0
         0         0         0         0         0         0         0         0
         0         0         0         0         0         0         0         0
         0         0         0         0         0         0         0         0
         0         0         0         0         0         0         0         0
         0         0         0         0         0         0         0         0
         0         0         0         0         0         0         0         0
         0         0         0         0         0         0         0         0
         0         0         0         0         0         0         0         0
         0         0         0         0         0         0         0         0
         0         0         0         0         0         0         0         0
         0         0         0         0         0         0         0         0
         0         0         0         0         0         0         0         0
         0         0         0         0         0         0         0         0
         0         0         0         0         0         0         0         0
         0         0         0         0         0         0         0         0
         0         0         0         0         0         0         0         0
         0         0         0         0         0         0         0         0
         0         0         0         0         0         0         0         0
         0         0         0         0         0         0         0         0
         0         0         0         0         0         0         0         0
         0         0         0         0         0         0         0         0
         0         0         0         0         0         0         0         0
         0         0         0         0         0         0         0         0
         0         0         0         0         0         0         0         0
         0         0         0         0         0         0         0         0
         0         0         0         0         0         0         0         0
         0         0         0         0         0         0         0         0
         0         0         0         0         0         0         0         0
         0         0         0         0         0         0         0         0
         0         0         0         0         0         0         0         0
         0         0         0         0         0         0         0         0
         0         0         0         0         0         0         0         0
         0         0         0         0         0         0         0         0
         0         0         0         0         0         0         0         0
         0         0         0         0         0         0         0         0
         0         0         0         0         0         0         0         0
         0         0         0         0         0         0         0         0
         0         0         0         0         0         0         0         0
         0         0         0         0         0         0         0         0
         0         0         0         0         0         0         0         0
         0         0         0         0         0         0         0         0
         0         0         0         0         0         0         0         0
         0         0         0         0         0         0         0         0
         0         0         0         0         0         0         0         0
         0         0         0         0         0         0         0         0
         0         0         0         0         0         0         0         0
         0         0         0         0         0         0         0         0
         0         0         0         0         0         0         0         0
         0         0         0         0         0         0         0         0
         0         0         0         0         0         0         0         0
         0         0         0         0         0         0         0         0
         0         0         0         0         0         0         0         0
         0         0         0         0         0         0         0         0
         0         0         0         0         0         0         0         0
         0         0         0         0         0         0         0         0
         0         0         0         0         0         0         0         0
         0         0         0         0         0         0         0         0
         0         0         0         0         0         0         0         0
         0         0         0         0         0         0         0         0
         0         0         0         0         0         0         0         0
         0         0         0         0         0         0         0         0
         0         0         0         0         0         0         0         0
         0         0         0         0         0         0         0         0
         0         0         0         0         0         0         0         0
         0         0         0         0         0         0         0         0
         0         0         0         0         0         0         0         0
         0         0         0         0         0         0         0         0
         0         0         0         0         0         0         0         0
         0         0         0         0         0         0         0         0
         0         0         0         0         0         0         0         0
         0         0         0         0         0         0         0         0
         0         0         0         0         0         0         0         0
         0         0         0         0         0         0         0         0
         0         0         0         0         0         0         0         0
         0         0         0         0         0         0         0         0
         0         0         0         0         0         0         0         0
         0         0         0         0         0         0         0         0
         0         0         0         0         0         0         0         0
         0         0         0         0         0         0         0         0
         0         0         0         0         0         0         0         0
         0         0         0         0         0         0         0         0
         0         0         0         0         0         0         0         0
         0         0         0         0         0         0         0         0
         0         0         0         0         0         0         0         0
         0         0         0         0         0         0         0         0
         0         0         0         0         0         0         0         0
         0         0         0         0         0         0         0         0
         0         0         0         0         0         0         0         0
         0         0         0         0         0         0         0         0
         0         0         0         0         0         0         0         0
         0         0         0         0         0         0         0         0
         0         0         0         0         0         0         0         0
         0         0         0         0         0         0         0         0
         0         0         0         0         0         0         0         0
         0         0         0         0         0         0         0         0
         0         0         0         0         0         0         0         0
         0         0         0         0         0         0         0         0
         0         0         0         0         0         0         0         0
         0         0         0         0         0         0         0         0
         0         0         0         0         0         0         0         0
         0         0         0         0         0         0         0         0
         0         0         0         0         0         0         0         0
         0         0         0         0         0         0         0         0
         0         0         0         0         0         0         0         0
         0         0         0         0         0         0         0         0
         0         0         0         0         0         0         0         0
         0         0         0         0         0         0         0         0
         0         0         0         0         0         0         0         0
         0         0         0         0         0         0         0         0
         0         0         0         0         0         0         0         0
         0         0         0         0         0         0         0         0
         0         0         0         0         0         0         0         0
         0         0         0         0         0         0         0         0
         0         0         0         0         0         0         0         0
         0         0         0         0         0         0         0         0
         0         0         0         0         0         0         0         0
         0         0         0         0         0         0         0         0
         0         0         0         0         0         0         0         0
         0         0         0         0         0         0         0         0
         0         0         0         0         0         0         0         0
         0         0         0         0         0         0         0         0
         0         0         0         0         0         0         0         0
         0         0         0         0         0         0         0         0
         0         0         0         0         0         0         0         0
         0         0         0         0         0         0         0         0
         0         0         0         0         0         0         0         0
         0         0         0         0         0         0         0         0
         0         0         0         0         0         0         0         0
         0         0         0         0         0         0         0         0
         0         0         0         0         0         0         0         0
         0         0         0         0         0         0         0         0
         0         0         0         0         0         0         0         0
         0         0         0         0         0         0         0         0
         0         0         0         0         0         0         0         0
         0         0         0         0         0         0         0         0
         0         0         0         0         0         0         0         0
         0         0         0         0         0         0         0         0
         0         0         0         0         0         0         0         0
         0         0         0         0         0         0         0         0
         0         0         0         0         0         0         0         0
         0         0         0         0         0         0         0         0
         0         0         0         0         0         0         0         0
         0         0         0         0         0         0         0         0
         0         0         0         0         0         0         0         0
         0         0         0         0         0         0         0         0
         0         0         0         0         0         0         0         0
         0         0         0         0         0         0         0         0
         0         0         0         0         0         0         0         0
         0         0         0         0         0         0         0         0
         0         0         0         0         0         0         0         0
         0         0         0         0         0         0         0         0
         0         0         0         0         0         0         0         0
         0         0         0         0         0         0         0         0
         0         0         0         0         0         0         0         0
         0         0         0         0         0         0         0         0
         0         0         0         0         0         0         0         0
         0         0         0         0         0         0         0         0
         0         0         0         0         0         0         0         0
         0         0         0         0         0         0         0         0
         0         0         0         0         0         0         0         0
         0         0         0         0         0         0         0         0
         0         0         0         0         0         0         0         0
         0         0         0         0         0         0         0         0
         0         0         0         0         0         0         0         0
         0         0         0         0         0         0         0         0
         0         0         0         0         0         0         0         0
         0         0         0         0         0         0         0         0
         0         0         0         0         0         0         0         0
         0         0         0         0         0         0         0         0
         0         0         0         0         0         0         0         0
         0         0         0         0         0         0         0         0
         0         0         0         0         0         0         0         0
         0         0         0         0         0         0         0         0
         0         0         0         0         0         0         0         0
         0         0         0         0         0         0         0         0
         0         0         0         0         0         0         0         0
         0         0         0         0         0         0         0         0
         0         0         0         0         0         0         0         0
         0         0         0         0         0         0         0         0
         0         0         0         0         0         0         0         0
         0         0         0         0         0         0         0         0
         0         0         0         0         0         0         0         0
         0         0         0         0         0         0         0         0
         0         0         0         0         0         0         0         0
         0         0         0         0         0         0         0         0
         0         0         0         0         0         0         0         0
         0         0         0         0         0         0         0         0
         0         0         0         0         0         0         0         0
         0         0         0         0         0         0         0         0
         0         0         0         0         0         0         0         0
         0         0         0         0         0         0         0         0
         0         0         0         0         0         0         0         0
         0         0         0         0         0         0         0         0
         0         0         0         0         0         0         0         0
         0         0         0         0         0         0         0         0
         0         0         0         0         0         0         0         0
         0         0         0         0         0         0         0         0
         0         0         0         0         0         0         0         0
         0         0         0         0         0         0         0         0
         0         0         0         0         0         0         0         0
         0         0         0         0         0         0         0         0
         0         0         0         0         0         0         0         0
         0         0         0         0         0         0         0         0
         0         0         0         0         0         0         0         0
         0         0         0         0         0         0         0         0
         0         0         0         0         0         0         0         0
         0         0         0         0         0         0         0         0
         0         0         0         0         0         0         0         0
         0         0         0         0         0         0         0         0
         0         0         0         0         0         0         0         0
         0         0         0         0         0         0         0         0
         0         0         0         0         0         0         0         0
         0         0         0         0         0         0         0         0
         0         0         0         0         0         0         0         0
         0         0         0         0         0         0         0         0
         0         0         0         0         0         0         0         0
         0         0         0         0         0         0         0         0
         0         0         0         0         0         0         0         0
         0         0         0         0         0         0         0         0
         0         0         0         0         0         0         0         0
         0         0         0         0         0         0         0         0
         0         0         0         0         0         0         0         0
         0         0         0         0         0         0         0         0
         0         0         0         0         0         0         0         0
         0         0         0         0         0         0         0         0
         0         0         0         0         0         0         0         0
         0         0         0         0         0         0         0         0
         0         0         0         0         0         0         0         0
         0         0         0         0         0         0         0         0
         0         0         0         0         0         0         0         0
         0         0         0         0         0         0         0         0
         0         0         0         0         0         0         0         0
         0         0         0         0         0         0         0         0
         0         0         0         0         0         0         0         0
         0         0         0         0         0         0         0         0
         0         0         0         0         0         0         0         0
         0         0         0         0         0         0         0         0
         0         0         0         0         0         0         0         0
         0         0         0         0         0         0         0         0
         0         0         0         0         0         0         0         0
         0         0         0         0         0         0         0         0
         0         0         0         0         0         0         0         0
         0         0         0         0         0         0         0         0
         0         0         0         0         0         0         0         0
         0         0         0         0         0         0         0         0
         0         0         0         0         0         0         0         0
         0         0         0         0         0         0         0         0
         0         0         0         0         0         0         0         0
         0         0         0         0         0         0         0         0
         0         0         0         0         0         0         0         0
         0         0         0         0         0         0         0         0
         0         0         0         0         0         0         0         0
         0         0         0         0         0         0         0         0
         0         0         0         0         0         0         0         0
         0         0         0         0         0         0         0         0
         0         0         0         0         0         0         0         0
         0         0         0         0         0         0         0         0
         0         0         0         0         0         0         0         0
         0         0         0         0         0         0         0         0
         0         0         0         0         0         0         0         0
         0         0         0         0         0         0         0         0
         0         0         0         0         0         0         0         0
         0         0         0         0         0         0         0         0
         0         0         0         0         0         0         0         0
         0         0         0         0         0         0         0         0
         0         0         0         0         0         0         0         0
         0         0         0         0         0         0         0         0
         0         0         0         0         0         0         0         0
         0         0         0         0         0         0         0         0
         0         0         0         0         0         0         0         0
         0         0         0         0         0         0         0         0
         0         0         0         0         0         0         0         0
         0         0         0         0         0         0         0         0
         0         0         0         0         0         0         0         0
         0         0         0         0         0         0         0         0
         0         0         0         0         0         0         0         0
         0         0         0         0         0         0         0         0
         0         0         0         0         0         0         0         0
         0         0         0         0         0         0         0         0
         0         0         0         0         0         0         0         0
         0         0         0         0         0         0         0         0
         0         0         0         0         0         0         0         0
         0         0         0         0         0         0         0         0
         0         0         0         0         0         0         0         0
         0         0         0         0         0         0         0         0
         0         0         0         0         0         0         0         0
         0         0         0         0         0         0         0         0
         0         0         0         0         0         0         0         0
         0         0         0         0         0         0         0         0
         0         0         0         0         0         0         0         0
         0         0         0         0         0         0         0         0
         0         0         0         0         0         0         0         0
         0         0         0         0         0         0         0         0
         0         0         0         0         0         0         0         0
         0         0         0         0         0         0         0         0
         0         0         0         0         0         0         0         0
         0         0         0         0         0         0         0         0
         0         0         0         0         0         0         0         0
         0         0         0         0         0         0         0         0
         0         0         0         0         0         0         0         0
         0         0         0         0         0         0         0         0
         0         0         0         0         0         0         0         0
         0         0         0         0         0         0         0         0
         0         0         0         0         0         0         0         0
         0         0         0         0         0         0         0         0
         0         0         0         0         0         0         0         0
         0         0         0         0         0         0         0         0
         0         0         0         0         0         0         0         0
         0         0         0         0         0         0         0         0
         0         0         0         0         0         0         0         0
         0         0         0         0         0         0         0         0
         0         0         0         0         0         0         0         0
         0         0         0         0         0         0         0         0
         0         0         0         0         0         0         0         0
         0         0         0         0         0         0         0         0
         0         0         0         0         0         0         0         0
         0         0         0         0         0         0         0         0
         0         0         0         0         0         0         0         0
         0         0         0         0         0         0         0         0
         0         0         0         0         0         0         0         0
         0         0         0         0         0         0         0         0
         0         0         0         0         0         0         0         0
         0         0         0         0         0         0         0         0
         0         0         0         0         0         0         0         0
         0         0         0         0         0         0         0         0
         0         0         0         0         0         0         0         0
         0         0         0         0         0         0         0         0
         0         0         0         0         0         0         0         0
         0         0         0         0         0         0         0         0
         0         0         0         0         0         0         0         0
         0         0         0         0         0         0         0         0
         0         0         0         0         0         0         0         0
         0         0         0         0         0         0         0         0
         0         0         0         0         0         0         0         0
         0         0         0         0         0         0         0         0
         0         0         0         0         0         0         0         0
         0         0         0         0         0         0         0         0
         0         0         0         0         0         0         0         0
         0         0         0         0         0         0         0         0
         0         0         0         0         0         0         0         0
         0         0         0         0         0         0         0         0
         0         0         0         0         0         0         0         0
         0         0         0         0         0         0         0         0
         0         0         0         0         0         0         0         0
         0         0         0         0         0         0         0         0
         0         0         0         0         0         0         0         0
         0         0         0         0         0         0         0         0
         0         0         0         0         0         0         0         0
         0         0         0         0         0         0         0         0
         0         0         0         0         0         0         0         0
         0         0         0         0         0         0         0         0
         0         0         0         0         0         0         0         0
         0         0         0         0         0         0         0         0
         0         0         0         0         0         0         0         0
         0         0         0         0         0         0         0         0
         0         0         0         0         0         0         0         0
         0         0         0         0         0         0         0         0
         0         0         0         0         0         0         0         0
         0         0         0         0         0         0         0         0
         0         0         0         0         0         0         0         0
         0         0         0         0         0         0         0         0
         0         0         0         0         0         0         0         0
         0         0         0         0         0         0         0         0
         0         0         0         0         0         0         0         0
         0         0         0         0         0         0         0         0
         0         0         0         0         0         0         0         0
         0         0         0         0         0         0         0         0
         0         0         0         0         0         0         0         0
         0         0         0         0         0         0         0         0
         0         0         0         0         0         0         0         0
         0         0         0         0         0         0         0         0
         0         0         0         0         0         0         0         0
         0         0         0         0         0         0         0         0
         0         0         0         0         0         0         0         0
         0         0         0         0         0         0         0         0
         0         0         0         0         0         0         0         0
         0         0         0         0         0         0         0         0
         0         0         0         0         0         0         0         0
         0         0         0         0         0         0         0         0
         0         0         0         0         0         0         0         0
         0         0         0         0         0         0         0         0
         0         0         0         0         0         0         0         0
         0         0         0         0         0         0         0         0
         0         0         0         0         0         0         0         0
         0         0         0         0         0         0         0         0
         0         0         0         0         0         0         0         0
         0         0         0         0         0         0         0         0
         0         0         0         0         0         0         0         0
         0         0         0         0         0         0         0         0
         0         0         0         0         0         0         0         0
         0         0         0         0         0         0         0         0
         0         0         0         0         0         0         0         0
         0         0         0         0         0         0         0         0
         0         0         0         0         0         0         0         0
         0         0         0         0         0         0         0         0
         0         0         0         0         0         0         0         0
         0         0         0         0         0         0         0         0
         0         0         0         0         0         0         0         0
         0         0         0         0         0         0         0         0
         0         0         0         0         0         0         0         0
         0         0         0         0         0         0         0         0
         0         0         0         0         0         0         0         0
         0         0         0         0         0         0         0         0
         0         0         0         0         0         0         0         0
         0         0         0         0         0         0         0         0
         0         0         0         0         0         0         0         0
         0         0         0         0         0         0         0         0
         0         0         0         0         0         0         0         0
         0         0         0         0         0         0         0         0
         0         0         0         0         0         0         0         0
         0         0         0         0         0         0         0         0
         0         0         0         0         0         0         0         0
         0         0         0         0         0         0         0         0
         0         0         0         0         0         0         0         0
         0         0         0         0         0         0         0         0
         0         0         0         0         0         0         0         0
         0         0         0         0         0         0         0         0
         0         0         0         0         0         0         0         0
         0         0         0         0         0         0         0         0
         0         0         0         0         0         0         0         0
         0         0         0         0         0         0         0         0
         0         0         0         0         0         0         0         0
         0         0         0         0         0         0         0         0
         0         0         0         0         0         0         0         0
         0         0         0         0         0         0         0         0
         0         0         0         0         0         0         0         0
         0         0         0         0         0         0         0         0
         0         0         0         0         0         0         0         0
         0         0         0         0         0         0         0         0
         0         0         0         0         0         0         0         0
         0         0         0         0         0         0         0         0
         0         0         0         0         0         0         0         0
         0         0         0         0         0         0         0         0
         0         0         0         0         0         0         0         0
         0         0         0         0         0         0         0         0
         0         0         0         0         0         0         0         0
         0         0         0         0         0         0         0         0
         0         0         0         0         0         0         0         0
         0         0         0         0         0         0         0         0
         0         0         0         0         0         0         0         0
         0         0         0         0         0         0         0         0
         0         0         0         0         0         0         0         0
         0         0         0         0         0         0         0         0
         0         0         0         0         0         0         0         0
         0         0         0         0         0         0         0         0
         0         0         0         0         0         0         0         0
         0         0         0         0         0         0         0         0
         0         0         0         0         0         0         0         0
         0         0         0         0         0         0         0         0
         0         0         0         0         0         0         0         0
         0         0         0         0         0         0         0         0
         0         0         0         0         0         0         0         0
         0         0         0         0         0         0         0         0
         0         0         0         0         0         0         0         0
         0         0         0         0         0         0         0         0
         0         0         0         0         0         0         0         0
         0         0         0         0         0         0         0         0
         0         0         0         0         0         0         0         0
         0         0         0         0         0         0         0         0
         0         0         0         0         0         0         0         0
         0         0         0         0         0         0         0         0
         0         0         0         0         0         0         0         0
         0         0         0         0         0         0         0         0
         0         0         0         0         0         0         0         0
         0         0         0         0         0         0         0         0
         0         0         0         0         0         0         0         0
         0         0         0         0         0         0         0         0
         0         0         0         0         0         0         0         0
         0         0         0         0         0         0         0         0
         0         0         0         0         0         0         0         0
         0         0         0         0         0         0         0         0
         0         0         0         0         0         0         0         0
         0         0         0         0         0         0         0         0
         0         0         0         0         0         0         0         0
         0         0         0         0         0         0         0         0
         0         0         0         0         0         0         0         0
         0         0         0         0         0         0         0         0
         0         0         0         0         0         0         0         0
         0         0         0         0         0         0         0         0
         0         0         0         0         0         0         0         0
         0         0         0         0         0         0         0         0
         0         0         0         0         0         0         0         0
         0         0         0         0         0         0         0         0
         0         0         0         0         0         0         0         0
         0         0         0         0         0         0         0         0
         0         0         0         0         0         0         0         0
         0         0         0         0         0         0         0         0
         0         0         0         0         0         0         0         0
         0         0         0         0         0         0         0         0
         0         0         0         0         0         0         0         0
         0         0         0         0         0         0         0         0
         0         0         0         0         0         0         0         0
         0         0         0         0         0         0         0         0
         0         0         0         0         0         0         0         0
         0         0         0         0         0         0         0         0
         0         0         0         0         0         0         0         0
         0         0         0         0         0         0         0         0
         0         0         0         0         0         0         0         0
         0         0         0         0         0         0         0         0
         0         0         0         0         0         0         0         0
         0         0         0         0         0         0         0         0
         0         0         0         0         0         0         0         0
         0         0         0         0         0         0         0         0
         0         0         0         0         0         0         0         0
         0         0         0         0         0         0         0         0
         0         0         0         0         0         0         0         0
         0         0         0         0         0         0         0         0
         0         0         0         0         0         0         0         0
         0         0         0         0         0         0         0         0
         0         0         0         0         0         0         0         0
         0         0         0         0         0         0         0         0
         0         0         0         0         0         0         0         0
         0         0         0         0         0         0         0         0
         0         0         0         0         0         0         0         0
         0         0         0         0         0         0         0         0
         0         0         0         0         0         0         0         0
         0         0         0         0         0         0         0         0
         0         0         0         0         0         0         0         0
         0         0         0         0         0         0         0         0
         0         0         0         0         0         0         0         0
         0         0         0         0         0         0         0         0
         0         0         0         0         0         0         0         0
         0         0         0         0         0         0         0         0
         0         0         0         0         0         0         0         0
         0         0         0         0         0         0         0         0
         0         0         0         0         0         0         0         0
         0         0         0         0         0         0         0         0
         0         0         0         0         0         0         0         0
         0         0         0         0         0         0         0         0
         0         0         0         0         0         0         0         0
         0         0         0         0         0         0         0         0
         0         0         0         0         0         0         0         0
         0         0         0         0         0         0         0         0
         0         0         0         0         0         0         0         0
         0         0         0         0         0         0         0         0
         0         0         0         0         0         0         0         0
         0         0         0         0         0         0         0         0
         0         0         0         0         0         0         0         0
         0         0         0         0         0         0         0         0
         0         0         0         0         0         0         0         0
         0         0         0         0         0         0         0         0
         0         0         0         0         0         0         0         0
         0         0         0         0         0         0         0         0
         0         0         0         0         0         0         0         0
         0         0         0         0         0         0         0         0
         0         0         0         0         0         0         0         0
         0         0         0         0         0         0         0         0
         0         0         0         0         0         0         0         0
         0         0         0         0         0         0         0         0
         0         0         0         0         0         0         0         0
         0         0         0         0         0         0         0         0
         0         0         0         0         0         0         0         0
         0         0         0         0         0         0         0         0
         0         0         0         0         0         0         0         0
         0         0         0         0         0         0         0         0
         0         0         0         0         0         0         0         0
         0         0         0         0         0         0         0         0
         0         0         0         0         0         0         0         0
         0         0         0         0         0         0         0         0
         0         0         0         0         0         0         0         0
         0         0         0         0         0         0         0         0
         0         0         0         0         0         0         0         0
         0         0         0         0         0         0         0         0
         0         0         0         0         0         0         0         0
         0         0         0         0         0         0         0         0
         0         0         0         0         0         0         0         0
         0         0         0         0         0         0         0         0
         0         0         0         0         0         0         0         0
         0         0         0         0         0         0         0         0
         0         0         0         0         0         0         0         0
         0         0         0         0         0         0         0         0
         0         0         0         0         0         0         0         0
         0         0         0         0         0         0         0         0
         0         0         0         0         0         0         0         0
         0         0         0         0         0         0         0         0
         0         0         0         0         0         0         0         0
         0         0         0         0         0         0         0         0
         0         0         0         0         0         0         0         0
         0         0         0         0         0         0         0         0
         0         0         0         0         0         0         0         0
         0         0         0         0         0         0         0         0
         0         0         0         0         0         0         0         0
         0         0         0         0         0         0         0         0
         0         0         0         0         0         0         0         0
         0         0         0         0         0         0         0         0
         0         0         0         0         0         0         0         0
         0         0         0         0         0         0         0         0
         0         0         0         0         0         0         0         0
         0         0         0         0         0         0         0         0
         0         0         0         0         0         0         0         0
         0         0         0         0         0         0         0         0
         0         0         0         0         0         0         0         0
         0         0         0         0         0         0         0         0
         0         0         0         0         0         0         0         0
         0         0         0         0         0         0         0         0
         0         0         0         0         0         0         0         0
         0         0         0         0         0         0         0         0
         0         0         0         0         0         0         0         0
         0         0         0         0         0         0         0         0
         0         0         0         0         0         0         0         0
         0         0         0         0         0         0         0         0
         0         0         0         0         0         0         0         0
         0         0         0         0         0         0         0         0
         0         0         0         0         0         0         0         0
         0         0         0         0         0         0         0         0
         0         0         0         0         0         0         0         0
         0         0         0         0         0         0         0         0
         0         0         0         0         0         0         0         0
         0         0         0         0         0         0         0         0
         0         0         0         0         0         0         0         0
         0         0         0         0         0         0         0         0
         0         0         0         0         0         0         0         0
         0         0         0         0         0         0         0         0
         0         0         0         0         0         0         0         0
         0         0         0         0         0         0         0         0
         0         0         0         0         0         0         0         0
         0         0         0         0         0         0         0         0
         0         0         0         0         0         0         0         0
         0         0         0         0         0         0         0         0
         0         0         0         0         0         0         0         0
         0         0         0         0         0         0         0         0
         0         0         0         0         0         0         0         0
         0         0         0         0         0         0         0         0
         0         0         0         0         0         0         0         0
         0         0         0         0         0         0         0         0
         0         0         0         0         0         0         0         0
         0         0         0         0         0         0         0         0
         0         0         0         0         0         0         0         0
         0         0         0         0         0         0         0         0
         0         0         0         0         0         0         0         0
         0         0         0         0         0         0         0         0
         0         0         0         0         0         0         0         0
         0         0         0         0         0         0         0         0
         0         0         0         0         0         0         0         0
         0         0         0         0         0         0         0         0
         0         0         0         0         0         0         0         0
         0         0         0         0         0         0         0         0
         0         0         0         0         0         0         0         0
         0         0         0         0         0         0         0         0
         0         0         0         0         0         0         0         0
         0         0         0         0         0         0         0         0
         0         0         0         0         0         0         0         0
         0         0         0         0         0         0         0         0
         0         0         0         0         0         0         0         0
         0         0         0         0         0         0         0         0
         0         0         0         0         0         0         0         0
         0         0         0         0         0         0         0         0
         0         0         0         0         0         0         0         0
         0         0         0         0         0         0         0         0
         0         0         0         0         0         0         0         0
         0         0         0         0         0         0         0         0
         0         0         0         0         0         0         0         0
         0         0         0         0         0         0         0         0
         0         0         0         0         0         0         0         0
         0         0         0         0         0         0         0         0
         0         0         0         0         0         0         0         0
         0         0         0         0         0         0         0         0
         0         0         0         0         0         0         0         0
         0         0         0         0         0         0         0         0
         0         0         0         0         0         0         0         0
         0         0         0         0         0         0         0         0
         0         0         0         0         0         0         0         0
         0         0         0         0         0         0         0         0
         0         0         0         0         0         0         0         0
         0         0         0         0         0         0         0         0
         0         0         0         0         0         0         0         0
         0         0         0         0         0         0         0         0
         0         0         0         0         0         0         0         0
         0         0         0         0         0         0         0         0
         0         0         0         0         0         0         0         0
         0         0         0         0         0         0         0         0
         0         0         0         0         0         0         0         0
         0         0         0         0         0         0         0         0
         0         0         0         0         0         0         0         0
         0         0         0         0         0         0         0         0
         0         0         0         0         0         0         0         0
         0         0         0         0         0         0         0         0
         0         0         0         0         0         0         0         0
         0         0         0         0         0         0         0         0
         0         0         0         0         0         0         0         0
         0         0         0         0         0         0         0         0
         0         0         0         0         0         0         0         0
         0         0         0         0         0         0         0         0
         0         0         0         0         0         0         0         0
         0         0         0         0         0         0         0         0
         0         0         0         0         0         0         0         0
         0         0         0         0         0         0         0         0
         0         0         0         0         0         0         0         0
         0         0         0         0         0         0         0         0
         0         0         0         0         0         0         0         0
         0         0         0         0         0         0         0         0
         0         0         0         0         0         0         0         0
         0         0         0         0         0         0         0         0
         0         0         0         0         0         0         0         0
         0         0         0         0         0         0         0         0
         0         0         0         0         0         0         0         0
         0         0         0         0         0         0         0         0
         0         0         0         0         0         0         0         0
         0         0         0         0         0         0         0         0
         0         0         0         0         0         0         0         0
         0         0         0         0         0         0         0         0
         0         0         0         0         0         0         0         0
         0         0         0         0         0         0         0         0
         0         0         0         0         0         0         0         0
         0         0         0         0         0         0         0         0
         0         0         0         0         0         0         0         0
         0         0         0         0         0         0         0         0
         0         0         0         0         0         0         0         0
         0         0         0         0         0         0         0         0
         0         0         0         0         0         0         0         0
         0         0         0         0         0         0         0         0
         0         0         0         0         0         0         0         0
         0         0         0         0         0         0         0         0
         0         0         0         0         0         0         0         0
         0         0         0         0         0         0         0         0
         0         0         0         0         0         0         0         0
         0         0         0         0         0         0         0         0
         0         0         0         0         0         0         0         0
         0         0         0         0         0         0         0         0
         0         0         0         0         0         0         0         0
         0         0         0         0         0         0         0         0
         0         0         0         0         0         0         0         0
         0         0         0         0         0         0         0         0
         0         0         0         0         0         0         0         0
         0         0         0         0         0         0         0         0
         0         0         0         0         0         0         0         0
         0         0         0         0         0         0         0         0
         0         0         0         0         0         0         0         0
         0         0         0         0         0         0         0         0
         0         0         0         0         0         0         0         0
         0         0         0         0         0         0         0         0
         0         0         0         0         0         0         0         0
         0         0         0         0         0         0         0         0
         0         0         0         0         0         0         0         0
         0         0         0         0         0         0         0         0
         0         0         0         0         0         0         0         0
         0         0         0         0         0         0         0         0
         0         0         0         0         0         0         0         0
         0         0         0         0         0         0         0         0
         0         0         0         0         0         0         0         0
         0         0         0         0         0         0         0         0
         0         0         0         0         0         0         0         0
         0         0         0         0         0         0         0         0
         0         0         0         0         0         0         0         0
         0         0         0         0         0         0         0         0
         0         0         0         0         0         0         0         0
         0         0         0         0         0         0         0         0
         0         0         0         0         0         0         0         0
         0         0         0         0         0         0         0         0
         0         0         0         0         0         0         0         0
         0         0         0         0         0         0         0         0
         0         0         0         0         0         0         0         0
         0         0         0         0         0         0         0         0
         0         0         0         0         0         0         0         0
         0         0         0         0         0         0         0         0
         0         0         0         0         0         0         0         0
         0         0         0         0         0         0         0         0
         0         0         0         0         0         0         0         0
         0         0         0         0         0         0         0         0
         0         0         0         0         0         0         0         0
         0         0         0         0         0         0         0         0
         0         0         0         0         0         0         0         0
         0         0         0         0         0         0         0         0
         0         0         0         0         0         0         0         0
         0         0         0         0         0         0         0         0
         0         0         0         0         0         0         0         0
         0         0         0         0         0         0         0         0
         0         0         0         0         0         0         0         0
         0         0         0         0         0         0         0         0
         0         0         0         0         0         0         0         0
         0         0         0         0         0         0         0         0
         0         0         0         0         0         0         0         0
         0         0         0         0         0         0         0         0
         0         0         0         0         0         0         0         0
         0         0         0         0         0         0         0         0
         0         0         0         0         0         0         0         0
         0         0         0         0         0         0         0         0
         0         0         0         0         0         0         0         0
         0         0         0         0         0         0         0         0
         0         0         0         0         0         0         0         0
         0         0         0         0         0         0         0         0
         0         0         0         0         0         0         0         0
         0         0         0         0         0         0         0         0
         0         0         0         0         0         0         0         0
         0         0         0         0         0         0         0         0
         0         0         0         0         0         0         0         0
         0         0         0         0         0         0         0         0
         0         0         0         0         0         0         0         0
         0         0         0         0         0         0         0         0
         0         0         0         0         0         0         0         0
         0         0         0         0         0         0         0         0
         0         0         0         0         0         0         0         0
         0         0         0         0         0         0         0         0
         0         0         0         0         0         0         0         0
         0         0         0         0         0         0         0         0
         0         0         0         0         0         0         0         0
         0         0         0         0         0         0         0         0
         0         0         0         0         0         0         0         0
         0         0         0         0         0         0         0         0
         0         0         0         0         0         0         0         0
         0         0         0         0         0         0         0         0
         0         0         0         0         0         0         0         0
         0         0         0         0         0         0         0         0
         0         0         0         0         0         0         0         0
         0         0         0         0         0         0         0         0
         0         0         0         0         0         0         0         0
         0         0         0         0         0         0         0         0
         0         0         0         0         0         0         0         0
         0         0         0         0         0         0         0         0
         0         0         0         0         0         0         0         0
         0         0         0         0         0         0         0         0
         0         0         0         0         0         0         0         0
         0         0         0         0         0         0         0         0
         0         0         0         0         0         0         0         0
         0         0         0         0         0         0         0         0
         0         0         0         0         0         0         0         0
         0         0         0         0         0         0         0         0
         0         0         0         0         0         0         0         0
         0         0         0         0         0         0         0         0
         0         0         0         0         0         0         0         0
         0         0         0         0         0         0         0         0
         0         0         0         0         0         0         0         0
         0         0         0         0         0         0         0         0
         0         0         0         0         0         0         0         0
         0         0         0         0         0         0         0         0
         0         0         0         0         0         0         0         0
         0         0         0         0         0         0         0         0
         0         0         0         0         0         0         0         0
         0         0         0         0         0         0         0         0
         0         0         0         0         0         0         0         0
         0         0         0         0         0         0         0         0
         0         0         0         0         0         0         0         0
         0         0         0         0         0         0         0         0
         0         0         0         0         0         0         0         0
         0         0         0         0         0         0         0         0
         0         0         0         0         0         0         0         0
         0         0         0         0         0         0         0         0
         0         0         0         0         0         0         0         0
         0         0         0         0         0         0         0         0
         0         0         0         0         0         0         0         0
         0         0         0         0         0         0         0         0
         0         0         0         0         0         0         0         0
         0         0         0         0         0         0         0         0
         0         0         0         0         0         0         0         0
         0         0         0         0         0         0         0         0
         0         0         0         0         0         0         0         0
         0         0         0         0         0         0         0         0
         0         0         0         0         0         0         0         0
         0         0         0         0         0         0         0         0
         0         0         0         0         0         0         0         0
         0         0         0         0         0         0         0         0
         0         0         0         0         0         0         0         0
         0         0         0         0         0         0         0         0
         0         0         0         0         0         0         0         0
         0         0         0         0         0         0         0         0
         0         0         0         0         0         0         0         0
         0         0         0         0         0         0         0         0
         0         0         0         0         0         0         0         0
         0         0         0         0         0         0         0         0
         0         0         0         0         0         0         0         0
         0         0         0         0         0         0         0         0
         0         0         0         0         0         0         0         0
         0         0         0         0         0         0         0         0
         0         0         0         0         0         0         0         0
         0         0         0         0         0         0         0         0
         0         0         0         0         0         0         0         0
         0         0         0         0         0         0         0         0
         0         0         0         0         0         0         0         0
         0         0         0         0         0         0         0         0
         0         0         0         0         0         0         0         0
         0         0         0         0         0         0         0         0
         0         0         0         0         0         0         0         0
         0         0         0         0         0         0         0         0
         0         0         0         0         0         0         0         0
         0         0         0         0         0         0         0         0
         0         0         0         0         0         0         0         0
         0         0         0         0         0         0         0         0
         0         0         0         0         0         0         0         0
         0         0         0         0         0         0         0         0
         0         0         0         0         0         0         0         0
         0         0         0         0         0         0         0         0
         0         0         0         0         0         0         0         0
         0         0         0         0         0         0         0         0
         0         0         0         0         0         0         0         0
         0         0         0         0         0         0         0         0
         0         0         0         0         0         0         0         0
         0         0         0         0         0         0         0         0
         0         0         0         0         0         0         0         0
         0         0         0         0         0         0         0         0
         0         0         0         0         0         0         0         0
         0         0         0         0         0         0         0         0
         0         0         0         0         0         0         0         0
         0         0         0         0         0         0         0         0
         0         0         0         0         0         0         0         0
         0         0         0         0         0         0         0         0
         0         0         0         0         0         0         0         0
         0         0         0         0         0         0         0         0
         0         0         0         0         0         0         0         0
         0         0         0         0         0         0         0         0
         0         0         0         0         0         0         0         0
         0         0         0         0         0         0         0         0
         0         0         0         0         0         0         0         0
         0         0         0         0         0         0         0         0
         0         0         0         0         0         0         0         0
         0         0         0         0         0         0         0         0
         0         0         0         0         0         0         0         0
         0         0         0         0         0         0         0         0
         0         0         0         0         0         0         0         0
         0         0         0         0         0         0         0         0
         0         0         0         0         0         0         0         0
         0         0         0         0         0         0         0         0
         0         0         0         0         0         0         0         0
         0         0         0         0         0         0         0         0
         0         0         0         0         0         0         0         0
         0         0         0         0         0         0         0         0
         0         0         0         0         0         0         0         0
         0         0         0         0         0         0         0         0
         0         0         0         0         0         0         0         0
         0         0         0         0         0         0         0         0
         0         0         0         0         0         0         0         0
         0         0         0         0         0         0         0         0
         0         0         0         0         0         0         0         0
         0         0         0         0         0         0         0         0
         0         0         0         0         0         0         0         0
         0         0         0         0         0         0         0         0
         0         0         0         0         0         0         0         0
         0         0         0         0         0         0         0         0
         0         0         0         0         0         0         0         0
         0         0         0         0         0         0         0         0
         0         0         0         0         0         0         0         0
         0         0         0         0         0         0         0         0
         0         0         0         0         0         0         0         0
         0         0         0         0         0         0         0         0
         0         0         0         0         0         0         0         0
         0         0         0         0         0         0         0         0
         0         0         0         0         0         0         0         0
         0         0         0         0         0         0         0         0
         0         0         0         0         0         0         0         0
         0         0         0         0         0         0         0         0
         0         0         0         0         0         0         0         0
         0         0         0         0         0         0         0         0
         0         0         0         0         0         0         0         0
         0         0         0         0         0         0         0         0
         0         0         0         0         0         0         0         0
         0         0         0         0         0         0         0         0
         0         0         0         0         0         0         0         0
         0         0         0         0         0         0         0         0
         0         0         0         0         0         0         0         0
         0         0         0         0         0         0         0         0
         0         0         0         0         0         0         0         0
         0         0         0         0         0         0         0         0
         0         0         0         0         0         0         0         0
         0         0         0         0         0         0         0         0
         0         0         0         0         0         0         0         0
         0         0         0         0         0         0         0         0
         0         0         0         0         0         0         0         0
         0         0         0         0         0         0         0         0
         0         0         0         0         0         0         0         0
         0         0         0         0         0         0         0         0
         0         0         0         0         0         0         0         0
         0         0         0         0         0         0         0         0
         0         0         0         0         0         0         0         0
         0         0         0         0         0         0         0         0
         0         0         0         0         0         0         0         0
         0         0         0         0         0         0         0         0
         0         0         0         0         0         0         0         0
         0         0         0         0         0         0         0         0
         0         0         0         0         0         0         0         0
         0         0         0         0         0         0         0         0
         0         0         0         0         0         0         0         0
         0         0         0         0         0         0         0         0
         0         0         0         0         0         0         0         0
         0         0         0         0         0         0         0         0
         0         0         0         0         0         0         0         0
         0         0         0         0         0         0         0         0
         0         0         0         0         0         0         0         0
         0         0         0         0         0         0         0         0
         0         0         0         0         0         0         0         0
         0         0         0         0         0         0         0         0
         0         0         0         0         0         0         0         0
         0         0         0         0         0         0         0         0
         0         0         0         0         0         0         0         0
         0         0         0         0         0         0         0         0
         0         0         0         0         0         0         0         0
         0         0         0         0         0         0         0         0
         0         0         0         0         0         0         0         0
         0         0         0         0         0         0         0         0
         0         0         0         0         0         0         0         0
         0         0         0         0         0         0         0         0
         0         0         0         0         0         0         0         0
         0         0         0         0         0         0         0         0
         0         0         0         0         0         0         0         0
         0         0         0         0         0         0         0         0
         0         0         0         0         0         0         0         0
         0         0         0         0         0         0         0         0
         0         0         0         0         0         0         0         0
         0         0         0         0         0         0         0         0
         0         0         0         0         0         0         0         0
         0         0         0         0         0         0         0         0
         0         0         0         0         0         0         0         0
         0         0         0         0         0         0         0         0
         0         0         0         0         0         0         0         0
         0         0         0         0         0         0         0         0
         0         0         0         0         0         0         0         0
         0         0         0         0         0         0         0         0
         0         0         0         0         0         0         0         0
         0         0         0         0         0         0         0         0
         0         0         0         0         0         0         0         0
         0         0         0         0         0         0         0         0
         0         0         0         0         0         0         0         0
         0         0         0         0         0         0         0         0
         0         0         0         0         0         0         0         0
         0         0         0         0         0         0         0         0
         0         0         0         0         0         0         0         0
         0         0         0         0         0         0         0         0
         0         0         0         0         0         0         0         0
         0         0         0         0         0         0         0         0
         0         0         0         0         0         0         0         0
         0         0         0         0         0         0         0         0
         0         0         0         0         0         0         0         0
         0         0         0         0         0         0         0         0
         0         0         0         0         0         0         0         0
         0         0         0         0         0         0         0         0
         0         0         0         0         0         0         0         0
         0         0         0         0         0         0         0         0
         0         0         0         0         0         0         0         0
         0         0         0         0         0         0         0         0
         0         0         0         0         0         0         0         0
         0         0         0         0         0         0         0         0
         0         0         0         0         0         0         0         0
         0         0         0         0         0         0         0         0
         0         0         0         0         0         0         0         0
         0         0         0         0         0         0         0         0
         0         0         0         0         0         0         0         0
         0         0         0         0         0         0         0         0
         0         0         0         0         0         0         0         0
         0         0         0         0         0         0         0         0
         0         0         0         0         0         0         0         0
         0         0         0         0         0         0         0         0
         0         0         0         0         0         0         0         0
         0         0         0         0         0         0         0         0
         0         0         0         0         0         0         0         0
         0         0         0         0         0         0         0         0
         0         0         0         0         0         0         0         0
         0         0         0         0         0         0         0         0
         0         0         0         0         0         0         0         0
         0         0         0         0         0         0         0         0
         0         0         0         0         0         0         0         0
         0         0         0         0         0         0         0         0
         0         0         0         0         0         0         0         0
         0         0         0         0         0         0         0         0
         0         0         0         0         0         0         0         0
         0         0         0         0         0         0         0         0
         0         0         0         0         0         0         0         0
         0         0         0         0         0         0         0         0
         0         0         0         0         0         0         0         0
         0         0         0         0         0         0         0         0
         0         0         0         0         0         0         0         0
         0         0         0         0         0         0         0         0
         0         0         0         0         0         0         0         0
         0         0         0         0         0         0         0         0
         0         0         0         0         0         0         0         0
         0         0         0         0         0         0         0         0
         0         0         0         0         0         0         0         0
         0         0         0         0         0         0         0         0
         0         0         0         0         0         0         0         0
         0         0         0         0         0         0         0         0
         0         0         0         0         0         0         0         0
         0         0         0         0         0         0         0         0
         0         0         0         0         0         0         0         0
         0         0         0         0         0         0         0         0
         0         0         0         0         0         0         0         0
         0         0         0         0         0         0         0         0
         0         0         0         0         0         0         0         0
         0         0         0         0         0         0         0         0
         0         0         0         0         0         0         0         0
         0         0         0         0         0         0         0         0
         0         0         0         0         0         0         0         0
         0         0         0         0         0         0         0         0
         0         0         0         0         0         0         0         0
         0         0         0         0         0         0         0         0
         0         0         0         0         0         0         0         0
         0         0         0         0         0         0         0         0
         0         0         0         0         0         0         0         0
         0         0         0         0         0         0         0         0
         0         0         0         0         0         0         0         0
         0         0         0         0         0         0         0         0
         0         0         0         0         0         0         0         0
         0         0         0         0         0         0         0         0
         0         0         0         0         0         0         0         0
         0         0         0         0         0         0         0         0
         0         0         0         0         0         0         0         0
         0         0         0         0         0         0         0         0
         0         0         0         0         0         0         0         0
         0         0         0         0         0         0         0         0
         0         0         0         0         0         0         0         0
         0         0         0         0         0         0         0         0
         0         0         0         0         0         0         0         0
         0         0         0         0         0         0         0         0
         0         0         0         0         0         0         0         0
         0         0         0         0         0         0         0         0
         0         0         0         0         0         0         0         0
         0         0         0         0         0         0         0         0
         0         0         0         0         0         0         0         0
         0         0         0         0         0         0         0         0
         0         0         0         0         0         0         0         0
         0         0         0         0         0         0         0         0
         0         0         0         0         0         0         0         0
         0         0         0         0         0         0         0         0
         0         0         0         0         0         0         0         0
         0         0         0         0         0         0         0         0
         0         0         0         0         0         0         0         0
         0         0         0         0         0         0         0         0
         0         0         0         0         0         0         0         0
         0         0         0         0         0         0         0         0
         0         0         0         0         0         0         0         0
         0         0         0         0         0         0         0         0
         0         0         0         0         0         0         0         0
         0         0         0         0         0         0         0         0
         0         0         0         0         0         0         0         0
         0         0         0         0         0         0         0         0
         0         0         0         0         0         0         0         0
         0         0         0         0         0         0         0         0
         0         0         0         0         0         0         0         0
         0         0         0         0         0         0         0         0
         0         0         0         0         0         0         0         0
         0         0         0         0         0         0         0         0
         0         0         0         0         0         0         0         0
         0         0         0         0         0         0         0         0
         0         0         0         0         0         0         0         0
         0         0         0         0         0         0         0         0
         0         0         0         0         0         0         0         0
         0         0         0         0         0         0         0         0
         0         0         0         0         0         0         0         0
         0         0         0         0         0         0         0         0
         0         0         0         0         0         0         0         0
         0         0         0         0         0         0         0         0
         0         0         0         0         0         0         0         0
         0         0         0         0         0         0         0         0
         0         0         0         0         0         0         0         0
         0         0         0         0         0         0         0         0
         0         0         0         0         0         0         0         0
         0         0         0         0         0         0         0         0
         0         0         0         0         0         0         0         0
         0         0         0         0         0         0         0         0
         0         0         0         0         0         0         0         0
         0         0         0         0         0         0         0         0
         0         0         0         0         0         0         0         0
         0         0         0         0         0         0         0         0
         0         0         0         0         0         0         0         0
         0         0         0         0         0         0         0         0
         0         0         0         0         0         0         0         0
         0         0         0         0         0         0         0         0
         0         0         0         0         0         0         0         0
         0         0         0         0         0         0         0         0
         0         0         0         0         0         0         0         0
         0         0         0         0         0         0         0         0
         0         0         0         0         0         0         0         0
         0         0         0         0         0         0         0         0
         0         0         0         0         0         0         0         0
         0         0         0         0         0         0         0         0
         0         0         0         0         0         0         0         0
         0         0         0         0         0         0         0         0
         0         0         0         0         0         0         0         0
         0         0         0         0         0         0         0         0
         0         0         0         0         0         0         0         0
         0         0         0         0         0         0         0         0
         0         0         0         0         0         0         0         0
         0         0         0         0         0         0         0         0
         0         0         0         0         0         0         0         0
         0         0         0         0         0         0         0         0
         0         0         0         0         0         0         0         0
         0         0         0         0         0         0         0         0
         0         0         0         0         0         0         0         0
         0         0         0         0         0         0         0         0
         0         0         0         0         0         0         0         0
         0         0         0         0         0         0         0         0
         0         0         0         0         0         0         0         0
         0         0         0         0         0         0         0         0
         0         0         0         0         0         0         0         0
         0         0         0         0         0         0         0         0
         0         0         0         0         0         0         0         0
         0         0         0         0         0         0         0         0
         0         0         0         0         0         0         0         0
         0         0         0         0         0         0         0         0
         0         0         0         0         0         0         0         0
         0         0         0         0         0         0         0         0
         0         0         0         0         0         0         0         0
         0         0         0         0         0         0         0         0
         0         0         0         0         0         0         0         0
         0         0         0         0         0         0         0         0
         0         0         0         0         0         0         0         0
         0         0         0         0         0         0         0         0
         0         0         0         0         0         0         0         0
         0         0         0         0         0         0         0         0
         0         0         0         0         0         0         0         0
         0         0         0         0         0         0         0         0
         0         0         0         0         0         0         0         0
         0         0         0         0         0         0         0         0
         0         0         0         0         0         0         0         0
         0         0         0         0         0         0         0         0
         0         0         0         0         0         0         0         0
         0         0         0         0         0         0         0         0
         0         0         0         0         0         0         0         0
         0         0         0         0         0         0         0         0
         0         0         0         0         0         0         0         0
         0         0         0         0         0         0         0         0
         0         0         0         0         0         0         0         0
         0         0         0         0         0         0         0         0
         0         0         0         0         0         0         0         0
         0         0         0         0         0         0         0         0
         0         0         0         0         0         0         0         0
         0         0         0         0         0         0         0         0
         0         0         0         0         0         0         0         0
         0         0         0         0         0         0         0         0
         0         0         0         0         0         0         0         0
         0         0         0         0         0         0         0         0
         0         0         0         0         0         0         0         0
         0         0         0         0         0         0         0         0
         0         0         0         0         0         0         0         0
         0         0         0         0         0         0         0         0
         0         0         0         0         0         0         0         0
         0         0         0         0         0         0         0         0
         0         0         0         0         0         0         0         0
         0         0         0         0         0         0         0         0
         0         0         0         0         0         0         0         0
         0         0         0         0         0         0         0         0
         0         0         0         0         0         0         0         0
         0         0         0         0         0         0         0         0
         0         0         0         0         0         0         0         0
         0         0         0         0         0         0         0         0
         0         0         0         0         0         0         0         0
         0         0         0         0         0         0         0         0
         0         0         0         0         0         0         0         0
         0         0         0         0         0         0         0         0
         0         0         0         0         0         0         0         0
         0         0         0         0         0         0         0         0
         0         0         0         0         0         0         0         0
         0         0         0         0         0         0         0         0
         0         0         0         0         0         0         0         0
         0         0         0         0         0         0         0         0
         0         0         0         0         0         0         0         0
         0         0         0         0         0         0         0         0
         0         0         0         0         0         0         0         0
         0         0         0         0         0         0         0         0
         0         0         0         0         0         0         0         0
         0         0         0         0         0         0         0         0
         0         0         0         0         0         0         0         0
         0         0         0         0         0         0         0         0
         0         0         0         0         0         0         0         0
         0         0         0         0         0         0         0         0
         0         0         0         0         0         0         0         0
         0         0         0         0         0         0         0         0
         0         0         0         0         0         0         0         0
         0         0         0         0         0         0         0         0
         0         0         0         0         0         0         0         0
         0         0         0         0         0         0         0         0
         0         0         0         0         0         0         0         0
         0         0         0         0         0         0         0         0
         0         0         0         0         0         0         0         0
         0         0         0         0         0         0         0         0
         0         0         0         0         0         0         0         0
         0         0         0         0         0         0         0         0
         0         0         0         0         0         0         0         0
         0         0         0         0         0         0         0         0
         0         0         0         0         0         0         0         0
         0         0         0         0         0         0         0         0
         0         0         0         0         0         0         0         0
         0         0         0         0         0         0         0         0
         0         0         0         0         0         0         0         0
         0         0         0         0         0         0         0         0
         0         0         0         0         0         0         0         0
         0         0         0         0         0         0         0         0
         0         0         0         0         0         0         0         0
         0         0         0         0         0         0         0         0
         0         0         0         0         0         0         0         0
         0         0         0         0         0         0         0         0
         0         0         0         0         0         0         0         0
         0         0         0         0         0         0         0         0
         0         0         0         0         0         0         0         0
         0         0         0         0         0         0         0         0
         0         0         0         0         0         0         0         0
         0         0         0         0         0         0         0         0
         0         0         0         0         0         0         0         0
         0         0         0         0         0         0         0         0
         0         0         0         0         0         0         0         0
         0         0         0         0         0         0         0         0
         0         0         0         0         0         0         0         0
         0         0         0         0         0         0         0         0
         0         0         0         0         0         0         0         0
         0         0         0         0         0         0         0         0
         0         0         0         0         0         0         0         0
         0         0         0         0         0         0         0         0
         0         0         0         0         0         0         0         0
         0         0         0         0         0         0         0         0
         0         0         0         0         0         0         0         0
         0         0         0         0         0         0         0         0
         0         0         0         0         0         0         0         0
         0         0         0         0         0         0         0         0
         0         0         0         0         0         0         0         0
         0         0         0         0         0         0         0         0
         0         0         0         0         0         0         0         0
         0         0         0         0         0         0         0         0
         0         0         0         0         0         0         0         0
         0         0         0         0         0         0         0         0
         0         0         0         0         0         0         0         0
         0         0         0         0         0         0         0         0
         0         0         0         0         0         0         0         0
         0         0         0         0         0         0         0         0
         0         0         0         0         0         0         0         0
         0         0         0         0         0         0         0         0
         0         0         0         0         0         0         0         0
         0         0         0         0         0         0         0         0
         0         0         0         0         0         0         0         0
         0         0         0         0         0         0         0         0
         0         0         0         0         0         0         0         0
         0         0         0         0         0         0         0         0
         0         0         0         0         0         0         0         0
         0         0         0         0         0         0         0         0
         0         0         0         0         0         0         0         0
         0         0         0         0         0         0         0         0
         0         0         0         0         0         0         0         0
         0         0         0         0         0         0         0         0
         0         0         0         0         0         0         0         0
         0         0         0         0         0         0         0         0
         0         0         0         0         0         0         0         0
         0         0         0         0         0         0         0         0
         0         0         0         0         0         0         0         0
         0         0         0         0         0         0         0         0
         0         0         0         0         0         0         0         0
         0         0         0         0         0         0         0         0
         0         0         0         0         0         0         0         0
         0         0         0         0         0         0         0         0
         0         0         0         0         0         0         0         0
         0         0         0         0         0         0         0         0
         0         0         0         0         0         0         0         0
         0         0         0         0         0         0         0         0
         0         0         0         0         0         0         0         0
         0         0         0         0         0         0         0         0
         0         0         0         0         0         0         0         0
         0         0         0         0         0         0         0         0
         0         0         0         0         0         0         0         0
         0         0         0         0         0         0         0         0
         0         0         0         0         0         0         0         0
         0         0         0         0         0         0         0         0
         0         0         0         0         0         0         0         0
         0         0         0         0         0         0         0         0
         0         0         0         0         0         0         0         0
         0         0         0         0         0         0         0         0
         0         0         0         0         0         0         0         0
         0         0         0         0         0         0         0         0
         0         0         0         0         0         0         0         0
         0         0         0         0         0         0         0         0
         0         0         0         0         0         0         0         0
         0         0         0         0         0         0         0         0
         0         0         0         0         0         0         0         0
         0         0         0         0         0         0         0         0
         0         0         0         0         0         0         0         0
         0         0         0         0         0         0         0         0
         0         0         0         0         0         0         0         0
         0         0         0         0         0         0         0         0
         0         0         0         0         0         0         0         0
         0         0         0         0         0         0         0         0
         0         0         0         0         0         0         0         0
         0         0         0         0         0         0         0         0
         0         0         0         0         0         0         0         0
         0         0         0         0         0         0         0         0
         0         0         0         0         0         0         0         0
         0         0         0         0         0         0         0         0
         0         0         0         0         0         0         0         0
         0         0         0         0         0         0         0         0
         0         0         0         0         0         0         0         0
         0         0         0         0         0         0         0         0
         0         0         0         0         0         0         0         0
         0         0         0         0         0         0         0         0
         0         0         0         0         0         0         0         0
         0         0         0         0         0         0         0         0
         0         0         0         0         0         0         0         0
         0         0         0         0         0         0         0         0
         0         0         0         0         0         0         0         0
         0         0         0         0         0         0         0         0
         0         0         0         0         0         0         0         0
         0         0         0         0         0         0         0         0
         0         0         0         0         0         0         0         0
         0         0         0         0         0         0         0         0
         0         0         0         0         0         0         0         0
         0         0         0         0         0         0         0         0
         0         0         0         0         0         0         0         0
         0         0         0         0         0         0         0         0
         0         0         0         0         0         0         0         0
         0         0         0         0         0         0         0         0
         0         0         0         0         0         0         0         0
         0         0         0         0         0         0         0         0
         0         0         0         0         0         0         0         0
         0         0         0         0         0         0         0         0
         0         0         0         0         0         0         0         0
         0         0         0         0         0         0         0         0
         0         0         0         0         0         0         0         0
         0         0         0         0         0         0         0         0
         0         0         0         0         0         0         0         0
         0         0         0         0         0         0         0         0
         0         0         0         0         0         0         0         0
         0         0         0         0         0         0         0         0
         0         0         0         0         0         0         0         0
         0         0         0         0         0         0         0         0
         0         0         0         0         0         0         0         0
         0         0         0         0         0         0         0         0
         0         0         0         0         0         0         0         0
         0         0         0         0         0         0         0         0
         0         0         0         0         0         0         0         0
         0         0         0         0         0         0         0         0
         0         0         0         0         0         0         0         0
         0         0         0         0         0         0         0         0
         0         0         0         0         0         0         0         0
         0         0         0         0         0         0         0         0
         0         0         0         0         0         0         0         0
         0         0         0         0         0         0         0         0
         0         0         0         0         0         0         0         0
         0         0         0         0         0         0         0         0
         0         0         0         0         0         0         0         0
         0         0         0         0         0         0         0         0
         0         0         0         0         0         0         0         0
         0         0         0         0         0         0         0         0
         0         0         0         0         0         0         0         0
         0         0         0         0         0         0         0         0
         0         0         0         0         0         0         0         0
         0         0         0         0         0         0         0         0
         0         0         0         0         0         0         0         0
         0         0         0         0         0         0         0         0
         0         0         0         0         0         0         0         0
         0         0         0         0         0         0         0         0
         0         0         0         0         0         0         0         0
         0         0         0         0         0         0         0         0
         0         0         0         0         0         0         0         0
         0         0         0         0         0         0         0         0
         0         0         0         0         0         0         0         0
         0         0         0         0         0         0         0         0
         0         0         0         0         0         0         0         0
         0         0         0         0         0         0         0         0
         0         0         0         0         0         0         0         0
         0         0         0         0         0         0         0         0
         0         0         0         0         0         0         0         0
         0         0         0         0         0         0         0         0
         0         0         0         0         0         0         0         0
         0         0         0         0         0         0         0         0
         0         0         0         0         0         0         0         0
         0         0         0         0         0         0         0         0
         0         0         0         0         0         0         0         0
         0         0         0         0         0         0         0         0
         0         0         0         0         0         0         0         0
         0         0         0         0         0         0         0         0
         0         0         0         0         0         0         0         0
         0         0         0         0         0         0         0         0
         0         0         0         0         0         0         0         0
         0         0         0         0         0         0         0         0
         0         0         0         0         0         0         0         0
         0         0         0         0         0         0         0         0
         0         0         0         0         0         0         0         0
         0         0         0         0         0         0         0         0
         0         0         0         0         0         0         0         0
         0         0         0         0         0         0         0         0
         0         0         0         0         0         0         0         0
         0         0         0         0         0         0         0         0
         0         0         0         0         0         0         0         0
         0         0         0         0         0         0         0         0
         0         0         0         0         0         0         0         0
         0         0         0         0         0         0         0         0
         0         0         0         0         0         0         0         0
         0         0         0         0         0         0         0         0
         0         0         0         0         0         0         0         0
         0         0         0         0         0         0         0         0
         0         0         0         0         0         0         0         0
         0         0         0         0         0         0         0         0
         0         0         0         0         0         0         0         0
         0         0         0         0         0         0         0         0
         0         0         0         0         0         0         0         0
         0         0         0         0         0         0         0         0
         0         0         0         0         0         0         0         0
         0         0         0         0         0         0         0         0
         0         0         0         0         0         0         0         0
         0         0         0         0         0         0         0         0
         0         0         0         0         0         0         0         0
         0         0         0         0         0         0         0         0
         0         0         0         0         0         0         0         0
         0         0         0         0         0         0         0         0
         0         0         0         0         0         0         0         0
         0         0         0         0         0         0         0         0
         0         0         0         0         0         0         0         0
         0         0         0         0         0         0         0         0
         0         0         0         0         0         0         0         0
         0         0         0         0         0         0         0         0
         0         0         0         0         0         0         0         0
         0         0         0         0         0         0         0         0
         0         0         0         0         0         0         0         0
         0         0         0         0         0         0         0         0
         0         0         0         0         0         0         0         0
         0         0         0         0         0         0         0         0
         0         0         0         0         0         0         0         0
         0         0         0         0         0         0         0         0
         0         0         0         0         0         0         0         0
         0         0         0         0         0         0         0         0
         0         0         0         0         0         0         0         0
         0         0         0         0         0         0         0         0
         0         0         0         0         0         0         0         0
         0         0         0         0         0         0         0         0
         0         0         0         0         0         0         0         0
         0         0         0         0         0         0         0         0
         0         0         0         0         0         0         0         0
         0         0         0         0         0         0         0         0
         0         0         0         0         0         0         0         0
         0         0         0         0         0         0         0         0
         0         0         0         0         0         0         0         0
         0         0         0         0         0         0         0         0
         0         0         0         0         0         0         0         0
         0         0         0         0         0         0         0         0
         0         0         0         0         0         0         0         0
         0         0         0         0         0         0         0         0
         0         0         0         0         0         0         0         0
         0         0         0         0         0         0         0         0
         0         0         0         0         0         0         0         0
         0         0         0         0         0         0         0         0
         0         0         0         0         0         0         0         0
         0         0         0         0         0         0         0         0
         0         0         0         0         0         0         0         0
         0         0         0         0         0         0         0         0
         0         0         0         0         0         0         0         0
         0         0         0         0         0         0         0         0
         0         0         0         0         0         0         0         0
         0         0         0         0         0         0         0         0
         0         0         0         0         0         0         0         0
         0         0         0         0         0         0         0         0
         0         0         0         0         0         0         0         0
         0         0         0         0         0         0         0         0
         0         0         0         0         0         0         0         0
         0         0         0         0         0         0         0         0
         0         0         0         0         0         0         0         0
         0         0         0         0         0         0         0         0
         0         0         0         0         0         0         0         0
         0         0         0         0         0         0         0         0
         0         0         0         0         0         0         0         0
         0         0         0         0         0         0         0         0
         0         0         0         0         0         0         0         0
         0         0         0         0         0         0         0         0
         0         0         0         0         0         0         0         0
         0         0         0         0         0         0         0         0
         0         0         0         0         0         0         0         0
         0         0         0         0         0         0         0         0
         0         0         0         0         0         0         0         0
         0         0         0         0         0         0         0         0
         0         0         0         0         0         0         0         0
         0         0         0         0         0         0         0         0
         0         0         0         0         0         0         0         0
         0         0         0         0         0         0         0         0
         0         0         0         0         0         0         0         0
         0         0         0         0         0         0         0         0
         0         0         0         0         0         0         0         0
         0         0         0         0         0         0         0         0
         0         0         0         0         0         0         0         0
         0         0         0         0         0         0         0         0
         0         0         0         0         0         0         0         0
         0         0         0         0         0         0         0         0
         0         0         0         0         0         0         0         0
         0         0         0         0         0         0         0         0
         0         0         0         0         0         0         0         0
         0         0         0         0         0         0         0         0
         0         0         0         0         0         0         0         0
         0         0         0         0         0         0         0         0
         0         0         0         0         0         0         0         0
         0         0         0         0         0         0         0         0
         0         0         0         0         0         0         0         0
         0         0         0         0         0         0         0         0
         0         0         0         0         0         0         0         0
         0         0         0         0         0         0         0         0
         0         0         0         0         0         0         0         0
         0         0         0         0         0         0         0         0
         0         0         0         0         0         0         0         0
         0         0         0         0         0         0         0         0
         0         0         0         0         0         0         0         0
         0         0         0         0         0         0         0         0
         0         0         0         0         0         0         0         0
         0         0         0         0         0         0         0         0
         0         0         0         0         0         0         0         0
         0         0         0         0         0         0         0         0
         0         0         0         0         0         0         0         0
         0         0         0         0         0         0         0         0
         0         0         0         0         0         0         0         0
         0         0         0         0         0         0         0         0
         0         0         0         0         0         0         0         0
         0         0         0         0         0         0         0         0
         0         0         0         0         0         0         0         0
         0         0         0         0         0         0         0         0
         0         0         0         0         0         0         0         0
         0         0         0         0         0         0         0         0
         0         0         0         0         0         0         0         0
         0         0         0         0         0         0         0         0
         0         0         0         0         0         0         0         0
         0         0         0         0         0         0         0         0
         0         0         0         0         0         0         0         0
         0         0         0         0         0         0         0         0
         0         0         0         0         0         0         0         0
         0         0         0         0         0         0         0         0
         0         0         0         0         0         0         0         0
         0         0         0         0         0         0         0         0
         0         0         0         0         0         0         0         0
         0         0         0         0         0         0         0         0
         0         0         0         0         0         0         0         0
         0         0         0         0         0         0         0         0
         0         0         0         0         0         0         0         0
         0         0         0         0         0         0         0         0
         0         0         0         0         0         0         0         0
         0         0         0         0         0         0         0         0
         0         0         0         0         0         0         0         0
         0         0         0         0         0         0         0         0
         0         0         0         0         0         0         0         0
         0         0         0         0         0         0         0         0
         0         0         0         0         0         0         0         0
         0         0         0         0         0         0         0         0
         0         0         0         0         0         0         0         0
         0         0         0         0         0         0         0         0
         0         0         0         0         0         0         0         0
         0         0         0         0         0         0         0         0
         0         0         0         0         0         0         0         0
         0         0         0         0         0         0         0         0
         0         0         0         0         0         0         0         0
         0         0         0         0         0         0         0         0
         0         0         0         0         0         0         0         0
         0         0         0         0         0         0         0         0
         0         0         0         0         0         0         0         0
         0         0         0         0         0         0         0         0
         0         0         0         0         0         0         0         0
         0         0         0         0         0         0         0         0
         0         0         0         0         0         0         0         0
         0         0         0         0         0         0         0         0
         0         0         0         0         0         0         0         0
         0         0         0         0         0         0         0         0
         0         0         0         0         0         0         0         0
         0         0         0         0         0         0         0         0
         0         0         0         0         0         0         0         0
         0         0         0         0         0         0         0         0
         0         0         0         0         0         0         0         0
         0         0         0         0         0         0         0         0
         0         0         0         0         0         0         0         0
         0         0         0         0         0         0         0         0
         0         0         0         0         0         0         0         0
         0         0         0         0         0         0         0         0
         0         0         0         0         0         0         0         0
         0         0         0         0         0         0         0         0
         0         0         0         0         0         0         0         0
         0         0         0         0         0         0         0         0
         0         0         0         0         0         0         0         0
         0         0         0         0         0         0         0         0
         0         0         0         0         0         0         0         0
         0         0         0         0         0         0         0         0
         0         0         0         0         0         0         0         0
         0         0         0         0         0         0         0         0
         0         0         0         0         0         0         0         0
         0         0         0         0         0         0         0         0
         0         0         0         0         0         0         0         0
         0         0         0         0         0         0         0         0
         0         0         0         0         0         0         0         0
         0         0         0         0         0         0         0         0
         0         0         0         0         0         0         0         0
         0         0         0         0         0         0         0         0
         0         0         0         0         0         0         0         0
         0         0         0         0         0         0         0         0
         0         0         0         0         0         0         0         0
         0         0         0         0         0         0         0         0
         0         0         0         0         0         0         0         0
         0         0         0         0         0         0         0         0
         0         0         0         0         0         0         0         0
         0         0         0         0         0         0         0         0
         0         0         0         0         0         0         0         0
         0         0         0         0         0         0         0         0
         0         0         0         0         0         0         0         0
         0         0         0         0         0         0         0         0
         0         0         0         0         0         0         0         0
         0         0         0         0         0         0         0         0
         0         0         0         0         0         0         0         0
         0         0         0         0         0         0         0         0
         0         0         0         0         0         0         0         0
         0         0         0         0         0         0         0         0
         0         0         0         0         0         0         0         0
         0         0         0         0         0         0         0         0
         0         0         0         0         0         0         0         0
         0         0         0         0         0         0         0         0
         0         0         0         0         0         0         0         0
         0         0         0         0         0         0         0         0
         0         0         0         0         0         0         0         0
         0         0         0         0         0         0         0         0
         0         0         0         0         0         0         0         0
         0         0         0         0         0         0         0         0
         0         0         0         0         0         0         0         0
         0         0         0         0         0         0         0         0
         0         0         0         0         0         0         0         0
         0         0         0         0         0         0         0         0
         0         0         0         0         0         0         0         0
         0         0         0         0         0         0         0         0
         0         0         0         0         0         0         0         0
         0         0         0         0         0         0         0         0
         0         0         0         0         0         0         0         0
         0         0         0         0         0         0         0         0
         0         0         0         0         0         0         0         0
         0         0         0         0         0         0         0         0
         0         0         0         0         0         0         0         0
         0         0         0         0         0         0         0         0
         0         0         0         0         0         0         0         0
         0         0         0         0         0         0         0         0
         0         0         0         0         0         0         0         0
         0         0         0         0         0         0         0         0
         0         0         0         0         0         0         0         0
         0         0         0         0         0         0         0         0
         0         0         0         0         0         0         0         0
         0         0         0         0         0         0         0         0
         0         0         0         0         0         0         0         0
         0         0         0         0         0         0         0         0
         0         0         0         0         0         0         0         0
         0         0         0         0         0         0         0         0
         0         0         0         0         0         0         0         0
         0         0         0         0         0         0         0         0
         0         0         0         0         0         0         0         0
         0         0         0         0         0         0         0         0
         0         0         0         0         0         0         0         0
         0         0         0         0         0         0         0         0
         0         0         0         0         0         0         0         0
         0         0         0         0         0         0         0         0
         0         0         0         0         0         0         0         0
         0         0         0         0         0         0         0         0
         0         0         0         0         0         0         0         0
         0         0         0         0         0         0         0         0
         0         0         0         0         0         0         0         0
         0         0         0         0         0         0         0         0
         0         0         0         0         0         0         0         0
         0         0         0         0         0         0         0         0
         0         0         0         0         0         0         0         0
         0         0         0         0         0         0         0         0
         0         0         0         0         0         0         0         0
         0         0         0         0         0         0         0         0
         0         0         0         0         0         0         0         0
         0         0         0         0         0         0         0         0
         0         0         0         0         0         0         0         0
         0         0         0         0         0         0         0         0
         0         0         0         0         0         0         0         0
         0         0         0         0         0         0         0         0
         0         0         0         0         0         0         0         0
         0         0         0         0         0         0         0         0
         0         0         0         0         0         0         0         0
         0         0         0         0         0         0         0         0
         0         0         0         0         0         0         0         0
         0         0         0         0         0         0         0         0
         0         0         0         0         0         0         0         0
         0         0         0         0         0         0         0         0
         0         0         0         0         0         0         0         0
         0         0         0         0         0         0         0         0
         0         0         0         0         0         0         0         0
         0         0         0         0         0         0         0         0
         0         0         0         0         0         0         0         0
         0         0         0         0         0         0         0         0
         0         0         0         0         0         0         0         0
         0         0         0         0         0         0         0         0
         0         0         0         0         0         0         0         0
         0         0         0         0         0         0         0         0
         0         0         0         0         0         0         0         0
         0         0         0         0         0         0         0         0
         0         0         0         0         0         0         0         0
         0         0         0         0         0         0         0         0
         0         0         0         0         0         0         0         0
         0         0         0         0         0         0         0         0
         0         0         0         0         0         0         0         0
         0         0         0         0         0         0         0         0
         0         0         0         0         0         0         0         0
         0         0         0         0         0         0         0         0
         0         0         0         0         0         0         0         0
         0         0         0         0         0         0         0         0
         0         0         0         0         0         0         0         0
         0         0         0         0         0         0         0         0
         0         0         0         0         0         0         0         0
         0         0         0         0         0         0         0         0
         0         0         0         0         0         0         0         0
         0         0         0         0         0         0         0         0
         0         0         0         0         0         0         0         0
         0         0         0         0         0         0         0         0
         0         0         0         0         0         0         0         0
         0         0         0         0         0         0         0         0
         0         0         0         0         0         0         0         0
         0         0         0         0         0         0         0         0
         0         0         0         0         0         0         0         0
         0         0         0         0         0         0         0         0
         0         0         0         0         0         0         0         0
         0         0         0         0         0         0         0         0
         0         0         0         0         0         0         0         0
         0         0         0         0         0         0         0         0
         0         0         0         0         0         0         0         0
         0         0         0         0         0         0         0         0
         0         0         0         0         0         0         0         0
         0         0         0         0         0         0         0         0
         0         0         0         0         0         0         0         0
         0         0         0         0         0         0         0         0
         0         0         0         0         0         0         0         0
         0         0         0         0         0         0         0         0
         0         0         0         0         0         0         0         0
         0         0         0         0         0         0         0         0
         0         0         0         0         0         0         0         0
         0         0         0         0         0         0         0         0
         0         0         0         0         0         0         0         0
         0         0         0         0         0         0         0         0
         0         0         0         0         0         0         0         0
         0         0         0         0         0         0         0         0
         0         0         0         0         0         0         0         0
         0         0         0         0         0         0         0         0
         0         0         0         0         0         0         0         0
         0         0         0         0         0         0         0         0
         0         0         0         0         0         0         0         0
         0         0         0         0         0         0         0         0
         0         0         0         0         0         0         0         0
         0         0         0         0         0         0         0         0
         0         0         0         0         0         0         0         0
         0         0         0         0         0         0         0         0
         0         0         0         0         0         0         0         0
         0         0         0         0         0         0         0         0
         0         0         0         0         0         0         0         0
         0         0         0         0         0         0         0         0
         0         0         0         0         0         0         0         0
         0         0         0         0         0         0         0         0
         0         0         0         0         0         0         0         0
         0         0         0         0         0         0         0         0
         0         0         0         0         0         0         0         0
         0         0         0         0         0         0         0         0
         0         0         0         0         0         0         0         0
         0         0         0         0         0         0         0         0
         0         0         0         0         0         0         0         0
         0         0         0         0         0         0         0         0
         0         0         0         0         0         0         0         0
         0         0         0         0         0         0         0         0
         0         0         0         0         0         0         0         0
         0         0         0         0         0         0         0         0
         0         0         0         0         0         0         0         0
         0         0         0         0         0         0         0         0
         0         0         0         0         0         0         0         0
         0         0         0         0         0         0         0         0
         0         0         0         0         0         0         0         0
         0         0         0         0         0         0         0         0
         0         0         0         0         0         0         0         0
         0         0         0         0         0         0         0         0
         0         0         0         0         0         0         0         0
         0         0         0         0         0         0         0         0
         0         0         0         0         0         0         0         0
         0         0         0         0         0         0         0         0
         0         0         0         0         0         0         0         0
         0         0         0         0         0         0         0         0
         0         0         0         0         0         0         0         0
         0         0         0         0         0         0         0         0
         0         0         0         0         0         0         0         0
         0         0         0         0         0         0         0         0
         0         0         0         0         0         0         0         0
         0         0         0         0         0         0         0         0
         0         0         0         0         0         0         0         0
         0         0         0         0         0         0         0         0
         0         0         0         0         0         0         0         0
         0         0         0         0         0         0         0         0
         0         0         0         0         0         0         0         0
         0         0         0         0         0         0         0         0
         0         0         0         0         0         0         0         0
         0         0         0         0         0         0         0         0
         0         0         0         0         0         0         0         0
         0         0         0         0         0         0         0         0
         0         0         0         0         0         0         0         0
         0         0         0         0         0         0         0         0
         0         0         0         0         0         0         0         0
         0         0         0         0         0         0         0         0
         0         0         0         0         0         0         0         0
         0         0         0         0         0         0         0         0
         0         0         0         0         0         0         0         0
         0         0         0         0         0         0         0         0
         0         0         0         0         0         0         0         0
         0         0         0         0         0         0         0         0
         0         0         0         0         0         0         0         0
         0         0         0         0         0         0         0         0
         0         0         0         0         0         0         0         0
         0         0         0         0         0         0         0         0
         0         0         0         0         0         0         0         0
         0         0         0         0         0         0         0         0
         0         0         0         0         0         0         0         0
         0         0         0         0         0         0         0         0
         0         0         0         0         0         0         0         0
         0         0         0         0         0         0         0         0
         0         0         0         0         0         0         0         0
         0         0         0         0         0         0         0         0
         0         0         0         0         0         0         0         0
         0         0         0         0         0         0         0         0
         0         0         0         0         0         0         0         0
         0         0         0         0         0         0         0         0
         0         0         0         0         0         0         0         0
         0         0         0         0         0         0         0         0
         0         0         0         0         0         0         0         0
         0         0         0         0         0         0         0         0
         0         0         0         0         0         0         0         0
         0         0         0         0         0         0         0         0
         0         0         0         0         0         0         0         0
         0         0         0         0         0         0         0         0
         0         0         0         0         0         0         0         0
         0         0         0         0         0         0         0         0
         0         0         0         0         0         0         0         0
         0         0         0         0         0         0         0         0
         0         0         0         0         0         0         0         0
         0         0         0         0         0         0         0         0
         0         0         0         0         0         0         0         0
         0         0         0         0         0         0         0         0
         0         0         0         0         0         0         0         0
         0         0         0         0         0         0         0         0
         0         0         0         0         0         0         0         0
         0         0         0         0         0         0         0         0
         0         0         0         0         0         0         0         0
         0         0         0         0         0         0         0         0
         0         0         0         0         0         0         0         0
         0         0         0         0         0         0         0         0
         0         0         0         0         0         0         0         0
         0         0         0         0         0         0         0         0
         0         0         0         0         0         0         0         0
         0         0         0         0         0         0         0         0
         0         0         0         0         0         0         0         0
         0         0         0         0         0         0         0         0
         0         0         0         0         0         0         0         0
         0         0         0         0         0         0         0         0
         0         0         0         0         0         0         0         0
         0         0         0         0         0         0         0         0
         0         0         0         0         0         0         0         0
         0         0         0         0         0         0         0         0
         0         0         0         0         0         0         0         0
         0         0         0         0         0         0         0         0
         0         0         0         0         0         0         0         0
         0         0         0         0         0         0         0         0
         0         0         0         0         0         0         0         0
         0         0         0         0         0         0         0         0
         0         0         0         0         0         0         0         0
         0         0         0         0         0         0         0         0
         0         0         0         0         0         0         0         0
         0         0         0         0         0         0         0         0
         0         0         0         0         0         0         0         0
         0         0         0         0         0         0         0         0
         0         0         0         0         0         0         0         0
         0         0         0         0         0         0         0         0
         0         0         0         0         0         0         0         0
         0         0         0         0         0         0         0         0
         0         0         0         0         0         0         0         0
         0         0         0         0         0         0         0         0
         0         0         0         0         0         0         0         0
         0         0         0         0         0         0         0         0
         0         0         0         0         0         0         0         0
         0         0         0         0         0         0         0         0
         0         0         0         0         0         0         0         0
         0         0         0         0         0         0         0         0
         0         0         0         0         0         0         0         0
         0         0         0         0         0         0         0         0
         0         0         0         0         0         0         0         0
         0         0         0         0         0         0         0         0
         0         0         0         0         0         0         0         0
         0         0         0         0         0         0         0         0
         0         0         0         0         0         0         0         0
         0         0         0         0         0         0         0         0
         0         0         0         0         0         0         0         0
         0         0         0         0         0         0         0         0
         0         0         0         0         0         0         0         0
         0         0         0         0         0         0         0         0
         0         0         0         0         0         0         0         0
         0         0         0         0         0         0         0         0
         0         0         0         0         0         0         0         0
         0         0         0         0         0         0         0         0
         0         0         0         0         0         0         0         0
         0         0         0         0         0         0         0         0
         0         0         0         0         0         0         0         0
         0         0         0         0         0         0         0         0
         0         0         0         0         0         0         0         0
         0         0         0         0         0         0         0         0
         0         0         0         0         0         0         0         0
         0         0         0         0         0         0         0         0
         0         0         0         0         0         0         0         0
         0         0         0         0         0         0         0         0
         0         0         0         0         0         0         0         0
         0         0         0         0         0         0         0         0
         0         0         0         0         0         0         0         0
         0         0         0         0         0         0         0         0
         0         0         0         0         0         0         0         0
         0         0         0         0         0         0         0         0
         0         0         0         0         0         0         0         0
         0         0         0         0         0         0         0         0
         0         0         0         0         0         0         0         0
         0         0         0         0         0         0         0         0
         0         0         0         0         0         0         0         0
         0         0         0         0         0         0         0         0
         0         0         0         0         0         0         0         0
         0         0         0         0         0         0         0         0
         0         0         0         0         0         0         0         0
         0         0         0         0         0         0         0         0
         0         0         0         0         0         0         0         0
         0         0         0         0         0         0         0         0
         0         0         0         0         0         0         0         0
         0         0         0         0         0         0         0         0
         0         0         0         0         0         0         0         0
         0         0         0         0         0         0         0         0
         0         0         0         0         0         0         0         0
         0         0         0         0         0         0         0         0
         0         0         0         0         0         0         0         0
         0         0         0         0         0         0         0         0
         0         0         0         0         0         0         0         0
         0         0         0         0         0         0         0         0
         0         0         0         0         0         0         0         0
         0         0         0         0         0         0         0         0
         0         0         0         0         0         0         0         0
         0         0         0         0         0         0         0         0
         0         0         0         0         0         0         0         0
         0         0         0         0         0         0         0         0
         0         0         0         0         0         0         0         0
         0         0         0         0         0         0         0         0
         0         0         0         0         0         0         0         0
         0         0         0         0         0         0         0         0
         0         0         0         0         0         0         0         0
         0         0         0         0         0         0         0         0
         0         0         0         0         0         0         0         0
         0         0         0         0         0         0         0         0
         0         0         0         0         0         0         0         0
         0         0         0         0         0         0         0         0
         0         0         0         0         0         0         0         0
         0         0         0         0         0         0         0         0
         0         0         0         0         0         0         0         0
         0         0         0         0         0         0         0         0
         0         0         0         0         0         0         0         0
         0         0         0         0         0         0         0         0
         0         0         0         0         0         0         0         0
         0         0         0         0         0         0         0         0
         0         0         0         0         0         0         0         0
         0         0         0         0         0         0         0         0
         0         0         0         0         0         0         0         0
         0         0         0         0         0         0         0         0
         0         0         0         0         0         0         0         0
         0         0         0         0         0         0         0         0
         0         0         0         0         0         0         0         0
         0         0         0         0         0         0         0         0
         0         0         0         0         0         0         0         0
         0         0         0         0         0         0         0         0
         0         0         0         0         0         0         0         0
         0         0         0         0         0         0         0         0
         0         0         0         0         0         0         0         0
         0         0         0         0         0         0         0         0
         0         0         0         0         0         0         0         0
         0         0         0         0         0         0         0         0
         0         0         0         0         0         0         0         0
         0         0         0         0         0         0         0         0
         0         0         0         0         0         0         0         0
         0         0         0         0         0         0         0         0
         0         0         0         0         0         0         0         0
         0         0         0         0         0         0         0         0
         0         0         0         0         0         0         0         0
         0         0         0         0         0         0         0         0
         0         0         0         0         0         0         0         0
         0         0         0         0         0         0         0         0
         0         0         0         0         0         0         0         0
         0         0         0         0         0         0         0         0
         0         0         0         0         0         0         0         0
         0         0         0         0         0         0         0         0
         0         0         0         0         0         0         0         0
         0         0         0         0         0         0         0         0
         0         0         0         0         0         0         0         0
         0         0         0         0         0         0         0         0
         0         0         0         0         0         0         0         0
         0         0         0         0         0         0         0         0
         0         0         0         0         0         0         0         0
         0         0         0         0         0         0         0         0
         0         0         0         0         0         0         0         0
         0         0         0         0         0         0         0         0
         0         0         0         0         0         0         0         0
         0         0         0         0         0         0         0         0
         0         0         0         0         0         0         0         0
         0         0         0         0         0         0         0         0
         0         0         0         0         0         0         0         0
         0         0         0         0         0         0         0         0
         0         0         0         0         0         0         0         0
         0         0         0         0         0         0         0         0
         0         0         0         0         0         0         0         0
         0         0         0         0         0         0         0         0
         0         0         0         0         0         0         0         0
         0         0         0         0         0         0         0         0
         0         0         0         0         0         0         0         0
         0         0         0         0         0         0         0         0
         0         0         0         0         0         0         0         0
         0         0         0         0         0         0         0         0
         0         0         0         0         0         0         0         0
         0         0         0         0         0         0         0         0
         0         0         0         0         0         0         0         0
         0         0         0         0         0         0         0         0
         0         0         0         0         0         0         0         0
         0         0         0         0         0         0         0         0
         0         0         0         0         0         0         0         0
         0         0         0         0         0         0         0         0
         0         0         0         0         0         0         0         0
         0         0         0         0         0         0         0         0
         0         0         0         0         0         0         0         0
         0         0         0         0         0         0         0         0
         0         0         0         0         0         0         0         0
         0         0         0         0         0         0         0         0
         0         0         0         0         0         0         0         0
         0         0         0         0         0         0         0         0
         0         0         0         0         0         0         0         0
         0         0         0         0         0         0         0         0
         0         0         0         0         0         0         0         0
         0         0         0         0         0         0         0         0
         0         0         0         0         0         0         0         0
         0         0         0         0         0         0         0         0
         0         0         0         0         0         0         0         0
         0         0         0         0         0         0         0         0
         0         0         0         0         0         0         0         0
         0         0         0         0         0         0         0         0
         0         0         0         0         0         0         0         0
         0         0         0         0         0         0         0         0
         0         0         0         0         0         0         0         0
         0         0         0         0         0         0         0         0
         0         0         0         0         0         0         0         0
         0         0         0         0         0         0         0         0
         0         0         0         0         0         0         0         0
         0         0         0         0         0         0         0         0
         0         0         0         0         0         0         0         0
         0         0         0         0         0         0         0         0
         0         0         0         0         0         0         0         0
         0         0         0         0         0         0         0         0
         0         0         0         0         0         0         0         0
         0         0         0         0         0         0         0         0
         0         0         0         0         0         0         0         0
         0         0         0         0         0         0         0         0
         0         0         0         0         0         0         0         0
         0         0         0         0         0         0         0         0
         0         0         0         0         0         0         0         0
         0         0         0         0         0         0         0         0
         0         0         0         0         0         0         0         0
         0         0         0         0         0         0         0         0
         0         0         0         0         0         0         0         0
         0         0         0         0         0         0         0         0
         0         0         0         0         0         0         0         0
         0         0         0         0         0         0         0         0
         0         0         0         0         0         0         0         0
         0         0         0         0         0         0         0         0
         0         0         0         0         0         0         0         0
         0         0         0         0         0         0         0         0
         0         0         0         0         0         0         0         0
         0         0         0         0         0         0         0         0
         0         0         0         0         0         0         0         0
         0         0         0         0         0         0         0         0
         0         0         0         0         0         0         0         0
         0         0         0         0         0         0         0         0
         0         0         0         0         0         0         0         0
         0         0         0         0         0         0         0         0
         0         0         0         0         0         0         0         0
         0         0         0         0         0         0         0         0
         0         0         0         0         0         0         0         0
         0         0         0         0         0         0         0         0
         0         0         0         0         0         0         0         0
         0         0         0         0         0         0         0         0
         0         0         0         0         0         0         0         0
         0         0         0         0         0         0         0         0
         0         0         0         0         0         0         0         0
         0         0         0         0         0         0         0         0
         0         0         0         0         0         0         0         0
         0         0         0         0         0         0         0         0
         0         0         0         0         0         0         0         0
         0         0         0         0         0         0         0         0
         0         0         0         0         0         0         0         0
         0         0         0         0         0         0         0         0
         0         0         0         0         0         0         0         0
         0         0         0         0         0         0         0         0
         0         0         0         0         0         0         0         0
         0         0         0         0         0         0         0         0
         0         0         0         0         0         0         0         0
         0         0         0         0         0         0         0         0
         0         0         0         0         0         0         0         0
         0         0         0         0         0         0         0         0
         0         0         0         0         0         0         0         0
         0         0         0         0         0         0         0         0
         0         0         0         0         0         0         0         0
         0         0         0         0         0         0         0         0
         0         0         0         0         0         0         0         0
         0         0         0         0         0         0         0         0
         0         0         0         0         0         0         0         0
         0         0         0         0         0         0         0         0
         0         0         0         0         0         0         0         0
         0         0         0         0         0         0         0         0
         0         0         0         0         0         0         0         0
         0         0         0         0         0         0         0         0
         0         0         0         0         0         0         0         0
         0         0         0         0         0         0         0         0
         0         0         0         0         0         0         0         0
         0         0         0         0         0         0         0         0
         0         0         0         0         0         0         0         0
         0         0         0         0         0         0         0         0
         0         0         0         0         0         0         0         0
         0         0         0         0         0         0         0         0
         0         0         0         0         0         0         0         0
         0         0         0         0         0         0         0         0
         0         0         0         0         0         0         0         0
         0         0         0         0         0         0         0         0
         0         0         0         0         0         0         0         0
         0         0         0         0         0         0         0         0
         0         0         0         0         0         0         0         0
         0         0         0         0         0         0         0         0
         0         0         0         0         0         0         0         0
         0         0         0         0         0         0         0         0
         0         0         0         0         0         0         0         0
         0         0         0         0         0         0         0         0
         0         0         0         0         0         0         0         0
         0         0         0         0         0         0         0         0
         0         0         0         0         0         0         0         0
         0         0         0         0         0         0         0         0
         0         0         0         0         0         0         0         0
         0         0         0         0         0         0         0         0
         0         0         0         0         0         0         0         0
         0         0         0         0         0         0         0         0
         0         0         0         0         0         0         0         0
         0         0         0         0         0         0         0         0
         0         0         0         0         0         0         0         0
         0         0         0         0         0         0         0         0
         0         0         0         0         0         0         0         0
         0         0         0         0         0         0         0         0
         0         0         0         0         0         0         0         0
         0         0         0         0         0         0         0         0
         0         0         0         0         0         0         0         0
         0         0         0         0         0         0         0         0
         0         0         0         0         0         0         0         0
         0         0         0         0         0         0         0         0
         0         0         0         0         0         0         0         0
         0         0         0         0         0         0         0         0
         0         0         0         0         0         0         0         0
         0         0         0         0         0         0         0         0
         0         0         0         0         0         0         0         0
         0         0         0         0         0         0         0         0
         0         0         0         0         0         0         0         0
         0         0         0         0         0         0         0         0
         0         0         0         0         0         0         0         0
         0         0         0         0         0         0         0         0
         0         0         0         0         0         0         0         0
         0         0         0         0         0         0         0         0
         0         0         0         0         0         0         0         0
         0         0         0         0         0         0         0         0
         0         0         0         0         0         0         0         0
         0         0         0         0         0         0         0         0
         0         0         0         0         0         0         0         0
         0         0         0         0         0         0         0         0
         0         0         0         0         0         0         0         0
         0         0         0         0         0         0         0         0
         0         0         0         0         0         0         0         0
         0         0         0         0         0         0         0         0
         0         0         0         0         0         0         0         0
         0         0         0         0         0         0         0         0
         0         0         0         0         0         0         0         0
         0         0         0         0         0         0         0         0
         0         0         0         0         0         0         0         0
         0         0         0         0         0         0         0         0
         0         0         0         0         0         0         0         0
         0         0         0         0         0         0         0         0
         0         0         0         0         0         0         0         0
         0         0         0         0         0         0         0         0
         0         0         0         0         0         0         0         0
         0         0         0         0         0         0         0         0
         0         0         0         0         0         0         0         0
         0         0         0         0         0         0         0         0
         0         0         0         0         0         0         0         0
         0         0         0         0         0         0         0         0
         0         0         0         0         0         0         0         0
         0         0         0         0         0         0         0         0
         0         0         0         0         0         0         0         0
         0         0         0         0         0         0         0         0
         0         0         0         0         0         0         0         0
         0         0         0         0         0         0         0         0
         0         0         0         0         0         0         0         0
         0         0         0         0         0         0         0         0
         0         0         0         0         0         0         0         0
         0         0         0         0         0         0         0         0
         0         0         0         0         0         0         0         0
         0         0         0         0         0         0         0         0
         0         0         0         0         0         0         0         0
         0         0         0         0         0         0         0         0
         0         0         0         0         0         0         0         0
         0         0         0         0         0         0         0         0
         0         0         0         0         0         0         0         0
         0         0         0         0         0         0         0         0
         0         0         0         0         0         0         0         0
         0         0         0         0         0         0         0         0
         0         0         0         0         0         0         0         0
         0         0         0         0         0         0         0         0
         0         0         0         0         0         0         0         0
         0         0         0         0         0         0         0         0
         0         0         0         0         0         0         0         0
         0         0         0         0         0         0         0         0
         0         0         0         0         0         0         0         0
         0         0         0         0         0         0         0         0
         0         0         0         0         0         0         0         0
         0         0         0         0         0         0         0         0
         0         0         0         0         0         0         0         0
         0         0         0         0         0         0         0         0
         0         0         0         0         0         0         0         0
         0         0         0         0         0         0         0         0
         0         0         0         0         0         0         0         0
         0         0         0         0         0         0         0         0
         0         0         0         0         0         0         0         0
         0         0         0         0         0         0         0         0
         0         0         0         0         0         0         0         0
         0         0         0         0         0         0         0         0
         0         0         0         0         0         0         0         0
         0         0         0         0         0         0         0         0
         0         0         0         0         0         0         0         0
         0         0         0         0         0         0         0         0
         0         0         0         0         0         0         0         0
         0         0         0         0         0         0         0         0
         0         0         0         0         0         0         0         0
         0         0         0         0         0         0         0         0
         0         0         0         0         0         0         0         0
         0         0         0         0         0         0         0         0
         0         0         0         0         0         0         0         0
         0         0         0         0         0         0         0         0
         0         0         0         0         0         0         0         0
         0         0         0         0         0         0         0         0
         0         0         0         0         0         0         0         0
         0         0         0         0         0         0         0         0
         0         0         0         0         0         0         0         0
         0         0         0         0         0         0         0         0
         0         0         0         0         0         0         0         0
         0         0         0         0         0         0         0         0
         0         0         0         0         0         0         0         0
         0         0         0         0         0         0         0         0
         0         0         0         0         0         0         0         0
         0         0         0         0         0         0         0         0
         0         0         0         0         0         0         0         0
         0         0         0         0         0         0         0         0
         0         0         0         0         0         0         0         0
         0         0         0         0         0         0         0         0
         0         0         0         0         0         0         0         0
         0         0         0         0         0         0         0         0
         0         0         0         0         0         0         0         0
         0         0         0         0         0         0         0         0
         0         0         0         0         0         0         0         0
         0         0         0         0         0         0         0         0
         0         0         0         0         0         0         0         0
         0         0         0         0         0         0         0         0
         0         0         0         0         0         0         0         0
         0         0         0         0         0         0         0         0
         0         0         0         0         0         0         0         0
         0         0         0         0         0         0         0         0
         0         0         0         0         0         0         0         0
         0         0         0         0         0         0         0         0
         0         0         0         0         0         0         0         0
         0         0         0         0         0         0         0         0
         0         0         0         0         0         0         0         0
         0         0         0         0         0         0         0         0
         0         0         0         0         0         0         0         0
         0         0         0         0         0         0         0         0
         0         0         0         0         0         0         0         0
         0         0         0         0         0         0         0         0
         0         0         0         0         0         0         0         0
         0         0         0         0         0         0         0         0
         0         0         0         0         0         0         0         0
         0         0         0         0         0         0         0         0
         0         0         0         0         0         0         0         0
         0         0         0         0         0         0         0         0
         0         0         0         0         0         0         0         0
         0         0         0         0         0         0         0         0
         0         0         0         0         0         0         0         0
         0         0         0         0         0         0         0         0
         0         0         0         0         0         0         0         0
         0         0         0         0         0         0         0         0
         0         0         0         0         0         0         0         0
         0         0         0         0         0         0         0         0
         0         0         0         0         0         0         0         0
         0         0         0         0         0         0         0         0
         0         0         0         0         0         0         0         0
         0         0         0         0         0         0         0         0
         0         0         0         0         0         0         0         0
         0         0         0         0         0         0         0         0
         0         0         0         0         0         0         0         0
         0         0         0         0         0         0         0         0
         0         0         0         0         0         0         0         0
         0         0         0         0         0         0         0         0
         0         0         0         0         0         0         0         0
         0         0         0         0         0         0         0         0
         0         0         0         0         0         0         0         0
         0         0         0         0         0         0         0         0
         0         0         0         0         0         0         0         0
         0         0         0         0         0         0         0         0
         0         0         0         0         0         0         0         0
         0         0         0         0         0         0         0         0
         0         0         0         0         0         0         0         0
         0         0         0         0         0         0         0         0
         0         0         0         0         0         0         0         0
         0         0         0         0         0         0         0         0
         0         0         0         0         0         0         0         0
         0         0         0         0         0         0         0         0
         0         0         0         0         0         0         0         0
         0         0         0         0         0         0         0         0
         0         0         0         0         0         0         0         0
         0         0         0         0         0         0         0         0
         0         0         0         0         0         0         0         0
         0         0         0         0         0         0         0         0
         0         0         0         0         0         0         0         0
         0         0         0         0         0         0         0         0
         0         0         0         0         0         0         0         0
         0         0         0         0         0         0         0         0
         0         0         0         0         0         0         0         0
         0         0         0         0         0         0         0         0
         0         0         0         0         0         0         0         0
         0         0         0         0         0         0         0         0
         0         0         0         0         0         0         0         0
         0         0         0         0         0         0         0         0
         0         0         0         0         0         0         0         0
         0         0         0         0         0         0         0         0
         0         0         0         0         0         0         0         0
         0         0         0         0         0         0         0         0
         0         0         0         0         0         0         0         0
         0         0         0         0         0         0         0         0
         0         0         0         0         0         0         0         0
         0         0         0         0         0         0         0         0
         0         0         0         0         0         0         0         0
         0         0         0         0         0         0         0         0
         0         0         0         0         0         0         0         0
         0         0         0         0         0         0         0         0
         0         0         0         0         0         0         0         0
         0         0         0         0         0         0         0         0
         0         0         0         0         0         0         0         0
         0         0         0         0         0         0         0         0
         0         0         0         0         0         0         0         0
         0         0         0         0         0         0         0         0
         0         0         0         0         0         0         0         0
         0         0         0         0         0         0         0         0
         0         0         0         0         0         0         0         0
         0         0         0         0         0         0         0         0
         0         0         0         0         0         0         0         0
         0         0         0         0         0         0         0         0
         0         0         0         0         0         0         0         0
         0         0         0         0         0         0         0         0
         0         0         0         0         0         0         0         0
         0         0         0         0         0         0         0         0
         0         0         0         0         0         0         0         0
         0         0         0         0         0         0         0         0
         0         0         0         0         0         0         0         0
         0         0         0         0         0         0         0         0
         0         0         0         0         0         0         0         0
         0         0         0         0         0         0         0         0
         0         0         0         0         0         0         0         0
         0         0         0         0         0         0         0         0
         0         0         0         0         0         0         0         0
         0         0         0         0         0         0         0         0
         0         0         0         0         0         0         0         0
         0         0         0         0         0         0         0         0
         0         0         0         0         0         0         0         0
         0         0         0         0         0         0         0         0
         0         0         0         0         0         0         0         0
         0         0         0         0         0         0         0         0
         0         0         0         0         0         0         0         0
         0         0         0         0         0         0         0         0
         0         0         0         0         0         0         0         0
         0         0         0         0         0         0         0         0
         0         0         0         0         0         0         0         0
         0         0         0         0         0         0         0         0
         0         0         0         0         0         0         0         0
         0         0         0         0         0         0         0         0
         0         0         0         0         0         0         0         0
         0         0         0         0         0         0         0         0
         0         0         0         0         0         0         0         0
         0         0         0         0         0         0         0         0
         0         0         0         0         0         0         0         0
         0         0         0         0         0         0         0         0
         0         0         0         0         0         0         0         0
         0         0         0         0         0         0         0         0
         0         0         0         0         0         0         0         0
         0         0         0         0         0         0         0         0
         0         0         0         0         0         0         0         0
         0         0         0         0         0         0         0         0
         0         0         0         0         0         0         0         0
         0         0         0         0         0         0         0         0
         0         0         0         0         0         0         0         0
         0         0         0         0         0         0         0         0
         0         0         0         0         0         0         0         0
         0         0         0         0         0         0         0         0
         0         0         0         0         0         0         0         0
         0         0         0         0         0         0         0         0
         0         0         0         0         0         0         0         0
         0         0         0         0         0         0         0         0
         0         0         0         0         0         0         0         0
         0         0         0         0         0         0         0         0
         0         0         0         0         0         0         0         0
         0         0         0         0         0         0         0         0
         0         0         0         0         0         0         0         0
         0         0         0         0         0         0         0         0
         0         0         0         0         0         0         0         0
         0         0         0         0         0         0         0         0
         0         0         0         0         0         0         0         0
         0         0         0         0         0         0         0         0
         0         0         0         0         0         0         0         0
         0         0         0         0         0         0         0         0
         0         0         0         0         0         0         0         0
         0         0         0         0         0         0         0         0
         0         0         0         0         0         0         0         0
         0         0         0         0         0         0         0         0
         0         0         0         0         0         0         0         0
         0         0         0         0         0         0         0         0
         0         0         0         0         0         0         0         0
         0         0         0         0         0         0         0         0
         0         0         0         0         0         0         0         0
         0         0         0         0         0         0         0         0
         0         0         0         0         0         0         0         0
         0         0         0         0         0         0         0         0
         0         0         0         0         0         0         0         0
         0         0         0         0         0         0         0         0
         0         0         0         0         0         0         0         0
         0         0         0         0         0         0         0         0
         0         0         0         0         0         0         0         0
         0         0         0         0         0         0         0         0
         0         0         0         0         0         0         0         0
         0         0         0         0         0         0         0         0
         0         0         0         0         0         0         0         0
         0         0         0         0         0         0         0         0
         0         0         0         0         0         0         0         0
         0         0         0         0         0         0         0         0
         0         0         0         0         0         0         0         0
         0         0         0         0         0         0         0         0
         0         0         0         0         0         0         0         0
         0         0         0         0         0         0         0         0
         0         0         0         0         0         0         0         0
         0         0         0         0         0         0         0         0
         0         0         0         0         0         0         0         0
         0         0         0         0         0         0         0         0
         0         0         0         0         0         0         0         0
         0         0         0         0         0         0         0         0
         0         0         0         0         0         0         0         0
         0         0         0         0         0         0         0         0
         0         0         0         0         0         0         0         0
         0         0         0         0         0         0         0         0
         0         0         0         0         0         0         0         0
         0         0         0         0         0         0         0         0
         0         0         0         0         0         0         0         0
         0         0         0         0         0         0         0         0
         0         0         0         0         0         0         0         0
         0         0         0         0         0         0         0         0
         0         0         0         0         0         0         0         0
         0         0         0         0         0         0         0         0
         0         0         0         0         0         0         0         0
         0         0         0         0         0         0         0         0
         0         0         0         0         0         0         0         0
         0         0         0         0         0         0         0         0
         0         0         0         0         0         0         0         0
         0         0         0         0         0         0         0         0
         0         0         0         0         0         0         0         0
         0         0         0         0         0         0         0         0
         0         0         0         0         0         0         0         0
         0         0         0         0         0         0         0         0
         0         0         0         0         0         0         0         0
         0         0         0         0         0         0         0         0
         0         0         0         0         0         0         0         0
         0         0         0         0         0         0         0         0
         0         0         0         0         0         0         0         0
         0         0         0         0         0         0         0         0
         0         0         0         0         0         0         0         0
         0         0         0         0         0         0         0         0
         0         0         0         0         0         0         0         0
         0         0         0         0         0         0         0         0
         0         0         0         0         0         0         0         0
         0         0         0         0         0         0         0         0
         0         0         0         0         0         0         0         0
         0         0         0         0         0         0         0         0
         0         0         0         0         0         0         0         0
         0         0         0         0         0         0         0         0
         0         0         0         0         0         0         0         0
         0         0         0         0         0         0         0         0
         0         0         0         0         0         0         0         0
         0         0         0         0         0         0         0         0
         0         0         0         0         0         0         0         0
         0         0         0         0         0         0         0         0
         0         0         0         0         0         0         0         0
         0         0         0         0         0         0         0         0
         0         0         0         0         0         0         0         0
         0         0         0         0         0         0         0         0
         0         0         0         0         0         0         0         0
         0         0         0         0         0         0         0         0
         0         0         0         0         0         0         0         0
         0         0         0         0         0         0         0         0
         0         0         0         0         0         0         0         0
         0         0         0         0         0         0         0         0
         0         0         0         0         0         0         0         0
         0         0         0         0         0         0         0         0
         0         0         0         0         0         0         0         0
         0         0         0         0         0         0         0         0
         0         0         0         0         0         0         0         0
         0         0         0         0         0         0         0         0
         0         0         0         0         0         0         0         0
         0         0         0         0         0         0         0         0
         0         0         0         0         0         0         0         0
         0         0         0         0         0         0         0         0
         0         0         0         0         0         0         0         0
         0         0         0         0         0         0         0         0
         0         0         0         0         0         0         0         0
         0         0         0         0         0         0         0         0
         0         0         0         0         0         0         0         0
         0         0         0         0         0         0         0         0
         0         0         0         0         0         0         0         0
         0         0         0         0         0         0         0         0
         0         0         0         0         0         0         0         0
         0         0         0         0         0         0         0         0
         0         0         0         0         0         0         0         0
         0         0         0         0         0         0         0         0
         0         0         0         0         0         0         0         0
         0         0         0         0         0         0         0         0
         0         0         0         0         0         0         0         0
         0         0         0         0         0         0         0         0
         0         0         0         0         0         0         0         0
         0         0         0         0         0         0         0         0
         0         0         0         0         0         0         0         0
         0         0         0         0         0         0         0         0
         0         0         0         0         0         0         0         0
         0         0         0         0         0         0         0         0
         0         0         0         0         0         0         0         0
         0         0         0         0         0         0         0         0
         0         0         0         0         0         0         0         0
         0         0         0         0         0         0         0         0
         0         0         0         0         0         0         0         0
         0         0         0         0         0         0         0         0
         0         0         0         0         0         0         0         0
         0         0         0         0         0         0         0         0
         0         0         0         0         0         0         0         0
         0         0         0         0         0         0         0         0
         0         0         0         0         0         0         0         0
         0         0         0         0         0         0         0         0
         0         0         0         0         0         0         0         0
         0         0         0         0         0         0         0         0
         0         0         0         0         0         0         0         0
         0         0         0         0         0         0         0         0
         0         0         0         0         0         0         0         0
         0         0         0         0         0         0         0         0
         0         0         0         0         0         0         0         0
         0         0         0         0         0         0         0         0
         0         0         0         0         0         0         0         0
         0         0         0         0         0         0         0         0
         0         0         0         0         0         0         0         0
         0         0         0         0         0         0         0         0
         0         0         0         0         0         0         0         0
         0         0         0         0         0         0         0         0
         0         0         0         0         0         0         0         0
         0         0         0         0         0         0         0         0
         0         0         0         0         0         0         0         0
         0         0         0         0         0         0         0         0
         0         0         0         0         0         0         0         0
         0         0         0         0         0         0         0         0
         0         0         0         0         0         0         0         0
         0         0         0         0         0         0         0         0
         0         0         0         0         0         0         0         0
         0         0         0         0         0         0         0         0
         0         0         0         0         0         0         0         0
         0         0         0         0         0         0         0         0
         0         0         0         0         0         0         0         0
         0         0         0         0         0         0         0         0
         0         0         0         0         0         0         0         0
         0         0         0         0         0         0         0         0
         0         0         0         0         0         0         0         0
         0         0         0         0         0         0         0         0
         0         0         0         0         0         0         0         0
         0         0         0         0         0         0         0         0
         0         0         0         0         0         0         0         0
         0         0         0         0         0         0         0         0
         0         0         0         0         0         0         0         0
         0         0         0         0         0         0         0         0
         0         0         0         0         0         0         0         0
         0         0         0         0         0         0         0         0
         0         0         0         0         0         0         0         0
         0         0         0         0         0         0         0         0
         0         0         0         0         0         0         0         0
         0         0         0         0         0         0         0         0
         0         0         0         0         0         0         0         0
         0         0         0         0         0         0         0         0
         0         0         0         0         0         0         0         0
         0         0         0         0         0         0         0         0
         0         0         0         0         0         0         0         0
         0         0         0         0         0         0         0         0
         0         0         0         0         0         0         0         0
         0         0         0         0         0         0         0         0
         0         0         0         0         0         0         0         0
         0         0         0         0         0         0         0         0
         0         0         0         0         0         0         0         0
         0         0         0         0         0         0         0         0
         0         0         0         0         0         0         0         0
         0         0         0         0         0         0         0         0
         0         0         0         0         0         0         0         0
         0         0         0         0         0         0         0         0
         0         0         0         0         0         0         0         0
         0         0         0         0         0         0         0         0
         0         0         0         0         0         0         0         0
         0         0         0         0         0         0         0         0
         0         0         0         0         0         0         0         0
         0         0         0         0         0         0         0         0
         0         0         0         0         0         0         0         0
         0         0         0         0         0         0         0         0
         0         0         0         0         0         0         0         0
         0         0         0         0         0         0         0         0
         0         0         0         0         0         0         0         0
         0         0         0         0         0         0         0         0
         0         0         0         0         0         0         0         0
         0         0         0         0         0         0         0         0
         0         0         0         0         0         0         0         0
         0         0         0         0         0         0         0         0
         0         0         0         0         0         0         0         0
         0         0         0         0         0         0         0         0
         0         0         0         0         0         0         0         0
         0         0         0         0         0         0         0         0
         0         0         0         0         0         0         0         0
         0         0         0         0         0         0         0         0
         0         0         0         0         0         0         0         0
         0         0         0         0         0         0         0         0
         0         0         0         0         0         0         0         0
         0         0         0         0         0         0         0         0
         0         0         0         0         0         0         0         0
         0         0         0         0         0         0         0         0
         0         0         0         0         0         0         0         0
         0         0         0         0         0         0         0         0
         0         0         0         0         0         0         0         0
         0         0         0         0         0         0         0         0
         0         0         0         0         0         0         0         0
         0         0         0         0         0         0         0         0
         0         0         0         0         0         0         0         0
         0         0         0         0         0         0         0         0
         0         0         0         0         0         0         0         0
         0         0         0         0         0         0         0         0
         0         0         0         0         0         0         0         0
         0         0         0         0         0         0         0         0
         0         0         0         0         0         0         0         0
         0         0         0         0         0         0         0         0
         0         0         0         0         0         0         0         0
         0         0         0         0         0         0         0         0
         0         0         0         0         0         0         0         0
         0         0         0         0         0         0         0         0
         0         0         0         0         0         0         0         0
         0         0         0         0         0         0         0         0
         0         0         0         0         0         0         0         0
         0         0         0         0         0         0         0         0
         0         0         0         0         0         0         0         0
         0         0         0         0         0         0         0         0
         0         0         0         0         0         0         0         0
         0         0         0         0         0         0         0         0
         0         0         0         0         0         0         0         0
         0         0         0         0         0         0         0         0
         0         0         0         0         0         0         0         0
         0         0         0         0         0         0         0         0
         0         0         0         0         0         0         0         0
         0         0         0         0         0         0         0         0
         0         0         0         0         0         0         0         0
         0         0         0         0         0         0         0         0
         0         0         0         0         0         0         0         0
         0         0         0         0         0         0         0         0
         0         0         0         0         0         0         0         0
         0         0         0         0         0         0         0         0
         0         0         0         0         0         0         0         0
         0         0         0         0         0         0         0         0
         0         0         0         0         0         0         0         0
         0         0         0         0         0         0         0         0
         0         0         0         0         0         0         0         0
         0         0         0         0         0         0         0         0
         0         0         0         0         0         0         0         0
         0         0         0         0         0         0         0         0
         0         0         0         0         0         0         0         0
         0         0         0         0         0         0         0         0
         0         0         0         0         0         0         0         0
         0         0         0         0         0         0         0         0
         0         0         0         0         0         0         0         0
         0         0         0         0         0         0         0         0
         0         0         0         0         0         0         0         0
         0         0         0         0         0         0         0         0
         0         0         0         0         0         0         0         0
         0         0         0         0         0         0         0         0
         0         0         0         0         0         0         0         0
         0         0         0         0         0         0         0         0
         0         0         0         0         0         0         0         0
         0         0         0         0         0         0         0         0
         0         0         0         0         0         0         0         0
         0         0         0         0         0         0         0         0
         0         0         0         0         0         0         0         0
         0         0         0         0         0         0         0         0
         0         0         0         0         0         0         0         0
         0         0         0         0         0         0         0         0
         0         0         0         0         0         0         0         0
         0         0         0         0         0         0         0         0
         0         0         0         0         0         0         0         0
         0         0         0         0         0         0         0         0
         0         0         0         0         0         0         0         0
         0         0         0         0         0         0         0         0
         0         0         0         0         0         0         0         0
         0         0         0         0         0         0         0         0
         0         0         0         0         0         0         0         0
         0         0         0         0         0         0         0         0
         0         0         0         0         0         0         0         0
         0         0         0         0         0         0         0         0
         0         0         0         0         0         0         0         0
         0         0         0         0         0         0         0         0
         0         0         0         0         0         0         0         0
         0         0         0         0         0         0         0         0
         0         0         0         0         0         0         0         0
         0         0         0         0         0         0         0         0
         0         0         0         0         0         0         0         0
         0         0         0         0         0         0         0         0
         0         0         0         0         0         0         0         0
         0         0         0         0         0         0         0         0
         0         0         0         0         0         0         0         0
         0         0         0         0         0         0         0         0
         0         0         0         0         0         0         0         0
         0         0         0         0         0         0         0         0
         0         0         0         0         0         0         0         0
         0         0         0         0         0         0         0         0
         0         0         0         0         0         0         0         0
         0         0         0         0         0         0         0         0
         0         0         0         0         0         0         0         0
         0         0         0         0         0         0         0         0
         0         0         0         0         0         0         0         0
         0         0         0         0         0         0         0         0
         0         0         0         0         0         0         0         0
         0         0         0         0         0         0         0         0
         0         0         0         0         0         0         0         0
         0         0         0         0         0         0         0         0
         0         0         0         0         0         0         0         0
         0         0         0         0         0         0         0         0
         0         0         0         0         0         0         0         0
         0         0         0         0         0         0         0         0
         0         0         0         0         0         0         0         0
         0         0         0         0         0         0         0         0
         0         0         0         0         0         0         0         0
         0         0         0         0         0         0         0         0
         0         0         0         0         0         0         0         0
         0         0         0         0         0         0         0         0
         0         0         0         0         0         0         0         0
         0         0         0         0         0         0         0         0
         0         0         0         0         0         0         0         0
         0         0         0         0         0         0         0         0
         0         0         0         0         0         0         0         0
         0         0         0         0         0         0         0         0
         0         0         0         0         0         0         0         0
         0         0         0         0         0         0         0         0
         0         0         0         0         0         0         0         0
         0         0         0         0         0         0         0         0
         0         0         0         0         0         0         0         0
         0         0         0         0         0         0         0         0
         0         0         0         0         0         0         0         0
         0         0         0         0         0         0         0         0
         0         0         0         0         0         0         0         0
         0         0         0         0         0         0         0         0
         0         0         0         0         0         0         0         0
         0         0         0         0         0         0         0         0
         0         0         0         0         0         0         0         0
         0         0         0         0         0         0         0         0
         0         0         0         0         0         0         0         0
         0         0         0         0         0         0         0         0
         0         0         0         0         0         0         0         0
         0         0         0         0         0         0         0         0
         0         0         0         0         0         0         0         0
         0         0         0         0         0         0         0         0
         0         0         0         0         0         0         0         0
         0         0         0         0         0         0         0         0
         0         0         0         0         0         0         0         0
         0         0         0         0         0         0         0         0
         0         0         0         0         0         0         0         0
         0         0         0         0         0         0         0         0
         0         0         0         0         0         0         0         0
         0         0         0         0         0         0         0         0
         0         0         0         0         0         0         0         0
         0         0         0         0         0         0         0         0
         0         0         0         0         0         0         0         0
         0         0         0         0         0         0         0         0
         0         0         0         0         0         0         0         0
         0         0         0         0         0         0         0         0
         0         0         0         0         0         0         0         0
         0         0         0         0         0         0         0         0
         0         0         0         0         0         0         0         0
         0         0         0         0         0         0         0         0
         0         0         0         0         0         0         0         0
         0         0         0         0         0         0         0         0
         0         0         0         0         0         0         0         0
         0         0         0         0         0         0         0         0
         0         0         0         0         0         0         0         0
         0         0         0         0         0         0         0         0
         0         0         0         0         0         0         0         0
         0         0         0         0         0         0         0         0
         0         0         0         0         0         0         0         0
         0         0         0         0         0         0         0         0
         0         0         0         0         0         0         0         0
         0         0         0         0         0         0         0         0
         0         0         0         0         0         0         0         0
         0         0         0         0         0         0         0         0
         0         0         0         0         0         0         0         0
         0         0         0         0         0         0         0         0
         0         0         0         0         0         0         0         0
         0         0         0         0         0         0         0         0
         0         0         0         0         0         0         0         0
         0         0         0         0         0         0         0         0
         0         0         0         0         0         0         0         0
         0         0         0         0         0         0         0         0
         0         0         0         0         0         0         0         0
         0         0         0         0         0         0         0         0
         0         0         0         0         0         0         0         0
         0         0         0         0         0         0         0         0
         0         0         0         0         0         0         0         0
         0         0         0         0         0         0         0         0
         0         0         0         0         0         0         0         0
         0         0         0         0         0         0         0         0
         0         0         0         0         0         0         0         0
         0         0         0         0         0         0         0         0
         0         0         0         0         0         0         0         0
         0         0         0         0         0         0         0         0
         0         0         0         0         0         0         0         0
         0         0         0         0         0         0         0         0
         0         0         0         0         0         0         0         0
         0         0         0         0         0         0         0         0
         0         0         0         0         0         0         0         0
         0         0         0         0         0         0         0         0
         0         0         0         0         0         0         0         0
         0         0         0         0         0         0         0         0
         0         0         0         0         0         0         0         0
         0         0         0         0         0         0         0         0
         0         0         0         0         0         0         0         0
         0         0         0         0         0         0         0         0
         0         0         0         0         0         0         0         0
         0         0         0         0         0         0         0         0
         0         0         0         0         0         0         0         0
         0         0         0         0         0         0         0         0
         0         0         0         0         0         0         0         0
         0         0         0         0         0         0         0         0
         0         0         0         0         0         0         0         0
         0         0         0         0         0         0         0         0
         0         0         0         0         0         0         0         0
         0         0         0         0         0         0         0         0
         0         0         0         0         0         0         0         0
         0         0         0         0         0         0         0         0
         0         0         0         0         0         0         0         0
         0         0         0         0         0         0         0         0
         0         0         0         0         0         0         0         0
         0         0         0         0         0         0         0         0
         0         0         0         0         0         0         0         0
         0         0         0         0         0         0         0         0
         0         0         0         0         0         0         0         0
         0         0         0         0         0         0         0         0
         0         0         0         0         0         0         0         0
         0         0         0         0         0         0         0         0
         0         0         0         0         0         0         0         0
         0         0         0         0         0         0         0         0
         0         0         0         0         0         0         0         0
         0         0         0         0         0         0         0         0
         0         0         0         0         0         0         0         0
         0         0         0         0         0         0         0         0
         0         0         0         0         0         0         0         0
         0         0         0         0         0         0         0         0
         0         0         0         0         0         0         0         0
         0         0         0         0         0         0         0         0
         0         0         0         0         0         0         0         0
         0         0         0         0         0         0         0         0
         0         0         0         0         0         0         0         0
         0         0         0         0         0         0         0         0
         0         0         0         0         0         0         0         0
         0         0         0         0         0         0         0         0
         0         0         0         0         0         0         0         0
         0         0         0         0         0         0         0         0
         0         0         0         0         0         0         0         0
         0         0         0         0         0         0         0         0
         0         0         0         0         0         0         0         0
         0         0         0         0         0         0         0         0
         0         0         0         0         0         0         0         0
         0         0         0         0         0         0         0         0
         0         0         0         0         0         0         0         0
         0         0         0         0         0         0         0         0
         0         0         0         0         0         0         0         0
         0         0         0         0         0         0         0         0
         0         0         0         0         0         0         0         0
         0         0         0         0         0         0         0         0
         0         0         0         0         0         0         0         0
         0         0         0         0         0         0         0         0
         0         0         0         0         0         0         0         0
         0         0         0         0         0         0         0         0
         0         0         0         0         0         0         0         0
         0         0         0         0         0         0         0         0
         0         0         0         0         0         0         0         0
         0         0         0         0         0         0         0         0
         0         0         0         0         0         0         0         0
         0         0         0         0         0         0         0         0
         0         0         0         0         0         0         0         0
         0         0         0         0         0         0         0         0
         0         0         0         0         0         0         0         0
         0         0         0         0         0         0         0         0
         0         0         0         0         0         0         0         0
         0         0         0         0         0         0         0         0
         0         0         0         0         0         0         0         0
         0         0         0         0         0         0         0         0
         0         0         0         0         0         0         0         0
         0         0         0         0         0         0         0         0
         0         0         0         0         0         0         0         0
         0         0         0         0         0         0         0         0
         0         0         0         0         0         0         0         0
         0         0         0         0         0         0         0         0
         0         0         0         0         0         0         0         0
         0         0         0         0         0         0         0         0
         0         0         0         0         0         0         0         0
         0         0         0         0         0         0         0         0
         0         0         0         0         0         0         0         0
         0         0         0         0         0         0         0         0
         0         0         0         0         0         0         0         0
         0         0         0         0         0         0         0         0
         0         0         0         0         0         0         0         0
         0         0         0         0         0         0         0         0
         0         0         0         0         0         0         0         0
         0         0         0         0         0         0         0         0
         0         0         0         0         0         0         0         0
         0         0         0         0         0         0         0         0
         0         0         0         0         0         0         0         0
         0         0         0         0         0         0         0         0
         0         0         0         0         0         0         0         0
         0         0         0         0         0         0         0         0
         0         0         0         0         0         0         0         0
         0         0         0         0         0         0         0         0
         0         0         0         0         0         0         0         0
         0         0         0         0         0         0         0         0
         0         0         0         0         0         0         0         0
         0         0         0         0         0         0         0         0
         0         0         0         0         0         0         0         0
         0         0         0         0         0         0         0         0
         0         0         0         0         0         0         0         0
         0         0         0         0         0         0         0         0
         0         0         0         0         0         0         0         0
         0         0         0         0         0         0         0         0
         0         0         0         0         0         0         0         0
         0         0         0         0         0         0         0         0
         0         0         0         0         0         0         0         0
         0         0         0         0         0         0         0         0
         0         0         0         0         0         0         0         0
         0         0         0         0         0         0         0         0
         0         0         0         0         0         0         0         0
         0         0         0         0         0         0         0         0
         0         0         0         0         0         0         0         0
         0         0         0         0         0         0         0         0
         0         0         0         0         0         0         0         0
         0         0         0         0         0         0         0         0
         0         0         0         0         0         0         0         0
         0         0         0         0         0         0         0         0
         0         0         0         0         0         0         0         0
         0         0         0         0         0         0         0         0
         0         0         0         0         0         0         0         0
         0         0         0         0         0         0         0         0
         0         0         0         0         0         0         0         0
         0         0         0         0         0         0         0         0
         0         0         0         0         0         0         0         0
         0         0         0         0         0         0         0         0
         0         0         0         0         0         0         0         0
         0         0         0         0         0         0         0         0
         0         0         0         0         0         0         0         0
         0         0         0         0         0         0         0         0
         0         0         0         0         0         0         0         0
         0         0         0         0         0         0         0         0
         0         0         0         0         0         0         0         0
         0         0         0         0         0         0         0         0
         0         0         0         0         0         0         0         0
         0         0         0         0         0         0         0         0
         0         0         0         0         0         0         0         0
         0         0         0         0         0         0         0         0
         0         0         0         0         0         0         0         0
         0         0         0         0         0         0         0         0
         0         0         0         0         0         0         0         0
         0         0         0         0         0         0         0         0
         0         0         0         0         0         0         0         0
         0         0         0         0         0         0         0         0
         0         0         0         0         0         0         0         0
         0         0         0         0         0         0         0         0
         0         0         0         0         0         0         0         0
         0         0         0         0         0         0         0         0
         0         0         0         0         0         0         0         0
         0         0         0         0         0         0         0         0
         0         0         0         0         0         0         0         0
         0         0         0         0         0         0         0         0
         0         0         0         0         0         0         0         0
         0         0         0         0         0         0         0         0
         0         0         0         0         0         0         0         0
         0         0         0         0         0         0         0         0
         0         0         0         0         0         0         0         0
         0         0         0         0         0         0         0         0
         0         0         0         0         0         0         0         0
         0         0         0         0         0         0         0         0
         0         0         0         0         0         0         0         0
         0         0         0         0         0         0         0         0
         0         0         0         0         0         0         0         0
         0         0         0         0         0         0         0         0
         0         0         0         0         0         0         0         0
         0         0         0         0         0         0         0         0
         0         0         0         0         0         0         0         0
         0         0         0         0         0         0         0         0
         0         0         0         0         0         0         0         0
         0         0         0         0         0         0         0         0
         0         0         0         0         0         0         0         0
         0         0         0         0         0         0         0         0
         0         0         0         0         0         0         0         0
         0         0         0         0         0         0         0         0
         0         0         0         0         0         0         0         0
         0         0         0         0         0         0         0         0
         0         0         0         0         0         0         0         0
         0         0         0         0         0         0         0         0
         0         0         0         0         0         0         0         0
         0         0         0         0         0         0         0         0
         0         0         0         0         0         0         0         0
         0         0         0         0         0         0         0         0
         0         0         0         0         0         0         0         0
         0         0         0         0         0         0         0         0
         0         0         0         0         0         0         0         0
         0         0         0         0         0         0         0         0
         0         0         0         0         0         0         0         0
         0         0         0         0         0         0         0         0
         0         0         0         0         0         0         0         0
         0         0         0         0         0         0         0         0
         0         0         0         0         0         0         0         0
         0         0         0         0         0         0         0         0
         0         0         0         0         0         0         0         0
         0         0         0         0         0         0         0         0
         0         0         0         0         0         0         0         0
         0         0         0         0         0         0         0         0
         0         0         0         0         0         0         0         0
         0         0         0         0         0         0         0         0
         0         0         0         0         0         0         0         0
         0         0         0         0         0         0         0         0
         0         0         0         0         0         0         0         0
         0         0         0         0         0         0         0         0
         0         0         0         0         0         0         0         0
         0         0         0         0         0         0         0         0
         0         0         0         0         0         0         0         0
         0         0         0         0         0         0         0         0
         0         0         0         0         0         0         0         0
         0         0         0         0         0         0         0         0
         0         0         0         0         0         0         0         0
         0         0         0         0         0         0         0         0
         0         0         0         0         0         0         0         0
         0         0         0         0         0         0         0         0
         0         0         0         0         0         0         0         0
         0         0         0         0         0         0         0         0
         0         0         0         0         0         0         0         0
         0         0         0         0         0         0         0         0
         0         0         0         0         0         0         0         0
         0         0         0         0         0         0         0         0
         0         0         0         0         0         0         0         0
         0         0         0         0         0         0         0         0
         0         0         0         0         0         0         0         0
         0         0         0         0         0         0         0         0
         0         0         0         0         0         0         0         0
         0         0         0         0         0         0         0         0
         0         0         0         0         0         0         0         0
         0         0         0         0         0         0         0         0
         0         0         0         0         0         0         0         0
         0         0         0         0         0         0         0         0
         0         0         0         0         0         0         0         0
         0         0         0         0         0         0         0         0
         0         0         0         0         0         0         0         0
         0         0         0         0         0         0         0         0
         0         0         0         0         0         0         0         0
         0         0         0         0         0         0         0         0
         0         0         0         0         0         0         0         0
         0         0         0         0         0         0         0         0
         0         0         0         0         0         0         0         0
         0         0         0         0         0         0         0         0
         0         0         0         0         0         0         0         0
         0         0         0         0         0         0         0         0
         0         0         0         0         0         0         0         0
         0         0         0         0         0         0         0         0
         0         0         0         0         0         0         0         0
         0         0         0         0         0         0         0         0
         0         0         0         0         0         0         0         0
         0         0         0         0         0         0         0         0
         0         0         0         0         0         0         0         0
         0         0         0         0         0         0         0         0
         0         0         0         0         0         0         0         0
         0         0         0         0         0         0         0         0
         0         0         0         0         0         0         0         0
         0         0         0         0         0         0         0         0
         0         0         0         0         0         0         0         0
         0         0         0         0         0         0         0         0
         0         0         0         0         0         0         0         0
         0         0         0         0         0         0         0         0
         0         0         0         0         0         0         0         0
         0         0         0         0         0         0         0         0
         0         0         0         0         0         0         0         0
         0         0         0         0         0         0         0         0
         0         0         0         0         0         0         0         0
         0         0         0         0         0         0         0         0
         0         0         0         0         0         0         0         0
         0         0         0         0         0         0         0         0
         0         0         0         0         0         0         0         0
         0         0         0         0         0         0         0         0
         0         0         0         0         0         0         0         0
         0         0         0         0         0         0         0         0
         0         0         0         0         0         0         0         0
         0         0         0         0         0         0         0         0
         0         0         0         0         0         0         0         0
         0         0         0         0         0         0         0         0
         0         0         0         0         0         0         0         0
         0         0         0         0         0         0         0         0
         0         0         0         0         0         0         0         0
         0         0         0         0         0         0         0         0
         0         0         0         0         0         0         0         0
         0         0         0         0         0         0         0         0
         0         0         0         0         0         0         0         0
         0         0         0         0         0         0         0         0
         0         0         0         0         0         0         0         0
         0         0         0         0         0         0         0         0
         0         0         0         0         0         0         0         0
         0         0         0         0         0         0         0         0
         0         0         0         0         0         0         0         0
         0         0         0         0         0         0         0         0
         0         0         0         0         0         0         0         0
         0         0         0         0         0         0         0         0
         0         0         0         0         0         0         0         0
         0         0         0         0         0         0         0         0
         0         0         0         0         0         0         0         0
         0         0         0         0         0         0         0         0
         0         0         0         0         0         0         0         0
         0         0         0         0         0         0         0         0
         0         0         0         0         0         0         0         0
         0         0         0         0         0         0         0         0
         0         0         0         0         0         0         0         0
         0         0         0         0         0         0         0         0
         0         0         0         0         0         0         0         0
         0         0         0         0         0         0         0         0
         0         0         0         0         0         0         0         0
         0         0         0         0         0         0         0         0
         0         0         0         0         0         0         0         0
         0         0         0         0         0         0         0         0
         0         0         0         0         0         0         0         0
         0         0         0         0         0         0         0         0
         0         0         0         0         0         0         0         0
         0         0         0         0         0         0         0         0
         0         0         0         0         0         0         0         0
         0         0         0         0         0         0         0         0
         0         0         0         0         0         0         0         0
         0         0         0         0         0         0         0         0
         0         0         0         0         0         0         0         0
         0         0         0         0         0         0         0         0
         0         0         0         0         0         0         0         0
         0         0         0         0         0         0         0         0
         0         0         0         0         0         0         0         0
         0         0         0         0         0         0         0         0
         0         0         0         0         0         0         0         0
         0         0         0         0         0         0         0         0
         0         0         0         0         0         0         0         0
         0         0         0         0         0         0         0         0
         0         0         0         0         0         0         0         0
         0         0         0         0         0         0         0         0
         0         0         0         0         0         0         0         0
         0         0         0         0         0         0         0         0
         0         0         0         0         0         0         0         0
         0         0         0         0         0         0         0         0
         0         0         0         0         0         0         0         0
         0         0         0         0         0         0         0         0
         0         0         0         0         0         0         0         0
         0         0         0         0         0         0         0         0
         0         0         0         0         0         0         0         0
         0         0         0         0         0         0         0         0
         0         0         0         0         0         0         0         0
         0         0         0         0         0         0         0         0
         0         0         0         0         0         0         0         0
         0         0         0         0         0         0         0         0
         0         0         0         0         0         0         0         0
         0         0         0         0         0         0         0         0
         0         0         0         0         0         0         0         0
         0         0         0         0         0         0         0         0
         0         0         0         0         0         0         0         0
         0         0         0         0         0         0         0         0
         0         0         0         0         0         0         0         0
         0         0         0         0         0         0         0         0
         0         0         0         0         0         0         0         0
         0         0         0         0         0         0         0         0
         0         0         0         0         0         0         0         0
         0         0         0         0         0         0         0         0
         0         0         0         0         0         0         0         0
         0         0         0         0         0         0         0         0
         0         0         0         0         0         0         0         0
         0         0         0         0         0         0         0         0
         0         0         0         0         0         0         0         0
         0         0         0         0         0         0         0         0
         0         0         0         0         0         0         0         0
         0         0         0         0         0         0         0         0
         0         0         0         0         0         0         0         0
         0         0         0         0         0         0         0         0
         0         0         0         0         0         0         0         0
         0         0         0         0         0         0         0         0
         0         0         0         0         0         0         0         0
         0         0         0         0         0         0         0         0
         0         0         0         0         0         0         0         0
         0         0         0         0         0         0         0         0
         0         0         0         0         0         0         0         0
         0         0         0         0         0         0         0         0
         0         0         0         0         0         0         0         0
         0         0         0         0         0         0         0         0
         0         0         0         0         0         0         0         0
         0         0         0         0         0         0         0         0
         0         0         0         0         0         0         0         0
         0         0         0         0         0         0         0         0
         0         0         0         0         0         0         0         0
         0         0         0         0         0         0         0         0
         0         0         0         0         0         0         0         0
         0         0         0         0         0         0         0         0
         0         0         0         0         0         0         0         0
         0         0         0         0         0         0         0         0
         0         0         0         0         0         0         0         0
         0         0         0         0         0         0         0         0
         0         0         0         0         0         0         0         0
         0         0         0         0         0         0         0         0
         0         0         0         0         0         0         0         0
         0         0         0         0         0         0         0         0
         0         0         0         0         0         0         0         0
         0         0         0         0         0         0         0         0
         0         0         0         0         0         0         0         0
         0         0         0         0         0         0         0         0
         0         0         0         0         0         0         0         0
         0         0         0         0         0         0         0         0
         0         0         0         0         0         0         0         0
         0         0         0         0         0         0         0         0
         0         0         0         0         0         0         0         0
         0         0         0         0         0         0         0         0
         0         0         0         0         0         0         0         0
         0         0         0         0         0         0         0         0
         0         0         0         0         0         0         0         0
         0         0         0         0         0         0         0         0
         0         0         0         0         0         0         0         0
         0         0         0         0         0         0         0         0
         0         0         0         0         0         0         0         0
         0         0         0         0         0         0         0         0
         0         0         0         0         0         0         0         0
         0         0         0         0         0         0         0         0
         0         0         0         0         0         0         0         0
         0         0         0         0         0         0         0         0
         0         0         0         0         0         0         0         0
         0         0         0         0         0         0         0         0
         0         0         0         0         0         0         0         0
         0         0         0         0         0         0         0         0
         0         0         0         0         0         0         0         0
         0         0         0         0         0         0         0         0
         0         0         0         0         0         0         0         0
         0         0         0         0         0         0         0         0
         0         0         0         0         0         0         0         0
         0         0         0         0         0         0         0         0
         0         0         0         0         0         0         0         0
         0         0         0         0         0         0         0         0
         0         0         0         0         0         0         0         0
         0         0         0         0         0         0         0         0
         0         0         0         0         0         0         0         0
         0         0         0         0         0         0         0         0
         0         0         0         0         0         0         0         0
         0         0         0         0         0         0         0         0
         0         0         0         0         0         0         0         0
         0         0         0         0         0         0         0         0
         0         0         0         0         0         0         0         0
         0         0         0         0         0         0         0         0
         0         0         0         0         0         0         0         0
         0         0         0         0         0         0         0         0
         0         0         0         0         0         0         0         0
         0         0         0         0         0         0         0         0
         0         0         0         0         0         0         0         0
         0         0         0         0         0         0         0         0
         0         0         0         0         0         0         0         0
         0         0         0         0         0         0         0         0
         0         0         0         0         0         0         0         0
         0         0         0         0         0         0         0         0
         0         0         0         0         0         0         0         0
         0         0         0         0         0         0         0         0
         0         0         0         0         0         0         0         0
         0         0         0         0         0         0         0         0
         0         0         0         0         0         0         0         0
         0         0         0         0         0         0         0         0
         0         0         0         0         0         0         0         0
         0         0         0         0         0         0         0         0
         0         0         0         0         0         0         0         0
         0         0         0         0         0         0         0         0
         0         0         0         0         0         0         0         0
         0         0         0         0         0         0         0         0
         0         0         0         0         0         0         0         0
         0         0         0         0         0         0         0         0
         0         0         0         0         0         0         0         0
         0         0         0         0         0         0         0         0
         0         0         0         0         0         0         0         0
         0         0         0         0         0         0         0         0
         0         0         0         0         0         0         0         0
         0         0         0         0         0         0         0         0
         0         0         0         0         0         0         0         0
         0         0         0         0         0         0         0         0
         0         0         0         0         0         0         0         0
         0         0         0         0         0         0         0         0
         0         0         0         0         0         0         0         0
         0         0         0         0         0         0         0         0
         0         0         0         0         0         0         0         0
         0         0         0         0         0         0         0         0
         0         0         0         0         0         0         0         0
         0         0         0         0         0         0         0         0
         0         0         0         0         0         0         0         0
         0         0         0         0         0         0         0         0
         0         0         0         0         0         0         0         0
         0         0         0         0         0         0         0         0
         0         0         0         0         0         0         0         0
         0         0         0         0         0         0         0         0
         0         0         0         0         0         0         0         0
         0         0         0         0         0         0         0         0
         0         0         0         0         0         0         0         0
         0         0         0         0         0         0         0         0
         0         0         0         0         0         0         0         0
         0         0         0         0         0         0         0         0
         0         0         0         0         0         0         0         0
         0         0         0         0         0         0         0         0
         0         0         0         0         0         0         0         0
         0         0         0         0         0         0         0         0
         0         0         0         0         0         0         0         0
         0         0         0         0         0         0         0         0
         0         0         0         0         0         0         0         0
         0         0         0         0         0         0         0         0
         0         0         0         0         0         0         0         0
         0         0         0         0         0         0         0         0
         0         0         0         0         0         0         0         0
         0         0         0         0         0         0         0         0
         0         0         0         0         0         0         0         0
         0         0         0         0         0         0         0         0
         0         0         0         0         0         0         0         0
         0         0         0         0         0         0         0         0
         0         0         0         0         0         0         0         0
         0         0         0         0         0         0         0         0
         0         0         0         0         0         0         0         0
         0         0         0         0         0         0         0         0
         0         0         0         0         0         0         0         0
         0         0         0         0         0         0         0         0
         0         0         0         0         0         0         0         0
         0         0         0         0         0         0         0         0
         0         0         0         0         0         0         0         0
         0         0         0         0         0         0         0         0
         0         0         0         0         0         0         0         0
         0         0         0         0         0         0         0         0
         0         0         0         0         0         0         0         0
         0         0         0         0         0         0         0         0
         0         0         0         0         0         0         0         0
         0         0         0         0         0         0         0         0
         0         0         0         0         0         0         0         0
         0         0         0         0         0         0         0         0
         0         0         0         0         0         0         0         0
         0         0         0         0         0         0         0         0
         0         0         0         0         0         0         0         0
         0         0         0         0         0         0         0         0
         0         0         0         0         0         0         0         0
         0         0         0         0         0         0         0         0
         0         0         0         0         0         0         0         0
         0         0         0         0         0         0         0         0
         0         0         0         0         0         0         0         0
         0         0         0         0         0         0         0         0
         0         0         0         0         0         0         0         0
         0         0         0         0         0         0         0         0
         0         0         0         0         0         0         0         0
         0         0         0         0         0         0         0         0
         0         0         0         0         0         0         0         0
         0         0         0         0         0         0         0         0
         0         0         0         0         0         0         0         0
         0         0         0         0         0         0         0         0
         0         0         0         0         0         0         0         0
         0         0         0         0         0         0         0         0
         0         0         0         0         0         0         0         0
         0         0         0         0         0         0         0         0
         0         0         0         0         0         0         0         0
         0         0         0         0         0         0         0         0
         0         0         0         0         0         0         0         0
         0         0         0         0         0         0         0         0
         0         0         0         0         0         0         0         0
         0         0         0         0         0         0         0         0
         0         0         0         0         0         0         0         0
         0         0         0         0         0         0         0         0
         0         0         0         0         0         0         0         0
         0         0         0         0         0         0         0         0
         0         0         0         0         0         0         0         0
         0         0         0         0         0         0         0         0
         0         0         0         0         0         0         0         0
         0         0         0         0         0         0         0         0
         0         0         0         0         0         0         0         0
         0         0         0         0         0         0         0         0
         0         0         0         0         0         0         0         0
         0         0         0         0         0         0         0         0
         0         0         0         0         0         0         0         0
         0         0         0         0         0         0         0         0
         0         0         0         0         0         0         0         0
         0         0         0         0         0         0         0         0
         0         0         0         0         0         0         0         0
         0         0         0         0         0         0         0         0
         0         0         0         0         0         0         0         0
         0         0         0         0         0         0         0         0
         0         0         0         0         0         0         0         0
         0         0         0         0         0         0         0         0
         0         0         0         0         0         0         0         0
         0         0         0         0         0         0         0         0
         0         0         0         0         0         0         0         0
         0         0         0         0         0         0         0         0
         0         0         0         0         0         0         0         0
         0         0         0         0         0         0         0         0
         0         0         0         0         0         0         0         0
         0         0         0         0         0         0         0         0
         0         0         0         0         0         0         0         0
         0         0         0         0         0         0         0         0
         0         0         0         0         0         0         0         0
         0         0         0         0         0         0         0         0
         0         0         0         0         0         0         0         0
         0         0         0         0         0         0         0         0
         0         0         0         0         0         0         0         0
         0         0         0         0         0         0         0         0
         0         0         0         0         0         0         0         0
         0         0         0         0         0         0         0         0
         0         0         0         0         0         0         0         0
         0         0         0         0         0         0         0         0
         0         0         0         0         0         0         0         0
         0         0         0         0         0         0         0         0
         0         0         0         0         0         0         0         0
         0         0         0         0         0         0         0         0
         0         0         0         0         0         0         0         0
         0         0         0         0         0         0         0         0
         0         0         0         0         0         0         0         0
         0         0         0         0         0         0         0         0
         0         0         0         0         0         0         0         0
         0         0         0         0         0         0         0         0
         0         0         0         0         0         0         0         0
         0         0         0         0         0         0         0         0
         0         0         0         0         0         0         0         0
         0         0         0         0         0         0         0         0
         0         0         0         0         0         0         0         0
         0         0         0         0         0         0         0         0
         0         0         0         0         0         0         0         0
         0         0         0         0         0         0         0         0
         0         0         0         0         0         0         0         0
         0         0         0         0         0         0         0         0
         0         0         0         0         0         0         0         0
         0         0         0         0         0         0         0         0
         0         0         0         0         0         0         0         0
         0         0         0         0         0         0         0         0
         0         0         0         0         0         0         0         0
         0         0         0         0         0         0         0         0
         0         0         0         0         0         0         0         0
         0         0         0         0         0         0         0         0
         0         0         0         0         0         0         0         0
         0         0         0         0         0         0         0         0
         0         0         0         0         0         0         0         0
         0         0         0         0         0         0         0         0
         0         0         0         0         0         0         0         0
         0         0         0         0         0         0         0         0
         0         0         0         0         0         0         0         0
         0         0         0         0         0         0         0         0
         0         0         0         0         0         0         0         0
         0         0         0         0         0         0         0         0
         0         0         0         0         0         0         0         0
         0         0         0         0         0         0         0         0
         0         0         0         0         0         0         0         0
         0         0         0         0         0         0         0         0
         0         0         0         0         0         0         0         0
         0         0         0         0         0         0         0         0
         0         0         0         0         0         0         0         0
         0         0         0         0         0         0         0         0
         0         0         0         0         0         0         0         0
         0         0         0         0         0         0         0         0
         0         0         0         0         0         0         0         0
         0         0         0         0         0         0         0         0
         0         0         0         0         0         0         0         0
         0         0         0         0         0         0         0         0
         0         0         0         0         0         0         0         0
         0         0         0         0         0         0         0         0
         0         0         0         0         0         0         0         0
         0         0         0         0         0         0         0         0
         0         0         0         0         0         0         0         0
         0         0         0         0         0         0         0         0
         0         0         0         0         0         0         0         0
         0         0         0         0         0         0         0         0
         0         0         0         0         0         0         0         0
         0         0         0         0         0         0         0         0
         0         0         0         0         0         0         0         0
         0         0         0         0         0         0         0         0
         0         0         0         0         0         0         0         0
         0         0         0         0         0         0         0         0
         0         0         0         0         0         0         0         0
         0         0         0         0         0         0         0         0
         0         0         0         0         0         0         0         0
         0         0         0         0         0         0         0         0
         0         0         0         0         0         0         0         0
         0         0         0         0         0         0         0         0
         0         0         0         0         0         0         0         0
         0         0         0         0         0         0         0         0
         0         0         0         0         0         0         0         0
         0         0         0         0         0         0         0         0
         0         0         0         0         0         0         0         0
         0         0         0         0         0         0         0         0
         0         0         0         0         0         0         0         0
         0         0         0         0         0         0         0         0
         0         0         0         0         0         0         0         0
         0         0         0         0         0         0         0         0
         0         0         0         0         0         0         0         0
         0         0         0         0         0         0         0         0
         0         0         0         0         0         0         0         0
         0         0         0         0         0         0         0         0
         0         0         0         0         0         0         0         0
         0         0         0         0         0         0         0         0
         0         0         0         0         0         0         0         0
         0         0         0         0         0         0         0         0
         0         0         0         0         0         0         0         0
         0         0         0         0         0         0         0         0
         0         0         0         0         0         0         0         0
         0         0         0         0         0         0         0         0
         0         0         0         0         0         0         0         0
         0         0         0         0         0         0         0         0
         0         0         0         0         0         0         0         0
         0         0         0         0         0         0         0         0
         0         0         0         0         0         0         0         0
         0         0         0         0         0         0         0         0
         0         0         0         0         0         0         0         0
         0         0         0         0         0         0         0         0
         0         0         0         0         0         0         0         0
         0         0         0         0         0         0         0         0
         0         0         0         0         0         0         0         0
         0         0         0         0         0         0         0         0
         0         0         0         0         0         0         0         0
         0         0         0         0         0         0         0         0
         0         0         0         0         0         0         0         0
         0         0         0         0         0         0         0         0
         0         0         0         0         0         0         0         0
         0         0         0         0         0         0         0         0
         0         0         0         0         0         0         0         0
         0         0         0         0         0         0         0         0
         0         0         0         0         0         0         0         0
         0         0         0         0         0         0         0         0
         0         0         0         0         0         0         0         0
         0         0         0         0         0         0         0         0
         0         0         0         0         0         0         0         0
         0         0         0         0         0         0         0         0
         0         0         0         0         0         0         0         0
         0         0         0         0         0         0         0         0
         0         0         0         0         0         0         0         0
         0         0         0         0         0         0         0         0
         0         0         0         0         0         0         0         0
         0         0         0         0         0         0         0         0
         0         0         0         0         0         0         0         0
         0         0         0         0         0         0         0         0
         0         0         0         0         0         0         0         0
         0         0         0         0         0         0         0         0
         0         0         0         0         0         0         0         0
         0         0         0         0         0         0         0         0
         0         0         0         0         0         0         0         0
         0         0         0         0         0         0         0         0
         0         0         0         0         0         0         0         0
         0         0         0         0         0         0         0         0
         0         0         0         0         0         0         0         0
         0         0         0         0         0         0         0         0
         0         0         0         0         0         0         0         0
         0         0         0         0         0         0         0         0
         0         0         0         0         0         0         0         0
         0         0         0         0         0         0         0         0
         0         0         0         0         0         0         0         0
         0         0         0         0         0         0         0         0
         0         0         0         0         0         0         0         0
         0         0         0         0         0         0         0         0
         0         0         0         0         0         0         0         0
         0         0         0         0         0         0         0         0
         0         0         0         0         0         0         0         0
         0         0         0         0         0         0         0         0
         0         0         0         0         0         0         0         0
         0         0         0         0         0         0         0         0
         0         0         0         0         0         0         0         0
         0         0         0         0         0         0         0         0
         0         0         0         0         0         0         0         0
         0         0         0         0         0         0         0         0
         0         0         0         0         0         0         0         0
         0         0         0         0         0         0         0         0
         0         0         0         0         0         0         0         0
         0         0         0         0         0         0         0         0
         0         0         0         0         0         0         0         0
         0         0         0         0         0         0         0         0
         0         0         0         0         0         0         0         0
         0         0         0         0         0         0         0         0
         0         0         0         0         0         0         0         0
         0         0         0         0         0         0         0         0
         0         0         0         0         0         0         0         0
         0         0         0         0         0         0         0         0
         0         0         0         0         0         0         0         0
         0         0         0         0         0         0         0         0
         0         0         0         0         0         0         0         0
         0         0         0         0         0         0         0         0
         0         0         0         0         0         0         0         0
         0         0         0         0         0         0         0         0
         0         0         0         0         0         0         0         0
         0         0         0         0         0         0         0         0
         0         0         0         0         0         0         0         0
         0         0         0         0         0         0         0         0
         0         0         0         0         0         0         0         0
         0         0         0         0         0         0         0         0
         0         0         0         0         0         0         0         0
         0         0         0         0         0         0         0         0
         0         0         0         0         0         0         0         0
         0         0         0         0         0         0         0         0
         0         0         0         0         0         0         0         0
         0         0         0         0         0         0         0         0
         0         0         0         0         0         0         0         0
         0         0         0         0         0         0         0         0
         0         0         0         0         0         0         0         0
         0         0         0         0         0         0         0         0
         0         0         0         0         0         0         0         0
         0         0         0         0         0         0         0         0
         0         0         0         0         0         0         0         0
         0         0         0         0         0         0         0         0
         0         0         0         0         0         0         0         0
         0         0         0         0         0         0         0         0
         0         0         0         0         0         0         0         0
         0         0         0         0         0         0         0         0
         0         0         0         0         0         0         0         0
         0         0         0         0         0         0         0         0
         0         0         0         0         0         0         0         0
         0         0         0         0         0         0         0         0
         0         0         0         0         0         0         0         0
         0         0         0         0         0         0         0         0
         0         0         0         0         0         0         0         0
         0         0         0         0         0         0         0         0
         0         0         0         0         0         0         0         0
         0         0         0         0         0         0         0         0
         0         0         0         0         0         0         0         0
         0         0         0         0         0         0         0         0
         0         0         0         0         0         0         0         0
         0         0         0         0         0         0         0         0
         0         0         0         0         0         0         0         0
         0         0         0         0         0         0         0         0
         0         0         0         0         0         0         0         0
         0         0         0         0         0         0         0         0
         0         0         0         0         0         0         0         0
         0         0         0         0         0         0         0         0
         0         0         0         0         0         0         0         0
         0         0         0         0         0         0         0         0
         0         0         0         0         0         0         0         0
         0         0         0         0         0         0         0         0
         0         0         0         0         0         0         0         0
         0         0         0         0         0         0         0         0
         0         0         0         0         0         0         0         0
         0         0         0         0         0         0         0         0
         0         0         0         0         0         0         0         0
         0         0         0         0         0         0         0         0
         0         0         0         0         0         0         0         0
         0         0         0         0         0         0         0         0
         0         0         0         0         0         0         0         0
         0         0         0         0         0         0         0         0
         0         0         0         0         0         0         0         0
         0         0         0         0         0         0         0         0
         0         0         0         0         0         0         0         0
         0         0         0         0         0         0         0         0
         0         0         0         0         0         0         0         0
         0         0         0         0         0         0         0         0
         0         0         0         0         0         0         0         0
         0         0         0         0         0         0         0         0
         0         0         0         0         0         0         0         0
         0         0         0         0         0         0         0         0
         0         0         0         0         0         0         0         0
         0         0         0         0         0         0         0         0
         0         0         0         0         0         0         0         0
         0         0         0         0         0         0         0         0
         0         0         0         0         0         0         0         0
         0         0         0         0         0         0         0         0
         0         0         0         0         0         0         0         0
         0         0         0         0         0         0         0         0
         0         0         0         0         0         0         0         0
         0         0         0         0         0         0         0         0
         0         0         0         0         0         0         0         0
         0         0         0         0         0         0         0         0
         0         0         0         0         0         0         0         0
         0         0         0         0         0         0         0         0
         0         0         0         0         0         0         0         0
         0         0         0         0         0         0         0         0
         0         0         0         0         0         0         0         0
         0         0         0         0         0         0         0         0
         0         0         0         0         0         0         0         0
         0         0         0         0         0         0         0         0
         0         0         0         0         0         0         0         0
         0         0         0         0         0         0         0         0
         0         0         0         0         0         0         0         0
         0         0         0         0         0         0         0         0
         0         0         0         0         0         0         0         0
         0         0         0         0         0         0         0         0
         0         0         0         0         0         0         0         0
         0         0         0         0         0         0         0         0
         0         0         0         0         0         0         0         0
         0         0         0         0         0         0         0         0
         0         0         0         0         0         0         0         0
         0         0         0         0         0         0         0         0
         0         0         0         0         0         0         0         0
         0         0         0         0         0         0         0         0
         0         0         0         0         0         0         0         0
         0         0         0         0         0         0         0         0
         0         0         0         0         0         0         0         0
         0         0         0         0         0         0         0         0
         0         0         0         0         0         0         0         0
         0         0         0         0         0         0         0         0
         0         0         0         0         0         0         0         0
         0         0         0         0         0         0         0         0
         0         0         0         0         0         0         0         0
         0         0         0         0         0         0         0         0
         0         0         0         0         0         0         0         0
         0         0         0         0         0         0         0         0
         0         0         0         0         0         0         0         0
         0         0         0         0         0         0         0         0
         0         0         0         0         0         0         0         0
         0         0         0         0         0         0         0         0
         0         0         0         0         0         0         0         0
         0         0         0         0         0         0         0         0
         0         0         0         0         0         0         0         0
         0         0         0         0         0         0         0         0
         0         0         0         0         0         0         0         0
         0         0         0         0         0         0         0         0
         0         0         0         0         0         0         0         0
         0         0         0         0         0         0         0         0
         0         0         0         0         0         0         0         0
         0         0         0         0         0         0         0         0
         0         0         0         0         0         0         0         0
         0         0         0         0         0         0         0         0
         0         0         0         0         0         0         0         0
         0         0         0         0         0         0         0         0
         0         0         0         0         0         0         0         0
         0         0         0         0         0         0         0         0
         0         0         0         0         0         0         0         0
         0         0         0         0         0         0         0         0
         0         0         0         0         0         0         0         0
         0         0         0         0         0         0         0         0
         0         0         0         0         0         0         0         0
         0         0         0         0         0         0         0         0
         0         0         0         0         0         0         0         0
         0         0         0         0         0         0         0         0
         0         0         0         0         0         0         0         0
         0         0         0         0         0         0         0         0
         0         0         0         0         0         0         0         0
         0         0         0         0         0         0         0         0
         0         0         0         0         0         0         0         0
         0         0         0         0         0         0         0         0
         0         0         0         0         0         0         0         0
         0         0         0         0         0         0         0         0
         0         0         0         0         0         0         0         0
         0         0         0         0         0         0         0         0
         0         0         0         0         0         0         0         0
         0         0         0         0         0         0         0         0
         0         0         0         0         0         0         0         0
         0         0         0         0         0         0         0         0
         0         0         0         0         0         0         0         0
         0         0         0         0         0         0         0         0
         0         0         0         0         0         0         0         0
         0         0         0         0         0         0         0         0
         0         0         0         0         0         0         0         0
         0         0         0         0         0         0         0         0
         0         0         0         0         0         0         0         0
         0         0         0         0         0         0         0         0
         0         0         0         0         0         0         0         0
         0         0         0         0         0         0         0         0
         0         0         0         0         0         0         0         0
         0         0         0         0         0         0         0         0
         0         0         0         0         0         0         0         0
         0         0         0         0         0         0         0         0
         0         0         0         0         0         0         0         0
         0         0         0         0         0         0         0         0
         0         0         0         0         0         0         0         0
         0         0         0         0         0         0         0         0
         0         0         0         0         0         0         0         0
         0         0         0         0         0         0         0         0
         0         0         0         0         0         0         0         0
         0         0         0         0         0         0         0         0
         0         0         0         0         0         0         0         0
         0         0         0         0         0         0         0         0
         0         0         0         0         0         0         0         0
         0         0         0         0         0         0         0         0
         0         0         0         0         0         0         0         0
         0         0         0         0         0         0         0         0
         0         0         0         0         0         0         0         0
         0         0         0         0         0         0         0         0
         0         0         0         0         0         0         0         0
         0         0         0         0         0         0         0         0
         0         0         0         0         0         0         0         0
         0         0         0         0         0         0         0         0
         0         0         0         0         0         0         0         0
         0         0         0         0         0         0         0         0
         0         0         0         0         0         0         0         0
         0         0         0         0         0         0         0         0
         0         0         0         0         0         0         0         0
         0         0         0         0         0         0         0         0
         0         0         0         0         0         0         0         0
         0         0         0         0         0         0         0         0
         0         0         0         0         0         0         0         0
         0         0         0         0         0         0         0         0
         0         0         0         0         0         0         0         0
         0         0         0         0         0         0         0         0
         0         0         0         0         0         0         0         0
         0         0         0         0         0         0         0         0
         0         0         0         0         0         0         0         0
         0         0         0         0         0         0         0         0
         0         0         0         0         0         0         0         0
         0         0         0         0         0         0         0         0
         0         0         0         0         0         0         0         0
         0         0         0         0         0         0         0         0
         0         0         0         0         0         0         0         0
         0         0         0         0         0         0         0         0
         0         0         0         0         0         0         0         0
         0         0         0         0         0         0         0         0
         0         0         0         0         0         0         0         0
         0         0         0         0         0         0         0         0
         0         0         0         0         0         0         0         0
         0         0         0         0         0         0         0         0
         0         0         0         0         0         0         0         0
         0         0         0         0         0         0         0         0
         0         0         0         0         0         0         0         0
         0         0         0         0         0         0         0         0
         0         0         0         0         0         0         0         0
         0         0         0         0         0         0         0         0
         0         0         0         0         0         0         0         0
         0         0         0         0         0         0         0         0
         0         0         0         0         0         0         0         0
         0         0         0         0         0         0         0         0
         0         0         0         0         0         0         0         0
         0         0         0         0         0         0         0         0
         0         0         0         0         0         0         0         0
         0         0         0         0         0         0         0         0
         0         0         0         0         0         0         0         0
         0         0         0         0         0         0         0         0
         0         0         0         0         0         0         0         0
         0         0         0         0         0         0         0         0
         0         0         0         0         0         0         0         0
         0         0         0         0         0         0         0         0
         0         0         0         0         0         0         0         0
         0         0         0         0         0         0         0         0
         0         0         0         0         0         0         0         0
         0         0         0         0         0         0         0         0
         0         0         0         0         0         0         0         0
         0         0         0         0         0         0         0         0
         0         0         0         0         0         0         0         0
         0         0         0         0         0         0         0         0
         0         0         0         0         0         0         0         0
         0         0         0         0         0         0         0         0
         0         0         0         0         0         0         0         0
         0         0         0         0         0         0         0         0
         0         0         0         0         0         0         0         0
         0         0         0         0         0         0         0         0
         0         0         0         0         0         0         0         0
         0         0         0         0         0         0         0         0
         0         0         0         0         0         0         0         0
         0         0         0         0         0         0         0         0
         0         0         0         0         0         0         0         0
         0         0         0         0         0         0         0         0
         0         0         0         0         0         0         0         0
         0         0         0         0         0         0         0         0
         0         0         0         0         0         0         0         0
         0         0         0         0         0         0         0         0
         0         0         0         0         0         0         0         0
         0         0         0         0         0         0         0         0
         0         0         0         0         0         0         0         0
         0         0         0         0         0         0         0         0
         0         0         0         0         0         0         0         0
         0         0         0         0         0         0         0         0
         0         0         0         0         0         0         0         0
         0         0         0         0         0         0         0         0
         0         0         0         0         0         0         0         0
         0         0         0         0         0         0         0         0
         0         0         0         0         0         0         0         0
         0         0         0         0         0         0         0         0
         0         0         0         0         0         0         0         0
         0         0         0         0         0         0         0         0
         0         0         0         0         0         0         0         0
         0         0         0         0         0         0         0         0
         0         0         0         0         0         0         0         0
         0         0         0         0         0         0         0         0
         0         0         0         0         0         0         0         0
         0         0         0         0         0         0         0         0
         0         0         0         0         0         0         0         0
         0         0         0         0         0         0         0         0
         0         0         0         0         0         0         0         0
         0         0         0         0         0         0         0         0
         0         0         0         0         0         0         0         0
         0         0         0         0         0         0         0         0
         0         0         0         0         0         0         0         0
         0         0         0         0         0         0         0         0
         0         0         0         0         0         0         0         0
         0         0         0         0         0         0         0         0
         0         0         0         0         0         0         0         0
         0         0         0         0         0         0         0         0
         0         0         0         0         0         0         0         0
         0         0         0         0         0         0         0         0
         0         0         0         0         0         0         0         0
         0         0         0         0         0         0         0         0
         0         0         0         0         0         0         0         0
         0         0         0         0         0         0         0         0
         0         0         0         0         0         0         0         0
         0         0         0         0         0         0         0         0
         0         0         0         0         0         0         0         0
         0         0         0         0         0         0         0         0
         0         0         0         0         0         0         0         0
         0         0         0         0         0         0         0         0
         0         0         0         0         0         0         0         0
         0         0         0         0         0         0         0         0
         0         0         0         0         0         0         0         0
         0         0         0         0         0         0         0         0
         0         0         0         0         0         0         0         0
         0         0         0         0         0         0         0         0
         0         0         0         0         0         0         0         0
         0         0         0         0         0         0         0         0
         0         0         0         0         0         0         0         0
         0         0         0         0         0         0         0         0
         0         0         0         0         0         0         0         0
         0         0         0         0         0         0         0         0
         0         0         0         0         0         0         0         0
         0         0         0         0         0         0         0         0
         0         0         0         0         0         0         0         0
         0         0         0         0         0         0         0         0
         0         0         0         0         0         0         0         0
         0         0         0         0         0         0         0         0
         0         0         0         0         0         0         0         0
         0         0         0         0         0         0         0         0
         0         0         0         0         0         0         0         0
         0         0         0         0         0         0         0         0
         0         0         0         0         0         0         0         0
         0         0         0         0         0         0         0         0
         0         0         0         0         0         0         0         0
         0         0         0         0         0         0         0         0
         0         0         0         0         0         0         0         0
         0         0         0         0         0         0         0         0
         0         0         0         0         0         0         0         0
         0         0         0         0         0         0         0         0
         0         0         0         0         0         0         0         0
         0         0         0         0         0         0         0         0
         0         0         0         0         0         0         0         0
         0         0         0         0         0         0         0         0
         0         0         0         0         0         0         0         0
         0         0         0         0         0         0         0         0
         0         0         0         0         0         0         0         0
         0         0         0         0         0         0         0         0
         0         0         0         0         0         0         0         0
         0         0         0         0         0         0         0         0
         0         0         0         0         0         0         0         0
         0         0         0         0         0         0         0         0
         0         0         0         0         0         0         0         0
         0         0         0         0         0         0         0         0
         0         0         0         0         0         0         0         0
         0         0         0         0         0         0         0         0
         0         0         0         0         0         0         0         0
         0         0         0         0         0         0         0         0
         0         0         0         0         0         0         0         0
         0         0         0         0         0         0         0         0
         0         0         0         0         0         0         0         0
         0         0         0         0         0         0         0         0
         0         0         0         0         0         0         0         0
         0         0         0         0         0         0         0         0
         0         0         0         0         0         0         0         0
         0         0         0         0         0         0         0         0
         0         0         0         0         0         0         0         0
         0         0         0         0         0         0         0         0
         0         0         0         0         0         0         0         0
         0         0         0         0         0         0         0         0
         0         0         0         0         0         0         0         0
         0         0         0         0         0         0         0         0
         0         0         0         0         0         0         0         0
         0         0         0         0         0         0         0         0
         0         0         0         0         0         0         0         0
         0         0         0         0         0         0         0         0
         0         0         0         0         0         0         0         0
         0         0         0         0         0         0         0         0
         0         0         0         0         0         0         0         0
         0         0         0         0         0         0         0         0
         0         0         0         0         0         0         0         0
         0         0         0         0         0         0         0         0
         0         0         0         0         0         0         0         0
         0         0         0         0         0         0         0         0
         0         0         0         0         0         0         0         0
         0         0         0         0         0         0         0         0
         0         0         0         0         0         0         0         0
         0         0         0         0         0         0         0         0
         0         0         0         0         0         0         0         0
         0         0         0         0         0         0         0         0
         0         0         0         0         0         0         0         0
         0         0         0         0         0         0         0         0
         0         0         0         0         0         0         0         0
         0         0         0         0         0         0         0         0
         0         0         0         0         0         0         0         0
         0         0         0         0         0         0         0         0
         0         0         0         0         0         0         0         0
         0         0         0         0         0         0         0         0
         0         0         0         0         0         0         0         0
         0         0         0         0         0         0         0         0
         0         0         0         0         0         0         0         0
         0         0         0         0         0         0         0         0
         0         0         0         0         0         0         0         0
         0         0         0         0         0         0         0         0
         0         0         0         0         0         0         0         0
         0         0         0         0         0         0         0         0
         0         0         0         0         0         0         0         0
         0         0         0         0         0         0         0         0
         0         0         0         0         0         0         0         0
         0         0         0         0         0         0         0         0
         0         0         0         0         0         0         0         0
         0         0         0         0         0         0         0         0
         0         0         0         0         0         0         0         0
         0         0         0         0         0         0         0         0
         0         0         0         0         0         0         0         0
         0         0         0         0         0         0         0         0
         0         0         0         0         0         0         0         0
         0         0         0         0         0         0         0         0
         0         0         0         0         0         0         0         0
         0         0         0         0         0         0         0         0
         0         0         0         0         0         0         0         0
         0         0         0         0         0         0         0         0
         0         0         0         0         0         0         0         0
         0         0         0         0         0         0         0         0
         0         0         0         0         0         0         0         0
         0         0         0         0         0         0         0         0
         0         0         0         0         0         0         0         0
         0         0         0         0         0         0         0         0
         0         0         0         0         0         0         0         0
         0         0         0         0         0         0         0         0
         0         0         0         0         0         0         0         0
         0         0         0         0         0         0         0         0
         0         0         0         0         0         0         0         0
         0         0         0         0         0         0         0         0
         0         0         0         0         0         0         0         0
         0         0         0         0         0         0         0         0
         0         0         0         0         0         0         0         0
         0         0         0         0         0         0         0         0
         0         0         0         0         0         0         0         0
         0         0         0         0         0         0         0         0
         0         0         0         0         0         0         0         0
         0         0         0         0         0         0         0         0
         0         0         0         0         0         0         0         0
         0         0         0         0         0         0         0         0
         0         0         0         0         0         0         0         0
         0         0         0         0         0         0         0         0
         0         0         0         0         0         0         0         0
         0         0         0         0         0         0         0         0
         0         0         0         0         0         0         0         0
         0         0         0         0         0         0         0         0
         0         0         0         0         0         0         0         0
         0         0         0         0         0         0         0         0
         0         0         0         0         0         0         0         0
         0         0         0         0         0         0         0         0
         0         0         0         0         0         0         0         0
         0         0         0         0         0         0         0         0
         0         0         0         0         0         0         0         0
         0         0         0         0         0         0         0         0
         0         0         0         0         0         0         0         0
         0         0         0         0         0         0         0         0
         0         0         0         0         0         0         0         0
         0         0         0         0         0         0         0         0
         0         0         0         0         0         0         0         0
         0         0         0         0         0         0         0         0
         0         0         0         0         0         0         0         0
         0         0         0         0         0         0         0         0
         0         0         0         0         0         0         0         0
         0         0         0         0         0         0         0         0
         0         0         0         0         0         0         0         0
         0         0         0         0         0         0         0         0
         0         0         0         0         0         0         0         0
         0         0         0         0         0         0         0         0
         0         0         0         0         0         0         0         0
         0         0         0         0         0         0         0         0
         0         0         0         0         0         0         0         0
         0         0         0         0         0         0         0         0
         0         0         0         0         0         0         0         0
         0         0         0         0         0         0         0         0
         0         0         0         0         0         0         0         0
         0         0         0         0         0         0         0         0
         0         0         0         0         0         0         0         0
         0         0         0         0         0         0         0         0
         0         0         0         0         0         0         0         0
         0         0         0         0         0         0         0         0
         0         0         0         0         0         0         0         0
         0         0         0         0         0         0         0         0
         0         0         0         0         0         0         0         0
         0         0         0         0         0         0         0         0
         0         0         0         0         0         0         0         0
         0         0         0         0         0         0         0         0
         0         0         0         0         0         0         0         0
         0         0         0         0         0         0         0         0
         0         0         0         0         0         0         0         0
         0         0         0         0         0         0         0         0
         0         0         0         0         0         0         0         0
         0         0         0         0         0         0         0         0
         0         0         0         0         0         0         0         0
         0         0         0         0         0         0         0         0
         0         0         0         0         0         0         0         0
         0         0         0         0         0         0         0         0
         0         0         0         0         0         0         0         0
         0         0         0         0         0         0         0         0
         0         0         0         0         0         0         0         0
         0         0         0         0         0         0         0         0
         0         0         0         0         0         0         0         0
         0         0         0         0         0         0         0         0
         0         0         0         0         0         0         0         0
         0         0         0         0         0         0         0         0
         0         0         0         0         0         0         0         0
         0         0         0         0         0         0         0         0
         0         0         0         0         0         0         0         0
         0         0         0         0         0         0         0         0
         0         0         0         0         0         0         0         0
         0         0         0         0         0         0         0         0
         0         0         0         0         0         0         0         0
         0         0         0         0         0         0         0         0
         0         0         0         0         0         0         0         0
         0         0         0         0         0         0         0         0
         0         0         0         0         0         0         0         0
         0         0         0         0         0         0         0         0
         0         0         0         0         0         0         0         0
         0         0         0         0         0         0         0         0
         0         0         0         0         0         0         0         0
         0         0         0         0         0         0         0         0
         0         0         0         0         0         0         0         0
         0         0         0         0         0         0         0         0
         0         0         0         0         0         0         0         0
         0         0         0         0         0         0         0         0
         0         0         0         0         0         0         0         0
         0         0         0         0         0         0         0         0
         0         0         0         0         0         0         0         0
         0         0         0         0         0         0         0         0
         0         0         0         0         0         0         0         0
         0         0         0         0         0         0         0         0
         0         0         0         0         0         0         0         0
         0         0         0         0         0         0         0         0
         0         0         0         0         0         0         0         0
         0         0         0         0         0         0         0         0
         0         0         0         0         0         0         0         0
         0         0         0         0         0         0         0         0
         0         0         0         0         0         0         0         0
         0         0         0         0         0         0         0         0
         0         0         0         0         0         0         0         0
         0         0         0         0         0         0         0         0
         0         0         0         0         0         0         0         0
         0         0         0         0         0         0         0         0
         0         0         0         0         0         0         0         0
         0         0         0         0         0         0         0         0
         0         0         0         0         0         0         0         0
         0         0         0         0         0         0         0         0
         0         0         0         0         0         0         0         0
         0         0         0         0         0         0         0         0
         0         0         0         0         0         0         0         0
         0         0         0         0         0         0         0         0
         0         0         0         0         0         0         0         0
         0         0         0         0         0         0         0         0
         0         0         0         0         0         0         0         0
         0         0         0         0         0         0         0         0
         0         0         0         0         0         0         0         0
         0         0         0         0         0         0         0         0
         0         0         0         0         0         0         0         0
         0         0         0         0         0         0         0         0
         0         0         0         0         0         0         0         0
         0         0         0         0         0         0         0         0
         0         0         0         0         0         0         0         0
         0         0         0         0         0         0         0         0
         0         0         0         0         0         0         0         0
         0         0         0         0         0         0         0         0
         0         0         0         0         0         0         0         0
         0         0         0         0         0         0         0         0
         0         0         0         0         0         0         0         0
         0         0         0         0         0         0         0         0
         0         0         0         0         0         0         0         0
         0         0         0         0         0         0         0         0
         0         0         0         0         0         0         0         0
         0         0         0         0         0         0         0         0
         0         0         0         0         0         0         0         0
         0         0         0         0         0         0         0         0
         0         0         0         0         0         0         0         0
         0         0         0         0         0         0         0         0
         0         0         0         0         0         0         0         0
         0         0         0         0         0         0         0         0
         0         0         0         0         0         0         0         0
         0         0         0         0         0         0         0         0
         0         0         0         0         0         0         0         0
         0         0         0         0         0         0         0         0
         0         0         0         0         0         0         0         0
         0         0         0         0         0         0         0         0
         0         0         0         0         0         0         0         0
         0         0         0         0         0         0         0         0
         0         0         0         0         0         0         0         0
         0         0         0         0         0         0         0         0
         0         0         0         0         0         0         0         0
         0         0         0         0         0         0         0         0
         0         0         0         0         0         0         0         0
         0         0         0         0         0         0         0         0
         0         0         0         0         0         0         0         0
         0         0         0         0         0         0         0         0
         0         0         0         0         0         0         0         0
         0         0         0         0         0         0         0         0
         0         0         0         0         0         0         0         0
         0         0         0         0         0         0         0         0
         0         0         0         0         0         0         0         0
         0         0         0         0         0         0         0         0
         0         0         0         0         0         0         0         0
         0         0         0         0         0         0         0         0
         0         0         0         0         0         0         0         0
         0         0         0         0         0         0         0         0
         0         0         0         0         0         0         0         0
         0         0         0         0         0         0         0         0
         0         0         0         0         0         0         0         0
         0         0         0         0         0         0         0         0
         0         0         0         0         0         0         0         0
         0         0         0         0         0         0         0         0
         0         0         0         0         0         0         0         0
         0         0         0         0         0         0         0         0
         0         0         0         0         0         0         0         0
         0         0         0         0         0         0         0         0
         0         0         0         0         0         0         0         0
         0         0         0         0         0         0         0         0
         0         0         0         0         0         0         0         0
         0         0         0         0         0         0         0         0
         0         0         0         0         0         0         0         0
         0         0         0         0         0         0         0         0
         0         0         0         0         0         0         0         0
         0         0         0         0         0         0         0         0
         0         0         0         0         0         0         0         0
         0         0         0         0         0         0         0         0
         0         0         0         0         0         0         0         0
         0         0         0         0         0         0         0         0
         0         0         0         0         0         0         0         0
         0         0         0         0         0         0         0         0
         0         0         0         0         0         0         0         0
         0         0         0         0         0         0         0         0
         0         0         0         0         0         0         0         0
         0         0         0         0         0         0         0         0
         0         0         0         0         0         0         0         0
         0         0         0         0         0         0         0         0
         0         0         0         0         0         0         0         0
         0         0         0         0         0         0         0         0
         0         0         0         0         0         0         0         0
         0         0         0         0         0         0         0         0
         0         0         0         0         0         0         0         0
         0         0         0         0         0         0         0         0
         0         0         0         0         0         0         0         0
         0         0         0         0         0         0         0         0
         0         0         0         0         0         0         0         0
         0         0         0         0         0         0         0         0
         0         0         0         0         0         0         0         0
         0         0         0         0         0         0         0         0
         0         0         0         0         0         0         0         0
         0         0         0         0         0         0         0         0
         0         0         0         0         0         0         0         0
         0         0         0         0         0         0         0         0
         0         0         0         0         0         0         0         0
         0         0         0         0         0         0         0         0
         0         0         0         0         0         0         0         0
         0         0         0         0         0         0         0         0
         0         0         0         0         0         0         0         0
         0         0         0         0         0         0         0         0
         0         0         0         0         0         0         0         0
         0         0         0         0         0         0         0         0
         0         0         0         0         0         0         0         0
         0         0         0         0         0         0         0         0
         0         0         0         0         0         0         0         0
         0         0         0         0         0         0         0         0
         0         0         0         0         0         0         0         0
         0         0         0         0         0         0         0         0
         0         0         0         0         0         0         0         0
         0         0         0         0         0         0         0         0
         0         0         0         0         0         0         0         0
         0         0         0         0         0         0         0         0
         0         0         0         0         0         0         0         0
         0         0         0         0         0         0         0         0
         0         0         0         0         0         0         0         0
         0         0         0         0         0         0         0         0
         0         0         0         0         0         0         0         0
         0         0         0         0         0         0         0         0
         0         0         0         0         0         0         0         0
         0         0         0         0         0         0         0         0
         0         0         0         0         0         0         0         0
         0         0         0         0         0         0         0         0
         0         0         0         0         0         0         0         0
         0         0         0         0         0         0         0         0
         0         0         0         0         0         0         0         0
         0         0         0         0         0         0         0         0
         0         0         0         0         0         0         0         0
         0         0         0         0         0         0         0         0
         0         0         0         0         0         0         0         0
         0         0         0         0         0         0         0         0
         0         0         0         0         0         0         0         0
         0         0         0         0         0         0         0         0
         0         0         0         0         0         0         0         0
         0         0         0         0         0         0         0         0
         0         0         0         0         0         0         0         0
         0         0         0         0         0         0         0         0
         0         0         0         0         0         0         0         0
         0         0         0         0         0         0         0         0
         0         0         0         0         0         0         0         0
         0         0         0         0         0         0         0         0
         0         0         0         0         0         0         0         0
         0         0         0         0         0         0         0         0
         0         0         0         0         0         0         0         0
         0         0         0         0         0         0         0         0
         0         0         0         0         0         0         0         0
         0         0         0         0         0         0         0         0
         0         0         0         0         0         0         0         0
         0         0         0         0         0         0         0         0
         0         0         0         0         0         0         0         0
         0         0         0         0         0         0         0         0
         0         0         0         0         0         0         0         0
         0         0         0         0         0         0         0         0
         0         0         0         0         0         0         0         0
         0         0         0         0         0         0         0         0
         0         0         0         0         0         0         0         0
         0         0         0         0         0         0         0         0
         0         0         0         0         0         0         0         0
         0         0         0         0         0         0         0         0
         0         0         0         0         0         0         0         0
         0         0         0         0         0         0         0         0
         0         0         0         0         0         0         0         0
         0         0         0         0         0         0         0         0
         0         0         0         0         0         0         0         0
         0         0         0         0         0         0         0         0
         0         0         0         0         0         0         0         0
         0         0         0         0         0         0         0         0
         0         0         0         0         0         0         0         0
         0         0         0         0         0         0         0         0
         0         0         0         0         0         0         0         0
         0         0         0         0         0         0         0         0
         0         0         0         0         0         0         0         0
         0         0         0         0         0         0         0         0
         0         0         0         0         0         0         0         0
         0         0         0         0         0         0         0         0
         0         0         0         0         0         0         0         0
         0         0         0         0         0         0         0         0
         0         0         0         0         0         0         0         0
         0         0         0         0         0         0         0         0
         0         0         0         0         0         0         0         0
         0         0         0         0         0         0         0         0
         0         0         0         0         0         0         0         0
         0         0         0         0         0         0         0         0
         0         0         0         0         0         0         0         0
         0         0         0         0         0         0         0         0
         0         0         0         0         0         0         0         0
         0         0         0         0         0         0         0         0
         0         0         0         0         0         0         0         0
         0         0         0         0         0         0         0         0
         0         0         0         0         0         0         0         0
         0         0         0         0         0         0         0         0
         0         0         0         0         0         0         0         0
         0         0         0         0         0         0         0         0
         0         0         0         0         0         0         0         0
         0         0         0         0         0         0         0         0
         0         0         0         0         0         0         0         0
         0         0         0         0         0         0         0         0
         0         0         0         0         0         0         0         0
         0         0         0         0         0         0         0         0
         0         0         0         0         0         0         0         0
         0         0         0         0         0         0         0         0
         0         0         0         0         0         0         0         0
         0         0         0         0         0         0         0         0
         0         0         0         0         0         0         0         0
         0         0         0         0         0         0         0         0
         0         0         0         0         0         0         0         0
         0         0         0         0         0         0         0         0
         0         0         0         0         0         0         0         0
         0         0         0         0         0         0         0         0
         0         0         0         0         0         0         0         0
         0         0         0         0         0         0         0         0
         0         0         0         0         0         0         0         0
         0         0         0         0         0         0         0         0
         0         0         0         0         0         0         0         0
         0         0         0         0         0         0         0         0
         0         0         0         0         0         0         0         0
         0         0         0         0         0         0         0         0
         0         0         0         0         0         0         0         0
         0         0         0         0         0         0         0         0
         0         0         0         0         0         0         0         0
         0         0         0         0         0         0         0         0
         0         0         0         0         0         0         0         0
         0         0         0         0         0         0         0         0
         0         0         0         0         0         0         0         0
         0         0         0         0         0         0         0         0
         0         0         0         0         0         0         0         0
         0         0         0         0         0         0         0         0
         0         0         0         0         0         0         0         0
         0         0         0         0         0         0         0         0
         0         0         0         0         0         0         0         0
         0         0         0         0         0         0         0         0
         0         0         0         0         0         0         0         0
         0         0         0         0         0         0         0         0
         0         0         0         0         0         0         0         0
         0         0         0         0         0         0         0         0
         0         0         0         0         0         0         0         0
         0         0         0         0         0         0         0         0
         0         0         0         0         0         0         0         0
         0         0         0         0         0         0         0         0
         0         0         0         0         0         0         0         0
         0         0         0         0         0         0         0         0
         0         0         0         0         0         0         0         0
         0         0         0         0         0         0         0         0
         0         0         0         0         0         0         0         0
         0         0         0         0         0         0         0         0
         0         0         0         0         0         0         0         0
         0         0         0         0         0         0         0         0
         0         0         0         0         0         0         0         0
         0         0         0         0         0         0         0         0
         0         0         0         0         0         0         0         0
         0         0         0         0         0         0         0         0
         0         0         0         0         0         0         0         0
         0         0         0         0         0         0         0         0
         0         0         0         0         0         0         0         0
         0         0         0         0         0         0         0         0
         0         0         0         0         0         0         0         0
         0         0         0         0         0         0         0         0
         0         0         0         0         0         0         0         0
         0         0         0         0         0         0         0         0
         0         0         0         0         0         0         0         0
         0         0         0         0         0         0         0         0
         0         0         0         0         0         0         0         0
         0         0         0         0         0         0         0         0
         0         0         0         0         0         0         0         0
         0         0         0         0         0         0         0         0
         0         0         0         0         0         0         0         0
         0         0         0         0         0         0         0         0
         0         0         0         0         0         0         0         0
         0         0         0         0         0         0         0         0
         0         0         0         0         0         0         0         0
         0         0         0         0         0         0         0         0
         0         0         0         0         0         0         0         0
         0         0         0         0         0         0         0         0
         0         0         0         0         0         0         0         0
         0         0         0         0         0         0         0         0
         0         0         0         0         0         0         0         0
         0         0         0         0         0         0         0         0
         0         0         0         0         0         0         0         0
         0         0         0         0         0         0         0         0
         0         0         0         0         0         0         0         0
         0         0         0         0         0         0         0         0
         0         0         0         0         0         0         0         0
         0         0         0         0         0         0         0         0
         0         0         0         0         0         0         0         0
         0         0         0         0         0         0         0         0
         0         0         0         0         0         0         0         0
         0         0         0         0         0         0         0         0
         0         0         0         0         0         0         0         0
         0         0         0         0         0         0         0         0
         0         0         0         0         0         0         0         0
         0         0         0         0         0         0         0         0
         0         0         0         0         0         0         0         0
         0         0         0         0         0         0         0         0
         0         0         0         0         0         0         0         0
         0         0         0         0         0         0         0         0
         0         0         0         0         0         0         0         0
         0         0         0         0         0         0         0         0
         0         0         0         0         0         0         0         0
         0         0         0         0         0         0         0         0
         0         0         0         0         0         0         0         0
         0         0         0         0         0         0         0         0
         0         0         0         0         0         0         0         0
         0         0         0         0         0         0         0         0
         0         0         0         0         0         0         0         0
         0         0         0         0         0         0         0         0
         0         0         0         0         0         0         0         0
         0         0         0         0         0         0         0         0
         0         0         0         0         0         0         0         0
         0         0         0         0         0         0         0         0
         0         0         0         0         0         0         0         0
         0         0         0         0         0         0         0         0
         0         0         0         0         0         0         0         0
         0         0         0         0         0         0         0         0
         0         0         0         0         0         0         0         0
         0         0         0         0         0         0         0         0
         0         0         0         0         0         0         0         0
         0         0         0         0         0         0         0         0
         0         0         0         0         0         0         0         0
         0         0         0         0         0         0         0         0
         0         0         0         0         0         0         0         0
         0         0         0         0         0         0         0         0
         0         0         0         0         0         0         0         0
         0         0         0         0         0         0         0         0
         0         0         0         0         0         0         0         0
         0         0         0         0         0         0         0         0
         0         0         0         0         0         0         0         0
         0         0         0         0         0         0         0         0
         0         0         0         0         0         0         0         0
         0         0         0         0         0         0         0         0
         0         0         0         0         0         0         0         0
         0         0         0         0         0         0         0         0
         0         0         0         0         0         0         0         0
         0         0         0         0         0         0         0         0
         0         0         0         0         0         0         0         0
         0         0         0         0         0         0         0         0
         0         0         0         0         0         0         0         0
         0         0         0         0         0         0         0         0
         0         0         0         0         0         0         0         0
         0         0         0         0         0         0         0         0
         0         0         0         0         0         0         0         0
         0         0         0         0         0         0         0         0
         0         0         0         0         0         0         0         0
         0         0         0         0         0         0         0         0
         0         0         0         0         0         0         0         0
         0         0         0         0         0         0         0         0
         0         0         0         0         0         0         0         0
         0         0         0         0         0         0         0         0
         0         0         0         0         0         0         0         0
         0         0         0         0         0         0         0         0
         0         0         0         0         0         0         0         0
         0         0         0         0         0         0         0         0
         0         0         0         0         0         0         0         0
         0         0         0         0         0         0         0         0
         0         0         0         0         0         0         0         0
         0         0         0         0         0         0         0         0
         0         0         0         0         0         0         0         0
         0         0         0         0         0         0         0         0
         0         0         0         0         0         0         0         0
         0         0         0         0         0         0         0         0
         0         0         0         0         0         0         0         0
         0         0         0         0         0         0         0         0
         0         0         0         0         0         0         0         0
         0         0         0         0         0         0         0         0
         0         0         0         0         0         0         0         0
         0         0         0         0         0         0         0         0
         0         0         0         0         0         0         0         0
         0         0         0         0         0         0         0         0
         0         0         0         0         0         0         0         0
         0         0         0         0         0         0         0         0
         0         0         0         0         0         0         0         0
         0         0         0         0         0         0         0         0
         0         0         0         0         0         0         0         0
         0         0         0         0         0         0         0         0
         0         0         0         0         0         0         0         0
         0         0         0         0         0         0         0         0
         0         0         0         0         0         0         0         0
         0         0         0         0         0         0         0         0
         0         0         0         0         0         0         0         0
         0         0         0         0         0         0         0         0
         0         0         0         0         0         0         0         0
         0         0         0         0         0         0         0         0
         0         0         0         0         0         0         0         0
         0         0         0         0         0         0         0         0
         0         0         0         0         0         0         0         0
         0         0         0         0         0         0         0         0
         0         0         0         0         0         0         0         0
         0         0         0         0         0         0         0         0
         0         0         0         0         0         0         0         0
         0         0         0         0         0         0         0         0
         0         0         0         0         0         0         0         0
         0         0         0         0         0         0         0         0
         0         0         0         0         0         0         0         0
         0         0         0         0         0         0         0         0
         0         0         0         0         0         0         0         0
         0         0         0         0         0         0         0         0
         0         0         0         0         0         0         0         0
         0         0         0         0         0         0         0         0
         0         0         0         0         0         0         0         0
         0         0         0         0         0         0         0         0
         0         0         0         0         0         0         0         0
         0         0         0         0         0         0         0         0
         0         0         0         0         0         0         0         0
         0         0         0         0         0         0         0         0
         0         0         0         0         0         0         0         0
         0         0         0         0         0         0         0         0
         0         0         0         0         0         0         0         0
         0         0         0         0         0         0         0         0
         0         0         0         0         0         0         0         0
         0         0         0         0         0         0         0         0
         0         0         0         0         0         0         0         0
         0         0         0         0         0         0         0         0
         0         0         0         0         0         0         0         0
         0         0         0         0         0         0         0         0
         0         0         0         0         0         0         0         0
         0         0         0         0         0         0         0         0
         0         0         0         0         0         0         0         0
         0         0         0         0         0         0         0         0
         0         0         0         0         0         0         0         0
         0         0         0         0         0         0         0         0
         0         0         0         0         0         0         0         0
         0         0         0         0         0         0         0         0
         0         0         0         0         0         0         0         0
         0         0         0         0         0         0         0         0
         0         0         0         0         0         0         0         0
         0         0         0         0         0         0         0         0
         0         0         0         0         0         0         0         0
         0         0         0         0         0         0         0         0
         0         0         0         0         0         0         0         0
         0         0         0         0         0         0         0         0
         0         0         0         0         0         0         0         0
         0         0         0         0         0         0         0         0
         0         0         0         0         0         0         0         0
         0         0         0         0         0         0         0         0
         0         0         0         0         0         0         0         0
         0         0         0         0         0         0         0         0
         0         0         0         0         0         0         0         0
         0         0         0         0         0         0         0         0
         0         0         0         0         0         0         0         0
         0         0         0         0         0         0         0         0
         0         0         0         0         0         0         0         0
         0         0         0         0         0         0         0         0
         0         0         0         0         0         0         0         0
         0         0         0         0         0         0         0         0
         0         0         0         0         0         0         0         0
         0         0         0         0         0         0         0         0
         0         0         0         0         0         0         0         0
         0         0         0         0         0         0         0         0
         0         0         0         0         0         0         0         0
         0         0         0         0         0         0         0         0
         0         0         0         0         0         0         0         0
         0         0         0         0         0         0         0         0
         0         0         0         0         0         0         0         0
         0         0         0         0         0         0         0         0
         0         0         0         0         0         0         0         0
         0         0         0         0         0         0         0         0
         0         0         0         0         0         0         0         0
         0         0         0         0         0         0         0         0
         0         0         0         0         0         0         0         0
         0         0         0         0         0         0         0         0
         0         0         0         0         0         0         0         0
         0         0         0         0         0         0         0         0
         0         0         0         0         0         0         0         0
         0         0         0         0         0         0         0         0
         0         0         0         0         0         0         0         0
         0         0         0         0         0         0         0         0
         0         0         0         0         0         0         0         0
         0         0         0         0         0         0         0         0
         0         0         0         0         0         0         0         0
         0         0         0         0         0         0         0         0
         0         0         0         0         0         0         0         0
         0         0         0         0         0         0         0         0
         0         0         0         0         0         0         0         0
         0         0         0         0         0         0         0         0
         0         0         0         0         0         0         0         0
         0         0         0         0         0         0         0         0
         0         0         0         0         0         0         0         0
         0         0         0         0         0         0         0         0
         0         0         0         0         0         0         0         0
         0         0         0         0         0         0         0         0
         0         0         0         0         0         0         0         0
         0         0         0         0         0         0         0         0
         0         0         0         0         0         0         0         0
         0         0         0         0         0         0         0         0
         0         0         0         0         0         0         0         0
         0         0         0         0         0         0         0         0
         0         0         0         0         0         0         0         0
         0         0         0         0         0         0         0         0
         0         0         0         0         0         0         0         0
         0         0         0         0         0         0         0         0
         0         0         0         0         0         0         0         0
         0         0         0         0         0         0         0         0
         0         0         0         0         0         0         0         0
         0         0         0         0         0         0         0         0
         0         0         0         0         0         0         0         0
         0         0         0         0         0         0         0         0
         0         0         0         0         0         0         0         0
         0         0         0         0         0         0         0         0
         0         0         0         0         0         0         0         0
         0         0         0         0         0         0         0         0
         0         0         0         0         0         0         0         0
         0         0         0         0         0         0         0         0
         0         0         0         0         0         0         0         0
         0         0         0         0         0         0         0         0
         0         0         0         0         0         0         0         0
         0         0         0         0         0         0         0         0
         0         0         0         0         0         0         0         0
         0         0         0         0         0         0         0         0
         0         0         0         0         0         0         0         0
         0         0         0         0         0         0         0         0
         0         0         0         0         0         0         0         0
         0         0         0         0         0         0         0         0
         0         0         0         0         0         0         0         0
         0         0         0         0         0         0         0         0
         0         0         0         0         0         0         0         0
         0         0         0         0         0         0         0         0
         0         0         0         0         0         0         0         0
         0         0         0         0         0         0         0         0
         0         0         0         0         0         0         0         0
         0         0         0         0         0         0         0         0
         0         0         0         0         0         0         0         0
         0         0         0         0         0         0         0         0
         0         0         0         0         0         0         0         0
         0         0         0         0         0         0         0         0
         0         0         0         0         0         0         0         0
         0         0         0         0         0         0         0         0
         0         0         0         0         0         0         0         0
         0         0         0         0         0         0         0         0
         0         0         0         0         0         0         0         0
         0         0         0         0         0         0         0         0
         0         0         0         0         0         0         0         0
         0         0         0         0         0         0         0         0
         0         0         0         0         0         0         0         0
         0         0         0         0         0         0         0         0
         0         0         0         0         0         0         0         0
         0         0         0         0         0         0         0         0
         0         0         0         0         0         0         0         0
         0         0         0         0         0         0         0         0
         0         0         0         0         0         0         0         0
         0         0         0         0         0         0         0         0
         0         0         0         0         0         0         0         0
         0         0         0         0         0         0         0         0
         0         0         0         0         0         0         0         0
         0         0         0         0         0         0         0         0
         0         0         0         0         0         0         0         0
         0         0         0         0         0         0         0         0
         0         0         0         0         0         0         0         0
         0         0         0         0         0         0         0         0
         0         0         0         0         0         0         0         0
         0         0         0         0         0         0         0         0
         0         0         0         0         0         0         0         0
         0         0         0         0         0         0         0         0
         0         0         0         0         0         0         0         0
         0         0         0         0         0         0         0         0
         0         0         0         0         0         0         0         0
         0         0         0         0         0         0         0         0
         0         0         0         0         0         0         0         0
         0         0         0         0         0         0         0         0
         0         0         0         0         0         0         0         0
         0         0         0         0         0         0         0         0
         0         0         0         0         0         0         0         0
         0         0         0         0         0         0         0         0
         0         0         0         0         0         0         0         0
         0         0         0         0         0         0         0         0
         0         0         0         0         0         0         0         0
         0         0         0         0         0         0         0         0
         0         0         0         0         0         0         0         0
         0         0         0         0         0         0         0         0
         0         0         0         0         0         0         0         0
         0         0         0         0         0         0         0         0
         0         0         0         0         0         0         0         0
         0         0         0         0         0         0         0         0
         0         0         0         0         0         0         0         0
         0         0         0         0         0         0         0         0
         0         0         0         0         0         0         0         0
         0         0         0         0         0         0         0         0
         0         0         0         0         0         0         0         0
         0         0         0         0         0         0         0         0
         0         0         0         0         0         0         0         0
         0         0         0         0         0         0         0         0
         0         0         0         0         0         0         0         0
         0         0         0         0         0         0         0         0
         0         0         0         0         0         0         0         0
         0         0         0         0         0         0         0         0
         0         0         0         0         0         0         0         0
         0         0         0         0         0         0         0         0
         0         0         0         0         0         0         0         0
         0         0         0         0         0         0         0         0
         0         0         0         0         0         0         0         0
         0         0         0         0         0         0         0         0
         0         0         0         0         0         0         0         0
         0         0         0         0         0         0         0         0
         0         0         0         0         0         0         0         0
         0         0         0         0         0         0         0         0
         0         0         0         0         0         0         0         0
         0         0         0         0         0         0         0         0
         0         0         0         0         0         0         0         0
         0         0         0         0         0         0         0         0
         0         0         0         0         0         0         0         0
         0         0         0         0         0         0         0         0
         0         0         0         0         0         0         0         0
         0         0         0         0         0         0         0         0
         0         0         0         0         0         0         0         0
         0         0         0         0         0         0         0         0
         0         0         0         0         0         0         0         0
         0         0         0         0         0         0         0         0
         0         0         0         0         0         0         0         0
         0         0         0         0         0         0         0         0
         0         0         0         0         0         0         0         0
         0         0         0         0         0         0         0         0
         0         0         0         0         0         0         0         0
         0         0         0         0         0         0         0         0
         0         0         0         0         0         0         0         0
         0         0         0         0         0         0         0         0
         0         0         0         0         0         0         0         0
         0         0         0         0         0         0         0         0
         0         0         0         0         0         0         0         0
         0         0         0         0         0         0         0         0
         0         0         0         0         0         0         0         0
         0         0         0         0         0         0         0         0
         0         0         0         0         0         0         0         0
         0         0         0         0         0         0         0         0
         0         0         0         0         0         0         0         0
         0         0         0         0         0         0         0         0
         0         0         0         0         0         0         0         0
         0         0         0         0         0         0         0         0
         0         0         0         0         0         0         0         0
         0         0         0         0         0         0         0         0
         0         0         0         0         0         0         0         0
         0         0         0         0         0         0         0         0
         0         0         0         0         0         0         0         0
         0         0         0         0         0         0         0         0
         0         0         0         0         0         0         0         0
         0         0         0         0         0         0         0         0
         0         0         0         0         0         0         0         0
         0         0         0         0         0         0         0         0
         0         0         0         0         0         0         0         0
         0         0         0         0         0         0         0         0
         0         0         0         0         0         0         0         0
         0         0         0         0         0         0         0         0
         0         0         0         0         0         0         0         0
         0         0         0         0         0         0         0         0
         0         0         0         0         0         0         0         0
         0         0         0         0         0         0         0         0
         0         0         0         0         0         0         0         0
         0         0         0         0         0         0         0         0
         0         0         0         0         0         0         0         0
         0         0         0         0         0         0         0         0
         0         0         0         0         0         0         0         0
         0         0         0         0         0         0         0         0
         0         0         0         0         0         0         0         0
         0         0         0         0         0         0         0         0
         0         0         0         0         0         0         0         0
         0         0         0         0         0         0         0         0
         0         0         0         0         0         0         0         0
         0         0         0         0         0         0         0         0
         0         0         0         0         0         0         0         0
         0         0         0         0         0         0         0         0
         0         0         0         0         0         0         0         0
         0         0         0         0         0         0         0         0
         0         0         0         0         0         0         0         0
         0         0         0         0         0         0         0         0
         0         0         0         0         0         0         0         0
         0         0         0         0         0         0         0         0
         0         0         0         0         0         0         0         0
         0         0         0         0         0         0         0         0
         0         0         0         0         0         0         0         0
         0         0         0         0         0         0         0         0
         0         0         0         0         0         0         0         0
         0         0         0         0         0         0         0         0
         0         0         0         0         0         0         0         0
         0         0         0         0         0         0         0         0
         0         0         0         0         0         0         0         0
         0         0         0         0         0         0         0         0
         0         0         0         0         0         0         0         0
         0         0         0         0         0         0         0         0
         0         0         0         0         0         0         0         0
         0         0         0         0         0         0         0         0
         0         0         0         0         0         0         0         0
         0         0         0         0         0         0         0         0
         0         0         0         0         0         0         0         0
         0         0         0         0         0         0         0         0
         0         0         0         0         0         0         0         0
         0         0         0         0         0         0         0         0
         0         0         0         0         0         0         0         0
         0         0         0         0         0         0         0         0
         0         0         0         0         0         0         0         0
         0         0         0         0         0         0         0         0
         0         0         0         0         0         0         0         0
         0         0         0         0         0         0         0         0
         0         0         0         0         0         0         0         0
         0         0         0         0         0         0         0         0
         0         0         0         0         0         0         0         0
         0         0         0         0         0         0         0         0
         0         0         0         0         0         0         0         0
         0         0         0         0         0         0         0         0
         0         0         0         0         0         0         0         0
         0         0         0         0         0         0         0         0
         0         0         0         0         0         0         0         0
         0         0         0         0         0         0         0         0
         0         0         0         0         0         0         0         0
         0         0         0         0         0         0         0         0
         0         0         0         0         0         0         0         0
         0         0         0         0         0         0         0         0
         0         0         0         0         0         0         0         0
         0         0         0         0         0         0         0         0
         0         0         0         0         0         0         0         0
         0         0         0         0         0         0         0         0
         0         0         0         0         0         0         0         0
         0         0         0         0         0         0         0         0
         0         0         0         0         0         0         0         0
         0         0         0         0         0         0         0         0
         0         0         0         0         0         0         0         0
         0         0         0         0         0         0         0         0
         0         0         0         0         0         0         0         0
         0         0         0         0         0         0         0         0
         0         0         0         0         0         0         0         0
         0         0         0         0         0         0         0         0
         0         0         0         0         0         0         0         0
         0         0         0         0         0         0         0         0
         0         0         0         0         0         0         0         0
         0         0         0         0         0         0         0         0
         0         0         0         0         0         0         0         0
         0         0         0         0         0         0         0         0
         0         0         0         0         0         0         0         0
         0         0         0         0         0         0         0         0
         0         0         0         0         0         0         0         0
         0         0         0         0         0         0         0         0
         0         0         0         0         0         0         0         0
         0         0         0         0         0         0         0         0
         0         0         0         0         0         0         0         0
         0         0         0         0         0         0         0         0
         0         0         0         0         0         0         0         0
         0         0         0         0         0         0         0         0
         0         0         0         0         0         0         0         0
         0         0         0         0         0         0         0         0
         0         0         0         0         0         0         0         0
         0         0         0         0         0         0         0         0
         0         0         0         0         0         0         0         0
         0         0         0         0         0         0         0         0
         0         0         0         0         0         0         0         0
         0         0         0         0         0         0         0         0
         0         0         0         0         0         0         0         0
         0         0         0         0         0         0         0         0
         0         0         0         0         0         0         0         0
         0         0         0         0         0         0         0         0
         0         0         0         0         0         0         0         0
         0         0         0         0         0         0         0         0
         0         0         0         0         0         0         0         0
         0         0         0         0         0         0         0         0
         0         0         0         0         0         0         0         0
         0         0         0         0         0         0         0         0
         0         0         0         0         0         0         0         0
         0         0         0         0         0         0         0         0
         0         0         0         0         0         0         0         0
         0         0         0         0         0         0         0         0
         0         0         0         0         0         0         0         0
         0         0         0         0         0         0         0         0
         0         0         0         0         0         0         0         0
         0         0         0         0         0         0         0         0
         0         0         0         0         0         0         0         0
         0         0         0         0         0         0         0         0
         0         0         0         0         0         0         0         0
         0         0         0         0         0         0         0         0
         0         0         0         0         0         0         0         0
         0         0         0         0         0         0         0         0
         0         0         0         0         0         0         0         0
         0         0         0         0         0         0         0         0
         0         0         0         0         0         0         0         0
         0         0         0         0         0         0         0         0
         0         0         0         0         0         0         0         0
         0         0         0         0         0         0         0         0
         0         0         0         0         0         0         0         0
         0         0         0         0         0         0         0         0
         0         0         0         0         0         0         0         0
         0         0         0         0         0         0         0         0
         0         0         0         0         0         0         0         0
         0         0         0         0         0         0         0         0
         0         0         0         0         0         0         0         0
         0         0         0         0         0         0         0         0
         0         0         0         0         0         0         0         0
         0         0         0         0         0         0         0         0
         0         0         0         0         0         0         0         0
         0         0         0         0         0         0         0         0
         0         0         0         0         0         0         0         0
         0         0         0         0         0         0         0         0
         0         0         0         0         0         0         0         0
         0         0         0         0         0         0         0         0
         0         0         0         0         0         0         0         0
         0         0         0         0         0         0         0         0
         0         0         0         0         0         0         0         0
         0         0         0         0         0         0         0         0
         0         0         0         0         0         0         0         0
         0         0         0         0         0         0         0         0
         0         0         0         0         0         0         0         0
         0         0         0         0         0         0         0         0
         0         0         0         0         0         0         0         0
         0         0         0         0         0         0         0         0
         0         0         0         0         0         0         0         0
         0         0         0         0         0         0         0         0
         0         0         0         0         0         0         0         0
         0         0         0         0         0         0         0         0
         0         0         0         0         0         0         0         0
         0         0         0         0         0         0         0         0
         0         0         0         0         0         0         0         0
         0         0         0         0         0         0         0         0
         0         0         0         0         0         0         0         0
         0         0         0         0         0         0         0         0
         0         0         0         0         0         0         0         0
         0         0         0         0         0         0         0         0
         0         0         0         0         0         0         0         0
         0         0         0         0         0         0         0         0
         0         0         0         0         0         0         0         0
         0         0         0         0         0         0         0         0
         0         0         0         0         0         0         0         0
         0         0         0         0         0         0         0         0
         0         0         0         0         0         0         0         0
         0         0         0         0         0         0         0         0
         0         0         0         0         0         0         0         0
         0         0         0         0         0         0         0         0
         0         0         0         0         0         0         0         0
         0         0         0         0         0         0         0         0
         0         0         0         0         0         0         0         0
         0         0         0         0         0         0         0         0
         0         0         0         0         0         0         0         0
         0         0         0         0         0         0         0         0
         0         0         0         0         0         0         0         0
         0         0         0         0         0         0         0         0
         0         0         0         0         0         0         0         0
         0         0         0         0         0         0         0         0
         0         0         0         0         0         0         0         0
         0         0         0         0         0         0         0         0
         0         0         0         0         0         0         0         0
         0         0         0         0         0         0         0         0
         0         0         0         0         0         0         0         0
         0         0         0         0         0         0         0         0
         0         0         0         0         0         0         0         0
         0         0         0         0         0         0         0         0
         0         0         0         0         0         0         0         0
         0         0         0         0         0         0         0         0
         0         0         0         0         0         0         0         0
         0         0         0         0         0         0         0         0
         0         0         0         0         0         0         0         0
         0         0         0         0         0         0         0         0
         0         0         0         0         0         0         0         0
         0         0         0         0         0         0         0         0
         0         0         0         0         0         0         0         0
         0         0         0         0         0         0         0         0
         0         0         0         0         0         0         0         0
         0         0         0         0         0         0         0         0
         0         0         0         0         0         0         0         0
         0         0         0         0         0         0         0         0
         0         0         0         0         0         0         0         0
         0         0         0         0         0         0         0         0
         0         0         0         0         0         0         0         0
         0         0         0         0         0         0         0         0
         0         0         0         0         0         0         0         0
         0         0         0         0         0         0         0         0
         0         0         0         0         0         0         0         0
         0         0         0         0         0         0         0         0
         0         0         0         0         0         0         0         0
         0         0         0         0         0         0         0         0
         0         0         0         0         0         0         0         0
         0         0         0         0         0         0         0         0
         0         0         0         0         0         0         0         0
         0         0         0         0         0         0         0         0
         0         0         0         0         0         0         0         0
         0         0         0         0         0         0         0         0
         0         0         0         0         0         0         0         0
         0         0         0         0         0         0         0         0
         0         0         0         0         0         0         0         0
         0         0         0         0         0         0         0         0
         0         0         0         0         0         0         0         0
         0         0         0         0         0         0         0         0
         0         0         0         0         0         0         0         0
         0         0         0         0         0         0         0         0
         0         0         0         0         0         0         0         0
         0         0         0         0         0         0         0         0
         0         0         0         0         0         0         0         0
         0         0         0         0         0         0         0         0
         0         0         0         0         0         0         0         0
         0         0         0         0         0         0         0         0
         0         0         0         0         0         0         0         0
         0         0         0         0         0         0         0         0
         0         0         0         0         0         0         0         0
         0         0         0         0         0         0         0         0
         0         0         0         0         0         0         0         0
         0         0         0         0         0         0         0         0
         0         0         0         0         0         0         0         0
         0         0         0         0         0         0         0         0
         0         0         0         0         0         0         0         0
         0         0         0         0         0         0         0         0
         0         0         0         0         0         0         0         0
         0         0         0         0         0         0         0         0
         0         0         0         0         0         0         0         0
         0         0         0         0         0         0         0         0
         0         0         0         0         0         0         0         0
         0         0         0         0         0         0         0         0
         0         0         0         0         0         0         0         0
         0         0         0         0         0         0         0         0
         0         0         0         0         0         0         0         0
         0         0         0         0         0         0         0         0
         0         0         0         0         0         0         0         0
         0         0         0         0         0         0         0         0
         0         0         0         0         0         0         0         0
         0         0         0         0         0         0         0         0
         0         0         0         0         0         0         0         0
         0         0         0         0         0         0         0         0
         0         0         0         0         0         0         0         0
         0         0         0         0         0         0         0         0
         0         0         0         0         0         0         0         0
         0         0         0         0         0         0         0         0
         0         0         0         0         0         0         0         0
         0         0         0         0         0         0         0         0
         0         0         0         0         0         0         0         0
         0         0         0         0         0         0         0         0
         0         0         0         0         0         0         0         0
         0         0         0         0         0         0         0         0
         0         0         0         0         0         0         0         0
         0         0         0         0         0         0         0         0
         0         0         0         0         0         0         0         0
         0         0         0         0         0         0         0         0
         0         0         0         0         0         0         0         0
         0         0         0         0         0         0         0         0
         0         0         0         0         0         0         0         0
         0         0         0         0         0         0         0         0
         0         0         0         0         0         0         0         0
         0         0         0         0         0         0         0         0
         0         0         0         0         0         0         0         0
         0         0         0         0         0         0         0         0
         0         0         0         0         0         0         0         0
         0         0         0         0         0         0         0         0
         0         0         0         0         0         0         0         0
         0         0         0         0         0         0         0         0
         0         0         0         0         0         0         0         0
         0         0         0         0         0         0         0         0
         0         0         0         0         0         0         0         0
         0         0         0         0         0         0         0         0
         0         0         0         0         0         0         0         0
         0         0         0         0         0         0         0         0
         0         0         0         0         0         0         0         0
         0         0         0         0         0         0         0         0
         0         0         0         0         0         0         0         0
         0         0         0         0         0         0         0         0
         0         0         0         0         0         0         0         0
         0         0         0         0         0         0         0         0
         0         0         0         0         0         0         0         0
         0         0         0         0         0         0         0         0
         0         0         0         0         0         0         0         0
         0         0         0         0         0         0         0         0
         0         0         0         0         0         0         0         0
         0         0         0         0         0         0         0         0
         0         0         0         0         0         0         0         0
         0         0         0         0         0         0         0         0
         0         0         0         0         0         0         0         0
         0         0         0         0         0         0         0         0
         0         0         0         0         0         0         0         0
         0         0         0         0         0         0         0         0
         0         0         0         0         0         0         0         0
         0         0         0         0         0         0         0         0
         0         0         0         0         0         0         0         0
         0         0         0         0         0         0         0         0
         0         0         0         0         0         0         0         0
         0         0         0         0         0         0         0         0
         0         0         0         0         0         0         0         0
         0         0         0         0         0         0         0         0
         0         0         0         0         0         0         0         0
         0         0         0         0         0         0         0         0
         0         0         0         0         0         0         0         0
         0         0         0         0         0         0         0         0
         0         0         0         0         0         0         0         0
         0         0         0         0         0         0         0         0
         0         0         0         0         0         0         0         0
         0         0         0         0         0         0         0         0
         0         0         0         0         0         0         0         0
         0         0         0         0         0         0         0         0
         0         0         0         0         0         0         0         0
         0         0         0         0         0         0         0         0
         0         0         0         0         0         0         0         0
         0         0         0         0         0         0         0         0
         0         0         0         0         0         0         0         0
         0         0         0         0         0         0         0         0
         0         0         0         0         0         0         0         0
         0         0         0         0         0         0         0         0
         0         0         0         0         0         0         0         0
         0         0         0         0         0         0         0         0
         0         0         0         0         0         0         0         0
         0         0         0         0         0         0         0         0
         0         0         0         0         0         0         0         0
         0         0         0         0         0         0         0         0
         0         0         0         0         0         0         0         0
         0         0         0         0         0         0         0         0
         0         0         0         0         0         0         0         0
         0         0         0         0         0         0         0         0
         0         0         0         0         0         0         0         0
         0         0         0         0         0         0         0         0
         0         0         0         0         0         0         0         0
         0         0         0         0         0         0         0         0
         0         0         0         0         0         0         0         0
         0         0         0         0         0         0         0         0
         0         0         0         0         0         0         0         0
         0         0         0         0         0         0         0         0
         0         0         0         0         0         0         0         0
         0         0         0         0         0         0         0         0
         0         0         0         0         0         0         0         0
         0         0         0         0         0         0         0         0
         0         0         0         0         0         0         0         0
         0         0         0         0         0         0         0         0
         0         0         0         0         0         0         0         0
         0         0         0         0         0         0         0         0
         0         0         0         0         0         0         0         0
         0         0         0         0         0         0         0         0
         0         0         0         0         0         0         0         0
         0         0         0         0         0         0         0         0
         0         0         0         0         0         0         0         0
         0         0         0         0         0         0         0         0
         0         0         0         0         0         0         0         0
         0         0         0         0         0         0         0         0
         0         0         0         0         0         0         0         0
         0         0         0         0         0         0         0         0
         0         0         0         0         0         0         0         0
         0         0         0         0         0         0         0         0
         0         0         0         0         0         0         0         0
         0         0         0         0         0         0         0         0
         0         0         0         0         0         0         0         0
         0         0         0         0         0         0         0         0
         0         0         0         0         0         0         0         0
         0         0         0         0         0         0         0         0
         0         0         0         0         0         0         0         0
         0         0         0         0         0         0         0         0
         0         0         0         0         0         0         0         0
         0         0         0         0         0         0         0         0
         0         0         0         0         0         0         0         0
         0         0         0         0         0         0         0         0
         0         0         0         0         0         0         0         0
         0         0         0         0         0         0         0         0
         0         0         0         0         0         0         0         0
         0         0         0         0         0         0         0         0
         0         0         0         0         0         0         0         0
         0         0         0         0         0         0         0         0
         0         0         0         0         0         0         0         0
         0         0         0         0         0         0         0         0
         0         0         0         0         0         0         0         0
         0         0         0         0         0         0         0         0
         0         0         0         0         0         0         0         0
         0         0         0         0         0         0         0         0
         0         0         0         0         0         0         0         0
         0         0         0         0         0         0         0         0
         0         0         0         0         0         0         0         0
         0         0         0         0         0         0         0         0
         0         0         0         0         0         0         0         0
         0         0         0         0         0         0         0         0
         0         0         0         0         0         0         0         0
         0         0         0         0         0         0         0         0
         0         0         0         0         0         0         0         0
         0         0         0         0         0         0         0         0
         0         0         0         0         0         0         0         0
         0         0         0         0         0         0         0         0
         0         0         0         0         0         0         0         0
         0         0         0         0         0         0         0         0
         0         0         0         0         0         0         0         0
         0         0         0         0         0         0         0         0
         0         0         0         0         0         0         0         0
         0         0         0         0         0         0         0         0
         0         0         0         0         0         0         0         0
         0         0         0         0         0         0         0         0
         0         0         0         0         0         0         0         0
         0         0         0         0         0         0         0         0
         0         0         0         0         0         0         0         0
         0         0         0         0         0         0         0         0
         0         0         0         0         0         0         0         0
         0         0         0         0         0         0         0         0
         0         0         0         0         0         0         0         0
         0         0         0         0         0         0         0         0
         0         0         0         0         0         0         0         0
         0         0         0         0         0         0         0         0
         0         0         0         0         0         0         0         0
         0         0         0         0         0         0         0         0
         0         0         0         0         0         0         0         0
         0         0         0         0         0         0         0         0
         0         0         0         0         0         0         0         0
         0         0         0         0         0         0         0         0
         0         0         0         0         0         0         0         0
         0         0         0         0         0         0         0         0
         0         0         0         0         0         0         0         0
         0         0         0         0         0         0         0         0
         0         0         0         0         0         0         0         0
         0         0         0         0         0         0         0         0
         0         0         0         0         0         0         0         0
         0         0         0         0         0         0         0         0
         0         0         0         0         0         0         0         0
         0         0         0         0         0         0         0         0
         0         0         0         0         0         0         0         0
         0         0         0         0         0         0         0         0
         0         0         0         0         0         0         0         0
         0         0         0         0         0         0         0         0
         0         0         0         0         0         0         0         0
         0         0         0         0         0         0         0         0
         0         0         0         0         0         0         0         0
         0         0         0         0         0         0         0         0
         0         0         0         0         0         0         0         0
         0         0         0         0         0         0         0         0
         0         0         0         0         0         0         0         0
         0         0         0         0         0         0         0         0
         0         0         0         0         0         0         0         0
         0         0         0         0         0         0         0         0
         0         0         0         0         0         0         0         0
         0         0         0         0         0         0         0         0
         0         0         0         0         0         0         0         0
         0         0         0         0         0         0         0         0
         0         0         0         0         0         0         0         0
         0         0         0         0         0         0         0         0
         0         0         0         0         0         0         0         0
         0         0         0         0         0         0         0         0
         0         0         0         0         0         0         0         0
         0         0         0         0         0         0         0         0
         0         0         0         0         0         0         0         0
         0         0         0         0         0         0         0         0
         0         0         0         0         0         0         0         0
         0         0         0         0         0         0         0         0
         0         0         0         0         0         0         0         0
         0         0         0         0         0         0         0         0
         0         0         0         0         0         0         0         0
         0         0         0         0         0         0         0         0
         0         0         0         0         0         0         0         0
         0         0         0         0         0         0         0         0
         0         0         0         0         0         0         0         0
         0         0         0         0         0         0         0         0
         0         0         0         0         0         0         0         0
         0         0         0         0         0         0         0         0
         0         0         0         0         0         0         0         0
         0         0         0         0         0         0         0         0
         0         0         0         0         0         0         0         0
         0         0         0         0         0         0         0         0
         0         0         0         0         0         0         0         0
         0         0         0         0         0         0         0         0
         0         0         0         0         0         0         0         0
         0         0         0         0         0         0         0         0
         0         0         0         0         0         0         0         0
         0         0         0         0         0         0         0         0
         0         0         0         0         0         0         0         0
         0         0         0         0         0         0         0         0
         0         0         0         0         0         0         0         0
         0         0         0         0         0         0         0         0
         0         0         0         0         0         0         0         0
         0         0         0         0         0         0         0         0
         0         0         0         0         0         0         0         0
         0         0         0         0         0         0         0         0
         0         0         0         0         0         0         0         0
         0         0         0         0         0         0         0         0
         0         0         0         0         0         0         0         0
         0         0         0         0         0         0         0         0
         0         0         0         0         0         0         0         0
         0         0         0         0         0         0         0         0
         0         0         0         0         0         0         0         0
         0         0         0         0         0         0         0         0
         0         0         0         0         0         0         0         0
         0         0         0         0         0         0         0         0
         0         0         0         0         0         0         0         0
         0         0         0         0         0         0         0         0
         0         0         0         0         0         0         0         0
         0         0         0         0         0         0         0         0
         0         0         0         0         0         0         0         0
         0         0         0         0         0         0         0         0
         0         0         0         0         0         0         0         0
         0         0         0         0         0         0         0         0
         0         0         0         0         0         0         0         0
         0         0         0         0         0         0         0         0
         0         0         0         0         0         0         0         0
         0         0         0         0         0         0         0         0
         0         0         0         0         0         0         0         0
         0         0         0         0         0         0         0         0
         0         0         0         0         0         0         0         0
         0         0         0         0         0         0         0         0
         0         0         0         0         0         0         0         0
         0         0         0         0         0         0         0         0
         0         0         0         0         0         0         0         0
         0         0         0         0         0         0         0         0
         0         0         0         0         0         0         0         0
         0         0         0         0         0         0         0         0
         0         0         0         0         0         0         0         0
         0         0         0         0         0         0         0         0
         0         0         0         0         0         0         0         0
         0         0         0         0         0         0         0         0
         0         0         0         0         0         0         0         0
         0         0         0         0         0         0         0         0
         0         0         0         0         0         0         0         0
         0         0         0         0         0         0         0         0
         0         0         0         0         0         0         0         0
         0         0         0         0         0         0         0         0
         0         0         0         0         0         0         0         0
         0         0         0         0         0         0         0         0
         0         0         0         0         0         0         0         0
         0         0         0         0         0         0         0         0
         0         0         0         0         0         0         0         0
         0         0         0         0         0         0         0         0
         0         0         0         0         0         0         0         0
         0         0         0         0         0         0         0         0
         0         0         0         0         0         0         0         0
         0         0         0         0         0         0         0         0
         0         0         0         0         0         0         0         0
         0         0         0         0         0         0         0         0
         0         0         0         0         0         0         0         0
         0         0         0         0         0         0         0         0
         0         0         0         0         0         0         0         0
         0         0         0         0         0         0         0         0
         0         0         0         0         0         0         0         0
         0         0         0         0         0         0         0         0
         0         0         0         0         0         0         0         0
         0         0         0         0         0         0         0         0
         0         0         0         0         0         0         0         0
         0         0         0         0         0         0         0         0
         0         0         0         0         0         0         0         0
         0         0         0         0         0         0         0         0
         0         0         0         0         0         0         0         0
         0         0         0         0         0         0         0         0
         0         0         0         0         0         0         0         0
         0         0         0         0         0         0         0         0
         0         0         0         0         0         0         0         0
         0         0         0         0         0         0         0         0
         0         0         0         0         0         0         0         0
         0         0         0         0         0         0         0         0
         0         0         0         0         0         0         0         0
         0         0         0         0         0         0         0         0
         0         0         0         0         0         0         0         0
         0         0         0         0         0         0         0         0
         0         0         0         0         0         0         0         0
         0         0         0         0         0         0         0         0
         0         0         0         0         0         0         0         0
         0         0         0         0         0         0         0         0
         0         0         0         0         0         0         0         0
         0         0         0         0         0         0         0         0
         0         0         0         0         0         0         0         0
         0         0         0         0         0         0         0         0
         0         0         0         0         0         0         0         0
         0         0         0         0         0         0         0         0
         0         0         0         0         0         0         0         0
         0         0         0         0         0         0         0         0
         0         0         0         0         0         0         0         0
         0         0         0         0         0         0         0         0
         0         0         0         0         0         0         0         0
         0         0         0         0         0         0         0         0
         0         0         0         0         0         0         0         0
         0         0         0         0         0         0         0         0
         0         0         0         0         0         0         0         0
         0         0         0         0         0         0         0         0
         0         0         0         0         0         0         0         0
         0         0         0         0         0         0         0         0
         0         0         0         0         0         0         0         0
         0         0         0         0         0         0         0         0
         0         0         0         0         0         0         0         0
         0         0         0         0         0         0         0         0
         0         0         0         0         0         0         0         0
         0         0         0         0         0         0         0         0
         0         0         0         0         0         0         0         0
         0         0         0         0         0         0         0         0
         0         0         0         0         0         0         0         0
         0         0         0         0         0         0         0         0
         0         0         0         0         0         0         0         0
         0         0         0         0         0         0         0         0
         0         0         0         0         0         0         0         0
         0         0         0         0         0         0         0         0
         0         0         0         0         0         0         0         0
         0         0         0         0         0         0         0         0
         0         0         0         0         0         0         0         0
         0         0         0         0         0         0         0         0
         0         0         0         0         0         0         0         0
         0         0         0         0         0         0         0         0
         0         0         0         0         0         0         0         0
         0         0         0         0         0         0         0         0
         0         0         0         0         0         0         0         0
         0         0         0         0         0         0         0         0
         0         0         0         0         0         0         0         0
         0         0         0         0         0         0         0         0
         0         0         0         0         0         0         0         0
         0         0         0         0         0         0         0         0
         0         0         0         0         0         0         0         0
         0         0         0         0         0         0         0         0
         0         0         0         0         0         0         0         0
         0         0         0         0         0         0         0         0
         0         0         0         0         0         0         0         0
         0         0         0         0         0         0         0         0
         0         0         0         0         0         0         0         0
         0         0         0         0         0         0         0         0
         0         0         0         0         0         0         0         0
         0         0         0         0         0         0         0         0
         0         0         0         0         0         0         0         0
         0         0         0         0         0         0         0         0
         0         0         0         0         0         0         0         0
         0         0         0         0         0         0         0         0
         0         0         0         0         0         0         0         0
         0         0         0         0         0         0         0         0
         0         0         0         0         0         0         0         0
         0         0         0         0         0         0         0         0
         0         0         0         0         0         0         0         0
         0         0         0         0         0         0         0         0
         0         0         0         0         0         0         0         0
         0         0         0         0         0         0         0         0
         0         0         0         0         0         0         0         0
         0         0         0         0         0         0         0         0
         0         0         0         0         0         0         0         0
         0         0         0         0         0         0         0         0
         0         0         0         0         0         0         0         0
         0         0         0         0         0         0         0         0
         0         0         0         0         0         0         0         0
         0         0         0         0         0         0         0         0
         0         0         0         0         0         0         0         0
         0         0         0         0         0         0         0         0
         0         0         0         0         0         0         0         0
         0         0         0         0         0         0         0         0
         0         0         0         0         0         0         0         0
         0         0         0         0         0         0         0         0
         0         0         0         0         0         0         0         0
         0         0         0         0         0         0         0         0
         0         0         0         0         0         0         0         0
         0         0         0         0         0         0         0         0
         0         0         0         0         0         0         0         0
         0         0         0         0         0         0         0         0
         0         0         0         0         0         0         0         0
         0         0         0         0         0         0         0         0
         0         0         0         0         0         0         0         0
         0         0         0         0         0         0         0         0
         0         0         0         0         0         0         0         0
         0         0         0         0         0         0         0         0
         0         0         0         0         0         0         0         0
         0         0         0         0         0         0         0         0
         0         0         0         0         0         0         0         0
         0         0         0         0         0         0         0         0
         0         0         0         0         0         0         0         0
         0         0         0         0         0         0         0         0
         0         0         0         0         0         0         0         0
         0         0         0         0         0         0         0         0
         0         0         0         0         0         0         0         0
         0         0         0         0         0         0         0         0
         0         0         0         0         0         0         0         0
         0         0         0         0         0         0         0         0
         0         0         0         0         0         0         0         0
         0         0         0         0         0         0         0         0
         0         0         0         0         0         0         0         0
         0         0         0         0         0         0         0         0
         0         0         0         0         0         0         0         0
         0         0         0         0         0         0         0         0
         0         0         0         0         0         0         0         0
         0         0         0         0         0         0         0         0
         0         0         0         0         0         0         0         0
         0         0         0         0         0         0         0         0
         0         0         0         0         0         0         0         0
         0         0         0         0         0         0         0         0
         0         0         0         0         0         0         0         0
         0         0         0         0         0         0         0         0
         0         0         0         0         0         0         0         0
         0         0         0         0         0         0         0         0
         0         0         0         0         0         0         0         0
         0         0         0         0         0         0         0         0
         0         0         0         0         0         0         0         0
         0         0         0         0         0         0         0         0
         0         0         0         0         0         0         0         0
         0         0         0         0         0         0         0         0
         0         0         0         0         0         0         0         0
         0         0         0         0         0         0         0         0
         0         0         0         0         0         0         0         0
         0         0         0         0         0         0         0         0
         0         0         0         0         0         0         0         0
         0         0         0         0         0         0         0         0
         0         0         0         0         0         0         0         0
         0         0         0         0         0         0         0         0
         0         0         0         0         0         0         0         0
         0         0         0         0         0         0         0         0
         0         0         0         0         0         0         0         0
         0         0         0         0         0         0         0         0
         0         0         0         0         0         0         0         0
         0         0         0         0         0         0         0         0
         0         0         0         0         0         0         0         0
         0         0         0         0         0         0         0         0
         0         0         0         0         0         0         0         0
         0         0         0         0         0         0         0         0
         0         0         0         0         0         0         0         0
         0         0         0         0         0         0         0         0
         0         0         0         0         0         0         0         0
         0         0         0         0         0         0         0         0
         0         0         0         0         0         0         0         0
         0         0         0         0         0         0         0         0
         0         0         0         0         0         0         0         0
         0         0         0         0         0         0         0         0
         0         0         0         0         0         0         0         0
         0         0         0         0         0         0         0         0
         0         0         0         0         0         0         0         0
         0         0         0         0         0         0         0         0
         0         0         0         0         0         0         0         0
         0         0         0         0         0         0         0         0
         0         0         0         0         0         0         0         0
         0         0         0         0         0         0         0         0
         0         0         0         0         0         0         0         0
         0         0         0         0         0         0         0         0
         0         0         0         0         0         0         0         0
         0         0         0         0         0         0         0         0
         0         0         0         0         0         0         0         0
         0         0         0         0         0         0         0         0
         0         0         0         0         0         0         0         0
         0         0         0         0         0         0         0         0
         0         0         0         0         0         0         0         0
         0         0         0         0         0         0         0         0
         0         0         0         0         0         0         0         0
         0         0         0         0         0         0         0         0
         0         0         0         0         0         0         0         0
         0         0         0         0         0         0         0         0
         0         0         0         0         0         0         0         0
         0         0         0         0         0         0         0         0
         0         0         0         0         0         0         0         0
         0         0         0         0         0         0         0         0
         0         0         0         0         0         0         0         0
         0         0         0         0         0         0         0         0
         0         0         0         0         0         0         0         0
         0         0         0         0         0         0         0         0
         0         0         0         0         0         0         0         0
         0         0         0         0         0         0         0         0
         0         0         0         0         0         0         0         0
         0         0         0         0         0         0         0         0
         0         0         0         0         0         0         0         0
         0         0         0         0         0         0         0         0
         0         0         0         0         0         0         0         0
         0         0         0         0         0         0         0         0
         0         0         0         0         0         0         0         0
         0         0         0         0         0         0         0         0
         0         0         0         0         0         0         0         0
         0         0         0         0         0         0         0         0
         0         0         0         0         0         0         0         0
         0         0         0         0         0         0         0         0
         0         0         0         0         0         0         0         0
         0         0         0         0         0         0         0         0
         0         0         0         0         0         0         0         0
         0         0         0         0         0         0         0         0
         0         0         0         0         0         0         0         0
         0         0         0         0         0         0         0         0
         0         0         0         0         0         0         0         0
         0         0         0         0         0         0         0         0
         0         0         0         0         0         0         0         0
         0         0         0         0         0         0         0         0
         0         0         0         0         0         0         0         0
         0         0         0         0         0         0         0         0
         0         0         0         0         0         0         0         0
         0         0         0         0         0         0         0         0
         0         0         0         0         0         0         0         0
         0         0         0         0         0         0         0         0
         0         0         0         0         0         0         0         0
         0         0         0         0         0         0         0         0
         0         0         0         0         0         0         0         0
         0         0         0         0         0         0         0         0
         0         0         0         0         0         0         0         0
         0         0         0         0         0         0         0         0
         0         0         0         0         0         0         0         0
         0         0         0         0         0         0         0         0
         0         0         0         0         0         0         0         0
         0         0         0         0         0         0         0         0
         0         0         0         0         0         0         0         0
         0         0         0         0         0         0         0         0
         0         0         0         0         0         0         0         0
         0         0         0         0         0         0         0         0
         0         0         0         0         0         0         0         0
         0         0         0         0         0         0         0         0
         0         0         0         0         0         0         0         0
         0         0         0         0         0         0         0         0
         0         0         0         0         0         0         0         0
         0         0         0         0         0         0         0         0
         0         0         0         0         0         0         0         0
         0         0         0         0         0         0         0         0
         0         0         0         0         0         0         0         0
         0         0         0         0         0         0         0         0
         0         0         0         0         0         0         0         0
         0         0         0         0         0         0         0         0
         0         0         0         0         0         0         0         0
         0         0         0         0         0         0         0         0
         0         0         0         0         0         0         0         0
         0         0         0         0         0         0         0         0
         0         0         0         0         0         0         0         0
         0         0         0         0         0         0         0         0
         0         0         0         0         0         0         0         0
         0         0         0         0         0         0         0         0
         0         0         0         0         0         0         0         0
         0         0         0         0         0         0         0         0
         0         0         0         0         0         0         0         0
         0         0         0         0         0         0         0         0
         0         0         0         0         0         0         0         0
         0         0         0         0         0         0         0         0
         0         0         0         0         0         0         0         0
         0         0         0         0         0         0         0         0
         0         0         0         0         0         0         0         0
         0         0         0         0         0         0         0         0
         0         0         0         0         0         0         0         0
         0         0         0         0         0         0         0         0
         0         0         0         0         0         0         0         0
         0         0         0         0         0         0         0         0
         0         0         0         0         0         0         0         0
         0         0         0         0         0         0         0         0
         0         0         0         0         0         0         0         0
         0         0         0         0         0         0         0         0
         0         0         0         0         0         0         0         0
         0         0         0         0         0         0         0         0
         0         0         0         0         0         0         0         0
         0         0         0         0         0         0         0         0
         0         0         0         0         0         0         0         0
         0         0         0         0         0         0         0         0
         0         0         0         0         0         0         0         0
         0         0         0         0         0         0         0         0
         0         0         0         0         0         0         0         0
         0         0         0         0         0         0         0         0
         0         0         0         0         0         0         0         0
         0         0         0         0         0         0         0         0
         0         0         0         0         0         0         0         0
         0         0         0         0         0         0         0         0
         0         0         0         0         0         0         0         0
         0         0         0         0         0         0         0         0
         0         0         0         0         0         0         0         0
         0         0         0         0         0         0         0         0
         0         0         0         0         0         0         0         0
         0         0         0         0         0         0         0         0
         0         0         0         0         0         0         0         0
         0         0         0         0         0         0         0         0
         0         0         0         0         0         0         0         0
         0         0         0         0         0         0         0         0
         0         0         0         0         0         0         0         0
         0         0         0         0         0         0         0         0
         0         0         0         0         0         0         0         0
         0         0         0         0         0         0         0         0
         0         0         0         0         0         0         0         0
         0         0         0         0         0         0         0         0
         0         0         0         0         0         0         0         0
         0         0         0         0         0         0         0         0
         0         0         0         0         0         0         0         0
         0         0         0         0         0         0         0         0
         0         0         0         0         0         0         0         0
         0         0         0         0         0         0         0         0
         0         0         0         0         0         0         0         0
         0         0         0         0         0         0         0         0
         0         0         0         0         0         0         0         0
         0         0         0         0         0         0         0         0
         0         0         0         0         0         0         0         0
         0         0         0         0         0         0         0         0
         0         0         0         0         0         0         0         0
         0         0         0         0         0         0         0         0
         0         0         0         0         0         0         0         0
         0         0         0         0         0         0         0         0
         0         0         0         0         0         0         0         0
         0         0         0         0         0         0         0         0
         0         0         0         0         0         0         0         0
         0         0         0         0         0         0         0         0
         0         0         0         0         0         0         0         0
         0         0         0         0         0         0         0         0
         0         0         0         0         0         0         0         0
         0         0         0         0         0         0         0         0
         0         0         0         0         0         0         0         0
         0         0         0         0         0         0         0         0
         0         0         0         0         0         0         0         0
         0         0         0         0         0         0         0         0
         0         0         0         0         0         0         0         0
         0         0         0         0         0         0         0         0
         0         0         0         0         0         0         0         0
         0         0         0         0         0         0         0         0
         0         0         0         0         0         0         0         0
         0         0         0         0         0         0         0         0
         0         0         0         0         0         0         0         0
         0         0         0         0         0         0         0         0
         0         0         0         0         0         0         0         0
         0         0         0         0         0         0         0         0
         0         0         0         0         0         0         0         0
         0         0         0         0         0         0         0         0
         0         0         0         0         0         0         0         0
         0         0         0         0         0         0         0         0
         0         0         0         0         0         0         0         0
         0         0         0         0         0         0         0         0
         0         0         0         0         0         0         0         0
         0         0         0         0         0         0         0         0
         0         0         0         0         0         0         0         0
         0         0         0         0         0         0         0         0
         0         0         0         0         0         0         0         0
         0         0         0         0         0         0         0         0
         0         0         0         0         0         0         0         0
         0         0         0         0         0         0         0         0
         0         0         0         0         0         0         0         0
         0         0         0         0         0         0         0         0
         0         0         0         0         0         0         0         0
         0         0         0         0         0         0         0         0
         0         0         0         0         0         0         0         0
         0         0         0         0         0         0         0         0
         0         0         0         0         0         0         0         0
         0         0         0         0         0         0         0         0
         0         0         0         0         0         0         0         0
         0         0         0         0         0         0         0         0
         0         0         0         0         0         0         0         0
         0         0         0         0         0         0         0         0
         0         0         0         0         0         0         0         0
         0         0         0         0         0         0         0         0
         0         0         0         0         0         0         0         0
         0         0         0         0         0         0         0         0
         0         0         0         0         0         0         0         0
         0         0         0         0         0         0         0         0
         0         0         0         0         0         0         0         0
         0         0         0         0         0         0         0         0
         0         0         0         0         0         0         0         0
         0         0         0         0         0         0         0         0
         0         0         0         0         0         0         0         0
         0         0         0         0         0         0         0         0
         0         0         0         0         0         0         0         0
         0         0         0         0         0         0         0         0
         0         0         0         0         0         0         0         0
         0         0         0         0         0         0         0         0
         0         0         0         0         0         0         0         0
         0         0         0         0         0         0         0         0
         0         0         0         0         0         0         0         0
         0         0         0         0         0         0         0         0
         0         0         0         0         0         0         0         0
         0         0         0         0         0         0         0         0
         0         0         0         0         0         0         0         0
         0         0         0         0         0         0         0         0
         0         0         0         0         0         0         0         0
         0         0         0         0         0         0         0         0
         0         0         0         0         0         0         0         0
         0         0         0         0         0         0         0         0
         0         0         0         0         0         0         0         0
         0         0         0         0         0         0         0         0
         0         0         0         0         0         0         0         0
         0         0         0         0         0         0         0         0
         0         0         0         0         0         0         0         0
         0         0         0         0         0         0         0         0
         0         0         0         0         0         0         0         0
         0         0         0         0         0         0         0         0
         0         0         0         0         0         0         0         0
         0         0         0         0         0         0         0         0
         0         0         0         0         0         0         0         0
         0         0         0         0         0         0         0         0
         0         0         0         0         0         0         0         0
         0         0         0         0         0         0         0         0
         0         0         0         0         0         0         0         0
         0         0         0         0         0         0         0         0
         0         0         0         0         0         0         0         0
         0         0         0         0         0         0         0         0
         0         0         0         0         0         0         0         0
         0         0         0         0         0         0         0         0
         0         0         0         0         0         0         0         0
         0         0         0         0         0         0         0         0
         0         0         0         0         0         0         0         0
         0         0         0         0         0         0         0         0
         0         0         0         0         0         0         0         0
         0         0         0         0         0         0         0         0
         0         0         0         0         0         0         0         0
         0         0         0         0         0         0         0         0
         0         0         0         0         0         0         0         0
         0         0         0         0         0         0         0         0
         0         0         0         0         0         0         0         0
         0         0         0         0         0         0         0         0
         0         0         0         0         0         0         0         0
         0         0         0         0         0         0         0         0
         0         0         0         0         0         0         0         0
         0         0         0         0         0         0         0         0
         0         0         0         0         0         0         0         0
         0         0         0         0         0         0         0         0
         0         0         0         0         0         0         0         0
         0         0         0         0         0         0         0         0
         0         0         0         0         0         0         0         0
         0         0         0         0         0         0         0         0
         0         0         0         0         0         0         0         0
         0         0         0         0         0         0         0         0
         0         0         0         0         0         0         0         0
         0         0         0         0         0         0         0         0
         0         0         0         0         0         0         0         0
         0         0         0         0         0         0         0         0
         0         0         0         0         0         0         0         0
         0         0         0         0         0         0         0         0
         0         0         0         0         0         0         0         0
         0         0         0         0         0         0         0         0
         0         0         0         0         0         0         0         0
         0         0         0         0         0         0         0         0
         0         0         0         0         0         0         0         0
         0         0         0         0         0         0         0         0
         0         0         0         0         0         0         0         0
         0         0         0         0         0         0         0         0
         0         0         0         0         0         0         0         0
         0         0         0         0         0         0         0         0
         0         0         0         0         0         0         0         0
         0         0         0         0         0         0         0         0
         0         0         0         0         0         0         0         0
         0         0         0         0         0         0         0         0
         0         0         0         0         0         0         0         0
         0         0         0         0         0         0         0         0
         0         0         0         0         0         0         0         0
         0         0         0         0         0         0         0         0
         0         0         0         0         0         0         0         0
         0         0         0         0         0         0         0         0
         0         0         0         0         0         0         0         0
         0         0         0         0         0         0         0         0
         0         0         0         0         0         0         0         0
         0         0         0         0         0         0         0         0
         0         0         0         0         0         0         0         0
         0         0         0         0         0         0         0         0
         0         0         0         0         0         0         0         0
         0         0         0         0         0         0         0         0
         0         0         0         0         0         0         0         0
         0         0         0         0         0         0         0         0
         0         0         0         0         0         0         0         0
         0         0         0         0         0         0         0         0
         0         0         0         0         0         0         0         0
         0         0         0         0         0         0         0         0
         0         0         0         0         0         0         0         0
         0         0         0         0         0         0         0         0
         0         0         0         0         0         0         0         0
         0         0         0         0         0         0         0         0
         0         0         0         0         0         0         0         0
         0         0         0         0         0         0         0         0
         0         0         0         0         0         0         0         0
         0         0         0         0         0         0         0         0
         0         0         0         0         0         0         0         0
         0         0         0         0         0         0         0         0
         0         0         0         0         0         0         0         0
         0         0         0         0         0         0         0         0
         0         0         0         0         0         0         0         0
         0         0         0         0         0         0         0         0
         0         0         0         0         0         0         0         0
         0         0         0         0         0         0         0         0
         0         0         0         0         0         0         0         0
         0         0         0         0         0         0         0         0
         0         0         0         0         0         0         0         0
         0         0         0         0         0         0         0         0
         0         0         0         0         0         0         0         0
         0         0         0         0         0         0         0         0
         0         0         0         0         0         0         0         0
         0         0         0         0         0         0         0         0
         0         0         0         0         0         0         0         0
         0         0         0         0         0         0         0         0
         0         0         0         0         0         0         0         0
         0         0         0         0         0         0         0         0
         0         0         0         0         0         0         0         0
         0         0         0         0         0         0         0         0
         0         0         0         0         0         0         0         0
         0         0         0         0         0         0         0         0
         0         0         0         0         0         0         0         0
         0         0         0         0         0         0         0         0
         0         0         0         0         0         0         0         0
         0         0         0         0         0         0         0         0
         0         0         0         0         0         0         0         0
         0         0         0         0         0         0         0         0
         0         0         0         0         0         0         0         0
         0         0         0         0         0         0         0         0
         0         0         0         0         0         0         0         0
         0         0         0         0         0         0         0         0
         0         0         0         0         0         0         0         0
         0         0         0         0         0         0         0         0
         0         0         0         0         0         0         0         0
         0         0         0         0         0         0         0         0
         0         0         0         0         0         0         0         0
         0         0         0         0         0         0         0         0
         0         0         0         0         0         0         0         0
         0         0         0         0         0         0         0         0
         0         0         0         0         0         0         0         0
         0         0         0         0         0         0         0         0
         0         0         0         0         0         0         0         0
         0         0         0         0         0         0         0         0
         0         0         0         0         0         0         0         0
         0         0         0         0         0         0         0         0
         0         0         0         0         0         0         0         0
         0         0         0         0         0         0         0         0
         0         0         0         0         0         0         0         0
         0         0         0         0         0         0         0         0
         0         0         0         0         0         0         0         0
         0         0         0         0         0         0         0         0
         0         0         0         0         0         0         0         0
         0         0         0         0         0         0         0         0
         0         0         0         0         0         0         0         0
         0         0         0         0         0         0         0         0
         0         0         0         0         0         0         0         0
         0         0         0         0         0         0         0         0
         0         0         0         0         0         0         0         0
         0         0         0         0         0         0         0         0
         0         0         0         0         0         0         0         0
         0         0         0         0         0         0         0         0
         0         0         0         0         0         0         0         0
         0         0         0         0         0         0         0         0
         0         0         0         0         0         0         0         0
         0         0         0         0         0         0         0         0
         0         0         0         0         0         0         0         0
         0         0         0         0         0         0         0         0
         0         0         0         0         0         0         0         0
         0         0         0         0         0         0         0         0
         0         0         0         0         0         0         0         0
         0         0         0         0         0         0         0         0
         0         0         0         0         0         0         0         0
         0         0         0         0         0         0         0         0
         0         0         0         0         0         0         0         0
         0         0         0         0         0         0         0         0
         0         0         0         0         0         0         0         0
         0         0         0         0         0         0         0         0
         0         0         0         0         0         0         0         0
         0         0         0         0         0         0         0         0
         0         0         0         0         0         0         0         0
         0         0         0         0         0         0         0         0
         0         0         0         0         0         0         0         0
         0         0         0         0         0         0         0         0
         0         0         0         0         0         0         0         0
         0         0         0         0         0         0         0         0
         0         0         0         0         0         0         0         0
         0         0         0         0         0         0         0         0
         0         0         0         0         0         0         0         0
         0         0         0         0         0         0         0         0
         0         0         0         0         0         0         0         0
         0         0         0         0         0         0         0         0
         0         0         0         0         0         0         0         0
         0         0         0         0         0         0         0         0
         0         0         0         0         0         0         0         0
         0         0         0         0         0         0         0         0
         0         0         0         0         0         0         0         0
         0         0         0         0         0         0         0         0
         0         0         0         0         0         0         0         0
         0         0         0         0         0         0         0         0
         0         0         0         0         0         0         0         0
         0         0         0         0         0         0         0         0
         0         0         0         0         0         0         0         0
         0         0         0         0         0         0         0         0
         0         0         0         0         0         0         0         0
         0         0         0         0         0         0         0         0
         0         0         0         0         0         0         0         0
         0         0         0         0         0         0         0         0
         0         0         0         0         0         0         0         0
         0         0         0         0         0         0         0         0
         0         0         0         0         0         0         0         0
         0         0         0         0         0         0         0         0
         0         0         0         0         0         0         0         0
         0         0         0         0         0         0         0         0
         0         0         0         0         0         0         0         0
         0         0         0         0         0         0         0         0
         0         0         0         0         0         0         0         0
         0         0         0         0         0         0         0         0
         0         0         0         0         0         0         0         0
         0         0         0         0         0         0         0         0
         0         0         0         0         0         0         0         0
         0         0         0         0         0         0         0         0
         0         0         0         0         0         0         0         0
         0         0         0         0         0         0         0         0
         0         0         0         0         0         0         0         0
         0         0         0         0         0         0         0         0
         0         0         0         0         0         0         0         0
         0         0         0         0         0         0         0         0
         0         0         0         0         0         0         0         0
         0         0         0         0         0         0         0         0
         0         0         0         0         0         0         0         0
         0         0         0         0         0         0         0         0
         0         0         0         0         0         0         0         0
         0         0         0         0         0         0         0         0
         0         0         0         0         0         0         0         0
         0         0         0         0         0         0         0         0
         0         0         0         0         0         0         0         0
         0         0         0         0         0         0         0         0
         0         0         0         0         0         0         0         0
         0         0         0         0         0         0         0         0
         0         0         0         0         0         0         0         0
         0         0         0         0         0         0         0         0
         0         0         0         0         0         0         0         0
         0         0         0         0         0         0         0         0
         0         0         0         0         0         0         0         0
         0         0         0         0         0         0         0         0
         0         0         0         0         0         0         0         0
         0         0         0         0         0         0         0         0
         0         0         0         0         0         0         0         0
         0         0         0         0         0         0         0         0
         0         0         0         0         0         0         0         0
         0         0         0         0         0         0         0         0
         0         0         0         0         0         0         0         0
         0         0         0         0         0         0         0         0
         0         0         0         0         0         0         0         0
         0         0         0         0         0         0         0         0
         0         0         0         0         0         0         0         0
         0         0         0         0         0         0         0         0
         0         0         0         0         0         0         0         0
         0         0         0         0         0         0         0         0
         0         0         0         0         0         0         0         0
         0         0         0         0         0         0         0         0
         0         0         0         0         0         0         0         0
         0         0         0         0         0         0         0         0
         0         0         0         0         0         0         0         0
         0         0         0         0         0         0         0         0
         0         0         0         0         0         0         0         0
         0         0         0         0         0         0         0         0
         0         0         0         0         0         0         0         0
         0         0         0         0         0         0         0         0
         0         0         0         0         0         0         0         0
         0         0         0         0         0         0         0         0
         0         0         0         0         0         0         0         0
         0         0         0         0         0         0         0         0
         0         0         0         0         0         0         0         0
         0         0         0         0         0         0         0         0
         0         0         0         0         0         0         0         0
         0         0         0         0         0         0         0         0
         0         0         0         0         0         0         0         0
         0         0         0         0         0         0         0         0
         0         0         0         0         0         0         0         0
         0         0         0         0         0         0         0         0
         0         0         0         0         0         0         0         0
         0         0         0         0         0         0         0         0
         0         0         0         0         0         0         0         0
         0         0         0         0         0         0         0         0
         0         0         0         0         0         0         0         0
         0         0         0         0         0         0         0         0
         0         0         0         0         0         0         0         0
         0         0         0         0         0         0         0         0
         0         0         0         0         0         0         0         0
         0         0         0         0         0         0         0         0
         0         0         0         0         0         0         0         0
         0         0         0         0         0         0         0         0
         0         0         0         0         0         0         0         0
         0         0         0         0         0         0         0         0
         0         0         0         0         0         0         0         0
         0         0         0         0         0         0         0         0
         0         0         0         0         0         0         0         0
         0         0         0         0         0         0         0         0
         0         0         0         0         0         0         0         0
         0         0         0         0         0         0         0         0
         0         0         0         0         0         0         0         0
         0         0         0         0         0         0         0         0
         0         0         0         0         0         0         0         0
         0         0         0         0         0         0         0         0
         0         0         0         0         0         0         0         0
         0         0         0         0         0         0         0         0
         0         0         0         0         0         0         0         0
         0         0         0         0         0         0         0         0
         0         0         0         0         0         0         0         0
         0         0         0         0         0         0         0         0
         0         0         0         0         0         0         0         0
         0         0         0         0         0         0         0         0
         0         0         0         0         0         0         0         0
         0         0         0         0         0         0         0         0
         0         0         0         0         0         0         0         0
         0         0         0         0         0         0         0         0
         0         0         0         0         0         0         0         0
         0         0         0         0         0         0         0         0
         0         0         0         0         0         0         0         0
         0         0         0         0         0         0         0         0
         0         0         0         0         0         0         0         0
         0         0         0         0         0         0         0         0
         0         0         0         0         0         0         0         0
         0         0         0         0         0         0         0         0
         0         0         0         0         0         0         0         0
         0         0         0         0         0         0         0         0
         0         0         0         0         0         0         0         0
         0         0         0         0         0         0         0         0
         0         0         0         0         0         0         0         0
         0         0         0         0         0         0         0         0
         0         0         0         0         0         0         0         0
         0         0         0         0         0         0         0         0
         0         0         0         0         0         0         0         0
         0         0         0         0         0         0         0         0
         0         0         0         0         0         0         0         0
         0         0         0         0         0         0         0         0
         0         0         0         0         0         0         0         0
         0         0         0         0         0         0         0         0
         0         0         0         0         0         0         0         0
         0         0         0         0         0         0         0         0
         0         0         0         0         0         0         0         0
         0         0         0         0         0         0         0         0
         0         0         0         0         0         0         0         0
         0         0         0         0         0         0         0         0
         0         0         0         0         0         0         0         0
         0         0         0         0         0         0         0         0
         0         0         0         0         0         0         0         0
         0         0         0         0         0         0         0         0
         0         0         0         0         0         0         0         0
         0         0         0         0         0         0         0         0
         0         0         0         0         0         0         0         0
         0         0         0         0         0         0         0         0
         0         0         0         0         0         0         0         0
         0         0         0         0         0         0         0         0
         0         0         0         0         0         0         0         0
         0         0         0         0         0         0         0         0
         0         0         0         0         0         0         0         0
         0         0         0         0         0         0         0         0
         0         0         0         0         0         0         0         0
         0         0         0         0         0         0         0         0
         0         0         0         0         0         0         0         0
         0         0         0         0         0         0         0         0
         0         0         0         0         0         0         0         0
         0         0         0         0         0         0         0         0
         0         0         0         0         0         0         0         0
         0         0         0         0         0         0         0         0
         0         0         0         0         0         0         0         0
         0         0         0         0         0         0         0         0
         0         0         0         0         0         0         0         0
         0         0         0         0         0         0         0         0
         0         0         0         0         0         0         0         0
         0         0         0         0         0         0         0         0
         0         0         0         0         0         0         0         0
         0         0         0         0         0         0         0         0
         0         0         0         0         0         0         0         0
         0         0         0         0         0         0         0         0
         0         0         0         0         0         0         0         0
         0         0         0         0         0         0         0         0
         0         0         0         0         0         0         0         0
         0         0         0         0         0         0         0         0
         0         0         0         0         0         0         0         0
         0         0         0         0         0         0         0         0
         0         0         0         0         0         0         0         0
         0         0         0         0         0         0         0         0
         0         0         0         0         0         0         0         0
         0         0         0         0         0         0         0         0
         0         0         0         0         0         0         0         0
         0         0         0         0         0         0         0         0
         0         0         0         0         0         0         0         0
         0         0         0         0         0         0         0         0
         0         0         0         0         0         0         0         0
         0         0         0         0         0         0         0         0
         0         0         0         0         0         0         0         0
         0         0         0         0         0         0         0         0
         0         0         0         0         0         0         0         0
         0         0         0         0         0         0         0         0
         0         0         0         0         0         0         0         0
         0         0         0         0         0         0         0         0
         0         0         0         0         0         0         0         0
         0         0         0         0         0         0         0         0
         0         0         0         0         0         0         0         0
         0         0         0         0         0         0         0         0
         0         0         0         0         0         0         0         0
         0         0         0         0         0         0         0         0
         0         0         0         0         0         0         0         0
         0         0         0         0         0         0         0         0
         0         0         0         0         0         0         0         0
         0         0         0         0         0         0         0         0
         0         0         0         0         0         0         0         0
         0         0         0         0         0         0         0         0
         0         0         0         0         0         0         0         0
         0         0         0         0         0         0         0         0
         0         0         0         0         0         0         0         0
         0         0         0         0         0         0         0         0
         0         0         0         0         0         0         0         0
         0         0         0         0         0         0         0         0
         0         0         0         0         0         0         0         0
         0         0         0         0         0         0         0         0
         0         0         0         0         0         0         0         0
         0         0         0         0         0         0         0         0
         0         0         0         0         0         0         0         0
         0         0         0         0         0         0         0         0
         0         0         0         0         0         0         0         0
         0         0         0         0         0         0         0         0
         0         0         0         0         0         0         0         0
         0         0         0         0         0         0         0         0
         0         0         0         0         0         0         0         0
         0         0         0         0         0         0         0         0
         0         0         0         0         0         0         0         0
         0         0         0         0         0         0         0         0
         0         0         0         0         0         0         0         0
         0         0         0         0         0         0         0         0
         0         0         0         0         0         0         0         0
         0         0         0         0         0         0         0         0
         0         0         0         0         0         0         0         0
         0         0         0         0         0         0         0         0
         0         0         0         0         0         0         0         0
         0         0         0         0         0         0         0         0
         0         0         0         0         0         0         0         0
         0         0         0         0         0         0         0         0
         0         0         0         0         0         0         0         0
         0         0         0         0         0         0         0         0
         0         0         0         0         0         0         0         0
         0         0         0         0         0         0         0         0
         0         0         0         0         0         0         0         0
         0         0         0         0         0         0         0         0
         0         0         0         0         0         0         0         0
         0         0         0         0         0         0         0         0
         0         0         0         0         0         0         0         0
         0         0         0         0         0         0         0         0
         0         0         0         0         0         0         0         0
         0         0         0         0         0         0         0         0
         0         0         0         0         0         0         0         0
         0         0         0         0         0         0         0         0
         0         0         0         0         0         0         0         0
         0         0         0         0         0         0         0         0
         0         0         0         0         0         0         0         0
         0         0         0         0         0         0         0         0
         0         0         0         0         0         0         0         0
         0         0         0         0         0         0         0         0
         0         0         0         0         0         0         0         0
         0         0         0         0         0         0         0         0
         0         0         0         0         0         0         0         0
         0         0         0         0         0         0         0         0
         0         0         0         0         0         0         0         0
         0         0         0         0         0         0         0         0
         0         0         0         0         0         0         0         0
         0         0         0         0         0         0         0         0
         0         0         0         0         0         0         0         0
         0         0         0         0         0         0         0         0
         0         0         0         0         0         0         0         0
         0         0         0         0         0         0         0         0
         0         0         0         0         0         0         0         0
         0         0         0         0         0         0         0         0
         0         0         0         0         0         0         0         0
         0         0         0         0         0         0         0         0
         0         0         0         0         0         0         0         0
         0         0         0         0         0         0         0         0
         0         0         0         0         0         0         0         0
         0         0         0         0         0         0         0         0
         0         0         0         0         0         0         0         0
         0         0         0         0         0         0         0         0
         0         0         0         0         0         0         0         0
         0         0         0         0         0         0         0         0
         0         0         0         0         0         0         0         0
         0         0         0         0         0         0         0         0
         0         0         0         0         0         0         0         0
         0         0         0         0         0         0         0         0
         0         0         0         0         0         0         0         0
         0         0         0         0         0         0         0         0
         0         0         0         0         0         0         0         0
         0         0         0         0         0         0         0         0
         0         0         0         0         0         0         0         0
         0         0         0         0         0         0         0         0
         0         0         0         0         0         0         0         0
         0         0         0         0         0         0         0         0
         0         0         0         0         0         0         0         0
         0         0         0         0         0         0         0         0
         0         0         0         0         0         0         0         0
         0         0         0         0         0         0         0         0
         0         0         0         0         0         0         0         0
         0         0         0         0         0         0         0         0
         0         0         0         0         0         0         0         0
         0         0         0         0         0         0         0         0
         0         0         0         0         0         0         0         0
         0         0         0         0         0         0         0         0
         0         0         0         0         0         0         0         0
         0         0         0         0         0         0         0         0
         0         0         0         0         0         0         0         0
         0         0         0         0         0         0         0         0
         0         0         0         0         0         0         0         0
         0         0         0         0         0         0         0         0
         0         0         0         0         0         0         0         0
         0         0         0         0         0         0         0         0
         0         0         0         0         0         0         0         0
         0         0         0         0         0         0         0         0
         0         0         0         0         0         0         0         0
         0         0         0         0         0         0         0         0
         0         0         0         0         0         0         0         0
         0         0         0         0         0         0         0         0
         0         0         0         0         0         0         0         0
         0         0         0         0         0         0         0         0
         0         0         0         0         0         0         0         0
         0         0         0         0         0         0         0         0
         0         0         0         0         0         0         0         0
         0         0         0         0         0         0         0         0
         0         0         0         0         0         0         0         0
         0         0         0         0         0         0         0         0
         0         0         0         0         0         0         0         0
         0         0         0         0         0         0         0         0
         0         0         0         0         0         0         0         0
         0         0         0         0         0         0         0         0
         0         0         0         0         0         0         0         0
         0         0         0         0         0         0         0         0
         0         0         0         0         0         0         0         0
         0         0         0         0         0         0         0         0
         0         0         0         0         0         0         0         0
         0         0         0         0         0         0         0         0
         0         0         0         0         0         0         0         0
         0         0         0         0         0         0         0         0
         0         0         0         0         0         0         0         0
         0         0         0         0         0         0         0         0
         0         0         0         0         0         0         0         0
         0         0         0         0         0         0         0         0
         0         0         0         0         0         0         0         0
         0         0         0         0         0         0         0         0
         0         0         0         0         0         0         0         0
         0         0         0         0         0         0         0         0
         0         0         0         0         0         0         0         0
         0         0         0         0         0         0         0         0
         0         0         0         0         0         0         0         0
         0         0         0         0         0         0         0         0
         0         0         0         0         0         0         0         0
         0         0         0         0         0         0         0         0
         0         0         0         0         0         0         0         0
         0         0         0         0         0         0         0         0
         0         0         0         0         0         0         0         0
         0         0         0         0         0         0         0         0
         0         0         0         0         0         0         0         0
         0         0         0         0         0         0         0         0
         0         0         0         0         0         0         0         0
         0         0         0         0         0         0         0         0
         0         0         0         0         0         0         0         0
         0         0         0         0         0         0         0         0
         0         0         0         0         0         0         0         0
         0         0         0         0         0         0         0         0
         0         0         0         0         0         0         0         0
         0         0         0         0         0         0         0         0
         0         0         0         0         0         0         0         0
         0         0         0         0         0         0         0         0
         0         0         0         0         0         0         0         0
         0         0         0         0         0         0         0         0
         0         0         0         0         0         0         0         0
         0         0         0         0         0         0         0         0
         0         0         0         0         0         0         0         0
         0         0         0         0         0         0         0         0
         0         0         0         0         0         0         0         0
         0         0         0         0         0         0         0         0
         0         0         0         0         0         0         0         0
         0         0         0         0         0         0         0         0
         0         0         0         0         0         0         0         0
         0         0         0         0         0         0         0         0
         0         0         0         0         0         0         0         0
         0         0         0         0         0         0         0         0
         0         0         0         0         0         0         0         0
         0         0         0         0         0         0         0         0
         0         0         0         0         0         0         0         0
         0         0         0         0         0         0         0         0
         0         0         0         0         0         0         0         0
         0         0         0         0         0         0         0         0
         0         0         0         0         0         0         0         0
         0         0         0         0         0         0         0         0
         0         0         0         0         0         0         0         0
         0         0         0         0         0         0         0         0
         0         0         0         0         0         0         0         0
         0         0         0         0         0         0         0         0
         0         0         0         0         0         0         0         0
         0         0         0         0         0         0         0         0
         0         0         0         0         0         0         0         0
         0         0         0         0         0         0         0         0
         0         0         0         0         0         0         0         0
         0         0         0         0         0         0         0         0
         0         0         0         0         0         0         0         0
         0         0         0         0         0         0         0         0
         0         0         0         0         0         0         0         0
         0         0         0         0         0         0         0         0
         0         0         0         0         0         0         0         0
         0         0         0         0         0         0         0         0
         0         0         0         0         0         0         0         0
         0         0         0         0         0         0         0         0
         0         0         0         0         0         0         0         0
         0         0         0         0         0         0         0         0
         0         0         0         0         0         0         0         0
         0         0         0         0         0         0         0         0
         0         0         0         0         0         0         0         0
         0         0         0         0         0         0         0         0
         0         0         0         0         0         0         0         0
         0         0         0         0         0         0         0         0
         0         0         0         0         0         0         0         0
         0         0         0         0         0         0         0         0
         0         0         0         0         0         0         0         0
         0         0         0         0         0         0         0         0
         0         0         0         0         0         0         0         0
         0         0         0         0         0         0         0         0
         0         0         0         0         0         0         0         0
         0         0         0         0         0         0         0         0
         0         0         0         0         0         0         0         0
         0         0         0         0         0         0         0         0
         0         0         0         0         0         0         0         0
         0         0         0         0         0         0         0         0
         0         0         0         0         0         0         0         0
         0         0         0         0         0         0         0         0
         0         0         0         0         0         0         0         0
         0         0         0         0         0         0         0         0
         0         0         0         0         0         0         0         0
         0         0         0         0         0         0         0         0
         0         0         0         0         0         0         0         0
         0         0         0         0         0         0         0         0
         0         0         0         0         0         0         0         0
         0         0         0         0         0         0         0         0
         0         0         0         0         0         0         0         0
         0         0         0         0         0         0         0         0
         0         0         0         0         0         0         0         0
         0         0         0         0         0         0         0         0
         0         0         0         0         0         0         0         0
         0         0         0         0         0         0         0         0
         0         0         0         0         0         0         0         0
         0         0         0         0         0         0         0         0
         0         0         0         0         0         0         0         0
         0         0         0         0         0         0         0         0
         0         0         0         0         0         0         0         0
         0         0         0         0         0         0         0         0
         0         0         0         0         0         0         0         0
         0         0         0         0         0         0         0         0
         0         0         0         0         0         0         0         0
         0         0         0         0         0         0         0         0
         0         0         0         0         0         0         0         0
         0         0         0         0         0         0         0         0
         0         0         0         0         0         0         0         0
         0         0         0         0         0         0         0         0
         0         0         0         0         0         0         0         0
         0         0         0         0         0         0         0         0
         0         0         0         0         0         0         0         0
         0         0         0         0         0         0         0         0
         0         0         0         0         0         0         0         0
         0         0         0         0         0         0         0         0
         0         0         0         0         0         0         0         0
         0         0         0         0         0         0         0         0
         0         0         0         0         0         0         0         0
         0         0         0         0         0         0         0         0
         0         0         0         0         0         0         0         0
         0         0         0         0         0         0         0         0
         0         0         0         0         0         0         0         0
         0         0         0         0         0         0         0         0
         0         0         0         0         0         0         0         0
         0         0         0         0         0         0         0         0
         0         0         0         0         0         0         0         0
         0         0         0         0         0         0         0         0
         0         0         0         0         0         0         0         0
         0         0         0         0         0         0         0         0
         0         0         0         0         0         0         0         0
         0         0         0         0         0         0         0         0
         0         0         0         0         0         0         0         0
         0         0         0         0         0         0         0         0
         0         0         0         0         0         0         0         0
         0         0         0         0         0         0         0         0
         0         0         0         0         0         0         0         0
         0         0         0         0         0         0         0         0
         0         0         0         0         0         0         0         0
         0         0         0         0         0         0         0         0
         0         0         0         0         0         0         0         0
         0         0         0         0         0         0         0         0
         0         0         0         0         0         0         0         0
         0         0         0         0         0         0         0         0
         0         0         0         0         0         0         0         0
         0         0         0         0         0         0         0         0
         0         0         0         0         0         0         0         0
         0         0         0         0         0         0         0         0
         0         0         0         0         0         0         0         0
         0         0         0         0         0         0         0         0
         0         0         0         0         0         0         0         0
         0         0         0         0         0         0         0         0
         0         0         0         0         0         0         0         0
         0         0         0         0         0         0         0         0
         0         0         0         0         0         0         0         0
         0         0         0         0         0         0         0         0
         0         0         0         0         0         0         0         0
         0         0         0         0         0         0         0         0
         0         0         0         0         0         0         0         0
         0         0         0         0         0         0         0         0
         0         0         0         0         0         0         0         0
         0         0         0         0         0         0         0         0
         0         0         0         0         0         0         0         0
         0         0         0         0         0         0         0         0
         0         0         0         0         0         0         0         0
         0         0         0         0         0         0         0         0
         0         0         0         0         0         0         0         0
         0         0         0         0         0         0         0         0
         0         0         0         0         0         0         0         0
         0         0         0         0         0         0         0         0
         0         0         0         0         0         0         0         0
         0         0         0         0         0         0         0         0
         0         0         0         0         0         0         0         0
         0         0         0         0         0         0         0         0
         0         0         0         0         0         0         0         0
         0         0         0         0         0         0         0         0
         0         0         0         0         0         0         0         0
         0         0         0         0         0         0         0         0
         0         0         0         0         0         0         0         0
         0         0         0         0         0         0         0         0
         0         0         0         0         0         0         0         0
         0         0         0         0         0         0         0         0
         0         0         0         0         0         0         0         0
         0         0         0         0         0         0         0         0
         0         0         0         0         0         0         0         0
         0         0         0         0         0         0         0         0
         0         0         0         0         0         0         0         0
         0         0         0         0         0         0         0         0
         0         0         0         0         0         0         0         0
         0         0         0         0         0         0         0         0
         0         0         0         0         0         0         0         0
         0         0         0         0         0         0         0         0
         0         0         0         0         0         0         0         0
         0         0         0         0         0         0         0         0
         0         0         0         0         0         0         0         0
         0         0         0         0         0         0         0         0
         0         0         0         0         0         0         0         0
         0         0         0         0         0         0         0         0
         0         0         0         0         0         0         0         0
         0         0         0         0         0         0         0         0
         0         0         0         0         0         0         0         0
         0         0         0         0         0         0         0         0
         0         0         0         0         0         0         0         0
         0         0         0         0         0         0         0         0
         0         0         0         0         0         0         0         0
         0         0         0         0         0         0         0         0
         0         0         0         0         0         0         0         0
         0         0         0         0         0         0         0         0
         0         0         0         0         0         0         0         0
         0         0         0         0         0         0         0         0
         0         0         0         0         0         0         0         0
         0         0         0         0         0         0         0         0
         0         0         0         0         0         0         0         0
         0         0         0         0         0         0         0         0
         0         0         0         0         0         0         0         0
         0         0         0         0         0         0         0         0
         0         0         0         0         0         0         0         0
         0         0         0         0         0         0         0         0
         0         0         0         0         0         0         0         0
         0         0         0         0         0         0         0         0
         0         0         0         0         0         0         0         0
         0         0         0         0         0         0         0         0
         0         0         0         0         0         0         0         0
         0         0         0         0         0         0         0         0
         0         0         0         0         0         0         0         0
         0         0         0         0         0         0         0         0
         0         0         0         0         0         0         0         0
         0         0         0         0         0         0         0         0
         0         0         0         0         0         0         0         0
         0         0         0         0         0         0         0         0
         0         0         0         0         0         0         0         0
         0         0         0         0         0         0         0         0
         0         0         0         0         0         0         0         0
         0         0         0         0         0         0         0         0
         0         0         0         0         0         0         0         0
         0         0         0         0         0         0         0         0
         0         0         0         0         0         0         0         0
         0         0         0         0         0         0         0         0
         0         0         0         0         0         0         0         0
         0         0         0         0         0         0         0         0
         0         0         0         0         0         0         0         0
         0         0         0         0         0         0         0         0
         0         0         0         0         0         0         0         0
         0         0         0         0         0         0         0         0
         0         0         0         0         0         0         0         0
         0         0         0         0         0         0         0         0
         0         0         0         0         0         0         0         0
         0         0         0         0         0         0         0         0
         0         0         0         0         0         0         0         0
         0         0         0         0         0         0         0         0
         0         0         0         0         0         0         0         0
         0         0         0         0         0         0         0         0
         0         0         0         0         0         0         0         0
         0         0         0         0         0         0         0         0
         0         0         0         0         0         0         0         0
         0         0         0         0         0         0         0         0
         0         0         0         0         0         0         0         0
         0         0         0         0         0         0         0         0
         0         0         0         0         0         0         0         0
         0         0         0         0         0         0         0         0
         0         0         0         0         0         0         0         0
         0         0         0         0         0         0         0         0
         0         0         0         0         0         0         0         0
         0         0         0         0         0         0         0         0
         0         0         0         0         0         0         0         0
         0         0         0         0         0         0         0         0
         0         0         0         0         0         0         0         0
         0         0         0         0         0         0         0         0
         0         0         0         0         0         0         0         0
         0         0         0         0         0         0         0         0
         0         0         0         0         0         0         0         0
         0         0         0         0         0         0         0         0
         0         0         0         0         0         0         0         0
         0         0         0         0         0         0         0         0
         0         0         0         0         0         0         0         0
         0         0         0         0         0         0         0         0
         0         0         0         0         0         0         0         0
         0         0         0         0         0         0         0         0
         0         0         0         0         0         0         0         0
         0         0         0         0         0         0         0         0
         0         0         0         0         0         0         0         0
         0         0         0         0         0         0         0         0
         0         0         0         0         0         0         0         0
         0         0         0         0         0         0         0         0
         0         0         0         0         0         0         0         0
         0         0         0         0         0         0         0         0
         0         0         0         0         0         0         0         0
         0         0         0         0         0         0         0         0
         0         0         0         0         0         0         0         0
         0         0         0         0         0         0         0         0
         0         0         0         0         0         0         0         0
         0         0         0         0         0         0         0         0
         0         0         0         0         0         0         0         0
         0         0         0         0         0         0         0         0
         0         0         0         0         0         0         0         0
         0         0         0         0         0         0         0         0
         0         0         0         0         0         0         0         0
         0         0         0         0         0         0         0         0
         0         0         0         0         0         0         0         0
         0         0         0         0         0         0         0         0
         0         0         0         0         0         0         0         0
         0         0         0         0         0         0         0         0
         0         0         0         0         0         0         0         0
         0         0         0         0         0         0         0         0
         0         0         0         0         0         0         0         0
         0         0         0         0         0         0         0         0
         0         0         0         0         0         0         0         0
         0         0         0         0         0         0         0         0
         0         0         0         0         0         0         0         0
         0         0         0         0         0         0         0         0
         0         0         0         0         0         0         0         0
         0         0         0         0         0         0         0         0
         0         0         0         0         0         0         0         0
         0         0         0         0         0         0         0         0
         0         0         0         0         0         0         0         0
         0         0         0         0         0         0         0         0
         0         0         0         0         0         0         0         0
         0         0         0         0         0         0         0         0
         0         0         0         0         0         0         0         0
         0         0         0         0         0         0         0         0
         0         0         0         0         0         0         0         0
         0         0         0         0         0         0         0         0
         0         0         0         0         0         0         0         0
         0         0         0         0         0         0         0         0
         0         0         0         0         0         0         0         0
         0         0         0         0         0         0         0         0
         0         0         0         0         0         0         0         0
         0         0         0         0         0         0         0         0
         0         0         0         0         0         0         0         0
         0         0         0         0         0         0         0         0
         0         0         0         0         0         0         0         0
         0         0         0         0         0         0         0         0
         0         0         0         0         0         0         0         0
         0         0         0         0         0         0         0         0
         0         0         0         0         0         0         0         0
         0         0         0         0         0         0         0         0
         0         0         0         0         0         0         0         0
         0         0         0         0         0         0         0         0
         0         0         0         0         0         0         0         0
         0         0         0         0         0         0         0         0
         0         0         0         0         0         0         0         0
         0         0         0         0         0         0         0         0
         0         0         0         0         0         0         0         0
         0         0         0         0         0         0         0         0
         0         0         0         0         0         0         0         0
         0         0         0         0         0         0         0         0
         0         0         0         0         0         0         0         0
         0         0         0         0         0         0         0         0
         0         0         0         0         0         0         0         0
         0         0         0         0         0         0         0         0
         0         0         0         0         0         0         0         0
         0         0         0         0         0         0         0         0
         0         0         0         0         0         0         0         0
         0         0         0         0         0         0         0         0
         0         0         0         0         0         0         0         0
         0         0         0         0         0         0         0         0
         0         0         0         0         0         0         0         0
         0         0         0         0         0         0         0         0
         0         0         0         0         0         0         0         0
         0         0         0         0         0         0         0         0
         0         0         0         0         0         0         0         0
         0         0         0         0         0         0         0         0
         0         0         0         0         0         0         0         0
         0         0         0         0         0         0         0         0
         0         0         0         0         0         0         0         0
         0         0         0         0         0         0         0         0
         0         0         0         0         0         0         0         0
         0         0         0         0         0         0         0         0
         0         0         0         0         0         0         0         0
         0         0         0         0         0         0         0         0
         0         0         0         0         0         0         0         0
         0         0         0         0         0         0         0         0
         0         0         0         0         0         0         0         0
         0         0         0         0         0         0         0         0
         0         0         0         0         0         0         0         0
         0         0         0         0         0         0         0         0
         0         0         0         0         0         0         0         0
         0         0         0         0         0         0         0         0
         0         0         0         0         0         0         0         0
         0         0         0         0         0         0         0         0
         0         0         0         0         0         0         0         0
         0         0         0         0         0         0         0         0
         0         0         0         0         0         0         0         0
         0         0         0         0         0         0         0         0
         0         0         0         0         0         0         0         0
         0         0         0         0         0         0         0         0
         0         0         0         0         0         0         0         0
         0         0         0         0         0         0         0         0
         0         0         0         0         0         0         0         0
         0         0         0         0         0         0         0         0
         0         0         0         0         0         0         0         0
         0         0         0         0         0         0         0         0
         0         0         0         0         0         0         0         0
         0         0         0         0         0         0         0         0
         0         0         0         0         0         0         0         0
         0         0         0         0         0         0         0         0
         0         0         0         0         0         0         0         0
         0         0         0         0         0         0         0         0
         0         0         0         0         0         0         0         0
         0         0         0         0         0         0         0         0
         0         0         0         0         0         0         0         0
         0         0         0         0         0         0         0         0
         0         0         0         0         0         0         0         0
         0         0         0         0         0         0         0         0
         0         0         0         0         0         0         0         0
         0         0         0         0         0         0         0         0
         0         0         0         0         0         0         0         0
         0         0         0         0         0         0         0         0
         0         0         0         0         0         0         0         0
         0         0         0         0         0         0         0         0
         0         0         0         0         0         0         0         0
         0         0         0         0         0         0         0         0
         0         0         0         0         0         0         0         0
         0         0         0         0         0         0         0         0
         0         0         0         0         0         0         0         0
         0         0         0         0         0         0         0         0
         0         0         0         0         0         0         0         0
         0         0         0         0         0         0         0         0
         0         0         0         0         0         0         0         0
         0         0         0         0         0         0         0         0
         0         0         0         0         0         0         0         0
         0         0         0         0         0         0         0         0
         0         0         0         0         0         0         0         0
         0         0         0         0         0         0         0         0
         0         0         0         0         0         0         0         0
         0         0         0         0         0         0         0         0
         0         0         0         0         0         0         0         0
         0         0         0         0         0         0         0         0
         0         0         0         0         0         0         0         0
         0         0         0         0         0         0         0         0
         0         0         0         0         0         0         0         0
         0         0         0         0         0         0         0         0
         0         0         0         0         0         0         0         0
         0         0         0         0         0         0         0         0
         0         0         0         0         0         0         0         0
         0         0         0         0         0         0         0         0
         0         0         0         0         0         0         0         0
         0         0         0         0         0         0         0         0
         0         0         0         0         0         0         0         0
         0         0         0         0         0         0         0         0
         0         0         0         0         0         0         0         0
         0         0         0         0         0         0         0         0
         0         0         0         0         0         0         0         0
         0         0         0         0         0         0         0         0
         0         0         0         0         0         0         0         0
         0         0         0         0         0         0         0         0
         0         0         0         0         0         0         0         0
         0         0         0         0         0         0         0         0
         0         0         0         0         0         0         0         0
         0         0         0         0         0         0         0         0
         0         0         0         0         0         0         0         0
         0         0         0         0         0         0         0         0
         0         0         0         0         0         0         0         0
         0         0         0         0         0         0         0         0
         0         0         0         0         0         0         0         0
         0         0         0         0         0         0         0         0
         0         0         0         0         0         0         0         0
         0         0         0         0         0         0         0         0
         0         0         0         0         0         0         0         0
         0         0         0         0         0         0         0         0
         0         0         0         0         0         0         0         0
         0         0         0         0         0         0         0         0
         0         0         0         0         0         0         0         0
         0         0         0         0         0         0         0         0
         0         0         0         0         0         0         0         0
         0         0         0         0         0         0         0         0
         0         0         0         0         0         0         0         0
         0         0         0         0         0         0         0         0
         0         0         0         0         0         0         0         0
         0         0         0         0         0         0         0         0
         0         0         0         0         0         0         0         0
         0         0         0         0         0         0         0         0
         0         0         0         0         0         0         0         0
         0         0         0         0         0         0         0         0
         0         0         0         0         0         0         0         0
         0         0         0         0         0         0         0         0
         0         0         0         0         0         0         0         0
         0         0         0         0         0         0         0         0
         0         0         0         0         0         0         0         0
         0         0         0         0         0         0         0         0
         0         0         0         0         0         0         0         0
         0         0         0         0         0         0         0         0
         0         0         0         0         0         0         0         0
         0         0         0         0         0         0         0         0
         0         0         0         0         0         0         0         0
         0         0         0         0         0         0         0         0
         0         0         0         0         0         0         0         0
         0         0         0         0         0         0         0         0
         0         0         0         0         0         0         0         0
         0         0         0         0         0         0         0         0
         0         0         0         0         0         0         0         0
         0         0         0         0         0         0         0         0
         0         0         0         0         0         0         0         0
         0         0         0         0         0         0         0         0
         0         0         0         0         0         0         0         0
         0         0         0         0         0         0         0         0
         0         0         0         0         0         0         0         0
         0         0         0         0         0         0         0         0
         0         0         0         0         0         0         0         0
         0         0         0         0         0         0         0         0
         0         0         0         0         0         0         0         0
         0         0         0         0         0         0         0         0
         0         0         0         0         0         0         0         0
         0         0         0         0         0         0         0         0
         0         0         0         0         0         0         0         0
         0         0         0         0         0         0         0         0
         0         0         0         0         0         0         0         0
         0         0         0         0         0         0         0         0
         0         0         0         0         0         0         0         0
         0         0         0         0         0         0         0         0
         0         0         0         0         0         0         0         0
         0         0         0         0         0         0         0         0
         0         0         0         0         0         0         0         0
         0         0         0         0         0         0         0         0
         0         0         0         0         0         0         0         0
         0         0         0         0         0         0         0         0
         0         0         0         0         0         0         0         0
         0         0         0         0         0         0         0         0
         0         0         0         0         0         0         0         0
         0         0         0         0         0         0         0         0
         0         0         0         0         0         0         0         0
         0         0         0         0         0         0         0         0
         0         0         0         0         0         0         0         0
         0         0         0         0         0         0         0         0
         0         0         0         0         0         0         0         0
         0         0         0         0         0         0         0         0
         0         0         0         0         0         0         0         0
         0         0         0         0         0         0         0         0
         0         0         0         0         0         0         0         0
         0         0         0         0         0         0         0         0
         0         0         0         0         0         0         0         0
         0         0         0         0         0         0         0         0
         0         0         0         0         0         0         0         0
         0         0         0         0         0         0         0         0
         0         0         0         0         0         0         0         0
         0         0         0         0         0         0         0         0
         0         0         0         0         0         0         0         0
         0         0         0         0         0         0         0         0
         0         0         0         0         0         0         0         0
         0         0         0         0         0         0         0         0
         0         0         0         0         0         0         0         0
         0         0         0         0         0         0         0         0
         0         0         0         0         0         0         0         0
         0         0         0         0         0         0         0         0
         0         0         0         0         0         0         0         0
         0         0         0         0         0         0         0         0
         0         0         0         0         0         0         0         0
         0         0         0         0         0         0         0         0
         0         0         0         0         0         0         0         0
         0         0         0         0         0         0         0         0
         0         0         0         0         0         0         0         0
         0         0         0         0         0         0         0         0
         0         0         0         0         0         0         0         0
         0         0         0         0         0         0         0         0
         0         0         0         0         0         0         0         0
         0         0         0         0         0         0         0         0
         0         0         0         0         0         0         0         0
         0         0         0         0         0         0         0         0
         0         0         0         0         0         0         0         0
         0         0         0         0         0         0         0         0
         0         0         0         0         0         0         0         0
         0         0         0         0         0         0         0         0
         0         0         0         0         0         0         0         0
         0         0         0         0         0         0         0         0
         0         0         0         0         0         0         0         0
         0         0         0         0         0         0         0         0
         0         0         0         0         0         0         0         0
         0         0         0         0         0         0         0         0
         0         0         0         0         0         0         0         0
         0         0         0         0         0         0         0         0
         0         0         0         0         0         0         0         0
         0         0         0         0         0         0         0         0
         0         0         0         0         0         0         0         0
         0         0         0         0         0         0         0         0
         0         0         0         0         0         0         0         0
         0         0         0         0         0         0         0         0
         0         0         0         0         0         0         0         0
         0         0         0         0         0         0         0         0
         0         0         0         0         0         0         0         0
         0         0         0         0         0         0         0         0
         0         0         0         0         0         0         0         0
         0         0         0         0         0         0         0         0
         0         0         0         0         0         0         0         0
         0         0         0         0         0         0         0         0
         0         0         0         0         0         0         0         0
         0         0         0         0         0         0         0         0
         0         0         0         0         0         0         0         0
         0         0         0         0         0         0         0         0
         0         0         0         0         0         0         0         0
         0         0         0         0         0         0         0         0
         0         0         0         0         0         0         0         0
         0         0         0         0         0         0         0         0
         0         0         0         0         0         0         0         0
         0         0         0         0         0         0         0         0
         0         0         0         0         0         0         0         0
         0         0         0         0         0         0         0         0
         0         0         0         0         0         0         0         0
         0         0         0         0         0         0         0         0
         0         0         0         0         0         0         0         0
         0         0         0         0         0         0         0         0
         0         0         0         0         0         0         0         0
         0         0         0         0         0         0         0         0
         0         0         0         0         0         0         0         0
         0         0         0         0         0         0         0         0
         0         0         0         0         0         0         0         0
         0         0         0         0         0         0         0         0
         0         0         0         0         0         0         0         0
         0         0         0         0         0         0         0         0
         0         0         0         0         0         0         0         0
         0         0         0         0         0         0         0         0
         0         0         0         0         0         0         0         0
         0         0         0         0         0         0         0         0
         0         0         0         0         0         0         0         0
         0         0         0         0         0         0         0         0
         0         0         0         0         0         0         0         0
         0         0         0         0         0         0         0         0
         0         0         0         0         0         0         0         0
         0         0         0         0         0         0         0         0
         0         0         0         0         0         0         0         0
         0         0         0         0         0         0         0         0
         0         0         0         0         0         0         0         0
         0         0         0         0         0         0         0         0
         0         0         0         0         0         0         0         0
         0         0         0         0         0         0         0         0
         0         0         0         0         0         0         0         0
         0         0         0         0         0         0         0         0
         0         0         0         0         0         0         0         0
         0         0         0         0         0         0         0         0
         0         0         0         0         0         0         0         0
         0         0         0         0         0         0         0         0
         0         0         0         0         0         0         0         0
         0         0         0         0         0         0         0         0
         0         0         0         0         0         0         0         0
         0         0         0         0         0         0         0         0
         0         0         0         0         0         0         0         0
         0         0         0         0         0         0         0         0
         0         0         0         0         0         0         0         0
         0         0         0         0         0         0         0         0
         0         0         0         0         0         0         0         0
         0         0         0         0         0         0         0         0
         0         0         0         0         0         0         0         0
         0         0         0         0         0         0         0         0
         0         0         0         0         0         0         0         0
         0         0         0         0         0         0         0         0
         0         0         0         0         0         0         0         0
         0         0         0         0         0         0         0         0
         0         0         0         0         0         0         0         0
         0         0         0         0         0         0         0         0
         0         0         0         0         0         0         0         0
         0         0         0         0         0         0         0         0
         0         0         0         0         0         0         0         0
         0         0         0         0         0         0         0         0
         0         0         0         0         0         0         0         0
         0         0         0         0         0         0         0         0
         0         0         0         0         0         0         0         0
         0         0         0         0         0         0         0         0
         0         0         0         0         0         0         0         0
         0         0         0         0         0         0         0         0
         0         0         0         0         0         0         0         0
         0         0         0         0         0         0         0         0
         0         0         0         0         0         0         0         0
         0         0         0         0         0         0         0         0
         0         0         0         0         0         0         0         0
         0         0         0         0         0         0         0         0
         0         0         0         0         0         0         0         0
         0         0         0         0         0         0         0         0
         0         0         0         0         0         0         0         0
         0         0         0         0         0         0         0         0
         0         0         0         0         0         0         0         0
         0         0         0         0         0         0         0         0
         0         0         0         0         0         0         0         0
         0         0         0         0         0         0         0         0
         0         0         0         0         0         0         0         0
         0         0         0         0         0         0         0         0
         0         0         0         0         0         0         0         0
         0         0         0         0         0         0         0         0
         0         0         0         0         0         0         0         0
         0         0         0         0         0         0         0         0
         0         0         0         0         0         0         0         0
         0         0         0         0         0         0         0         0
         0         0         0         0         0         0         0         0
         0         0         0         0         0         0         0         0
         0         0         0         0         0         0         0         0
         0         0         0         0         0         0         0         0
         0         0         0         0         0         0         0         0
         0         0         0         0         0         0         0         0
         0         0         0         0         0         0         0         0
         0         0         0         0         0         0         0         0
         0         0         0         0         0         0         0         0
         0         0         0         0         0         0         0         0
         0         0         0         0         0         0         0         0
         0         0         0         0         0         0         0         0
         0         0         0         0         0         0         0         0
         0         0         0         0         0         0         0         0
         0         0         0         0         0         0         0         0
         0         0         0         0         0         0         0         0
         0         0         0         0         0         0         0         0
         0         0         0         0         0         0         0         0
         0         0         0         0         0         0         0         0
         0         0         0         0         0         0         0         0
         0         0         0         0         0         0         0         0
         0         0         0         0         0         0         0         0
         0         0         0         0         0         0         0         0
         0         0         0         0         0         0         0         0
         0         0         0         0         0         0         0         0
         0         0         0         0         0         0         0         0
         0         0         0         0         0         0         0         0
         0         0         0         0         0         0         0         0
         0         0         0         0         0         0         0         0
         0         0         0         0         0         0         0         0
         0         0         0         0         0         0         0         0
         0         0         0         0         0         0         0         0
         0         0         0         0         0         0         0         0
         0         0         0         0         0         0         0         0
         0         0         0         0         0         0         0         0
         0         0         0         0         0         0         0         0
         0         0         0         0         0         0         0         0
         0         0         0         0         0         0         0         0
         0         0         0         0         0         0         0         0
         0         0         0         0         0         0         0         0
         0         0         0         0         0         0         0         0
         0         0         0         0         0         0         0         0
         0         0         0         0         0         0         0         0
         0         0         0         0         0         0         0         0
         0         0         0         0         0         0         0         0
         0         0         0         0         0         0         0         0
         0         0         0         0         0         0         0         0
         0         0         0         0         0         0         0         0
         0         0         0         0         0         0         0         0
         0         0         0         0         0         0         0         0
         0         0         0         0         0         0         0         0
         0         0         0         0         0         0         0         0
         0         0         0         0         0         0         0         0
         0         0         0         0         0         0         0         0
         0         0         0         0         0         0         0         0
         0         0         0         0         0         0         0         0
         0         0         0         0         0         0         0         0
         0         0         0         0         0         0         0         0
         0         0         0         0         0         0         0         0
         0         0         0         0         0         0         0         0
         0         0         0         0         0         0         0         0
         0         0         0         0         0         0         0         0
         0         0         0         0         0         0         0         0
         0         0         0         0         0         0         0         0
         0         0         0         0         0         0         0         0
         0         0         0         0         0         0         0         0
         0         0         0         0         0         0         0         0
         0         0         0         0         0         0         0         0
         0         0         0         0         0         0         0         0
         0         0         0         0         0         0         0         0
         0         0         0         0         0         0         0         0
         0         0         0         0         0         0         0         0
         0         0         0         0         0         0         0         0
         0         0         0         0         0         0         0         0
         0         0         0         0         0         0         0         0
         0         0         0         0         0         0         0         0
         0         0         0         0         0         0         0         0
         0         0         0         0         0         0         0         0
         0         0         0         0         0         0         0         0
         0         0         0         0         0         0         0         0
         0         0         0         0         0         0         0         0
         0         0         0         0         0         0         0         0
         0         0         0         0         0         0         0         0
         0         0         0         0         0         0         0         0
         0         0         0         0         0         0         0         0
         0         0         0         0         0         0         0         0
         0         0         0         0         0         0         0         0
         0         0         0         0         0         0         0         0
         0         0         0         0         0         0         0         0
         0         0         0         0         0         0         0         0
         0         0         0         0         0         0         0         0
         0         0         0         0         0         0         0         0
         0         0         0         0         0         0         0         0
         0         0         0         0         0         0         0         0
         0         0         0         0         0         0         0         0
         0         0         0         0         0         0         0         0
         0         0         0         0         0         0         0         0
         0         0         0         0         0         0         0         0
         0         0         0         0         0         0         0         0
         0         0         0         0         0         0         0         0
         0         0         0         0         0         0         0         0
         0         0         0         0         0         0         0         0
         0         0         0         0         0         0         0         0
         0         0         0         0         0         0         0         0
         0         0         0         0         0         0         0         0
         0         0         0         0         0         0         0         0
         0         0         0         0         0         0         0         0
         0         0         0         0         0         0         0         0
         0         0         0         0         0         0         0         0
         0         0         0         0         0         0         0         0
         0         0         0         0         0         0         0         0
         0         0         0         0         0         0         0         0
         0         0         0         0         0         0         0         0
         0         0         0         0         0         0         0         0
         0         0         0         0         0         0         0         0
         0         0         0         0         0         0         0         0
         0         0         0         0         0         0         0         0
         0         0         0         0         0         0         0         0
         0         0         0         0         0         0         0         0
         0         0         0         0         0         0         0         0
         0         0         0         0         0         0         0         0
         0         0         0         0         0         0         0         0
         0         0         0         0         0         0         0         0
         0         0         0         0         0         0         0         0
         0         0         0         0         0         0         0         0
         0         0         0         0         0         0         0         0
         0         0         0         0         0         0         0         0
         0         0         0         0         0         0         0         0
         0         0         0         0         0         0         0         0
         0         0         0         0         0         0         0         0
         0         0         0         0         0         0         0         0
         0         0         0         0         0         0         0         0
         0         0         0         0         0         0         0         0
         0         0         0         0         0         0         0         0
         0         0         0         0         0         0         0         0
         0         0         0         0         0         0         0         0
         0         0         0         0         0         0         0         0
         0         0         0         0         0         0         0         0
         0         0         0         0         0         0         0         0
         0         0         0         0         0         0         0         0
         0         0         0         0         0         0         0         0
         0         0         0         0         0         0         0         0
         0         0         0         0         0         0         0         0
         0         0         0         0         0         0         0         0
         0         0         0         0         0         0         0         0
         0         0         0         0         0         0         0         0
         0         0         0         0         0         0         0         0
         0         0         0         0         0         0         0         0
         0         0         0         0         0         0         0         0
         0         0         0         0         0         0         0         0
         0         0         0         0         0         0         0         0
         0         0         0         0         0         0         0         0
         0         0         0         0         0         0         0         0
         0         0         0         0         0         0         0         0
         0         0         0         0         0         0         0         0
         0         0         0         0         0         0         0         0
         0         0         0         0         0         0         0         0
         0         0         0         0         0         0         0         0
         0         0         0         0         0         0         0         0
         0         0         0         0         0         0         0         0
         0         0         0         0         0         0         0         0
         0         0         0         0         0         0         0         0
         0         0         0         0         0         0         0         0
         0         0         0         0         0         0         0         0
         0         0         0         0         0         0         0         0
         0         0         0         0         0         0         0         0
         0         0         0         0         0         0         0         0
         0         0         0         0         0         0         0         0
         0         0         0         0         0         0         0         0
         0         0         0         0         0         0         0         0
         0         0         0         0         0         0         0         0
         0         0         0         0         0         0         0         0
         0         0         0         0         0         0         0         0
         0         0         0         0         0         0         0         0
         0         0         0         0         0         0         0         0
         0         0         0         0         0         0         0         0
         0         0         0         0         0         0         0         0
         0         0         0         0         0         0         0         0
         0         0         0         0         0         0         0         0
         0         0         0         0         0         0         0         0
         0         0         0         0         0         0         0         0
         0         0         0         0         0         0         0         0
         0         0         0         0         0         0         0         0
         0         0         0         0         0         0         0         0
         0         0         0         0         0         0         0         0
         0         0         0         0         0         0         0         0
         0         0         0         0         0         0         0         0
         0         0         0         0         0         0         0         0
         0         0         0         0         0         0         0         0
         0         0         0         0         0         0         0         0
         0         0         0         0         0         0         0         0
         0         0         0         0         0         0         0         0
         0         0         0         0         0         0         0         0
         0         0         0         0         0         0         0         0
         0         0         0         0         0         0         0         0
         0         0         0         0         0         0         0         0
         0         0         0         0         0         0         0         0
         0         0         0         0         0         0         0         0
         0         0         0         0         0         0         0         0
         0         0         0         0         0         0         0         0
         0         0         0         0         0         0         0         0
         0         0         0         0         0         0         0         0
         0         0         0         0         0         0         0         0
         0         0         0         0         0         0         0         0
         0         0         0         0         0         0         0         0
         0         0         0         0         0         0         0         0
         0         0         0         0         0         0         0         0
         0         0         0         0         0         0         0         0
         0         0         0         0         0         0         0         0
         0         0         0         0         0         0         0         0
         0         0         0         0         0         0         0         0
         0         0         0         0         0         0         0         0
         0         0         0         0         0         0         0         0
         0         0         0         0         0         0         0         0
         0         0         0         0         0         0         0         0
         0         0         0         0         0         0         0         0
         0         0         0         0         0         0         0         0
         0         0         0         0         0         0         0         0
         0         0         0         0         0         0         0         0
         0         0         0         0         0         0         0         0
         0         0         0         0         0         0         0         0
         0         0         0         0         0         0         0         0
         0         0         0         0         0         0         0         0
         0         0         0         0         0         0         0         0
         0         0         0         0         0         0         0         0
         0         0         0         0         0         0         0         0
         0         0         0         0         0         0         0         0
         0         0         0         0         0         0         0         0
         0         0         0         0         0         0         0         0
         0         0         0         0         0         0         0         0
         0         0         0         0         0         0         0         0
         0         0         0         0         0         0         0         0
         0         0         0         0         0         0         0         0
         0         0         0         0         0         0         0         0
         0         0         0         0         0         0         0         0
         0         0         0         0         0         0         0         0
         0         0         0         0         0         0         0         0
         0         0         0         0         0         0         0         0
         0         0         0         0         0         0         0         0
         0         0         0         0         0         0         0         0
         0         0         0         0         0         0         0         0
         0         0         0         0         0         0         0         0
         0         0         0         0         0         0         0         0
         0         0         0         0         0         0         0         0
         0         0         0         0         0         0         0         0
         0         0         0         0         0         0         0         0
         0         0         0         0         0         0         0         0
         0         0         0         0         0         0         0         0
         0         0         0         0         0         0         0         0
         0         0         0         0         0         0         0         0
         0         0         0         0         0         0         0         0
         0         0         0         0         0         0         0         0
         0         0         0         0         0         0         0         0
         0         0         0         0         0         0         0         0
         0         0         0         0         0         0         0         0
         0         0         0         0         0         0         0         0
         0         0         0         0         0         0         0         0
         0         0         0         0         0         0         0         0
         0         0         0         0         0         0         0         0
         0         0         0         0         0         0         0         0
         0         0         0         0         0         0         0         0
         0         0         0         0         0         0         0         0
         0         0         0         0         0         0         0         0
         0         0         0         0         0         0         0         0
         0         0         0         0         0         0         0         0
         0         0         0         0         0         0         0         0
         0         0         0         0         0         0         0         0
         0         0         0         0         0         0         0         0
         0         0         0         0         0         0         0         0
         0         0         0         0         0         0         0         0
         0         0         0         0         0         0         0         0
         0         0         0         0         0         0         0         0
         0         0         0         0         0         0         0         0
         0         0         0         0         0         0         0         0
         0         0         0         0         0         0         0         0
         0         0         0         0         0         0         0         0
         0         0         0         0         0         0         0         0
         0         0         0         0         0         0         0         0
         0         0         0         0         0         0         0         0
         0         0         0         0         0         0         0         0
         0         0         0         0         0         0         0         0
         0         0         0         0         0         0         0         0
         0         0         0         0         0         0         0         0
         0         0         0         0         0         0         0         0
         0         0         0         0         0         0         0         0
         0         0         0         0         0         0         0         0
         0         0         0         0         0         0         0         0
         0         0         0         0         0         0         0         0
         0         0         0         0         0         0         0         0
         0         0         0         0         0         0         0         0
         0         0         0         0         0         0         0         0
         0         0         0         0         0         0         0         0
         0         0         0         0         0         0         0         0
         0         0         0         0         0         0         0         0
         0         0         0         0         0         0         0         0
         0         0         0         0         0         0         0         0
         0         0         0         0         0         0         0         0
         0         0         0         0         0         0         0         0
         0         0         0         0         0         0         0         0
         0         0         0         0         0         0         0         0
         0         0         0         0         0         0         0         0
         0         0         0         0         0         0         0         0
         0         0         0         0         0         0         0         0
         0         0         0         0         0         0         0         0
         0         0         0         0         0         0         0         0
         0         0         0         0         0         0         0         0
         0         0         0         0         0         0         0         0
         0         0         0         0         0         0         0         0
         0         0         0         0         0         0         0         0
         0         0         0         0         0         0         0         0
         0         0         0         0         0         0         0         0
         0         0         0         0         0         0         0         0
         0         0         0         0         0         0         0         0
         0         0         0         0         0         0         0         0
         0         0         0         0         0         0         0         0
         0         0         0         0         0         0         0         0
         0         0         0         0         0         0         0         0
         0         0         0         0         0         0         0         0
         0         0         0         0         0         0         0         0
         0         0         0         0         0         0         0         0
         0         0         0         0         0         0         0         0
         0         0         0         0         0         0         0         0
         0         0         0         0         0         0         0         0
         0         0         0         0         0         0         0         0
         0         0         0         0         0         0         0         0
         0         0         0         0         0         0         0         0
         0         0         0         0         0         0         0         0
         0         0         0         0         0         0         0         0
         0         0         0         0         0         0         0         0
         0         0         0         0         0         0         0         0
         0         0         0         0         0         0         0         0
         0         0         0         0         0         0         0         0
         0         0         0         0         0         0         0         0
         0         0         0         0         0         0         0         0
         0         0         0         0         0         0         0         0
         0         0         0         0         0         0         0         0
         0         0         0         0         0         0         0         0
         0         0         0         0         0         0         0         0
         0         0         0         0         0         0         0         0
         0         0         0         0         0         0         0         0
         0         0         0         0         0         0         0         0
         0         0         0         0         0         0         0         0
         0         0         0         0         0         0         0         0
         0         0         0         0         0         0         0         0
         0         0         0         0         0         0         0         0
         0         0         0         0         0         0         0         0
         0         0         0         0         0         0         0         0
         0         0         0         0         0         0         0         0
         0         0         0         0         0         0         0         0
         0         0         0         0         0         0         0         0
         0         0         0         0         0         0         0         0
         0         0         0         0         0         0         0         0
         0         0         0         0         0         0         0         0
         0         0         0         0         0         0         0         0
         0         0         0         0         0         0         0         0
         0         0         0         0         0         0         0         0
         0         0         0         0         0         0         0         0
         0         0         0         0         0         0         0         0
         0         0         0         0         0         0         0         0
         0         0         0         0         0         0         0         0
         0         0         0         0         0         0         0         0
         0         0         0         0         0         0         0         0
         0         0         0         0         0         0         0         0
         0         0         0         0         0         0         0         0
         0         0         0         0         0         0         0         0
         0         0         0         0         0         0         0         0
         0         0         0         0         0         0         0         0
         0         0         0         0         0         0         0         0
         0         0         0         0         0         0         0         0
         0         0         0         0         0         0         0         0
         0         0         0         0         0         0         0         0
         0         0         0         0         0         0         0         0
         0         0         0         0         0         0         0         0
         0         0         0         0         0         0         0         0
         0         0         0         0         0         0         0         0
         0         0         0         0         0         0         0         0
         0         0         0         0         0         0         0         0
         0         0         0         0         0         0         0         0
         0         0         0         0         0         0         0         0
         0         0         0         0         0         0         0         0
         0         0         0         0         0         0         0         0
         0         0         0         0         0         0         0         0
         0         0         0         0         0         0         0         0
         0         0         0         0         0         0         0         0
         0         0         0         0         0         0         0         0
         0         0         0         0         0         0         0         0
         0         0         0         0         0         0         0         0
         0         0         0         0         0         0         0         0
         0         0         0         0         0         0         0         0
         0         0         0         0         0         0         0         0
         0         0         0         0         0         0         0         0
         0         0         0         0         0         0         0         0
         0         0         0         0         0         0         0         0
         0         0         0         0         0         0         0         0
         0         0         0         0         0         0         0         0
         0         0         0         0         0         0         0         0
         0         0         0         0         0         0         0         0
         0         0         0         0         0         0         0         0
         0         0         0         0         0         0         0         0
         0         0         0         0         0         0         0         0
         0         0         0         0         0         0         0         0
         0         0         0         0         0         0         0         0
         0         0         0         0         0         0         0         0
         0         0         0         0         0         0         0         0
         0         0         0         0         0         0         0         0
         0         0         0         0         0         0         0         0
         0         0         0         0         0         0         0         0
         0         0         0         0         0         0         0         0
         0         0         0         0         0         0         0         0
         0         0         0         0         0         0         0         0
         0         0         0         0         0         0         0         0
         0         0         0         0         0         0         0         0
         0         0         0         0         0         0         0         0
         0         0         0         0         0         0         0         0
         0         0         0         0         0         0         0         0
         0         0         0         0         0         0         0         0
         0         0         0         0         0         0         0         0
         0         0         0         0         0         0         0         0
         0         0         0         0         0         0         0         0
         0         0         0         0         0         0         0         0
         0         0         0         0         0         0         0         0
         0         0         0         0         0         0         0         0
         0         0         0         0         0         0         0         0
         0         0         0         0         0         0         0         0
         0         0         0         0         0         0         0         0
         0         0         0         0         0         0         0         0
         0         0         0         0         0         0         0         0
         0         0         0         0         0         0         0         0
         0         0         0         0         0         0         0         0
         0         0         0         0         0         0         0         0
         0         0         0         0         0         0         0         0
         0         0         0         0         0         0         0         0
         0         0         0         0         0         0         0         0
         0         0         0         0         0         0         0         0
         0         0         0         0         0         0         0         0
         0         0         0         0         0         0         0         0
         0         0         0         0         0         0         0         0
         0         0         0         0         0         0         0         0
         0         0         0         0         0         0         0         0
         0         0         0         0         0         0         0         0
         0         0         0         0         0         0         0         0
         0         0         0         0         0         0         0         0
         0         0         0         0         0         0         0         0
         0         0         0         0         0         0         0         0
         0         0         0         0         0         0         0         0
         0         0         0         0         0         0         0         0
         0         0         0         0         0         0         0         0
         0         0         0         0         0         0         0         0
         0         0         0         0         0         0         0         0
         0         0         0         0         0         0         0         0
         0         0         0         0         0         0         0         0
         0         0         0         0         0         0         0         0
         0         0         0         0         0         0         0         0
         0         0         0         0         0         0         0         0
         0         0         0         0         0         0         0         0
         0         0         0         0         0         0         0         0
         0         0         0         0         0         0         0         0
         0         0         0         0         0         0         0         0
         0         0         0         0         0         0         0         0
         0         0         0         0         0         0         0         0
         0         0         0         0         0         0         0         0
         0         0         0         0         0         0         0         0
         0         0         0         0         0         0         0         0
         0         0         0         0         0         0         0         0
         0         0         0         0         0         0         0         0
         0         0         0         0         0         0         0         0
         0         0         0         0         0         0         0         0
         0         0         0         0         0         0         0         0
         0         0         0         0         0         0         0         0
         0         0         0         0         0         0         0         0
         0         0         0         0         0         0         0         0
         0         0         0         0         0         0         0         0
         0         0         0         0         0         0         0         0
         0         0         0         0         0         0         0         0
         0         0         0         0         0         0         0         0
         0         0         0         0         0         0         0         0
         0         0         0         0         0         0         0         0
         0         0         0         0         0         0         0         0
         0         0         0         0         0         0         0         0
         0         0         0         0         0         0         0         0
         0         0         0         0         0         0         0         0
         0         0         0         0         0         0         0         0
         0         0         0         0         0         0         0         0
         0         0         0         0         0         0         0         0
         0         0         0         0         0         0         0         0
         0         0         0         0         0         0         0         0
         0         0         0         0         0         0         0         0
         0         0         0         0         0         0         0         0
         0         0         0         0         0         0         0         0
         0         0         0         0         0         0         0         0
         0         0         0         0         0         0         0         0
         0         0         0         0         0         0         0         0
         0         0         0         0         0         0         0         0
         0         0         0         0         0         0         0         0
         0         0         0         0         0         0         0         0
         0         0         0         0         0         0         0         0
         0         0         0         0         0         0         0         0
         0         0         0         0         0         0         0         0
         0         0         0         0         0         0         0         0
         0         0         0         0         0         0         0         0
         0         0         0         0         0         0         0         0
         0         0         0         0         0         0         0         0
         0         0         0         0         0         0         0         0
         0         0         0         0         0         0         0         0
         0         0         0         0         0         0         0         0
         0         0         0         0         0         0         0         0
         0         0         0         0         0         0         0         0
         0         0         0         0         0         0         0         0
         0         0         0         0         0         0         0         0
         0         0         0         0         0         0         0         0
         0         0         0         0         0         0         0         0
         0         0         0         0         0         0         0         0
         0         0         0         0         0         0         0         0
         0         0         0         0         0         0         0         0
         0         0         0         0         0         0         0         0
         0         0         0         0         0         0         0         0
         0         0         0         0         0         0         0         0
         0         0         0         0         0         0         0         0
         0         0         0         0         0         0         0         0
         0         0         0         0         0         0         0         0
         0         0         0         0         0         0         0         0
         0         0         0         0         0         0         0         0
         0         0         0         0         0         0         0         0
         0         0         0         0         0         0         0         0
         0         0         0         0         0         0         0         0
         0         0         0         0         0         0         0         0
         0         0         0         0         0         0         0         0
         0         0         0         0         0         0         0         0
         0         0         0         0         0         0         0         0
         0         0         0         0         0         0         0         0
         0         0         0         0         0         0         0         0
         0         0         0         0         0         0         0         0
         0         0         0         0         0         0         0         0
         0         0         0         0         0         0         0         0
         0         0         0         0         0         0         0         0
         0         0         0         0         0         0         0         0
         0         0         0         0         0         0         0         0
         0         0         0         0         0         0         0         0
         0         0         0         0         0         0         0         0
         0         0         0         0         0         0         0         0
         0         0         0         0         0         0         0         0
         0         0         0         0         0         0         0         0
         0         0         0         0         0         0         0         0
         0         0         0         0         0         0         0         0
         0         0         0         0         0         0         0         0
         0         0         0         0         0         0         0         0
         0         0         0         0         0         0         0         0
         0         0         0         0         0         0         0         0
         0         0         0         0         0         0         0         0
         0         0         0         0         0         0         0         0
         0         0         0         0         0         0         0         0
         0         0         0         0         0         0         0         0
         0         0         0         0         0         0         0         0
         0         0         0         0         0         0         0         0
         0         0         0         0         0         0         0         0
         0         0         0         0         0         0         0         0
         0         0         0         0         0         0         0         0
         0         0         0         0         0         0         0         0
         0         0         0         0         0         0         0         0
         0         0         0         0         0         0         0         0
         0         0         0         0         0         0         0         0
         0         0         0         0         0         0         0         0
         0         0         0         0         0         0         0         0
         0         0         0         0         0         0         0         0
         0         0         0         0         0         0         0         0
         0         0         0         0         0         0         0         0
         0         0         0         0         0         0         0         0
         0         0         0         0         0         0         0         0
         0         0         0         0         0         0         0         0
         0         0         0         0         0         0         0         0
         0         0         0         0         0         0         0         0
         0         0         0         0         0         0         0         0
         0         0         0         0         0         0         0         0
         0         0         0         0         0         0         0         0
         0         0         0         0         0         0         0         0
         0         0         0         0         0         0         0         0
         0         0         0         0         0         0         0         0
         0         0         0         0         0         0         0         0
         0         0         0         0         0         0         0         0
         0         0         0         0         0         0         0         0
         0         0         0         0         0         0         0         0
         0         0         0         0         0         0         0         0
         0         0         0         0         0         0         0         0
         0         0         0         0         0         0         0         0
         0         0         0         0         0         0         0         0
         0         0         0         0         0         0         0         0
         0         0         0         0         0         0         0         0
         0         0         0         0         0         0         0         0
         0         0         0         0         0         0         0         0
         0         0         0         0         0         0         0         0
         0         0         0         0         0         0         0         0
         0         0         0         0         0         0         0         0
         0         0         0         0         0         0         0         0
         0         0         0         0         0         0         0         0
         0         0         0         0         0         0         0         0
         0         0         0         0         0         0         0         0
         0         0         0         0         0         0         0         0
         0         0         0         0         0         0         0         0
         0         0         0         0         0         0         0         0
         0         0         0         0         0         0         0         0
         0         0         0         0         0         0         0         0
         0         0         0         0         0         0         0         0
         0         0         0         0         0         0         0         0
         0         0         0         0         0         0         0         0
         0         0         0         0         0         0         0         0
         0         0         0         0         0         0         0         0
         0         0         0         0

         0         0 !NGRP NST2


         0         0 !NUMLP NUMLPH

         0 !NCRTERM: cross-terms

